<LesHouchesEvents version="3.0">
<header>
<!--
#*********************************************************************
#                                                                    *
#                        MadGraph5_aMC@NLO                           *
#                                                                    *
#                           Going Beyond                             *
#                                                                    *
#                   http://madgraph.hep.uiuc.edu                     *
#                   http://madgraph.phys.ucl.ac.be                   *
#                   http://amcatnlo.cern.ch                          *
#                                                                    *
#                     The MadGraph5_aMC@NLO team                     *
#                                                                    *
#....................................................................*
#                                                                    *
# This file contains all the information necessary to reproduce      *
# the events generated:                                              *
#                                                                    *
# 1. software version                                                *
# 2. proc_card          : code generation info including model       *
# 3. param_card         : model primary parameters in the LH format  *
# 4. run_card           : running parameters (collider and cuts)     *
# 5. pythia_card        : present only if pythia has been run        *
# 6. pgs_card           : present only if pgs has been run           *
# 7. delphes_cards      : present only if delphes has been run       *
#                                                                    *
#                                                                    *
#*********************************************************************
-->
<MGVersion>
#5.2.2.3
</MGVersion>
<MG5ProcCard>
#************************************************************
#*                     MadGraph5_aMC@NLO                    *
#*                                                          *
#*                *                       *                 *
#*                  *        * *        *                   *
#*                    * * * * 5 * * * *                     *
#*                  *        * *        *                   *
#*                *                       *                 *
#*                                                          *
#*                                                          *
#*         VERSION 2.2.3                 2015-02-10         *
#*                                                          *
#*    The MadGraph5_aMC@NLO Development Team - Find us at   *
#*    https://server06.fynu.ucl.ac.be/projects/madgraph     *
#*                                                          *
#************************************************************
#*                                                          *
#*               Command File for MadGraph5_aMC@NLO         *
#*                                                          *
#*     run as ./bin/mg5_aMC  filename                       *
#*                                                          *
#************************************************************
set group_subprocesses Auto
set ignore_six_quark_processes False
set loop_optimized_output True
set gauge unitary
set complex_mass_scheme False
import model sm
define p = g u c d s u~ c~ d~ s~
define j = g u c d s u~ c~ d~ s~
define l+ = e+ mu+
define l- = e- mu-
define vl = ve vm vt
define vl~ = ve~ vm~ vt~
import model Zprime_UFO
generate p p > zph, zph > j j
add process p p > zph, zph > b b~
output Dijet_signal
</MG5ProcCard>
<MGProcCard>
#*********************************************************************
#                        MadGraph/MadEvent                           *
#                   http://madgraph.hep.uiuc.edu                     *
#                                                                    *
#                          proc_card.dat                             *
#*********************************************************************
#                                                                    *
#            This Files is generated by MADGRAPH 5                   *
#                                                                    *
# WARNING: This Files is generated for MADEVENT (compatibility issue)*
#          This files is NOT a valid MG4 proc_card.dat               *
#          Running this in MG4 will NEVER reproduce the result of MG5*
#                                                                    *
#*********************************************************************
#*********************************************************************
# Process(es) requested : mg2 input                                  *
#*********************************************************************
# Begin PROCESS # This is TAG. Do not modify this line
p p > zph , zph > j j           #Process
# Be carefull the coupling are here in MG5 convention
          
end_coup           # End the couplings input

done               # this tells MG there are no more procs
# End PROCESS  # This is TAG. Do not modify this line
#*********************************************************************
# Model information                                                  *
#*********************************************************************
# Begin MODEL  # This is TAG. Do not modify this line
Zprime_UFO
# End   MODEL  # This is TAG. Do not modify this line
#*********************************************************************
# Start multiparticle definitions                                    *
#*********************************************************************
# Begin MULTIPARTICLES # This is TAG. Do not modify this line

# End  MULTIPARTICLES # This is TAG. Do not modify this line
</MGProcCard>
<MGRunCard>
#*********************************************************************
#                       MadGraph5_aMC@NLO                            *
#                                                                    *
#                     run_card.dat MadEvent                          *
#                                                                    *
#  This file is used to set the parameters of the run.               *
#                                                                    *
#  Some notation/conventions:                                        *
#                                                                    *
#   Lines starting with a '# ' are info or comments                  *
#                                                                    *
#   mind the format:   value    = variable     ! comment             *
#*********************************************************************
#
#*******************                                                 
# Running parameters
#*******************                                                 
#                                                                    
#*********************************************************************
# Tag name for the run (one word)                                    *
#*********************************************************************
  tag_1     = run_tag ! name of the run 
#*********************************************************************
# Run to generate the grid pack                                      *
#*********************************************************************
  .false.     = gridpack  !True = setting up the grid pack
#*********************************************************************
# Number of events and rnd seed                                      *
# Warning: Do not generate more than 1M events in a single run       *
# If you want to run Pythia, avoid more than 50k events in a run.    *
#*********************************************************************
  2000 = nevents ! Number of unweighted events requested 
 525 = iseed   ! rnd seed (0=assigned automatically=default))
#*********************************************************************
# Collider type and energy                                           *
# lpp: 0=No PDF, 1=proton, -1=antiproton, 2=photon from proton,      *
#                                         3=photon from electron     *
#*********************************************************************
        1     = lpp1    ! beam 1 type 
        1     = lpp2    ! beam 2 type
     4000     = ebeam1  ! beam 1 total energy in GeV
     4000     = ebeam2  ! beam 2 total energy in GeV
#*********************************************************************
# Beam polarization from -100 (left-handed) to 100 (right-handed)    *
#*********************************************************************
        0     = polbeam1 ! beam polarization for beam 1
        0     = polbeam2 ! beam polarization for beam 2
#*********************************************************************
# PDF CHOICE: this automatically fixes also alpha_s and its evol.    *
#*********************************************************************
 'nn23lo1'    = pdlabel     ! PDF set                                     
 230000    = lhaid     ! if pdlabel=lhapdf, this is the lhapdf number
#*********************************************************************
# Renormalization and factorization scales                           *
#*********************************************************************
 F        = fixed_ren_scale  ! if .true. use fixed ren scale
 F        = fixed_fac_scale  ! if .true. use fixed fac scale
 91.1880  = scale            ! fixed ren scale
 91.1880  = dsqrt_q2fact1    ! fixed fact scale for pdf1
 91.1880  = dsqrt_q2fact2    ! fixed fact scale for pdf2
 1        = scalefact        ! scale factor for event-by-event scales
#*********************************************************************
# Matching - Warning! ickkw > 1 is still beta
#*********************************************************************
 0        = ickkw            ! 0 no matching, 1 MLM, 2 CKKW matching
 1        = highestmult      ! for ickkw=2, highest mult group
 1        = ktscheme         ! for ickkw=1, 1 Durham kT, 2 Pythia pTE
 1        = alpsfact         ! scale factor for QCD emission vx
 F        = chcluster        ! cluster only according to channel diag
 T        = pdfwgt           ! for ickkw=1, perform pdf reweighting
 5        = asrwgtflavor     ! highest quark flavor for a_s reweight
 T        = clusinfo         ! include clustering tag in output
 3.0      = lhe_version       ! Change the way clustering information pass to shower.        
#*********************************************************************
#**********************************************************
#
#**********************************************************
# Automatic ptj and mjj cuts if xqcut > 0
# (turn off for VBF and single top processes)
#**********************************************************
   T  = auto_ptj_mjj  ! Automatic setting of ptj and mjj
#**********************************************************
#                                                                    
#**********************************
# BW cutoff (M+/-bwcutoff*Gamma)
#**********************************
  15  = bwcutoff      ! (M+/-bwcutoff*Gamma)
#**********************************************************
# Apply pt/E/eta/dr/mij cuts on decay products or not
# (note that etmiss/ptll/ptheavy/ht/sorted cuts always apply)
#**********************************************************
   T  = cut_decays    ! Cut decay products 
#*************************************************************
# Number of helicities to sum per event (0 = all helicities)
# 0 gives more stable result, but longer run time (needed for
# long decay chains e.g.).
# Use >=2 if most helicities contribute, e.g. pure QCD.
#*************************************************************
   0  = nhel          ! Number of helicities used per event
#*******************                                                 
# Standard Cuts
#*******************                                                 
#                                                                    
#*********************************************************************
# Minimum and maximum pt's (for max, -1 means no cut)                *
#*********************************************************************
 20  = ptj       ! minimum pt for the jets 
  0  = ptb       ! minimum pt for the b 
 10  = pta       ! minimum pt for the photons 
 10  = ptl       ! minimum pt for the charged leptons 
  0  = misset    ! minimum missing Et (sum of neutrino's momenta)
  0  = ptheavy   ! minimum pt for one heavy final state
 1.0 = ptonium   ! minimum pt for the quarkonium states
 -1  = ptjmax    ! maximum pt for the jets
 -1  = ptbmax    ! maximum pt for the b
 -1  = ptamax    ! maximum pt for the photons
 -1  = ptlmax    ! maximum pt for the charged leptons
 -1  = missetmax ! maximum missing Et (sum of neutrino's momenta)
#*********************************************************************
# Minimum and maximum E's (in the center of mass frame)              *
#*********************************************************************
  0  = ej     ! minimum E for the jets 
  0  = eb     ! minimum E for the b 
  0  = ea     ! minimum E for the photons 
  0  = el     ! minimum E for the charged leptons 
 -1   = ejmax ! maximum E for the jets
 -1   = ebmax ! maximum E for the b
 -1   = eamax ! maximum E for the photons
 -1   = elmax ! maximum E for the charged leptons
#*********************************************************************
# Maximum and minimum absolute rapidity (for max, -1 means no cut)   *
#*********************************************************************
   5  = etaj    ! max rap for the jets 
  -1  = etab    ! max rap for the b
 2.5  = etaa    ! max rap for the photons 
 2.5  = etal    ! max rap for the charged leptons 
 0.6  = etaonium ! max rap for the quarkonium states
   0  = etajmin ! min rap for the jets
   0  = etabmin ! min rap for the b
   0  = etaamin ! min rap for the photons
   0  = etalmin ! main rap for the charged leptons
#*********************************************************************
# Minimum and maximum DeltaR distance                                *
#*********************************************************************
 0.4 = drjj    ! min distance between jets 
 0   = drbb    ! min distance between b's 
 0.4 = drll    ! min distance between leptons 
 0.4 = draa    ! min distance between gammas 
 0   = drbj    ! min distance between b and jet 
 0.4 = draj    ! min distance between gamma and jet 
 0.4 = drjl    ! min distance between jet and lepton 
 0   = drab    ! min distance between gamma and b 
 0   = drbl    ! min distance between b and lepton 
 0.4 = dral    ! min distance between gamma and lepton 
 -1  = drjjmax ! max distance between jets
 -1  = drbbmax ! max distance between b's
 -1  = drllmax ! max distance between leptons
 -1  = draamax ! max distance between gammas
 -1  = drbjmax ! max distance between b and jet
 -1  = drajmax ! max distance between gamma and jet
 -1  = drjlmax ! max distance between jet and lepton
 -1  = drabmax ! max distance between gamma and b
 -1  = drblmax ! max distance between b and lepton
 -1  = dralmax ! maxdistance between gamma and lepton
#*********************************************************************
# Minimum and maximum invariant mass for pairs                       *
# WARNING: for four lepton final state mmll cut require to have      *
#          different lepton masses for each flavor!                  *           
#*********************************************************************
 0   = mmjj    ! min invariant mass of a jet pair 
 0   = mmbb    ! min invariant mass of a b pair 
 0   = mmaa    ! min invariant mass of gamma gamma pair
 0   = mmll    ! min invariant mass of l+l- (same flavour) lepton pair
 -1  = mmjjmax ! max invariant mass of a jet pair
 -1  = mmbbmax ! max invariant mass of a b pair
 -1  = mmaamax ! max invariant mass of gamma gamma pair
 -1  = mmllmax ! max invariant mass of l+l- (same flavour) lepton pair
#*********************************************************************
# Minimum and maximum invariant mass for all letpons                 *
#*********************************************************************
 0   = mmnl    ! min invariant mass for all letpons (l+- and vl) 
 -1  = mmnlmax ! max invariant mass for all letpons (l+- and vl) 
#*********************************************************************
# Minimum and maximum pt for 4-momenta sum of leptons                *
#*********************************************************************
 0   = ptllmin  ! Minimum pt for 4-momenta sum of leptons(l and vl)
 -1  = ptllmax  ! Maximum pt for 4-momenta sum of leptons(l and vl)
#*********************************************************************
# Inclusive cuts                                                     *
#*********************************************************************
 0  = xptj ! minimum pt for at least one jet  
 0  = xptb ! minimum pt for at least one b 
 0  = xpta ! minimum pt for at least one photon 
 0  = xptl ! minimum pt for at least one charged lepton 
#*********************************************************************
# Control the pt's of the jets sorted by pt                          *
#*********************************************************************
 0   = ptj1min ! minimum pt for the leading jet in pt
 0   = ptj2min ! minimum pt for the second jet in pt
 0   = ptj3min ! minimum pt for the third jet in pt
 0   = ptj4min ! minimum pt for the fourth jet in pt
 -1  = ptj1max ! maximum pt for the leading jet in pt 
 -1  = ptj2max ! maximum pt for the second jet in pt
 -1  = ptj3max ! maximum pt for the third jet in pt
 -1  = ptj4max ! maximum pt for the fourth jet in pt
 0   = cutuse  ! reject event if fails any (0) / all (1) jet pt cuts
#*********************************************************************
# Control the pt's of leptons sorted by pt                           *
#*********************************************************************
 0   = ptl1min ! minimum pt for the leading lepton in pt
 0   = ptl2min ! minimum pt for the second lepton in pt
 0   = ptl3min ! minimum pt for the third lepton in pt
 0   = ptl4min ! minimum pt for the fourth lepton in pt
 -1  = ptl1max ! maximum pt for the leading lepton in pt 
 -1  = ptl2max ! maximum pt for the second lepton in pt
 -1  = ptl3max ! maximum pt for the third lepton in pt
 -1  = ptl4max ! maximum pt for the fourth lepton in pt
#*********************************************************************
# Control the Ht(k)=Sum of k leading jets                            *
#*********************************************************************
 0   = htjmin ! minimum jet HT=Sum(jet pt)
 -1  = htjmax ! maximum jet HT=Sum(jet pt)
 0   = ihtmin  !inclusive Ht for all partons (including b)
 -1  = ihtmax  !inclusive Ht for all partons (including b)
 0   = ht2min ! minimum Ht for the two leading jets
 0   = ht3min ! minimum Ht for the three leading jets
 0   = ht4min ! minimum Ht for the four leading jets
 -1  = ht2max ! maximum Ht for the two leading jets
 -1  = ht3max ! maximum Ht for the three leading jets
 -1  = ht4max ! maximum Ht for the four leading jets
#***********************************************************************
# Photon-isolation cuts, according to hep-ph/9801442                   *
# When ptgmin=0, all the other parameters are ignored                  *
# When ptgmin>0, pta and draj are not going to be used                 *
#***********************************************************************
   0 = ptgmin ! Min photon transverse momentum
 0.4 = R0gamma ! Radius of isolation code
 1.0 = xn ! n parameter of eq.(3.4) in hep-ph/9801442
 1.0 = epsgamma ! epsilon_gamma parameter of eq.(3.4) in hep-ph/9801442
 .true. = isoEM ! isolate photons from EM energy (photons and leptons)
#*********************************************************************
# WBF cuts                                                           *
#*********************************************************************
 0   = xetamin ! minimum rapidity for two jets in the WBF case  
 0   = deltaeta ! minimum rapidity for two jets in the WBF case 
#*********************************************************************
# KT DURHAM CUT                                                      *
#*********************************************************************
 -1    =  ktdurham        
 0.4  =  dparameter 
#*********************************************************************
# maximal pdg code for quark to be considered as a light jet         *
# (otherwise b cuts are applied)                                     *
#*********************************************************************
 4 = maxjetflavor    ! Maximum jet pdg code
#*********************************************************************
# Jet measure cuts                                                   *
#*********************************************************************
 0   = xqcut   ! minimum kt jet measure between partons
#*********************************************************************
#
#*********************************************************************
# Store info for systematics studies                                 *
# WARNING: If use_syst is T, matched Pythia output is                *
#          meaningful ONLY if plotted taking matchscale              *
#          reweighting into account!                                 *
#*********************************************************************
   F  = use_syst      ! Enable systematics studies
#
#**************************************
# Parameter of the systematics study
#  will be used by SysCalc (if installed)
#**************************************                                  
#
0.5 1 2 = sys_scalefact  # factorization/renormalization scale factor
0.5 1 2 = sys_alpsfact  # \alpha_s emission scale factors
30 50 = sys_matchscale # variation of merging scale
# PDF sets and number of members (0 or none for all members).
CT10nlo.LHgrid = sys_pdf # matching scales
# MSTW2008nlo68cl.LHgrid 1  = sys_pdf
</MGRunCard>
<slha>
######################################################################
## PARAM_CARD AUTOMATICALY GENERATED BY MG5 FOLLOWING UFO MODEL   ####
######################################################################
##                                                                  ##
##  Width set on Auto will be computed following the information    ##
##        present in the decay.py files of the model.               ##
##        See  arXiv:1402.1178 for more details.                    ##
##                                                                  ##
######################################################################

###################################
## INFORMATION FOR CKMBLOCK
###################################
Block ckmblock 
    1 2.277360e-01 # cabi 

###################################
## INFORMATION FOR FRBLOCK
###################################
Block frblock 
    1 2.000000e-01 # gz 

###################################
## INFORMATION FOR MASS
###################################
Block mass 
    1 5.040000e-03 # MD 
    2 2.550000e-03 # MU 
    3 1.010000e-01 # MS 
    4 1.270000e+00 # MC 
    5 4.700000e+00 # MB 
    6 1.720000e+02 # MT 
   11 5.110000e-04 # Me 
   13 1.056600e-01 # MM 
   15 1.777000e+00 # MTA 
   23 9.118760e+01 # MZ 
   25 1.200000e+02 # MH 
  10030 8.000000e+02 # MZph 
  10031 3.000000e+02 # MZpl 
## Dependent parameters, given by model restrictions.
## Those values should be edited following the 
## analytical expression. MG5 ignores those values 
## but they are important for interfacing the output of MG5
## to external program such as Pythia.
  12 0.000000 # ve : 0.0 
  14 0.000000 # vm : 0.0 
  16 0.000000 # vt : 0.0 
  21 0.000000 # g : 0.0 
  22 0.000000 # a : 0.0 
  24 79.824360 # w+ : cmath.sqrt(MZ__exp__2/2. + cmath.sqrt(MZ__exp__4/4. - (aEW*cmath.pi*MZ__exp__2)/(Gf*sqrt__2))) 

###################################
## INFORMATION FOR SMINPUTS
###################################
Block sminputs 
    1 1.279000e+02 # aEWM1 
    2 1.166370e-05 # Gf 
    3 1.184000e-01 # aS 

###################################
## INFORMATION FOR YUKAWA
###################################
Block yukawa 
    1 5.040000e-03 # ymdo 
    2 2.550000e-03 # ymup 
    3 1.010000e-01 # yms 
    4 1.270000e+00 # ymc 
    5 4.700000e+00 # ymb 
    6 1.720000e+02 # ymt 
   11 5.110000e-04 # yme 
   13 1.056600e-01 # ymm 
   15 1.777000e+00 # ymtau 

###################################
## INFORMATION FOR DECAY
###################################
DECAY   6 1.508336e+00 # WT 
DECAY  23 2.495200e+00 # WZ 
DECAY  24 2.085000e+00 # WW 
DECAY  25 5.753088e-03 # WH 
## Dependent parameters, given by model restrictions.
## Those values should be edited following the 
## analytical expression. MG5 ignores those values 
## but they are important for interfacing the output of MG5
## to external program such as Pythia.
DECAY  1 0.000000 # d : 0.0 
DECAY  2 0.000000 # u : 0.0 
DECAY  3 0.000000 # s : 0.0 
DECAY  4 0.000000 # c : 0.0 
DECAY  5 0.000000 # b : 0.0 
DECAY  11 0.000000 # e- : 0.0 
DECAY  12 0.000000 # ve : 0.0 
DECAY  13 0.000000 # mu- : 0.0 
DECAY  14 0.000000 # vm : 0.0 
DECAY  15 0.000000 # ta- : 0.0 
DECAY  16 0.000000 # vt : 0.0 
DECAY  21 0.000000 # g : 0.0 
DECAY  22 0.000000 # a : 0.0 
DECAY  10030 0.308725 # zph : (gz__exp__2*MZph*(5 + cmath.sqrt(1 - (4*MT__exp__2)/MZph__exp__2)))/(144.*cmath.pi) 
DECAY  10031 0.132629 # zpl : (5*gz__exp__2*MZpl)/(144.*cmath.pi) 
#===========================================================
# QUANTUM NUMBERS OF NEW STATE(S) (NON SM PDG CODE)
#===========================================================

Block QNUMBERS 10030  # zph 
        1 0  # 3 times electric charge
        2 3  # number of spin states (2S+1)
        3 1  # colour rep (1: singlet, 3: triplet, 8: octet)
        4 0  # Particle/Antiparticle distinction (0=own anti)
Block QNUMBERS 10031  # zpl 
        1 0  # 3 times electric charge
        2 3  # number of spin states (2S+1)
        3 1  # colour rep (1: singlet, 3: triplet, 8: octet)
        4 0  # Particle/Antiparticle distinction (0=own anti)
</slha>
## END BANNER##
<MGGenerationInfo>
#  Number of Events        :         4111
#  Integrated weight (pb)  :  0.21891E+00
#  Max wgt                 :  0.71330E-04
#  Average wgt             :  0.53250E-04
</MGGenerationInfo>
</header>
<init>
     2212     2212  0.40000000000E+04  0.40000000000E+04 0 0  247000  247000 2   1
  0.21866887357E+00  0.40603226773E-03  0.71330390000E-04   0
</init>
<event>
 5   0  0.6593118E-04  0.7999102E+03  0.7818609E-02  0.9560147E-01
        2   -1    0    0  501    0  0.00000000000E+00  0.00000000000E+00  0.98686259688E+03  0.98686259689E+03  0.25500000920E-02 0. -1.
       -2   -1    0    0    0  501  0.00000000000E+00  0.00000000000E+00 -0.16209356778E+03  0.16209356780E+03  0.25500000920E-02 0.  1.
    10030    2    1    2    0    0  0.00000000000E+00  0.00000000000E+00  0.82476902910E+03  0.11489561647E+04  0.79991019310E+03 0.  0.
        1    1    3    3  502    0  0.13404902830E+03 -0.36943926361E+03  0.30576885636E+03  0.49794488152E+03  0.50400001928E-02 0.  1.
       -1    1    3    3    0  502 -0.13404902830E+03  0.36943926361E+03  0.51900017274E+03  0.65101128317E+03  0.50400001928E-02 0. -1.
</event>
<event>
 5   0  0.2736375E-04  0.7999738E+03  0.7818609E-02  0.9560055E-01
       -3   -1    0    0    0  501  0.00000000000E+00  0.00000000000E+00  0.19637535592E+03  0.19637538190E+03  0.10100000352E+00 0.  1.
        3   -1    0    0  501    0  0.00000000000E+00  0.00000000000E+00 -0.81471281031E+03  0.81471281657E+03  0.10100000352E+00 0. -1.
    10030    2    1    2    0    0  0.00000000000E+00  0.00000000000E+00 -0.61833745439E+03  0.10110881985E+04  0.79997383556E+03 0.  0.
        3    1    3    3  502    0  0.15837747225E+03  0.30011912762E+03 -0.41547871391E+02  0.34187885325E+03  0.10100000352E+00 0. -1.
       -3    1    3    3    0  502 -0.15837747225E+03 -0.30011912762E+03 -0.57678958300E+03  0.66920934522E+03  0.10100000352E+00 0.  1.
</event>
<event>
 5   0  0.6593118E-04  0.7997396E+03  0.7818609E-02  0.9560394E-01
       -2   -1    0    0    0  501  0.00000000000E+00  0.00000000000E+00  0.13385260860E+03  0.13385260862E+03  0.25500000920E-02 0.  1.
        2   -1    0    0  501    0  0.00000000000E+00  0.00000000000E+00 -0.11945666871E+04  0.11945666871E+04  0.25500000920E-02 0. -1.
    10030    2    1    2    0    0  0.00000000000E+00  0.00000000000E+00 -0.10607140785E+04  0.13284192957E+04  0.79973962570E+03 0.  0.
        1    1    3    3  502    0 -0.64650061849E+01 -0.25896537369E+03 -0.24369872505E+02  0.26018983798E+03  0.50400001928E-02 0.  1.
       -1    1    3    3    0  502  0.64650061849E+01  0.25896537369E+03 -0.10363442060E+04  0.10682294577E+04  0.50400001928E-02 0. -1.
</event>
<event>
 5   0  0.6970013E-04  0.8006592E+03  0.7818609E-02  0.9559063E-01
       -2   -1    0    0    0  501  0.00000000000E+00  0.00000000000E+00  0.14563083043E+03  0.14563083046E+03  0.25500000920E-02 0.  1.
        2   -1    0    0  501    0  0.00000000000E+00  0.00000000000E+00 -0.11004798209E+04  0.11004798209E+04  0.25500000920E-02 0. -1.
    10030    2    1    2    0    0  0.00000000000E+00  0.00000000000E+00 -0.95484899051E+03  0.12461106514E+04  0.80065920394E+03 0.  0.
        3    1    3    3  502    0  0.18096392470E+03 -0.35539916472E+03 -0.53150134892E+03  0.66449243971E+03  0.10100000352E+00 0. -1.
       -3    1    3    3    0  502 -0.18096392470E+03  0.35539916472E+03 -0.42334764159E+03  0.58161821169E+03  0.10100000352E+00 0.  1.
</event>
<event>
 5   0  0.6593118E-04  0.8003165E+03  0.7818609E-02  0.9559559E-01
       -2   -1    0    0    0  501  0.00000000000E+00  0.00000000000E+00  0.23611855632E+03  0.23611855634E+03  0.25500000920E-02 0.  1.
        2   -1    0    0  501    0  0.00000000000E+00  0.00000000000E+00 -0.67816202996E+03  0.67816202996E+03  0.25500000920E-02 0. -1.
    10030    2    1    2    0    0  0.00000000000E+00  0.00000000000E+00 -0.44204347363E+03  0.91428058630E+03  0.80031653607E+03 0.  0.
        1    1    3    3  502    0  0.16193130670E+03 -0.36038337977E+03 -0.29353221378E+03  0.49219822131E+03  0.50400001928E-02 0.  1.
       -1    1    3    3    0  502 -0.16193130670E+03  0.36038337977E+03 -0.14851125985E+03  0.42208236499E+03  0.50400001928E-02 0. -1.
</event>
<event>
 5   0  0.6970013E-04  0.7999550E+03  0.7818609E-02  0.9560082E-01
       -2   -1    0    0    0  501  0.00000000000E+00  0.00000000000E+00  0.40624540251E+03  0.40624540252E+03  0.25500000920E-02 0.  1.
        2   -1    0    0  501    0  0.00000000000E+00  0.00000000000E+00 -0.39380629385E+03  0.39380629386E+03  0.25500000920E-02 0. -1.
    10030    2    1    2    0    0  0.00000000000E+00  0.00000000000E+00  0.12439108661E+02  0.80005169638E+03  0.79995498965E+03 0.  0.
        3    1    3    3  502    0  0.10671681830E+03  0.60116908898E+02  0.38702727410E+03  0.40594660135E+03  0.10100000352E+00 0.  1.
       -3    1    3    3    0  502 -0.10671681830E+03 -0.60116908898E+02 -0.37458816544E+03  0.39410509504E+03  0.10100000352E+00 0. -1.
</event>
<event>
 5   0  0.4087283E-04  0.7997387E+03  0.7818609E-02  0.9560395E-01
       -1   -1    0    0    0  501  0.00000000000E+00  0.00000000000E+00  0.59106601761E+02  0.59106601976E+02  0.50400001928E-02 0.  1.
        1   -1    0    0  501    0  0.00000000000E+00  0.00000000000E+00 -0.27052053893E+04  0.27052053893E+04  0.50400001928E-02 0. -1.
    10030    2    1    2    0    0  0.00000000000E+00  0.00000000000E+00 -0.26460987875E+04  0.27643119912E+04  0.79973870215E+03 0.  0.
        1    1    3    3  502    0  0.25547983028E+03  0.16741479172E+03 -0.43104083453E+03  0.52829334391E+03  0.50400001928E-02 0.  1.
       -1    1    3    3    0  502 -0.25547983028E+03 -0.16741479172E+03 -0.22150579530E+04  0.22360186473E+04  0.50400001928E-02 0. -1.
</event>
<event>
 5   0  0.4086111E-04  0.7999442E+03  0.7818609E-02  0.9560098E-01
        1   -1    0    0  501    0  0.00000000000E+00  0.00000000000E+00  0.64530368361E+03  0.64530368363E+03  0.50400001928E-02 0.  1.
       -1   -1    0    0    0  501  0.00000000000E+00  0.00000000000E+00 -0.24791069203E+03  0.24791069208E+03  0.50400001928E-02 0. -1.
    10030    2    1    2    0    0  0.00000000000E+00  0.00000000000E+00  0.39739299159E+03  0.89321437571E+03  0.79994420506E+03 0.  0.
        3    1    3    3  502    0  0.33879087315E+02 -0.22410386063E+03 -0.16928467381E+03  0.28289157622E+03  0.10100000352E+00 0.  1.
       -3    1    3    3    0  502 -0.33879087315E+02  0.22410386063E+03  0.56667766540E+03  0.61032279949E+03  0.10100000352E+00 0. -1.
</event>
<event>
 5   0  0.6593118E-04  0.7996307E+03  0.7818609E-02  0.9560552E-01
        2   -1    0    0  501    0  0.00000000000E+00  0.00000000000E+00  0.94319977372E+03  0.94319977372E+03  0.25500000920E-02 0. -1.
       -2   -1    0    0    0  501  0.00000000000E+00  0.00000000000E+00 -0.16947873237E+03  0.16947873239E+03  0.25500000920E-02 0.  1.
    10030    2    1    2    0    0  0.00000000000E+00  0.00000000000E+00  0.77372104135E+03  0.11126785061E+04  0.79963066983E+03 0.  0.
        1    1    3    3  502    0  0.26067815599E+03 -0.23095714770E+03  0.66009624945E+03  0.74633863871E+03  0.50400001928E-02 0. -1.
       -1    1    3    3    0  502 -0.26067815599E+03  0.23095714770E+03  0.11362479190E+03  0.36633986739E+03  0.50400001928E-02 0.  1.
</event>
<event>
 5   0  0.2736375E-04  0.8001399E+03  0.7818609E-02  0.9559815E-01
       -4   -1    0    0    0  501  0.00000000000E+00  0.00000000000E+00  0.30143359816E+03  0.30143627353E+03  0.12699999809E+01 0. -1.
        4   -1    0    0  501    0  0.00000000000E+00  0.00000000000E+00 -0.53097664719E+03  0.53097816599E+03  0.12699999809E+01 0.  1.
    10030    2    1    2    0    0  0.00000000000E+00  0.00000000000E+00 -0.22954304903E+03  0.83241443952E+03  0.80013985513E+03 0.  0.
        1    1    3    3  502    0  0.24437338601E+02 -0.39801445366E+03 -0.14837386897E+03  0.42547325869E+03  0.50400001928E-02 0. -1.
       -1    1    3    3    0  502 -0.24437338601E+02  0.39801445366E+03 -0.81169180058E+02  0.40694118083E+03  0.50400001928E-02 0.  1.
</event>
<event>
 5   0  0.6593118E-04  0.8000278E+03  0.7818609E-02  0.9559977E-01
       -2   -1    0    0    0  501  0.00000000000E+00  0.00000000000E+00  0.10560170220E+03  0.10560170223E+03  0.25500000920E-02 0. -1.
        2   -1    0    0  501    0  0.00000000000E+00  0.00000000000E+00 -0.15152325233E+04  0.15152325233E+04  0.25500000920E-02 0.  1.
    10030    2    1    2    0    0  0.00000000000E+00  0.00000000000E+00 -0.14096308211E+04  0.16208342255E+04  0.80002783382E+03 0.  0.
        1    1    3    3  502    0 -0.29767910187E+03 -0.25608230126E+03 -0.55025429114E+03  0.67599613730E+03  0.50400001928E-02 0. -1.
       -1    1    3    3    0  502  0.29767910187E+03  0.25608230126E+03 -0.85937652997E+03  0.94483808824E+03  0.50400001928E-02 0.  1.
</event>
<event>
 5   0  0.6672462E-04  0.7989800E+03  0.7818609E-02  0.9561495E-01
        2   -1    0    0  501    0  0.00000000000E+00  0.00000000000E+00  0.54428087523E+03  0.54428087524E+03  0.25500000920E-02 0.  1.
       -2   -1    0    0    0  501  0.00000000000E+00  0.00000000000E+00 -0.29321675452E+03  0.29321675453E+03  0.25500000920E-02 0. -1.
    10030    2    1    2    0    0  0.00000000000E+00  0.00000000000E+00  0.25106412071E+03  0.83749762977E+03  0.79898002927E+03 0.  0.
        5    1    3    3  502    0  0.66029215170E+02  0.10616520983E+03 -0.27215120355E+03  0.29953176230E+03  0.46999998093E+01 0. -1.
       -5    1    3    3    0  502 -0.66029215170E+02 -0.10616520983E+03  0.52321532426E+03  0.53796586748E+03  0.46999998093E+01 0.  1.
</event>
<event>
 5   0  0.6672462E-04  0.7999151E+03  0.7818609E-02  0.9560140E-01
        2   -1    0    0  501    0  0.00000000000E+00  0.00000000000E+00  0.87092023419E+03  0.87092023420E+03  0.25500000920E-02 0. -1.
       -2   -1    0    0    0  501  0.00000000000E+00  0.00000000000E+00 -0.18367475318E+03  0.18367475320E+03  0.25500000920E-02 0.  1.
    10030    2    1    2    0    0  0.00000000000E+00  0.00000000000E+00  0.68724548101E+03  0.10545949874E+04  0.79991514317E+03 0.  0.
        5    1    3    3  502    0 -0.37023575520E+03 -0.10789655132E+03  0.48332032689E+03  0.61833389734E+03  0.46999998093E+01 0.  1.
       -5    1    3    3    0  502  0.37023575520E+03  0.10789655132E+03  0.20392515412E+03  0.43626109006E+03  0.46999998093E+01 0. -1.
</event>
<event>
 5   0  0.4392552E-04  0.7980005E+03  0.7818609E-02  0.9562916E-01
       -1   -1    0    0    0  501  0.00000000000E+00  0.00000000000E+00  0.27807841332E+03  0.27807841337E+03  0.50400001928E-02 0.  1.
        1   -1    0    0  501    0  0.00000000000E+00  0.00000000000E+00 -0.57250468016E+03  0.57250468018E+03  0.50400001928E-02 0. -1.
    10030    2    1    2    0    0  0.00000000000E+00  0.00000000000E+00 -0.29442626684E+03  0.85058309355E+03  0.79800048398E+03 0.  0.
        5    1    3    3  502    0 -0.22285481144E+02 -0.25028554842E+03 -0.47753610245E+03  0.53963164989E+03  0.46999998093E+01 0. -1.
       -5    1    3    3    0  502  0.22285481144E+02  0.25028554842E+03  0.18310983561E+03  0.31095144366E+03  0.46999998093E+01 0.  1.
</event>
<event>
 5   0  0.2736375E-04  0.7998964E+03  0.7818609E-02  0.9560167E-01
        3   -1    0    0  501    0  0.00000000000E+00  0.00000000000E+00  0.28352364131E+03  0.28352365929E+03  0.10100000352E+00 0.  1.
       -3   -1    0    0    0  501  0.00000000000E+00  0.00000000000E+00 -0.56418057902E+03  0.56418058806E+03  0.10100000352E+00 0. -1.
    10030    2    1    2    0    0  0.00000000000E+00  0.00000000000E+00 -0.28065693771E+03  0.84770424736E+03  0.79989635222E+03 0.  0.
        4    1    3    3  502    0 -0.12913398297E+03  0.37846420622E+03 -0.14753096988E+03  0.42623671935E+03  0.12699999809E+01 0.  1.
       -4    1    3    3    0  502  0.12913398297E+03 -0.37846420622E+03 -0.13312596784E+03  0.42146752801E+03  0.12699999809E+01 0. -1.
</event>
<event>
 5   0  0.4087283E-04  0.7997869E+03  0.7818609E-02  0.9560326E-01
       -1   -1    0    0    0  501  0.00000000000E+00  0.00000000000E+00  0.19223075689E+03  0.19223075696E+03  0.50400001928E-02 0. -1.
        1   -1    0    0  501    0  0.00000000000E+00  0.00000000000E+00 -0.83188963883E+03  0.83188963885E+03  0.50400001928E-02 0.  1.
    10030    2    1    2    0    0  0.00000000000E+00  0.00000000000E+00 -0.63965888194E+03  0.10241203958E+04  0.79978690903E+03 0.  0.
        1    1    3    3  502    0  0.16057126993E+03 -0.93735979757E+02  0.13351739844E+03  0.22890273554E+03  0.50400001928E-02 0. -1.
       -1    1    3    3    0  502 -0.16057126993E+03  0.93735979757E+02 -0.77317628038E+03  0.79521766026E+03  0.50400001928E-02 0.  1.
</event>
<event>
 5   0  0.4086111E-04  0.8000744E+03  0.7818609E-02  0.9559909E-01
        1   -1    0    0  501    0  0.00000000000E+00  0.00000000000E+00  0.29825071513E+03  0.29825071517E+03  0.50400001928E-02 0.  1.
       -1   -1    0    0    0  501  0.00000000000E+00  0.00000000000E+00 -0.53656124636E+03  0.53656124639E+03  0.50400001928E-02 0. -1.
    10030    2    1    2    0    0  0.00000000000E+00  0.00000000000E+00 -0.23831053124E+03  0.83481196156E+03  0.80007443520E+03 0.  0.
        3    1    3    3  502    0 -0.39547662952E+03 -0.27994608774E+02 -0.63507699731E+02  0.40152048608E+03  0.10100000352E+00 0.  1.
       -3    1    3    3    0  502  0.39547662952E+03  0.27994608774E+02 -0.17480283151E+03  0.43329147548E+03  0.10100000352E+00 0. -1.
</event>
<event>
 5   0  0.4086111E-04  0.7988152E+03  0.7818609E-02  0.9561734E-01
        1   -1    0    0  501    0  0.00000000000E+00  0.00000000000E+00  0.37604699026E+03  0.37604699029E+03  0.50400001928E-02 0. -1.
       -1   -1    0    0    0  501  0.00000000000E+00  0.00000000000E+00 -0.42421944590E+03  0.42421944593E+03  0.50400001928E-02 0.  1.
    10030    2    1    2    0    0  0.00000000000E+00  0.00000000000E+00 -0.48172455639E+02  0.80026643622E+03  0.79881523738E+03 0.  0.
        3    1    3    3  502    0  0.30442299208E+02  0.29814553051E+02  0.37376341456E+03  0.37618445132E+03  0.10100000352E+00 0. -1.
       -3    1    3    3    0  502 -0.30442299208E+02 -0.29814553051E+02 -0.42193587020E+03  0.42408198490E+03  0.10100000352E+00 0.  1.
</event>
<event>
 5   0  0.6593118E-04  0.8033494E+03  0.7818609E-02  0.9555182E-01
        2   -1    0    0  501    0  0.00000000000E+00  0.00000000000E+00  0.41717552814E+03  0.41717552815E+03  0.25500000920E-02 0. -1.
       -2   -1    0    0    0  501  0.00000000000E+00  0.00000000000E+00 -0.38674978307E+03  0.38674978308E+03  0.25500000920E-02 0.  1.
    10030    2    1    2    0    0  0.00000000000E+00  0.00000000000E+00  0.30425745073E+02  0.80392531122E+03  0.80334935119E+03 0.  0.
        1    1    3    3  502    0  0.13552822232E+03 -0.25851642002E+03 -0.26092681706E+03  0.39151173973E+03  0.50400001928E-02 0.  1.
       -1    1    3    3    0  502 -0.13552822232E+03  0.25851642002E+03  0.29135256213E+03  0.41241357149E+03  0.50400001928E-02 0. -1.
</event>
<event>
 5   0  0.4169155E-04  0.8000566E+03  0.7818609E-02  0.9559935E-01
       -1   -1    0    0    0  501  0.00000000000E+00  0.00000000000E+00  0.45892731567E+03  0.45892731570E+03  0.50400001928E-02 0.  1.
        1   -1    0    0  501    0  0.00000000000E+00  0.00000000000E+00 -0.34868845641E+03  0.34868845645E+03  0.50400001928E-02 0. -1.
    10030    2    1    2    0    0  0.00000000000E+00  0.00000000000E+00  0.11023885926E+03  0.80761577215E+03  0.80005664132E+03 0.  0.
        4    1    3    3  502    0  0.88621773472E+02  0.46855682106E+02  0.44604026378E+03  0.45716824418E+03  0.12699999809E+01 0.  1.
       -4    1    3    3    0  502 -0.88621773472E+02 -0.46855682106E+02 -0.33580140452E+03  0.35044752796E+03  0.12699999809E+01 0. -1.
</event>
<event>
 5   0  0.4087283E-04  0.8001711E+03  0.7818609E-02  0.9559769E-01
       -1   -1    0    0    0  501  0.00000000000E+00  0.00000000000E+00  0.80733491685E+03  0.80733491687E+03  0.50400001928E-02 0. -1.
        1   -1    0    0  501    0  0.00000000000E+00  0.00000000000E+00 -0.19826772917E+03  0.19826772924E+03  0.50400001928E-02 0.  1.
    10030    2    1    2    0    0  0.00000000000E+00  0.00000000000E+00  0.60906718768E+03  0.10056026461E+04  0.80017113342E+03 0.  0.
        1    1    3    3  502    0 -0.40006885448E+03  0.23627852475E+01  0.30804111787E+03  0.50492573850E+03  0.50400001928E-02 0.  1.
       -1    1    3    3    0  502  0.40006885448E+03 -0.23627852475E+01  0.30102606981E+03  0.50067690760E+03  0.50400001928E-02 0. -1.
</event>
<event>
 5   0  0.7133039E-04  0.7998285E+03  0.7818609E-02  0.9560265E-01
       -2   -1    0    0    0  501  0.00000000000E+00  0.00000000000E+00  0.44835864879E+03  0.44835864879E+03  0.25500000920E-02 0. -1.
        2   -1    0    0  501    0  0.00000000000E+00  0.00000000000E+00 -0.35670414981E+03  0.35670414982E+03  0.25500000920E-02 0.  1.
    10030    2    1    2    0    0  0.00000000000E+00  0.00000000000E+00  0.91654498973E+02  0.80506279862E+03  0.79982845819E+03 0.  0.
        2    1    3    3  502    0  0.23911371073E+03 -0.25624562526E+03 -0.14803173409E+03  0.38046101170E+03  0.25500000920E-02 0.  1.
       -2    1    3    3    0  502 -0.23911371073E+03  0.25624562526E+03  0.23968623306E+03  0.42460178691E+03  0.25500000920E-02 0. -1.
</event>
<event>
 5   0  0.4086111E-04  0.8001588E+03  0.7818609E-02  0.9559787E-01
        1   -1    0    0  501    0  0.00000000000E+00  0.00000000000E+00  0.56158257552E+03  0.56158257554E+03  0.50400001928E-02 0.  1.
       -1   -1    0    0    0  501  0.00000000000E+00  0.00000000000E+00 -0.28502226844E+03  0.28502226849E+03  0.50400001928E-02 0. -1.
    10030    2    1    2    0    0  0.00000000000E+00  0.00000000000E+00  0.27656030708E+03  0.84660484403E+03  0.80015883329E+03 0.  0.
        3    1    3    3  502    0 -0.35860324062E+03  0.12550569989E+02 -0.48936378177E+02  0.36214441912E+03  0.10100000352E+00 0.  1.
       -3    1    3    3    0  502  0.35860324062E+03 -0.12550569989E+02  0.32549668526E+03  0.48446042491E+03  0.10100000352E+00 0. -1.
</event>
<event>
 5   0  0.2736375E-04  0.8000249E+03  0.7818609E-02  0.9559981E-01
        3   -1    0    0  501    0  0.00000000000E+00  0.00000000000E+00  0.27595976271E+03  0.27595978120E+03  0.10100000352E+00 0. -1.
       -3   -1    0    0    0  501  0.00000000000E+00  0.00000000000E+00 -0.57983070871E+03  0.57983071751E+03  0.10100000352E+00 0.  1.
    10030    2    1    2    0    0  0.00000000000E+00  0.00000000000E+00 -0.30387094600E+03  0.85579049870E+03  0.80002489077E+03 0.  0.
        4    1    3    3  502    0 -0.35164461961E+03 -0.18917366718E+03 -0.12644755343E+03  0.41884509252E+03  0.12699999809E+01 0. -1.
       -4    1    3    3    0  502  0.35164461961E+03  0.18917366718E+03 -0.17742339257E+03  0.43694540619E+03  0.12699999809E+01 0.  1.
</event>
<event>
 5   0  0.6970013E-04  0.8000143E+03  0.7818609E-02  0.9559996E-01
        2   -1    0    0  501    0  0.00000000000E+00  0.00000000000E+00  0.13492186240E+03  0.13492186242E+03  0.25500000920E-02 0.  1.
       -2   -1    0    0    0  501  0.00000000000E+00  0.00000000000E+00 -0.11859139765E+04  0.11859139765E+04  0.25500000920E-02 0. -1.
    10030    2    1    2    0    0  0.00000000000E+00  0.00000000000E+00 -0.10509921141E+04  0.13208358389E+04  0.80001430581E+03 0.  0.
        3    1    3    3  502    0 -0.28832662081E+03  0.23932696984E+03 -0.75661504131E+03  0.84431982667E+03  0.10100000352E+00 0.  1.
       -3    1    3    3    0  502  0.28832662081E+03 -0.23932696984E+03 -0.29437707281E+03  0.47651601228E+03  0.10100000352E+00 0. -1.
</event>
<event>
 5   0  0.4169155E-04  0.7996832E+03  0.7818609E-02  0.9560476E-01
       -1   -1    0    0    0  501  0.00000000000E+00  0.00000000000E+00  0.33895104598E+03  0.33895104601E+03  0.50400001928E-02 0. -1.
        1   -1    0    0  501    0  0.00000000000E+00  0.00000000000E+00 -0.47167080878E+03  0.47167080881E+03  0.50400001928E-02 0.  1.
    10030    2    1    2    0    0  0.00000000000E+00  0.00000000000E+00 -0.13271976281E+03  0.81062185482E+03  0.79968322233E+03 0.  0.
        4    1    3    3  502    0  0.13681439924E+03 -0.12889341628E+01  0.31448105692E+03  0.34295741609E+03  0.12699999809E+01 0. -1.
       -4    1    3    3    0  502 -0.13681439924E+03  0.12889341628E+01 -0.44720081973E+03  0.46766443873E+03  0.12699999809E+01 0.  1.
</event>
<event>
 5   0  0.7133039E-04  0.8000886E+03  0.7818609E-02  0.9559889E-01
        2   -1    0    0  501    0  0.00000000000E+00  0.00000000000E+00  0.80055866073E+03  0.80055866074E+03  0.25500000920E-02 0. -1.
       -2   -1    0    0    0  501  0.00000000000E+00  0.00000000000E+00 -0.19990472757E+03  0.19990472758E+03  0.25500000920E-02 0.  1.
    10030    2    1    2    0    0  0.00000000000E+00  0.00000000000E+00  0.60065393317E+03  0.10004633883E+04  0.80008864755E+03 0.  0.
        2    1    3    3  502    0  0.39453805673E+03  0.30183027817E+02  0.37392437808E+03  0.54441779353E+03  0.25500000920E-02 0. -1.
       -2    1    3    3    0  502 -0.39453805673E+03 -0.30183027817E+02  0.22672955508E+03  0.45604559479E+03  0.25500000920E-02 0.  1.
</event>
<event>
 5   0  0.4104786E-04  0.7998145E+03  0.7818609E-02  0.9560286E-01
        1   -1    0    0  501    0  0.00000000000E+00  0.00000000000E+00  0.52378420370E+03  0.52378420372E+03  0.50400001928E-02 0.  1.
       -1   -1    0    0    0  501  0.00000000000E+00  0.00000000000E+00 -0.30532768241E+03  0.30532768245E+03  0.50400001928E-02 0. -1.
    10030    2    1    2    0    0  0.00000000000E+00  0.00000000000E+00  0.21845652129E+03  0.82911188618E+03  0.79981452107E+03 0.  0.
        2    1    3    3  502    0 -0.33568946747E+03  0.21626513792E+03  0.86807586868E+02  0.40864848659E+03  0.25500000920E-02 0.  1.
       -2    1    3    3    0  502  0.33568946747E+03 -0.21626513792E+03  0.13164893442E+03  0.42046339959E+03  0.25500000920E-02 0. -1.
</event>
<event>
 5   0  0.6970013E-04  0.7997214E+03  0.7818609E-02  0.9560420E-01
        2   -1    0    0  501    0  0.00000000000E+00  0.00000000000E+00  0.16164771581E+03  0.16164771583E+03  0.25500000920E-02 0. -1.
       -2   -1    0    0    0  501  0.00000000000E+00  0.00000000000E+00 -0.98911741251E+03  0.98911741251E+03  0.25500000920E-02 0.  1.
    10030    2    1    2    0    0  0.00000000000E+00  0.00000000000E+00 -0.82746969670E+03  0.11507651283E+04  0.79972137751E+03 0.  0.
        3    1    3    3  502    0 -0.32952214233E+03  0.19666237606E+02 -0.89037151569E+02  0.34190529061E+03  0.10100000352E+00 0. -1.
       -3    1    3    3    0  502  0.32952214233E+03 -0.19666237606E+02 -0.73843254513E+03  0.80885983773E+03  0.10100000352E+00 0.  1.
</event>
<event>
 5   0  0.6672462E-04  0.8005179E+03  0.7818609E-02  0.9559268E-01
       -2   -1    0    0    0  501  0.00000000000E+00  0.00000000000E+00  0.29393702104E+03  0.29393702105E+03  0.25500000920E-02 0. -1.
        2   -1    0    0  501    0  0.00000000000E+00  0.00000000000E+00 -0.54503935032E+03  0.54503935033E+03  0.25500000920E-02 0.  1.
    10030    2    1    2    0    0  0.00000000000E+00  0.00000000000E+00 -0.25110232929E+03  0.83897637138E+03  0.80051793981E+03 0.  0.
        5    1    3    3  502    0  0.15174658753E+03  0.12460539361E+02 -0.51347233300E+03  0.53559146616E+03  0.46999998093E+01 0.  1.
       -5    1    3    3    0  502 -0.15174658753E+03 -0.12460539361E+02  0.26237000371E+03  0.30338490522E+03  0.46999998093E+01 0. -1.
</event>
<event>
 5   0  0.4104786E-04  0.7997112E+03  0.7818609E-02  0.9560435E-01
       -1   -1    0    0    0  501  0.00000000000E+00  0.00000000000E+00  0.97908313710E+02  0.97908313840E+02  0.50400001928E-02 0.  1.
        1   -1    0    0  501    0  0.00000000000E+00  0.00000000000E+00 -0.16330022929E+04  0.16330022929E+04  0.50400001928E-02 0. -1.
    10030    2    1    2    0    0  0.00000000000E+00  0.00000000000E+00 -0.15350939792E+04  0.17309106067E+04  0.79971120012E+03 0.  0.
        2    1    3    3  502    0  0.22020017414E+03  0.16724425252E+03 -0.13927074546E+04  0.14198918306E+04  0.25500000920E-02 0. -1.
       -2    1    3    3    0  502 -0.22020017414E+03 -0.16724425252E+03 -0.14238652462E+03  0.31101877611E+03  0.25500000920E-02 0.  1.
</event>
<event>
 5   0  0.6970013E-04  0.8001252E+03  0.7818609E-02  0.9559836E-01
       -2   -1    0    0    0  501  0.00000000000E+00  0.00000000000E+00  0.68560955784E+02  0.68560955832E+02  0.25500000920E-02 0.  1.
        2   -1    0    0  501    0  0.00000000000E+00  0.00000000000E+00 -0.23344204353E+04  0.23344204353E+04  0.25500000920E-02 0. -1.
    10030    2    1    2    0    0  0.00000000000E+00  0.00000000000E+00 -0.22658594795E+04  0.24029813911E+04  0.80012523096E+03 0.  0.
        3    1    3    3  502    0 -0.20524583592E+03  0.26178278494E+03 -0.46546309272E+03  0.57211186016E+03  0.10100000352E+00 0.  1.
       -3    1    3    3    0  502  0.20524583592E+03 -0.26178278494E+03 -0.18003963868E+04  0.18308695310E+04  0.10100000352E+00 0. -1.
</event>
<event>
 5   0  0.6593118E-04  0.8000248E+03  0.7818609E-02  0.9559981E-01
        2   -1    0    0  501    0  0.00000000000E+00  0.00000000000E+00  0.19743793628E+04  0.19743793628E+04  0.25500000920E-02 0. -1.
       -2   -1    0    0    0  501  0.00000000000E+00  0.00000000000E+00 -0.81043157961E+02  0.81043158001E+02  0.25500000920E-02 0.  1.
    10030    2    1    2    0    0  0.00000000000E+00  0.00000000000E+00  0.18933362048E+04  0.20554225208E+04  0.80002484615E+03 0.  0.
        1    1    3    3  502    0 -0.57207955079E+02 -0.18804335367E+03  0.18417558876E+04  0.18522142972E+04  0.50400001928E-02 0. -1.
       -1    1    3    3    0  502  0.57207955079E+02  0.18804335367E+03  0.51580317147E+02  0.20320822357E+03  0.50400001928E-02 0.  1.
</event>
<event>
 5   0  0.4086111E-04  0.8001603E+03  0.7818609E-02  0.9559785E-01
       -1   -1    0    0    0  501  0.00000000000E+00  0.00000000000E+00  0.36620274346E+03  0.36620274349E+03  0.50400001928E-02 0.  1.
        1   -1    0    0  501    0  0.00000000000E+00  0.00000000000E+00 -0.43709150880E+03  0.43709150883E+03  0.50400001928E-02 0. -1.
    10030    2    1    2    0    0  0.00000000000E+00  0.00000000000E+00 -0.70888765345E+02  0.80329425232E+03  0.80016025818E+03 0.  0.
        3    1    3    3  502    0  0.13440830618E+03  0.88191709840E+02 -0.40324078680E+03  0.43410426489E+03  0.10100000352E+00 0. -1.
       -3    1    3    3    0  502 -0.13440830618E+03 -0.88191709840E+02  0.33235202146E+03  0.36918998743E+03  0.10100000352E+00 0.  1.
</event>
<event>
 5   0  0.6970013E-04  0.8001088E+03  0.7818609E-02  0.9559860E-01
        2   -1    0    0  501    0  0.00000000000E+00  0.00000000000E+00  0.55956810559E+03  0.55956810559E+03  0.25500000920E-02 0. -1.
       -2   -1    0    0    0  501  0.00000000000E+00  0.00000000000E+00 -0.28601259702E+03  0.28601259703E+03  0.25500000920E-02 0.  1.
    10030    2    1    2    0    0  0.00000000000E+00  0.00000000000E+00  0.27355550857E+03  0.84558070262E+03  0.80010881033E+03 0.  0.
        3    1    3    3  502    0  0.24264735721E+03  0.16140196111E+03 -0.15286980810E+03  0.32908588763E+03  0.10100000352E+00 0.  1.
       -3    1    3    3    0  502 -0.24264735721E+03 -0.16140196111E+03  0.42642531667E+03  0.51649481499E+03  0.10100000352E+00 0. -1.
</event>
<event>
 5   0  0.4169155E-04  0.7997636E+03  0.7818609E-02  0.9560359E-01
        1   -1    0    0  501    0  0.00000000000E+00  0.00000000000E+00  0.83349856334E+03  0.83349856336E+03  0.50400001928E-02 0. -1.
       -1   -1    0    0    0  501  0.00000000000E+00  0.00000000000E+00 -0.19184852534E+03  0.19184852541E+03  0.50400001928E-02 0.  1.
    10030    2    1    2    0    0  0.00000000000E+00  0.00000000000E+00  0.64165003800E+03  0.10253470888E+04  0.79976364081E+03 0.  0.
        4    1    3    3  502    0 -0.17218691682E+03 -0.24279135325E+03 -0.21531037043E+02  0.29843118803E+03  0.12699999809E+01 0.  1.
       -4    1    3    3    0  502  0.17218691682E+03  0.24279135325E+03  0.66318107504E+03  0.72691590073E+03  0.12699999809E+01 0. -1.
</event>
<event>
 5   0  0.4169155E-04  0.7997801E+03  0.7818609E-02  0.9560335E-01
       -1   -1    0    0    0  501  0.00000000000E+00  0.00000000000E+00  0.46788469624E+03  0.46788469627E+03  0.50400001928E-02 0.  1.
        1   -1    0    0  501    0  0.00000000000E+00  0.00000000000E+00 -0.34177666082E+03  0.34177666086E+03  0.50400001928E-02 0. -1.
    10030    2    1    2    0    0  0.00000000000E+00  0.00000000000E+00  0.12610803542E+03  0.80966135713E+03  0.79978014268E+03 0.  0.
        4    1    3    3  502    0 -0.87048076892E+02  0.91978142010E+02  0.44704640169E+03  0.46463904750E+03  0.12699999809E+01 0.  1.
       -4    1    3    3    0  502  0.87048076892E+02 -0.91978142010E+02 -0.32093836627E+03  0.34502230963E+03  0.12699999809E+01 0. -1.
</event>
<event>
 5   0  0.4086111E-04  0.8009458E+03  0.7818609E-02  0.9558649E-01
       -1   -1    0    0    0  501  0.00000000000E+00  0.00000000000E+00  0.20257206736E+03  0.20257206742E+03  0.50400001928E-02 0.  1.
        1   -1    0    0  501    0  0.00000000000E+00  0.00000000000E+00 -0.79171104508E+03  0.79171104509E+03  0.50400001928E-02 0. -1.
    10030    2    1    2    0    0  0.00000000000E+00  0.00000000000E+00 -0.58913897772E+03  0.99428311251E+03  0.80094579889E+03 0.  0.
        3    1    3    3  502    0  0.35533243765E+01 -0.30711069778E+03  0.24466602579E+02  0.30810425451E+03  0.10100000352E+00 0.  1.
       -3    1    3    3    0  502 -0.35533243765E+01  0.30711069778E+03 -0.61360558030E+03  0.68617885801E+03  0.10100000352E+00 0. -1.
</event>
<event>
 5   0  0.6801147E-04  0.7997401E+03  0.7818609E-02  0.9560393E-01
       -2   -1    0    0    0  501  0.00000000000E+00  0.00000000000E+00  0.20416779913E+03  0.20416779915E+03  0.25500000920E-02 0. -1.
        2   -1    0    0  501    0  0.00000000000E+00  0.00000000000E+00 -0.78316002556E+03  0.78316002556E+03  0.25500000920E-02 0.  1.
    10030    2    1    2    0    0  0.00000000000E+00  0.00000000000E+00 -0.57899222643E+03  0.98732782471E+03  0.79974010477E+03 0.  0.
        4    1    3    3  502    0  0.15177892272E+03  0.20920915738E+03 -0.66616694738E+03  0.71455253662E+03  0.12699999809E+01 0.  1.
       -4    1    3    3    0  502 -0.15177892272E+03 -0.20920915738E+03  0.87174720955E+02  0.27277528808E+03  0.12699999809E+01 0. -1.
</event>
<event>
 5   0  0.6801147E-04  0.7983090E+03  0.7818609E-02  0.9562468E-01
       -2   -1    0    0    0  501  0.00000000000E+00  0.00000000000E+00  0.14136047049E+03  0.14136047051E+03  0.25500000920E-02 0. -1.
        2   -1    0    0  501    0  0.00000000000E+00  0.00000000000E+00 -0.11270781653E+04  0.11270781653E+04  0.25500000920E-02 0.  1.
    10030    2    1    2    0    0  0.00000000000E+00  0.00000000000E+00 -0.98571769480E+03  0.12684386358E+04  0.79830896210E+03 0.  0.
        4    1    3    3  502    0  0.31431054720E+03  0.23214122574E+03 -0.62235250076E+03  0.73485026833E+03  0.12699999809E+01 0.  1.
       -4    1    3    3    0  502 -0.31431054720E+03 -0.23214122574E+03 -0.36336519404E+03  0.53358836748E+03  0.12699999809E+01 0. -1.
</event>
<event>
 5   0  0.2736375E-04  0.8002753E+03  0.7818609E-02  0.9559619E-01
        4   -1    0    0  501    0  0.00000000000E+00  0.00000000000E+00  0.24963059162E+03  0.24963382217E+03  0.12699999809E+01 0.  1.
       -4   -1    0    0    0  501  0.00000000000E+00  0.00000000000E+00 -0.64138032260E+03  0.64138157996E+03  0.12699999809E+01 0. -1.
    10030    2    1    2    0    0  0.00000000000E+00  0.00000000000E+00 -0.39174973098E+03  0.89101540213E+03  0.80027532457E+03 0.  0.
        2    1    3    3  502    0  0.14716073615E+01 -0.34263496424E+03 -0.42596967979E+03  0.54667271054E+03  0.25500000920E-02 0. -1.
       -2    1    3    3    0  502 -0.14716073615E+01  0.34263496424E+03  0.34219948809E+02  0.34434269159E+03  0.25500000920E-02 0.  1.
</event>
<event>
 5   0  0.4086111E-04  0.8001116E+03  0.7818609E-02  0.9559856E-01
        1   -1    0    0  501    0  0.00000000000E+00  0.00000000000E+00  0.16776938917E+03  0.16776938925E+03  0.50400001928E-02 0. -1.
       -1   -1    0    0    0  501  0.00000000000E+00  0.00000000000E+00 -0.95395612473E+03  0.95395612475E+03  0.50400001928E-02 0.  1.
    10030    2    1    2    0    0  0.00000000000E+00  0.00000000000E+00 -0.78618673556E+03  0.11217255140E+04  0.80011158320E+03 0.  0.
        3    1    3    3  502    0 -0.10375250455E+03  0.14582108212E+03 -0.89470615743E+03  0.91242944305E+03  0.10100000352E+00 0.  1.
       -3    1    3    3    0  502  0.10375250455E+03 -0.14582108212E+03  0.10851942187E+03  0.20929607095E+03  0.10100000352E+00 0. -1.
</event>
<event>
 5   0  0.4392552E-04  0.7998876E+03  0.7818609E-02  0.9560180E-01
        1   -1    0    0  501    0  0.00000000000E+00  0.00000000000E+00  0.51636213139E+03  0.51636213142E+03  0.50400001928E-02 0.  1.
       -1   -1    0    0    0  501  0.00000000000E+00  0.00000000000E+00 -0.30977296769E+03  0.30977296773E+03  0.50400001928E-02 0. -1.
    10030    2    1    2    0    0  0.00000000000E+00  0.00000000000E+00  0.20658916370E+03  0.82613509914E+03  0.79988756677E+03 0.  0.
        5    1    3    3  502    0 -0.15189250766E+03 -0.36824778373E+03  0.13988559214E+03  0.42221775542E+03  0.46999998093E+01 0.  1.
       -5    1    3    3    0  502  0.15189250766E+03  0.36824778373E+03  0.66703571561E+02  0.40391734373E+03  0.46999998093E+01 0. -1.
</event>
<event>
 5   0  0.7133039E-04  0.8001222E+03  0.7818609E-02  0.9559840E-01
        2   -1    0    0  501    0  0.00000000000E+00  0.00000000000E+00  0.85552997171E+03  0.85552997172E+03  0.25500000920E-02 0. -1.
       -2   -1    0    0    0  501  0.00000000000E+00  0.00000000000E+00 -0.18707570938E+03  0.18707570940E+03  0.25500000920E-02 0.  1.
    10030    2    1    2    0    0  0.00000000000E+00  0.00000000000E+00  0.66845426234E+03  0.10426056811E+04  0.80012218158E+03 0.  0.
        2    1    3    3  502    0 -0.22083461048E+03 -0.27253413304E+03  0.83558250924E+02  0.36058946208E+03  0.25500000920E-02 0.  1.
       -2    1    3    3    0  502  0.22083461048E+03  0.27253413304E+03  0.58489601141E+03  0.68201621904E+03  0.25500000920E-02 0. -1.
</event>
<event>
 5   0  0.6970013E-04  0.7999578E+03  0.7818609E-02  0.9560078E-01
        2   -1    0    0  501    0  0.00000000000E+00  0.00000000000E+00  0.31084038615E+03  0.31084038616E+03  0.25500000920E-02 0.  1.
       -2   -1    0    0    0  501  0.00000000000E+00  0.00000000000E+00 -0.51467934247E+03  0.51467934248E+03  0.25500000920E-02 0. -1.
    10030    2    1    2    0    0  0.00000000000E+00  0.00000000000E+00 -0.20383895632E+03  0.82551972863E+03  0.79995781279E+03 0.  0.
        3    1    3    3  502    0 -0.17582189914E+03 -0.24399247423E+03 -0.37404529484E+03  0.47995370662E+03  0.10100000352E+00 0. -1.
       -3    1    3    3    0  502  0.17582189914E+03  0.24399247423E+03  0.17020633852E+03  0.34556602202E+03  0.10100000352E+00 0.  1.
</event>
<event>
 5   0  0.6593118E-04  0.8001887E+03  0.7818609E-02  0.9559744E-01
        2   -1    0    0  501    0  0.00000000000E+00  0.00000000000E+00  0.55525376061E+03  0.55525376062E+03  0.25500000920E-02 0. -1.
       -2   -1    0    0    0  501  0.00000000000E+00  0.00000000000E+00 -0.28829245635E+03  0.28829245636E+03  0.25500000920E-02 0.  1.
    10030    2    1    2    0    0  0.00000000000E+00  0.00000000000E+00  0.26696130427E+03  0.84354621698E+03  0.80018865413E+03 0.  0.
        1    1    3    3  502    0  0.37520062105E+03 -0.12912150506E+03  0.79443029143E+02  0.40467155078E+03  0.50400001928E-02 0.  1.
       -1    1    3    3    0  502 -0.37520062105E+03  0.12912150506E+03  0.18751827512E+03  0.43887466620E+03  0.50400001928E-02 0. -1.
</event>
<event>
 5   0  0.7133039E-04  0.7995652E+03  0.7818609E-02  0.9560647E-01
        2   -1    0    0  501    0  0.00000000000E+00  0.00000000000E+00  0.22206169543E+03  0.22206169545E+03  0.25500000920E-02 0. -1.
       -2   -1    0    0    0  501  0.00000000000E+00  0.00000000000E+00 -0.71973757001E+03  0.71973757002E+03  0.25500000920E-02 0.  1.
    10030    2    1    2    0    0  0.00000000000E+00  0.00000000000E+00 -0.49767587458E+03  0.94179926546E+03  0.79956524455E+03 0.  0.
        2    1    3    3  502    0  0.13008897568E+03 -0.25711855094E+03  0.77573531584E+02  0.29841371222E+03  0.25500000920E-02 0. -1.
       -2    1    3    3    0  502 -0.13008897568E+03  0.25711855094E+03 -0.57524940616E+03  0.64338555325E+03  0.25500000920E-02 0.  1.
</event>
<event>
 5   0  0.6970013E-04  0.7999518E+03  0.7818609E-02  0.9560087E-01
        2   -1    0    0  501    0  0.00000000000E+00  0.00000000000E+00  0.39324115700E+03  0.39324115701E+03  0.25500000920E-02 0.  1.
       -2   -1    0    0    0  501  0.00000000000E+00  0.00000000000E+00 -0.40682602900E+03  0.40682602900E+03  0.25500000920E-02 0. -1.
    10030    2    1    2    0    0  0.00000000000E+00  0.00000000000E+00 -0.13584871992E+02  0.80006718602E+03  0.79995184442E+03 0.  0.
        3    1    3    3  502    0  0.13737390984E+03  0.13746961470E+03  0.34284521478E+03  0.39409686318E+03  0.10100000352E+00 0.  1.
       -3    1    3    3    0  502 -0.13737390984E+03 -0.13746961470E+03 -0.35643008677E+03  0.40597032284E+03  0.10100000352E+00 0. -1.
</event>
<event>
 5   0  0.4086111E-04  0.7999551E+03  0.7818609E-02  0.9560082E-01
       -1   -1    0    0    0  501  0.00000000000E+00  0.00000000000E+00  0.55561381149E+03  0.55561381151E+03  0.50400001928E-02 0.  1.
        1   -1    0    0  501    0  0.00000000000E+00  0.00000000000E+00 -0.28793744905E+03  0.28793744910E+03  0.50400001928E-02 0. -1.
    10030    2    1    2    0    0  0.00000000000E+00  0.00000000000E+00  0.26767636244E+03  0.84355126061E+03  0.79995505766E+03 0.  0.
        3    1    3    3  502    0 -0.33070245108E+02  0.14549053021E+03 -0.25749419627E+03  0.29759772648E+03  0.10100000352E+00 0. -1.
       -3    1    3    3    0  502  0.33070245108E+02 -0.14549053021E+03  0.52517055871E+03  0.54595353413E+03  0.10100000352E+00 0.  1.
</event>
<event>
 5   0  0.6672462E-04  0.8016340E+03  0.7818609E-02  0.9557655E-01
        2   -1    0    0  501    0  0.00000000000E+00  0.00000000000E+00  0.64849378933E+03  0.64849378934E+03  0.25500000920E-02 0. -1.
       -2   -1    0    0    0  501  0.00000000000E+00  0.00000000000E+00 -0.24773448658E+03  0.24773448659E+03  0.25500000920E-02 0.  1.
    10030    2    1    2    0    0  0.00000000000E+00  0.00000000000E+00  0.40075930275E+03  0.89622827593E+03  0.80163402113E+03 0.  0.
        5    1    3    3  502    0  0.35537225928E+03  0.45771655101E+02 -0.38713455172E+00  0.35833884376E+03  0.46999998093E+01 0.  1.
       -5    1    3    3    0  502 -0.35537225928E+03 -0.45771655101E+02  0.40114643731E+03  0.53788943217E+03  0.46999998093E+01 0. -1.
</event>
<event>
 5   0  0.4392552E-04  0.7997188E+03  0.7818609E-02  0.9560424E-01
        1   -1    0    0  501    0  0.00000000000E+00  0.00000000000E+00  0.42414344414E+03  0.42414344417E+03  0.50400001928E-02 0.  1.
       -1   -1    0    0    0  501  0.00000000000E+00  0.00000000000E+00 -0.37696568904E+03  0.37696568907E+03  0.50400001928E-02 0. -1.
    10030    2    1    2    0    0  0.00000000000E+00  0.00000000000E+00  0.47177755103E+02  0.80110913324E+03  0.79971876481E+03 0.  0.
        5    1    3    3  502    0  0.66271327774E+02  0.43784305920E+02 -0.36895523898E+03  0.37743742886E+03  0.46999998093E+01 0. -1.
       -5    1    3    3    0  502 -0.66271327774E+02 -0.43784305920E+02  0.41613299409E+03  0.42367170438E+03  0.46999998093E+01 0.  1.
</event>
<event>
 5   0  0.4086111E-04  0.7980861E+03  0.7818609E-02  0.9562791E-01
       -1   -1    0    0    0  501  0.00000000000E+00  0.00000000000E+00  0.88539668471E+03  0.88539668472E+03  0.50400001928E-02 0.  1.
        1   -1    0    0  501    0  0.00000000000E+00  0.00000000000E+00 -0.17984635457E+03  0.17984635464E+03  0.50400001928E-02 0. -1.
    10030    2    1    2    0    0  0.00000000000E+00  0.00000000000E+00  0.70555033014E+03  0.10652430394E+04  0.79808612602E+03 0.  0.
        3    1    3    3  502    0  0.44067028040E+02  0.39490967885E+03  0.30391907683E+03  0.50026230407E+03  0.10100000352E+00 0. -1.
       -3    1    3    3    0  502 -0.44067028040E+02 -0.39490967885E+03  0.40163125330E+03  0.56498073529E+03  0.10100000352E+00 0.  1.
</event>
<event>
 5   0  0.6970013E-04  0.8000392E+03  0.7818609E-02  0.9559960E-01
        2   -1    0    0  501    0  0.00000000000E+00  0.00000000000E+00  0.17963253662E+04  0.17963253662E+04  0.25500000920E-02 0.  1.
       -2   -1    0    0    0  501  0.00000000000E+00  0.00000000000E+00 -0.89079453401E+02  0.89079453437E+02  0.25500000920E-02 0. -1.
    10030    2    1    2    0    0  0.00000000000E+00  0.00000000000E+00  0.17072459128E+04  0.18854048196E+04  0.80003920350E+03 0.  0.
        3    1    3    3  502    0  0.28956485357E+03  0.59529461374E+02  0.14887107372E+04  0.15177783864E+04  0.10100000352E+00 0.  1.
       -3    1    3    3    0  502 -0.28956485357E+03 -0.59529461374E+02  0.21853517562E+03  0.36762643318E+03  0.10100000352E+00 0. -1.
</event>
<event>
 5   0  0.4087283E-04  0.7999536E+03  0.7818609E-02  0.9560084E-01
       -1   -1    0    0    0  501  0.00000000000E+00  0.00000000000E+00  0.10604304269E+03  0.10604304281E+03  0.50400001928E-02 0. -1.
        1   -1    0    0  501    0  0.00000000000E+00  0.00000000000E+00 -0.15086463394E+04  0.15086463394E+04  0.50400001928E-02 0.  1.
    10030    2    1    2    0    0  0.00000000000E+00  0.00000000000E+00 -0.14026032967E+04  0.16146893822E+04  0.79995361934E+03 0.  0.
        1    1    3    3  502    0  0.54200132655E+02 -0.39245855592E+03 -0.59037571283E+03  0.71098864605E+03  0.50400001928E-02 0. -1.
       -1    1    3    3    0  502 -0.54200132655E+02  0.39245855592E+03 -0.81222758388E+03  0.90370073616E+03  0.50400001928E-02 0.  1.
</event>
<event>
 5   0  0.4086111E-04  0.7997110E+03  0.7818609E-02  0.9560436E-01
        1   -1    0    0  501    0  0.00000000000E+00  0.00000000000E+00  0.53360347531E+03  0.53360347534E+03  0.50400001928E-02 0. -1.
       -1   -1    0    0    0  501  0.00000000000E+00  0.00000000000E+00 -0.29963151244E+03  0.29963151248E+03  0.50400001928E-02 0.  1.
    10030    2    1    2    0    0  0.00000000000E+00  0.00000000000E+00  0.23397196287E+03  0.83323498782E+03  0.79971098874E+03 0.  0.
        3    1    3    3  502    0  0.32732978119E+02  0.74832656505E+02 -0.29084694672E+03  0.30209821409E+03  0.10100000352E+00 0.  1.
       -3    1    3    3    0  502 -0.32732978119E+02 -0.74832656505E+02  0.52481890960E+03  0.53113677373E+03  0.10100000352E+00 0. -1.
</event>
<event>
 5   0  0.4104786E-04  0.8000487E+03  0.7818609E-02  0.9559947E-01
        1   -1    0    0  501    0  0.00000000000E+00  0.00000000000E+00  0.18972287571E+03  0.18972287577E+03  0.50400001928E-02 0. -1.
       -1   -1    0    0    0  501  0.00000000000E+00  0.00000000000E+00 -0.84343805367E+03  0.84343805369E+03  0.50400001928E-02 0.  1.
    10030    2    1    2    0    0  0.00000000000E+00  0.00000000000E+00 -0.65371517796E+03  0.10331609295E+04  0.80004873118E+03 0.  0.
        2    1    3    3  502    0  0.13990664821E+03  0.28793168286E+03 -0.63662813308E+03  0.71258255946E+03  0.25500000920E-02 0.  1.
       -2    1    3    3    0  502 -0.13990664821E+03 -0.28793168286E+03 -0.17087044883E+02  0.32057837000E+03  0.25500000920E-02 0. -1.
</event>
<event>
 5   0  0.4392552E-04  0.8001480E+03  0.7818609E-02  0.9559803E-01
       -1   -1    0    0    0  501  0.00000000000E+00  0.00000000000E+00  0.10643483869E+03  0.10643483881E+03  0.50400001928E-02 0. -1.
        1   -1    0    0  501    0  0.00000000000E+00  0.00000000000E+00 -0.15038232801E+04  0.15038232801E+04  0.50400001928E-02 0.  1.
    10030    2    1    2    0    0  0.00000000000E+00  0.00000000000E+00 -0.13973884414E+04  0.16102581189E+04  0.80014795717E+03 0.  0.
        5    1    3    3  502    0 -0.27390640688E+03 -0.26745317514E+03 -0.93235677169E+03  0.10079023565E+04  0.46999998093E+01 0.  1.
       -5    1    3    3    0  502  0.27390640688E+03  0.26745317514E+03 -0.46503166975E+03  0.60235576240E+03  0.46999998093E+01 0. -1.
</event>
<event>
 5   0  0.6801147E-04  0.7998965E+03  0.7818609E-02  0.9560167E-01
        2   -1    0    0  501    0  0.00000000000E+00  0.00000000000E+00  0.95160579365E+03  0.95160579365E+03  0.25500000920E-02 0.  1.
       -2   -1    0    0    0  501  0.00000000000E+00  0.00000000000E+00 -0.16809335773E+03  0.16809335775E+03  0.25500000920E-02 0. -1.
    10030    2    1    2    0    0  0.00000000000E+00  0.00000000000E+00  0.78351243592E+03  0.11196991514E+04  0.79989652606E+03 0.  0.
        4    1    3    3  502    0 -0.14591174800E+03 -0.32851568867E+03  0.63719837955E+03  0.73159837596E+03  0.12699999809E+01 0.  1.
       -4    1    3    3    0  502  0.14591174800E+03  0.32851568867E+03  0.14631405637E+03  0.38810077544E+03  0.12699999809E+01 0. -1.
</event>
<event>
 5   0  0.6593118E-04  0.8002448E+03  0.7818609E-02  0.9559663E-01
        2   -1    0    0  501    0  0.00000000000E+00  0.00000000000E+00  0.51324975055E+03  0.51324975055E+03  0.25500000920E-02 0.  1.
       -2   -1    0    0    0  501  0.00000000000E+00  0.00000000000E+00 -0.31192984488E+03  0.31192984489E+03  0.25500000920E-02 0. -1.
    10030    2    1    2    0    0  0.00000000000E+00  0.00000000000E+00  0.20131990567E+03  0.82517959544E+03  0.80024475026E+03 0.  0.
        1    1    3    3  502    0  0.10781125114E+03 -0.40477119539E+02 -0.29447212835E+03  0.31618902176E+03  0.50400001928E-02 0. -1.
       -1    1    3    3    0  502 -0.10781125114E+03  0.40477119539E+02  0.49579203402E+03  0.50899057369E+03  0.50400001928E-02 0.  1.
</event>
<event>
 5   0  0.4169155E-04  0.8000146E+03  0.7818609E-02  0.9559996E-01
        1   -1    0    0  501    0  0.00000000000E+00  0.00000000000E+00  0.88363529444E+03  0.88363529446E+03  0.50400001928E-02 0.  1.
       -1   -1    0    0    0  501  0.00000000000E+00  0.00000000000E+00 -0.18107679053E+03  0.18107679060E+03  0.50400001928E-02 0. -1.
    10030    2    1    2    0    0  0.00000000000E+00  0.00000000000E+00  0.70255850391E+03  0.10647120851E+04  0.80001460777E+03 0.  0.
        4    1    3    3  502    0 -0.54759656524E+02 -0.72863581553E+02 -0.16706950268E+03  0.19031960783E+03  0.12699999809E+01 0. -1.
       -4    1    3    3    0  502  0.54759656524E+02  0.72863581553E+02  0.86962800659E+03  0.87439247723E+03  0.12699999809E+01 0.  1.
</event>
<event>
 5   0  0.7133039E-04  0.7999835E+03  0.7818609E-02  0.9560041E-01
        2   -1    0    0  501    0  0.00000000000E+00  0.00000000000E+00  0.43908359073E+03  0.43908359073E+03  0.25500000920E-02 0. -1.
       -2   -1    0    0    0  501  0.00000000000E+00  0.00000000000E+00 -0.36438027431E+03  0.36438027432E+03  0.25500000920E-02 0.  1.
    10030    2    1    2    0    0  0.00000000000E+00  0.00000000000E+00  0.74703316415E+02  0.80346386506E+03  0.79998349793E+03 0.  0.
        2    1    3    3  502    0  0.70824342480E+02 -0.34184970501E+03  0.23343445751E+03  0.41996303916E+03  0.25500000920E-02 0.  1.
       -2    1    3    3    0  502 -0.70824342480E+02  0.34184970501E+03 -0.15873114110E+03  0.38350082589E+03  0.25500000920E-02 0. -1.
</event>
<event>
 5   0  0.4086111E-04  0.8002816E+03  0.7818609E-02  0.9559610E-01
        1   -1    0    0  501    0  0.00000000000E+00  0.00000000000E+00  0.10335220217E+04  0.10335220217E+04  0.50400001928E-02 0. -1.
       -1   -1    0    0    0  501  0.00000000000E+00  0.00000000000E+00 -0.15491943425E+03  0.15491943433E+03  0.50400001928E-02 0.  1.
    10030    2    1    2    0    0  0.00000000000E+00  0.00000000000E+00  0.87860258741E+03  0.11884414560E+04  0.80028156778E+03 0.  0.
        3    1    3    3  502    0 -0.29045363547E+03  0.74001417443E+02  0.45633783474E+02  0.30318637261E+03  0.10100000352E+00 0.  1.
       -3    1    3    3    0  502  0.29045363547E+03 -0.74001417443E+02  0.83296880394E+03  0.88525508340E+03  0.10100000352E+00 0. -1.
</event>
<event>
 5   0  0.7133039E-04  0.8002314E+03  0.7818609E-02  0.9559682E-01
       -2   -1    0    0    0  501  0.00000000000E+00  0.00000000000E+00  0.25454647667E+03  0.25454647668E+03  0.25500000920E-02 0. -1.
        2   -1    0    0  501    0  0.00000000000E+00  0.00000000000E+00 -0.62893257920E+03  0.62893257920E+03  0.25500000920E-02 0.  1.
    10030    2    1    2    0    0  0.00000000000E+00  0.00000000000E+00 -0.37438610253E+03  0.88347905588E+03  0.80023139680E+03 0.  0.
        2    1    3    3  502    0 -0.15437176846E+02 -0.96240751841E+02  0.24123864979E+03  0.26018584686E+03  0.25500000920E-02 0. -1.
       -2    1    3    3    0  502  0.15437176846E+02  0.96240751841E+02 -0.61562475232E+03  0.62329320903E+03  0.25500000920E-02 0.  1.
</event>
<event>
 5   0  0.4104786E-04  0.7995965E+03  0.7818609E-02  0.9560601E-01
        1   -1    0    0  501    0  0.00000000000E+00  0.00000000000E+00  0.37428132281E+03  0.37428132285E+03  0.50400001928E-02 0. -1.
       -1   -1    0    0    0  501  0.00000000000E+00  0.00000000000E+00 -0.42705484366E+03  0.42705484369E+03  0.50400001928E-02 0.  1.
    10030    2    1    2    0    0  0.00000000000E+00  0.00000000000E+00 -0.52773520853E+02  0.80133616654E+03  0.79959652782E+03 0.  0.
        2    1    3    3  502    0  0.80832092653E+02 -0.39116755891E+03 -0.92391436124E+01  0.39953879428E+03  0.25500000920E-02 0. -1.
       -2    1    3    3    0  502 -0.80832092653E+02  0.39116755891E+03 -0.43534377241E+02  0.40179737226E+03  0.25500000920E-02 0.  1.
</event>
<event>
 5   0  0.4104786E-04  0.8000158E+03  0.7818609E-02  0.9559994E-01
        1   -1    0    0  501    0  0.00000000000E+00  0.00000000000E+00  0.83386472761E+03  0.83386472763E+03  0.50400001928E-02 0. -1.
       -1   -1    0    0    0  501  0.00000000000E+00  0.00000000000E+00 -0.19188520842E+03  0.19188520848E+03  0.50400001928E-02 0.  1.
    10030    2    1    2    0    0  0.00000000000E+00  0.00000000000E+00  0.64197951919E+03  0.10257499361E+04  0.80001576758E+03 0.  0.
        2    1    3    3  502    0  0.15134425545E+03 -0.36895219472E+03  0.36103555359E+03  0.53793817173E+03  0.25500000920E-02 0.  1.
       -2    1    3    3    0  502 -0.15134425545E+03  0.36895219472E+03  0.28094396561E+03  0.48781176438E+03  0.25500000920E-02 0. -1.
</event>
<event>
 5   0  0.4104786E-04  0.7999470E+03  0.7818609E-02  0.9560094E-01
       -1   -1    0    0    0  501  0.00000000000E+00  0.00000000000E+00  0.27420245298E+03  0.27420245302E+03  0.50400001928E-02 0. -1.
        1   -1    0    0  501    0  0.00000000000E+00  0.00000000000E+00 -0.58343317274E+03  0.58343317276E+03  0.50400001928E-02 0.  1.
    10030    2    1    2    0    0  0.00000000000E+00  0.00000000000E+00 -0.30923071976E+03  0.85763562578E+03  0.79994701610E+03 0.  0.
        2    1    3    3  502    0  0.28257425209E+03 -0.24383859617E+03 -0.46416509621E+00  0.37323676719E+03  0.25500000920E-02 0. -1.
       -2    1    3    3    0  502 -0.28257425209E+03  0.24383859617E+03 -0.30876655466E+03  0.48439885860E+03  0.25500000920E-02 0.  1.
</event>
<event>
 5   0  0.6801147E-04  0.7999222E+03  0.7818609E-02  0.9560130E-01
       -2   -1    0    0    0  501  0.00000000000E+00  0.00000000000E+00  0.49529379891E+03  0.49529379891E+03  0.25500000920E-02 0.  1.
        2   -1    0    0  501    0  0.00000000000E+00  0.00000000000E+00 -0.32297772556E+03  0.32297772557E+03  0.25500000920E-02 0. -1.
    10030    2    1    2    0    0  0.00000000000E+00  0.00000000000E+00  0.17231607334E+03  0.81827152449E+03  0.79992215787E+03 0.  0.
        4    1    3    3  502    0  0.26803770547E+03 -0.25689254791E+03 -0.66013402322E+02  0.37709067200E+03  0.12699999809E+01 0. -1.
       -4    1    3    3    0  502 -0.26803770547E+03  0.25689254791E+03  0.23832947566E+03  0.44118085248E+03  0.12699999809E+01 0.  1.
</event>
<event>
 5   0  0.4392552E-04  0.8001267E+03  0.7818609E-02  0.9559834E-01
        1   -1    0    0  501    0  0.00000000000E+00  0.00000000000E+00  0.90466271344E+03  0.90466271345E+03  0.50400001928E-02 0.  1.
       -1   -1    0    0    0  501  0.00000000000E+00  0.00000000000E+00 -0.17691750431E+03  0.17691750438E+03  0.50400001928E-02 0. -1.
    10030    2    1    2    0    0  0.00000000000E+00  0.00000000000E+00  0.72774520913E+03  0.10815802178E+04  0.80012666385E+03 0.  0.
        5    1    3    3  502    0 -0.29110761870E+02 -0.20423494544E+02  0.90248462435E+03  0.90319717824E+03  0.46999998093E+01 0.  1.
       -5    1    3    3    0  502  0.29110761870E+02  0.20423494544E+02 -0.17473941522E+03  0.17838303960E+03  0.46999998093E+01 0. -1.
</event>
<event>
 5   0  0.6672462E-04  0.8001413E+03  0.7818609E-02  0.9559813E-01
       -2   -1    0    0    0  501  0.00000000000E+00  0.00000000000E+00  0.19998624877E+03  0.19998624878E+03  0.25500000920E-02 0.  1.
        2   -1    0    0  501    0  0.00000000000E+00  0.00000000000E+00 -0.80033770390E+03  0.80033770390E+03  0.25500000920E-02 0. -1.
    10030    2    1    2    0    0  0.00000000000E+00  0.00000000000E+00 -0.60035145513E+03  0.10003239527E+04  0.80014132542E+03 0.  0.
        5    1    3    3  502    0  0.82165921314E+02  0.14237973961E+03  0.15577519541E+03  0.22651982337E+03  0.46999998093E+01 0.  1.
       -5    1    3    3    0  502 -0.82165921314E+02 -0.14237973961E+03 -0.75612665054E+03  0.77380412931E+03  0.46999998093E+01 0. -1.
</event>
<event>
 5   0  0.6672462E-04  0.7999538E+03  0.7818609E-02  0.9560084E-01
       -2   -1    0    0    0  501  0.00000000000E+00  0.00000000000E+00  0.63485597574E+02  0.63485597626E+02  0.25500000920E-02 0.  1.
        2   -1    0    0  501    0  0.00000000000E+00  0.00000000000E+00 -0.25199656783E+04  0.25199656783E+04  0.25500000920E-02 0. -1.
    10030    2    1    2    0    0  0.00000000000E+00  0.00000000000E+00 -0.24564800807E+04  0.25834512759E+04  0.79995381622E+03 0.  0.
        5    1    3    3  502    0 -0.31922019690E+03 -0.11736428431E+03 -0.54863519657E+03  0.64552194250E+03  0.46999998093E+01 0.  1.
       -5    1    3    3    0  502  0.31922019690E+03  0.11736428431E+03 -0.19078448841E+04  0.19379293334E+04  0.46999998093E+01 0. -1.
</event>
<event>
 5   0  0.6801147E-04  0.8004316E+03  0.7818609E-02  0.9559393E-01
        2   -1    0    0  501    0  0.00000000000E+00  0.00000000000E+00  0.10955731464E+04  0.10955731464E+04  0.25500000920E-02 0. -1.
       -2   -1    0    0    0  501  0.00000000000E+00  0.00000000000E+00 -0.14619991289E+03  0.14619991291E+03  0.25500000920E-02 0.  1.
    10030    2    1    2    0    0  0.00000000000E+00  0.00000000000E+00  0.94937323355E+03  0.12417730594E+04  0.80043163004E+03 0.  0.
        4    1    3    3  502    0 -0.39623048856E+03 -0.44907705459E+02  0.42194465764E+03  0.58056369942E+03  0.12699999809E+01 0.  1.
       -4    1    3    3    0  502  0.39623048856E+03  0.44907705459E+02  0.52742857591E+03  0.66120935993E+03  0.12699999809E+01 0. -1.
</event>
<event>
 5   0  0.4169155E-04  0.7997985E+03  0.7818609E-02  0.9560309E-01
       -1   -1    0    0    0  501  0.00000000000E+00  0.00000000000E+00  0.37989734524E+03  0.37989734527E+03  0.50400001928E-02 0.  1.
        1   -1    0    0  501    0  0.00000000000E+00  0.00000000000E+00 -0.42095428606E+03  0.42095428609E+03  0.50400001928E-02 0. -1.
    10030    2    1    2    0    0  0.00000000000E+00  0.00000000000E+00 -0.41056940821E+02  0.80085163136E+03  0.79979851404E+03 0.  0.
        4    1    3    3  502    0  0.28630466670E+02  0.20175377025E+03  0.32400818204E+03  0.38276259269E+03  0.12699999809E+01 0.  1.
       -4    1    3    3    0  502 -0.28630466670E+02 -0.20175377025E+03 -0.36506512286E+03  0.41808903868E+03  0.12699999809E+01 0. -1.
</event>
<event>
 5   0  0.2736375E-04  0.8009071E+03  0.7818609E-02  0.9558705E-01
        4   -1    0    0  501    0  0.00000000000E+00  0.00000000000E+00  0.46113157864E+03  0.46113332749E+03  0.12699999809E+01 0. -1.
       -4   -1    0    0    0  501  0.00000000000E+00  0.00000000000E+00 -0.34775631354E+03  0.34775863254E+03  0.12699999809E+01 0.  1.
    10030    2    1    2    0    0  0.00000000000E+00  0.00000000000E+00  0.11337526510E+03  0.80889196003E+03  0.80090714335E+03 0.  0.
        5    1    3    3  502    0  0.15013363480E+02  0.15779296643E+03 -0.31469699400E+03  0.35239226633E+03  0.46999998093E+01 0.  1.
       -5    1    3    3    0  502 -0.15013363480E+02 -0.15779296643E+03  0.42807225911E+03  0.45649969370E+03  0.46999998093E+01 0. -1.
</event>
<event>
 5   0  0.2736375E-04  0.8000263E+03  0.7818609E-02  0.9559979E-01
       -3   -1    0    0    0  501  0.00000000000E+00  0.00000000000E+00  0.33683486664E+03  0.33683488178E+03  0.10100000352E+00 0. -1.
        3   -1    0    0  501    0  0.00000000000E+00  0.00000000000E+00 -0.47504145480E+03  0.47504146554E+03  0.10100000352E+00 0.  1.
    10030    2    1    2    0    0  0.00000000000E+00  0.00000000000E+00 -0.13820658816E+03  0.81187634733E+03  0.80002633853E+03 0.  0.
        1    1    3    3  502    0 -0.19659956344E+03 -0.64846577563E+02 -0.41645088559E+03  0.46506752961E+03  0.50400001928E-02 0.  1.
       -1    1    3    3    0  502  0.19659956344E+03  0.64846577563E+02  0.27824429743E+03  0.34680881771E+03  0.50400001928E-02 0. -1.
</event>
<event>
 5   0  0.7133039E-04  0.8003011E+03  0.7818609E-02  0.9559581E-01
        2   -1    0    0  501    0  0.00000000000E+00  0.00000000000E+00  0.95051270953E+03  0.95051270954E+03  0.25500000920E-02 0.  1.
       -2   -1    0    0    0  501  0.00000000000E+00  0.00000000000E+00 -0.16845696100E+03  0.16845696102E+03  0.25500000920E-02 0. -1.
    10030    2    1    2    0    0  0.00000000000E+00  0.00000000000E+00  0.78205574853E+03  0.11189696706E+04  0.80030114946E+03 0.  0.
        2    1    3    3  502    0 -0.22957400600E+03  0.13594595415E+03  0.80799433304E+03  0.85090561692E+03  0.25500000920E-02 0.  1.
       -2    1    3    3    0  502  0.22957400600E+03 -0.13594595415E+03 -0.25938584510E+02  0.26806405364E+03  0.25500000920E-02 0. -1.
</event>
<event>
 5   0  0.4104786E-04  0.7994920E+03  0.7818609E-02  0.9560753E-01
       -1   -1    0    0    0  501  0.00000000000E+00  0.00000000000E+00  0.10919766316E+03  0.10919766327E+03  0.50400001928E-02 0. -1.
        1   -1    0    0  501    0  0.00000000000E+00  0.00000000000E+00 -0.14633725874E+04  0.14633725874E+04  0.50400001928E-02 0.  1.
    10030    2    1    2    0    0  0.00000000000E+00  0.00000000000E+00 -0.13541749243E+04  0.15725702507E+04  0.79949200615E+03 0.  0.
        2    1    3    3  502    0 -0.59166437432E+02  0.29164846825E+03 -0.12020760592E+04  0.12383643843E+04  0.25500000920E-02 0.  1.
       -2    1    3    3    0  502  0.59166437432E+02 -0.29164846825E+03 -0.15209886512E+03  0.33420586639E+03  0.25500000920E-02 0. -1.
</event>
<event>
 5   0  0.6970013E-04  0.7982190E+03  0.7818609E-02  0.9562599E-01
        2   -1    0    0  501    0  0.00000000000E+00  0.00000000000E+00  0.13211905987E+04  0.13211905987E+04  0.25500000920E-02 0.  1.
       -2   -1    0    0    0  501  0.00000000000E+00  0.00000000000E+00 -0.12056427738E+03  0.12056427740E+03  0.25500000920E-02 0. -1.
    10030    2    1    2    0    0  0.00000000000E+00  0.00000000000E+00  0.12006263214E+04  0.14417548761E+04  0.79821899209E+03 0.  0.
        3    1    3    3  502    0 -0.22233052202E+03  0.10122812341E+03  0.11703746234E+04  0.11955980777E+04  0.10100000352E+00 0.  1.
       -3    1    3    3    0  502  0.22233052202E+03 -0.10122812341E+03  0.30251697920E+02  0.24615679845E+03  0.10100000352E+00 0. -1.
</event>
<event>
 5   0  0.6672462E-04  0.8000015E+03  0.7818609E-02  0.9560015E-01
        2   -1    0    0  501    0  0.00000000000E+00  0.00000000000E+00  0.87986206015E+02  0.87986206052E+02  0.25500000920E-02 0. -1.
       -2   -1    0    0    0  501  0.00000000000E+00  0.00000000000E+00 -0.18184736830E+04  0.18184736830E+04  0.25500000920E-02 0.  1.
    10030    2    1    2    0    0  0.00000000000E+00  0.00000000000E+00 -0.17304874770E+04  0.19064598891E+04  0.80000150037E+03 0.  0.
        5    1    3    3  502    0 -0.15909233122E+03 -0.36541888315E+03 -0.78488159670E+03  0.88028548827E+03  0.46999998093E+01 0.  1.
       -5    1    3    3    0  502  0.15909233122E+03  0.36541888315E+03 -0.94560588033E+03  0.10261744008E+04  0.46999998093E+01 0. -1.
</event>
<event>
 5   0  0.4392552E-04  0.7997423E+03  0.7818609E-02  0.9560390E-01
       -1   -1    0    0    0  501  0.00000000000E+00  0.00000000000E+00  0.14746742399E+03  0.14746742408E+03  0.50400001928E-02 0. -1.
        1   -1    0    0  501    0  0.00000000000E+00  0.00000000000E+00 -0.10842865933E+04  0.10842865933E+04  0.50400001928E-02 0.  1.
    10030    2    1    2    0    0  0.00000000000E+00  0.00000000000E+00 -0.93681916927E+03  0.12317540174E+04  0.79974233561E+03 0.  0.
        5    1    3    3  502    0 -0.30755361800E+03 -0.21976274686E+03 -0.66916634603E+03  0.76856397360E+03  0.46999998093E+01 0.  1.
       -5    1    3    3    0  502  0.30755361800E+03  0.21976274686E+03 -0.26765282324E+03  0.46319004376E+03  0.46999998093E+01 0. -1.
</event>
<event>
 5   0  0.4086111E-04  0.8002332E+03  0.7818609E-02  0.9559680E-01
        1   -1    0    0  501    0  0.00000000000E+00  0.00000000000E+00  0.19318498210E+03  0.19318498217E+03  0.50400001928E-02 0. -1.
       -1   -1    0    0    0  501  0.00000000000E+00  0.00000000000E+00 -0.82870466406E+03  0.82870466407E+03  0.50400001928E-02 0.  1.
    10030    2    1    2    0    0  0.00000000000E+00  0.00000000000E+00 -0.63551968196E+03  0.10218896462E+04  0.80023320535E+03 0.  0.
        3    1    3    3  502    0 -0.13657544471E+03  0.36457534170E+03 -0.43566724715E+03  0.58427219026E+03  0.10100000352E+00 0. -1.
       -3    1    3    3    0  502  0.13657544471E+03 -0.36457534170E+03 -0.19985243481E+03  0.43761745598E+03  0.10100000352E+00 0.  1.
</event>
<event>
 5   0  0.6970013E-04  0.8003213E+03  0.7818609E-02  0.9559552E-01
        2   -1    0    0  501    0  0.00000000000E+00  0.00000000000E+00  0.22043279604E+03  0.22043279605E+03  0.25500000920E-02 0.  1.
       -2   -1    0    0    0  501  0.00000000000E+00  0.00000000000E+00 -0.72642788483E+03  0.72642788483E+03  0.25500000920E-02 0. -1.
    10030    2    1    2    0    0  0.00000000000E+00  0.00000000000E+00 -0.50599508879E+03  0.94686068089E+03  0.80032125995E+03 0.  0.
        3    1    3    3  502    0 -0.23927567138E+03 -0.24621891245E+03 -0.98079702412E+01  0.34347169642E+03  0.10100000352E+00 0.  1.
       -3    1    3    3    0  502  0.23927567138E+03  0.24621891245E+03 -0.49618711855E+03  0.60338898447E+03  0.10100000352E+00 0. -1.
</event>
<event>
 5   0  0.6593118E-04  0.8003351E+03  0.7818609E-02  0.9559532E-01
       -2   -1    0    0    0  501  0.00000000000E+00  0.00000000000E+00  0.13623589139E+03  0.13623589142E+03  0.25500000920E-02 0. -1.
        2   -1    0    0  501    0  0.00000000000E+00  0.00000000000E+00 -0.11754174999E+04  0.11754174999E+04  0.25500000920E-02 0.  1.
    10030    2    1    2    0    0  0.00000000000E+00  0.00000000000E+00 -0.10391816085E+04  0.13116533913E+04  0.80033505702E+03 0.  0.
        1    1    3    3  502    0  0.20032617746E+03 -0.69125530504E+02  0.36724307988E+02  0.21507578006E+03  0.50400001928E-02 0. -1.
       -1    1    3    3    0  502 -0.20032617746E+03  0.69125530504E+02 -0.10759059165E+04  0.10965776113E+04  0.50400001928E-02 0.  1.
</event>
<event>
 5   0  0.6593118E-04  0.7999682E+03  0.7818609E-02  0.9560063E-01
       -2   -1    0    0    0  501  0.00000000000E+00  0.00000000000E+00  0.31940220942E+03  0.31940220944E+03  0.25500000920E-02 0.  1.
        2   -1    0    0  501    0  0.00000000000E+00  0.00000000000E+00 -0.50089598697E+03  0.50089598698E+03  0.25500000920E-02 0. -1.
    10030    2    1    2    0    0  0.00000000000E+00  0.00000000000E+00 -0.18149377755E+03  0.82029819641E+03  0.79996821171E+03 0.  0.
        1    1    3    3  502    0 -0.10350965295E+03  0.37445737155E+03  0.68276225226E+01  0.38856040433E+03  0.50400001928E-02 0.  1.
       -1    1    3    3    0  502  0.10350965295E+03 -0.37445737155E+03 -0.18832140007E+03  0.43173779208E+03  0.50400001928E-02 0. -1.
</event>
<event>
 5   0  0.7133039E-04  0.7997288E+03  0.7818609E-02  0.9560410E-01
       -2   -1    0    0    0  501  0.00000000000E+00  0.00000000000E+00  0.13663324757E+03  0.13663324759E+03  0.25500000920E-02 0. -1.
        2   -1    0    0  501    0  0.00000000000E+00  0.00000000000E+00 -0.11702241566E+04  0.11702241566E+04  0.25500000920E-02 0.  1.
    10030    2    1    2    0    0  0.00000000000E+00  0.00000000000E+00 -0.10335909090E+04  0.13068574042E+04  0.79972877130E+03 0.  0.
        2    1    3    3  502    0 -0.18545092360E+03  0.30844012876E+03 -0.23204384942E+03  0.42821922674E+03  0.25500000920E-02 0. -1.
       -2    1    3    3    0  502  0.18545092360E+03 -0.30844012876E+03 -0.80154705957E+03  0.87863817741E+03  0.25500000920E-02 0.  1.
</event>
<event>
 5   0  0.4087283E-04  0.8003661E+03  0.7818609E-02  0.9559487E-01
        1   -1    0    0  501    0  0.00000000000E+00  0.00000000000E+00  0.34351571636E+03  0.34351571640E+03  0.50400001928E-02 0.  1.
       -1   -1    0    0    0  501  0.00000000000E+00  0.00000000000E+00 -0.46619838205E+03  0.46619838208E+03  0.50400001928E-02 0. -1.
    10030    2    1    2    0    0  0.00000000000E+00  0.00000000000E+00 -0.12268266569E+03  0.80971409848E+03  0.80036609424E+03 0.  0.
        1    1    3    3  502    0  0.37209813961E+03 -0.14481055197E+02 -0.20961279711E+03  0.42732218665E+03  0.50400001928E-02 0. -1.
       -1    1    3    3    0  502 -0.37209813961E+03  0.14481055197E+02  0.86930131419E+02  0.38239191183E+03  0.50400001928E-02 0.  1.
</event>
<event>
 5   0  0.6593118E-04  0.8000063E+03  0.7818609E-02  0.9560008E-01
       -2   -1    0    0    0  501  0.00000000000E+00  0.00000000000E+00  0.20002823975E+03  0.20002823976E+03  0.25500000920E-02 0.  1.
        2   -1    0    0  501    0  0.00000000000E+00  0.00000000000E+00 -0.79989973157E+03  0.79989973158E+03  0.25500000920E-02 0. -1.
    10030    2    1    2    0    0  0.00000000000E+00  0.00000000000E+00 -0.59987149183E+03  0.99992797134E+03  0.80000633820E+03 0.  0.
        1    1    3    3  502    0 -0.36075330363E+03  0.61036113523E+02 -0.97876026627E+02  0.37874538921E+03  0.50400001928E-02 0. -1.
       -1    1    3    3    0  502  0.36075330363E+03 -0.61036113523E+02 -0.50199546520E+03  0.62118258213E+03  0.50400001928E-02 0.  1.
</event>
<event>
 5   0  0.6801147E-04  0.7999150E+03  0.7818609E-02  0.9560140E-01
        2   -1    0    0  501    0  0.00000000000E+00  0.00000000000E+00  0.12078564302E+04  0.12078564302E+04  0.25500000920E-02 0. -1.
       -2   -1    0    0    0  501  0.00000000000E+00  0.00000000000E+00 -0.13243792318E+03  0.13243792321E+03  0.25500000920E-02 0.  1.
    10030    2    1    2    0    0  0.00000000000E+00  0.00000000000E+00  0.10754185071E+04  0.13402943535E+04  0.79991498834E+03 0.  0.
        4    1    3    3  502    0  0.19900341345E+03 -0.20718476376E+03  0.10039703808E+04  0.10442633879E+04  0.12699999809E+01 0. -1.
       -4    1    3    3    0  502 -0.19900341345E+03  0.20718476376E+03  0.71448126219E+02  0.29603096550E+03  0.12699999809E+01 0.  1.
</event>
<event>
 5   0  0.6970013E-04  0.7999853E+03  0.7818609E-02  0.9560038E-01
       -2   -1    0    0    0  501  0.00000000000E+00  0.00000000000E+00  0.24018189445E+03  0.24018189446E+03  0.25500000920E-02 0. -1.
        2   -1    0    0  501    0  0.00000000000E+00  0.00000000000E+00 -0.66613724159E+03  0.66613724159E+03  0.25500000920E-02 0.  1.
    10030    2    1    2    0    0  0.00000000000E+00  0.00000000000E+00 -0.42595534714E+03  0.90631913605E+03  0.79998526150E+03 0.  0.
        3    1    3    3  502    0 -0.21918234844E+03 -0.25848935138E+03 -0.45367033700E+03  0.56628123006E+03  0.10100000352E+00 0.  1.
       -3    1    3    3    0  502  0.21918234844E+03  0.25848935138E+03  0.27714989862E+02  0.34003790599E+03  0.10100000352E+00 0. -1.
</event>
<event>
 5   0  0.4086111E-04  0.8001638E+03  0.7818609E-02  0.9559780E-01
       -1   -1    0    0    0  501  0.00000000000E+00  0.00000000000E+00  0.28471646479E+03  0.28471646484E+03  0.50400001928E-02 0.  1.
        1   -1    0    0  501    0  0.00000000000E+00  0.00000000000E+00 -0.56219272796E+03  0.56219272798E+03  0.50400001928E-02 0. -1.
    10030    2    1    2    0    0  0.00000000000E+00  0.00000000000E+00 -0.27747626317E+03  0.84690919282E+03  0.80016379840E+03 0.  0.
        3    1    3    3  502    0  0.13216345321E+03 -0.73388428645E+02 -0.53080012962E+03  0.55190744480E+03  0.10100000352E+00 0. -1.
       -3    1    3    3    0  502 -0.13216345321E+03  0.73388428645E+02  0.25332386645E+03  0.29500174802E+03  0.10100000352E+00 0.  1.
</event>
<event>
 5   0  0.2736375E-04  0.7945371E+03  0.7818609E-02  0.9567958E-01
        4   -1    0    0  501    0  0.00000000000E+00  0.00000000000E+00  0.64658340617E+03  0.64658465341E+03  0.12699999809E+01 0.  1.
       -4   -1    0    0    0  501  0.00000000000E+00  0.00000000000E+00 -0.24408336633E+03  0.24408667030E+03  0.12699999809E+01 0. -1.
    10030    2    1    2    0    0  0.00000000000E+00  0.00000000000E+00  0.40250003984E+03  0.89067132371E+03  0.79453705062E+03 0.  0.
        4    1    3    3  502    0 -0.25881909295E+03 -0.96713432423E+02 -0.11873411498E+03  0.30073279477E+03  0.12699999809E+01 0. -1.
       -4    1    3    3    0  502  0.25881909295E+03  0.96713432423E+02  0.52123415482E+03  0.58993852895E+03  0.12699999809E+01 0.  1.
</event>
<event>
 5   0  0.6593118E-04  0.8001049E+03  0.7818609E-02  0.9559865E-01
       -2   -1    0    0    0  501  0.00000000000E+00  0.00000000000E+00  0.59215713963E+03  0.59215713963E+03  0.25500000920E-02 0.  1.
        2   -1    0    0  501    0  0.00000000000E+00  0.00000000000E+00 -0.27026939762E+03  0.27026939763E+03  0.25500000920E-02 0. -1.
    10030    2    1    2    0    0  0.00000000000E+00  0.00000000000E+00  0.32188774200E+03  0.86242653727E+03  0.80010487671E+03 0.  0.
        1    1    3    3  502    0 -0.31080597677E+02 -0.16101976958E+02 -0.26861554703E+03  0.27088667251E+03  0.50400001928E-02 0. -1.
       -1    1    3    3    0  502  0.31080597677E+02  0.16101976958E+02  0.59050328903E+03  0.59153986476E+03  0.50400001928E-02 0.  1.
</event>
<event>
 5   0  0.6801147E-04  0.7998637E+03  0.7818609E-02  0.9560214E-01
        2   -1    0    0  501    0  0.00000000000E+00  0.00000000000E+00  0.88835686163E+03  0.88835686163E+03  0.25500000920E-02 0.  1.
       -2   -1    0    0    0  501  0.00000000000E+00  0.00000000000E+00 -0.18004644422E+03  0.18004644424E+03  0.25500000920E-02 0. -1.
    10030    2    1    2    0    0  0.00000000000E+00  0.00000000000E+00  0.70831041741E+03  0.10684033059E+04  0.79986372377E+03 0.  0.
        4    1    3    3  502    0 -0.36822916412E+03  0.99513887677E+01  0.56216999180E+03  0.67210747655E+03  0.12699999809E+01 0. -1.
       -4    1    3    3    0  502  0.36822916412E+03 -0.99513887677E+01  0.14614042560E+03  0.39629582933E+03  0.12699999809E+01 0.  1.
</event>
<event>
 5   0  0.6970013E-04  0.7983718E+03  0.7818609E-02  0.9562377E-01
        2   -1    0    0  501    0  0.00000000000E+00  0.00000000000E+00  0.47311086604E+03  0.47311086605E+03  0.25500000920E-02 0. -1.
       -2   -1    0    0    0  501  0.00000000000E+00  0.00000000000E+00 -0.33681190708E+03  0.33681190709E+03  0.25500000920E-02 0.  1.
    10030    2    1    2    0    0  0.00000000000E+00  0.00000000000E+00  0.13629895897E+03  0.80992277314E+03  0.79837177570E+03 0.  0.
        3    1    3    3  502    0 -0.20101588846E+03 -0.69188705158E+02  0.41090598892E+03  0.46264263343E+03  0.10100000352E+00 0. -1.
       -3    1    3    3    0  502  0.20101588846E+03  0.69188705158E+02 -0.27460702995E+03  0.34728013971E+03  0.10100000352E+00 0.  1.
</event>
<event>
 5   0  0.4087283E-04  0.8003018E+03  0.7818609E-02  0.9559580E-01
       -1   -1    0    0    0  501  0.00000000000E+00  0.00000000000E+00  0.14432987333E+03  0.14432987342E+03  0.50400001928E-02 0. -1.
        1   -1    0    0  501    0  0.00000000000E+00  0.00000000000E+00 -0.11094081103E+04  0.11094081103E+04  0.50400001928E-02 0.  1.
    10030    2    1    2    0    0  0.00000000000E+00  0.00000000000E+00 -0.96507823693E+03  0.12537379837E+04  0.80030177331E+03 0.  0.
        1    1    3    3  502    0 -0.25291421684E+03 -0.24331297936E+02 -0.96682093432E+03  0.99965010489E+03  0.50400001928E-02 0.  1.
       -1    1    3    3    0  502  0.25291421684E+03  0.24331297936E+02  0.17426973892E+01  0.25408787881E+03  0.50400001928E-02 0. -1.
</event>
<event>
 5   0  0.7133039E-04  0.7999793E+03  0.7818609E-02  0.9560047E-01
       -2   -1    0    0    0  501  0.00000000000E+00  0.00000000000E+00  0.10016186564E+03  0.10016186567E+03  0.25500000920E-02 0. -1.
        2   -1    0    0  501    0  0.00000000000E+00  0.00000000000E+00 -0.15973317801E+04  0.15973317801E+04  0.25500000920E-02 0.  1.
    10030    2    1    2    0    0  0.00000000000E+00  0.00000000000E+00 -0.14971699145E+04  0.16974936458E+04  0.79997932764E+03 0.  0.
        2    1    3    3  502    0 -0.22991773132E+03 -0.32720374750E+03 -0.76598932228E+03  0.86409727311E+03  0.25500000920E-02 0.  1.
       -2    1    3    3    0  502  0.22991773132E+03  0.32720374750E+03 -0.73118059218E+03  0.83339637265E+03  0.25500000920E-02 0. -1.
</event>
<event>
 5   0  0.4169155E-04  0.7998523E+03  0.7818609E-02  0.9560231E-01
        1   -1    0    0  501    0  0.00000000000E+00  0.00000000000E+00  0.73086186570E+03  0.73086186572E+03  0.50400001928E-02 0. -1.
       -1   -1    0    0    0  501  0.00000000000E+00  0.00000000000E+00 -0.21883880921E+03  0.21883880927E+03  0.50400001928E-02 0.  1.
    10030    2    1    2    0    0  0.00000000000E+00  0.00000000000E+00  0.51202305649E+03  0.94970067498E+03  0.79985233743E+03 0.  0.
        4    1    3    3  502    0 -0.26839327574E+03 -0.26165341787E+03  0.90455156180E+02  0.38559202498E+03  0.12699999809E+01 0.  1.
       -4    1    3    3    0  502  0.26839327574E+03  0.26165341787E+03  0.42156790031E+03  0.56410865001E+03  0.12699999809E+01 0. -1.
</event>
<event>
 5   0  0.4104786E-04  0.7991375E+03  0.7818609E-02  0.9561266E-01
       -1   -1    0    0    0  501  0.00000000000E+00  0.00000000000E+00  0.38098859831E+03  0.38098859834E+03  0.50400001928E-02 0. -1.
        1   -1    0    0  501    0  0.00000000000E+00  0.00000000000E+00 -0.41905497244E+03  0.41905497247E+03  0.50400001928E-02 0.  1.
    10030    2    1    2    0    0  0.00000000000E+00  0.00000000000E+00 -0.38066374129E+02  0.80004357080E+03  0.79913745147E+03 0.  0.
        2    1    3    3  502    0  0.22487154352E+03  0.22728758904E+03 -0.25894695045E+03  0.41143697254E+03  0.25500000920E-02 0.  1.
       -2    1    3    3    0  502 -0.22487154352E+03 -0.22728758904E+03  0.22088057632E+03  0.38860659827E+03  0.25500000920E-02 0. -1.
</event>
<event>
 5   0  0.6672462E-04  0.7998677E+03  0.7818609E-02  0.9560209E-01
       -2   -1    0    0    0  501  0.00000000000E+00  0.00000000000E+00  0.16991117186E+03  0.16991117188E+03  0.25500000920E-02 0. -1.
        2   -1    0    0  501    0  0.00000000000E+00  0.00000000000E+00 -0.94135708588E+03  0.94135708588E+03  0.25500000920E-02 0.  1.
    10030    2    1    2    0    0  0.00000000000E+00  0.00000000000E+00 -0.77144591402E+03  0.11112682578E+04  0.79986770310E+03 0.  0.
        5    1    3    3  502    0 -0.17059074163E+03 -0.12401727513E+03  0.86324333708E+02  0.22793741740E+03  0.46999998093E+01 0. -1.
       -5    1    3    3    0  502  0.17059074163E+03  0.12401727513E+03 -0.85777024772E+03  0.88333084037E+03  0.46999998093E+01 0.  1.
</event>
<event>
 5   0  0.4087283E-04  0.7998459E+03  0.7818609E-02  0.9560240E-01
       -1   -1    0    0    0  501  0.00000000000E+00  0.00000000000E+00  0.10780087048E+03  0.10780087060E+03  0.50400001928E-02 0.  1.
        1   -1    0    0  501    0  0.00000000000E+00  0.00000000000E+00 -0.14836462315E+04  0.14836462315E+04  0.50400001928E-02 0. -1.
    10030    2    1    2    0    0  0.00000000000E+00  0.00000000000E+00 -0.13758453610E+04  0.15914471021E+04  0.79984587352E+03 0.  0.
        1    1    3    3  502    0 -0.72134154518E+02  0.27519750001E+03 -0.12867631617E+03  0.31224124428E+03  0.50400001928E-02 0.  1.
       -1    1    3    3    0  502  0.72134154518E+02 -0.27519750001E+03 -0.12471690448E+04  0.12792058578E+04  0.50400001928E-02 0. -1.
</event>
<event>
 5   0  0.6801147E-04  0.7999078E+03  0.7818609E-02  0.9560151E-01
       -2   -1    0    0    0  501  0.00000000000E+00  0.00000000000E+00  0.95089668988E+03  0.95089668988E+03  0.25500000920E-02 0.  1.
        2   -1    0    0  501    0  0.00000000000E+00  0.00000000000E+00 -0.16822344825E+03  0.16822344827E+03  0.25500000920E-02 0. -1.
    10030    2    1    2    0    0  0.00000000000E+00  0.00000000000E+00  0.78267324163E+03  0.11191201382E+04  0.79990779497E+03 0.  0.
        4    1    3    3  502    0  0.10826921562E+03  0.24099650150E+03 -0.28754654664E+02  0.26576301445E+03  0.12699999809E+01 0. -1.
       -4    1    3    3    0  502 -0.10826921562E+03 -0.24099650150E+03  0.81142789629E+03  0.85335712370E+03  0.12699999809E+01 0.  1.
</event>
<event>
 5   0  0.4392552E-04  0.7999403E+03  0.7818609E-02  0.9560104E-01
       -1   -1    0    0    0  501  0.00000000000E+00  0.00000000000E+00  0.89492574025E+02  0.89492574167E+02  0.50400001928E-02 0. -1.
        1   -1    0    0  501    0  0.00000000000E+00  0.00000000000E+00 -0.17875908204E+04  0.17875908204E+04  0.50400001928E-02 0.  1.
    10030    2    1    2    0    0  0.00000000000E+00  0.00000000000E+00 -0.16980982464E+04  0.18770833946E+04  0.79994025767E+03 0.  0.
        5    1    3    3  502    0 -0.35936397256E+03 -0.16106578181E+03 -0.10127918790E+04  0.10866711236E+04  0.46999998093E+01 0.  1.
       -5    1    3    3    0  502  0.35936397256E+03  0.16106578181E+03 -0.68530636744E+03  0.79041227096E+03  0.46999998093E+01 0. -1.
</event>
<event>
 5   0  0.6970013E-04  0.7981579E+03  0.7818609E-02  0.9562687E-01
       -2   -1    0    0    0  501  0.00000000000E+00  0.00000000000E+00  0.50157798902E+03  0.50157798903E+03  0.25500000920E-02 0.  1.
        2   -1    0    0  501    0  0.00000000000E+00  0.00000000000E+00 -0.31752594854E+03  0.31752594855E+03  0.25500000920E-02 0. -1.
    10030    2    1    2    0    0  0.00000000000E+00  0.00000000000E+00  0.18405204048E+03  0.81910393758E+03  0.79815794611E+03 0.  0.
        3    1    3    3  502    0  0.38683842469E+02 -0.17202126278E+03  0.45943855869E+03  0.49210929064E+03  0.10100000352E+00 0.  1.
       -3    1    3    3    0  502 -0.38683842469E+02  0.17202126278E+03 -0.27538651821E+03  0.32699464694E+03  0.10100000352E+00 0. -1.
</event>
<event>
 5   0  0.6970013E-04  0.7997379E+03  0.7818609E-02  0.9560397E-01
       -2   -1    0    0    0  501  0.00000000000E+00  0.00000000000E+00  0.18632353087E+03  0.18632353089E+03  0.25500000920E-02 0. -1.
        2   -1    0    0  501    0  0.00000000000E+00  0.00000000000E+00 -0.85815885975E+03  0.85815885976E+03  0.25500000920E-02 0.  1.
    10030    2    1    2    0    0  0.00000000000E+00  0.00000000000E+00 -0.67183532888E+03  0.10444823906E+04  0.79973792909E+03 0.  0.
        3    1    3    3  502    0 -0.19929171841E+03 -0.33639146922E+03 -0.22650089100E+03  0.45186178574E+03  0.10100000352E+00 0. -1.
       -3    1    3    3    0  502  0.19929171841E+03  0.33639146922E+03 -0.44533443788E+03  0.59262060490E+03  0.10100000352E+00 0.  1.
</event>
<event>
 5   0  0.4086111E-04  0.8011487E+03  0.7818609E-02  0.9558356E-01
        1   -1    0    0  501    0  0.00000000000E+00  0.00000000000E+00  0.57523571388E+03  0.57523571390E+03  0.50400001928E-02 0. -1.
       -1   -1    0    0    0  501  0.00000000000E+00  0.00000000000E+00 -0.27894620093E+03  0.27894620098E+03  0.50400001928E-02 0.  1.
    10030    2    1    2    0    0  0.00000000000E+00  0.00000000000E+00  0.29628951295E+03  0.85418191488E+03  0.80114871792E+03 0.  0.
        3    1    3    3  502    0  0.46040575195E+02 -0.29093519248E+03 -0.14129721284E+03  0.32669241397E+03  0.10100000352E+00 0.  1.
       -3    1    3    3    0  502 -0.46040575195E+02  0.29093519248E+03  0.43758672579E+03  0.52748950091E+03  0.10100000352E+00 0. -1.
</event>
<event>
 5   0  0.7133039E-04  0.7997737E+03  0.7818609E-02  0.9560345E-01
        2   -1    0    0  501    0  0.00000000000E+00  0.00000000000E+00  0.40207629321E+03  0.40207629322E+03  0.25500000920E-02 0.  1.
       -2   -1    0    0    0  501  0.00000000000E+00  0.00000000000E+00 -0.39770930055E+03  0.39770930055E+03  0.25500000920E-02 0. -1.
    10030    2    1    2    0    0  0.00000000000E+00  0.00000000000E+00  0.43669926667E+01  0.79978559377E+03  0.79977367135E+03 0.  0.
        2    1    3    3  502    0  0.64214878318E+02  0.14368661429E+03 -0.36543603087E+03  0.39788551920E+03  0.25500000920E-02 0. -1.
       -2    1    3    3    0  502 -0.64214878318E+02 -0.14368661429E+03  0.36980302353E+03  0.40190007458E+03  0.25500000920E-02 0.  1.
</event>
<event>
 5   0  0.6801147E-04  0.7999857E+03  0.7818609E-02  0.9560038E-01
       -2   -1    0    0    0  501  0.00000000000E+00  0.00000000000E+00  0.92285011204E+03  0.92285011204E+03  0.25500000920E-02 0.  1.
        2   -1    0    0  501    0  0.00000000000E+00  0.00000000000E+00 -0.17336973302E+03  0.17336973304E+03  0.25500000920E-02 0. -1.
    10030    2    1    2    0    0  0.00000000000E+00  0.00000000000E+00  0.74948037901E+03  0.10962198451E+04  0.79998569377E+03 0.  0.
        4    1    3    3  502    0 -0.13483808141E+03  0.12578128444E+03 -0.11164933154E+03  0.21556768275E+03  0.12699999809E+01 0. -1.
       -4    1    3    3    0  502  0.13483808141E+03 -0.12578128444E+03  0.86112971056E+03  0.88065216233E+03  0.12699999809E+01 0.  1.
</event>
<event>
 5   0  0.6801147E-04  0.7994702E+03  0.7818609E-02  0.9560784E-01
        2   -1    0    0  501    0  0.00000000000E+00  0.00000000000E+00  0.41300251975E+03  0.41300251976E+03  0.25500000920E-02 0.  1.
       -2   -1    0    0    0  501  0.00000000000E+00  0.00000000000E+00 -0.38689390991E+03  0.38689390992E+03  0.25500000920E-02 0. -1.
    10030    2    1    2    0    0  0.00000000000E+00  0.00000000000E+00  0.26108609840E+02  0.79989642967E+03  0.79947022377E+03 0.  0.
        4    1    3    3  502    0 -0.36948923091E+03  0.38433732971E+02  0.16073754446E+03  0.40476859400E+03  0.12699999809E+01 0.  1.
       -4    1    3    3    0  502  0.36948923091E+03 -0.38433732971E+02 -0.13462893462E+03  0.39512783568E+03  0.12699999809E+01 0. -1.
</event>
<event>
 5   0  0.4104786E-04  0.8029575E+03  0.7818609E-02  0.9555746E-01
       -1   -1    0    0    0  501  0.00000000000E+00  0.00000000000E+00  0.15257578928E+03  0.15257578936E+03  0.50400001928E-02 0.  1.
        1   -1    0    0  501    0  0.00000000000E+00  0.00000000000E+00 -0.10564269892E+04  0.10564269892E+04  0.50400001928E-02 0. -1.
    10030    2    1    2    0    0  0.00000000000E+00  0.00000000000E+00 -0.90385119991E+03  0.12090027786E+04  0.80295748766E+03 0.  0.
        2    1    3    3  502    0 -0.30391537375E+03  0.73364808625E+02 -0.83116223354E+03  0.88801892323E+03  0.25500000920E-02 0. -1.
       -2    1    3    3    0  502  0.30391537375E+03 -0.73364808625E+02 -0.72688966375E+02  0.32098385533E+03  0.25500000920E-02 0.  1.
</event>
<event>
 5   0  0.4086111E-04  0.8005661E+03  0.7818609E-02  0.9559198E-01
        1   -1    0    0  501    0  0.00000000000E+00  0.00000000000E+00  0.30992203889E+03  0.30992203893E+03  0.50400001928E-02 0. -1.
       -1   -1    0    0    0  501  0.00000000000E+00  0.00000000000E+00 -0.51698981815E+03  0.51698981818E+03  0.50400001928E-02 0.  1.
    10030    2    1    2    0    0  0.00000000000E+00  0.00000000000E+00 -0.20706777926E+03  0.82691185711E+03  0.80056614606E+03 0.  0.
        3    1    3    3  502    0  0.33716265955E+03 -0.93928067632E+02 -0.30415602699E+03  0.46369390748E+03  0.10100000352E+00 0.  1.
       -3    1    3    3    0  502 -0.33716265955E+03  0.93928067632E+02  0.97088247725E+02  0.36321794963E+03  0.10100000352E+00 0. -1.
</event>
<event>
 5   0  0.4087283E-04  0.8000014E+03  0.7818609E-02  0.9560015E-01
       -1   -1    0    0    0  501  0.00000000000E+00  0.00000000000E+00  0.25513228916E+03  0.25513228921E+03  0.50400001928E-02 0. -1.
        1   -1    0    0  501    0  0.00000000000E+00  0.00000000000E+00 -0.62712786840E+03  0.62712786842E+03  0.50400001928E-02 0.  1.
    10030    2    1    2    0    0  0.00000000000E+00  0.00000000000E+00 -0.37199557924E+03  0.88226015763E+03  0.80000142173E+03 0.  0.
        1    1    3    3  502    0  0.37163373450E+03 -0.81829325247E+02 -0.50064379078E+02  0.38381520706E+03  0.50400001928E-02 0.  1.
       -1    1    3    3    0  502 -0.37163373450E+03  0.81829325247E+02 -0.32193120016E+03  0.49844495057E+03  0.50400001928E-02 0. -1.
</event>
<event>
 5   0  0.4104786E-04  0.7993894E+03  0.7818609E-02  0.9560901E-01
        1   -1    0    0  501    0  0.00000000000E+00  0.00000000000E+00  0.17757614781E+04  0.17757614781E+04  0.50400001928E-02 0. -1.
       -1   -1    0    0    0  501  0.00000000000E+00  0.00000000000E+00 -0.89964708609E+02  0.89964708750E+02  0.50400001928E-02 0.  1.
    10030    2    1    2    0    0  0.00000000000E+00  0.00000000000E+00  0.16857967695E+04  0.18657261868E+04  0.79938942718E+03 0.  0.
        2    1    3    3  502    0  0.65974011643E+02  0.39285270594E+03  0.76655162901E+03  0.86387916906E+03  0.25500000920E-02 0.  1.
       -2    1    3    3    0  502 -0.65974011643E+02 -0.39285270594E+03  0.91924514045E+03  0.10018470178E+04  0.25500000920E-02 0. -1.
</event>
<event>
 5   0  0.4087283E-04  0.8008707E+03  0.7818609E-02  0.9558758E-01
       -1   -1    0    0    0  501  0.00000000000E+00  0.00000000000E+00  0.39676464420E+03  0.39676464424E+03  0.50400001928E-02 0. -1.
        1   -1    0    0  501    0  0.00000000000E+00  0.00000000000E+00 -0.40414005802E+03  0.40414005805E+03  0.50400001928E-02 0.  1.
    10030    2    1    2    0    0  0.00000000000E+00  0.00000000000E+00 -0.73754138162E+01  0.80090470229E+03  0.80087074202E+03 0.  0.
        1    1    3    3  502    0 -0.23130591425E+03 -0.43322617051E+02  0.32031555491E+03  0.39746865267E+03  0.50400001928E-02 0. -1.
       -1    1    3    3    0  502  0.23130591425E+03  0.43322617051E+02 -0.32769096873E+03  0.40343604961E+03  0.50400001928E-02 0.  1.
</event>
<event>
 5   0  0.7133039E-04  0.7999007E+03  0.7818609E-02  0.9560161E-01
        2   -1    0    0  501    0  0.00000000000E+00  0.00000000000E+00  0.10470305492E+04  0.10470305492E+04  0.25500000920E-02 0.  1.
       -2   -1    0    0    0  501  0.00000000000E+00  0.00000000000E+00 -0.15277518781E+03  0.15277518783E+03  0.25500000920E-02 0. -1.
    10030    2    1    2    0    0  0.00000000000E+00  0.00000000000E+00  0.89425536143E+03  0.11998057371E+04  0.79990071589E+03 0.  0.
        2    1    3    3  502    0 -0.68134323898E+01  0.94742080013E+02 -0.13561102183E+03  0.16556821505E+03  0.25500000920E-02 0. -1.
       -2    1    3    3    0  502  0.68134323898E+01 -0.94742080013E+02  0.10298663833E+04  0.10342375220E+04  0.25500000920E-02 0.  1.
</event>
<event>
 5   0  0.4169155E-04  0.7998577E+03  0.7818609E-02  0.9560223E-01
        1   -1    0    0  501    0  0.00000000000E+00  0.00000000000E+00  0.56442924223E+03  0.56442924225E+03  0.50400001928E-02 0. -1.
       -1   -1    0    0    0  501  0.00000000000E+00  0.00000000000E+00 -0.28337137132E+03  0.28337137136E+03  0.50400001928E-02 0.  1.
    10030    2    1    2    0    0  0.00000000000E+00  0.00000000000E+00  0.28105787091E+03  0.84780061361E+03  0.79985770837E+03 0.  0.
        4    1    3    3  502    0 -0.11587006079E+03  0.25797937163E+03 -0.15919642452E+03  0.32453711907E+03  0.12699999809E+01 0.  1.
       -4    1    3    3    0  502  0.11587006079E+03 -0.25797937163E+03  0.44025429543E+03  0.52326349454E+03  0.12699999809E+01 0. -1.
</event>
<event>
 5   0  0.6801147E-04  0.8002875E+03  0.7818609E-02  0.9559601E-01
        2   -1    0    0  501    0  0.00000000000E+00  0.00000000000E+00  0.11027485666E+04  0.11027485666E+04  0.25500000920E-02 0.  1.
       -2   -1    0    0    0  501  0.00000000000E+00  0.00000000000E+00 -0.14519632229E+03  0.14519632232E+03  0.25500000920E-02 0. -1.
    10030    2    1    2    0    0  0.00000000000E+00  0.00000000000E+00  0.95755224426E+03  0.12479448889E+04  0.80028753906E+03 0.  0.
        4    1    3    3  502    0 -0.35045656837E+03 -0.12224598213E+02  0.77931088756E+03  0.85457376480E+03  0.12699999809E+01 0.  1.
       -4    1    3    3    0  502  0.35045656837E+03  0.12224598213E+02  0.17824135670E+03  0.39337112407E+03  0.12699999809E+01 0. -1.
</event>
<event>
 5   0  0.4169155E-04  0.7999157E+03  0.7818609E-02  0.9560139E-01
       -1   -1    0    0    0  501  0.00000000000E+00  0.00000000000E+00  0.28531229149E+03  0.28531229153E+03  0.50400001928E-02 0. -1.
        1   -1    0    0  501    0  0.00000000000E+00  0.00000000000E+00 -0.56067082540E+03  0.56067082542E+03  0.50400001928E-02 0.  1.
    10030    2    1    2    0    0  0.00000000000E+00  0.00000000000E+00 -0.27535853391E+03  0.84598311696E+03  0.79991569054E+03 0.  0.
        4    1    3    3  502    0 -0.22103236226E+02  0.10280706297E+03  0.27042841966E+03  0.29015683399E+03  0.12699999809E+01 0. -1.
       -4    1    3    3    0  502  0.22103236226E+02 -0.10280706297E+03 -0.54578695357E+03  0.55582628297E+03  0.12699999809E+01 0.  1.
</event>
<event>
 5   0  0.4086111E-04  0.8000494E+03  0.7818609E-02  0.9559946E-01
        1   -1    0    0  501    0  0.00000000000E+00  0.00000000000E+00  0.63977547247E+03  0.63977547249E+03  0.50400001928E-02 0. -1.
       -1   -1    0    0    0  501  0.00000000000E+00  0.00000000000E+00 -0.25011859863E+03  0.25011859868E+03  0.50400001928E-02 0.  1.
    10030    2    1    2    0    0  0.00000000000E+00  0.00000000000E+00  0.38965687384E+03  0.88989407118E+03  0.80004936009E+03 0.  0.
        3    1    3    3  502    0 -0.33221617874E+03  0.14069708401E+03  0.38702286867E+03  0.52910298613E+03  0.10100000352E+00 0. -1.
       -3    1    3    3    0  502  0.33221617874E+03 -0.14069708401E+03  0.26340051714E+01  0.36079108504E+03  0.10100000352E+00 0.  1.
</event>
<event>
 5   0  0.7133039E-04  0.8000769E+03  0.7818609E-02  0.9559906E-01
        2   -1    0    0  501    0  0.00000000000E+00  0.00000000000E+00  0.17555208351E+04  0.17555208351E+04  0.25500000920E-02 0. -1.
       -2   -1    0    0    0  501  0.00000000000E+00  0.00000000000E+00 -0.91158576722E+02  0.91158576758E+02  0.25500000920E-02 0.  1.
    10030    2    1    2    0    0  0.00000000000E+00  0.00000000000E+00  0.16643622583E+04  0.18466794118E+04  0.80007694821E+03 0.  0.
        2    1    3    3  502    0 -0.77448425082E+02  0.17404448589E+03  0.20254792324E+02  0.19157243600E+03  0.25500000920E-02 0.  1.
       -2    1    3    3    0  502  0.77448425082E+02 -0.17404448589E+03  0.16441074660E+04  0.16551069758E+04  0.25500000920E-02 0. -1.
</event>
<event>
 5   0  0.6593118E-04  0.8001384E+03  0.7818609E-02  0.9559817E-01
       -2   -1    0    0    0  501  0.00000000000E+00  0.00000000000E+00  0.30234713820E+03  0.30234713821E+03  0.25500000920E-02 0. -1.
        2   -1    0    0  501    0  0.00000000000E+00  0.00000000000E+00 -0.52937615189E+03  0.52937615190E+03  0.25500000920E-02 0.  1.
    10030    2    1    2    0    0  0.00000000000E+00  0.00000000000E+00 -0.22702901370E+03  0.83172329011E+03  0.80013839943E+03 0.  0.
        1    1    3    3  502    0  0.30916186057E+03  0.13042881877E+03  0.11294453086E+03  0.35404688937E+03  0.50400001928E-02 0. -1.
       -1    1    3    3    0  502 -0.30916186057E+03 -0.13042881877E+03 -0.33997354456E+03  0.47767640074E+03  0.50400001928E-02 0.  1.
</event>
<event>
 5   0  0.6672462E-04  0.8003748E+03  0.7818609E-02  0.9559475E-01
       -2   -1    0    0    0  501  0.00000000000E+00  0.00000000000E+00  0.14176713242E+03  0.14176713244E+03  0.25500000920E-02 0. -1.
        2   -1    0    0  501    0  0.00000000000E+00  0.00000000000E+00 -0.11296691094E+04  0.11296691094E+04  0.25500000920E-02 0.  1.
    10030    2    1    2    0    0  0.00000000000E+00  0.00000000000E+00 -0.98790197702E+03  0.12714362419E+04  0.80037478782E+03 0.  0.
        5    1    3    3  502    0 -0.21510302082E+03 -0.69647210282E+02 -0.10184322879E+04  0.10432384475E+04  0.46999998093E+01 0.  1.
       -5    1    3    3    0  502  0.21510302082E+03  0.69647210282E+02  0.30530310846E+02  0.22819779434E+03  0.46999998093E+01 0. -1.
</event>
<event>
 5   0  0.4169155E-04  0.7992761E+03  0.7818609E-02  0.9561066E-01
        1   -1    0    0  501    0  0.00000000000E+00  0.00000000000E+00  0.15459921423E+04  0.15459921423E+04  0.50400001928E-02 0. -1.
       -1   -1    0    0    0  501  0.00000000000E+00  0.00000000000E+00 -0.10330618840E+03  0.10330618853E+03  0.50400001928E-02 0.  1.
    10030    2    1    2    0    0  0.00000000000E+00  0.00000000000E+00  0.14426859539E+04  0.16492983309E+04  0.79927606153E+03 0.  0.
        4    1    3    3  502    0 -0.23557645670E+03  0.34542547122E+02  0.13836541896E+04  0.14039907349E+04  0.12699999809E+01 0. -1.
       -4    1    3    3    0  502  0.23557645670E+03 -0.34542547122E+02  0.59031764325E+02  0.24530759592E+03  0.12699999809E+01 0.  1.
</event>
<event>
 5   0  0.4087283E-04  0.7999923E+03  0.7818609E-02  0.9560028E-01
        1   -1    0    0  501    0  0.00000000000E+00  0.00000000000E+00  0.55364809216E+03  0.55364809219E+03  0.50400001928E-02 0.  1.
       -1   -1    0    0    0  501  0.00000000000E+00  0.00000000000E+00 -0.28898665577E+03  0.28898665582E+03  0.50400001928E-02 0. -1.
    10030    2    1    2    0    0  0.00000000000E+00  0.00000000000E+00  0.26466143639E+03  0.84263474801E+03  0.79999227661E+03 0.  0.
        1    1    3    3  502    0  0.39916075164E+03  0.20801451736E+02  0.14847427865E+03  0.42638787212E+03  0.50400001928E-02 0.  1.
       -1    1    3    3    0  502 -0.39916075164E+03 -0.20801451736E+02  0.11618715774E+03  0.41624687589E+03  0.50400001928E-02 0. -1.
</event>
<event>
 5   0  0.4086111E-04  0.8001292E+03  0.7818609E-02  0.9559830E-01
       -1   -1    0    0    0  501  0.00000000000E+00  0.00000000000E+00  0.17341654682E+03  0.17341654690E+03  0.50400001928E-02 0. -1.
        1   -1    0    0  501    0  0.00000000000E+00  0.00000000000E+00 -0.92293194202E+03  0.92293194203E+03  0.50400001928E-02 0.  1.
    10030    2    1    2    0    0  0.00000000000E+00  0.00000000000E+00 -0.74951539519E+03  0.10963484889E+04  0.80012916553E+03 0.  0.
        3    1    3    3  502    0 -0.17317757627E+03  0.23413575568E+03 -0.75061036242E+03  0.80512480485E+03  0.10100000352E+00 0.  1.
       -3    1    3    3    0  502  0.17317757627E+03 -0.23413575568E+03  0.10949672231E+01  0.29122368408E+03  0.10100000352E+00 0. -1.
</event>
<event>
 5   0  0.6970013E-04  0.8001328E+03  0.7818609E-02  0.9559825E-01
        2   -1    0    0  501    0  0.00000000000E+00  0.00000000000E+00  0.20692719745E+04  0.20692719745E+04  0.25500000920E-02 0.  1.
       -2   -1    0    0    0  501  0.00000000000E+00  0.00000000000E+00 -0.77347551220E+02  0.77347551262E+02  0.25500000920E-02 0. -1.
    10030    2    1    2    0    0  0.00000000000E+00  0.00000000000E+00  0.19919244232E+04  0.21466195257E+04  0.80013278918E+03 0.  0.
        3    1    3    3  502    0  0.17720095527E+03 -0.33550468385E+02  0.37898070650E+02  0.18428805288E+03  0.10100000352E+00 0. -1.
       -3    1    3    3    0  502 -0.17720095527E+03  0.33550468385E+02  0.19540263526E+04  0.19623314728E+04  0.10100000352E+00 0.  1.
</event>
<event>
 5   0  0.7133039E-04  0.8000414E+03  0.7818609E-02  0.9559957E-01
       -2   -1    0    0    0  501  0.00000000000E+00  0.00000000000E+00  0.20421277685E+03  0.20421277686E+03  0.25500000920E-02 0.  1.
        2   -1    0    0  501    0  0.00000000000E+00  0.00000000000E+00 -0.78357758384E+03  0.78357758385E+03  0.25500000920E-02 0. -1.
    10030    2    1    2    0    0  0.00000000000E+00  0.00000000000E+00 -0.57936480700E+03  0.98779036071E+03  0.80004138464E+03 0.  0.
        2    1    3    3  502    0  0.35657056179E+03 -0.66633100533E+02 -0.49787795849E+03  0.61600730286E+03  0.25500000920E-02 0. -1.
       -2    1    3    3    0  502 -0.35657056179E+03  0.66633100533E+02 -0.81486848510E+02  0.37178305786E+03  0.25500000920E-02 0.  1.
</event>
<event>
 5   0  0.2736375E-04  0.8001157E+03  0.7818609E-02  0.9559850E-01
       -4   -1    0    0    0  501  0.00000000000E+00  0.00000000000E+00  0.58842589692E+03  0.58842726744E+03  0.12699999809E+01 0.  1.
        4   -1    0    0  501    0  0.00000000000E+00  0.00000000000E+00 -0.27198740854E+03  0.27199037355E+03  0.12699999809E+01 0. -1.
    10030    2    1    2    0    0  0.00000000000E+00  0.00000000000E+00  0.31643848838E+03  0.86041764100E+03  0.80011574163E+03 0.  0.
        4    1    3    3  502    0  0.37762252069E+02  0.18207591366E+02 -0.26961876654E+03  0.27286149643E+03  0.12699999809E+01 0. -1.
       -4    1    3    3    0  502 -0.37762252069E+02 -0.18207591366E+02  0.58605725492E+03  0.58755614456E+03  0.12699999809E+01 0.  1.
</event>
<event>
 5   0  0.2736375E-04  0.7999087E+03  0.7818609E-02  0.9560149E-01
       -4   -1    0    0    0  501  0.00000000000E+00  0.00000000000E+00  0.21494713321E+03  0.21495088503E+03  0.12699999809E+01 0. -1.
        4   -1    0    0  501    0  0.00000000000E+00  0.00000000000E+00 -0.74418834190E+03  0.74418942556E+03  0.12699999809E+01 0.  1.
    10030    2    1    2    0    0  0.00000000000E+00  0.00000000000E+00 -0.52924120869E+03  0.95914031059E+03  0.79990866881E+03 0.  0.
        5    1    3    3  502    0 -0.22105711800E+03  0.13626505302E+03  0.10007368095E+03  0.27833656912E+03  0.46999998093E+01 0. -1.
       -5    1    3    3    0  502  0.22105711800E+03 -0.13626505302E+03 -0.62931488964E+03  0.68080374148E+03  0.46999998093E+01 0.  1.
</event>
<event>
 5   0  0.6801147E-04  0.7993997E+03  0.7818609E-02  0.9560886E-01
        2   -1    0    0  501    0  0.00000000000E+00  0.00000000000E+00  0.18030124701E+04  0.18030124701E+04  0.25500000920E-02 0. -1.
       -2   -1    0    0    0  501  0.00000000000E+00  0.00000000000E+00 -0.88607243789E+02  0.88607243826E+02  0.25500000920E-02 0.  1.
    10030    2    1    2    0    0  0.00000000000E+00  0.00000000000E+00  0.17144052263E+04  0.18916197139E+04  0.79939968859E+03 0.  0.
        4    1    3    3  502    0  0.12115238495E+03 -0.24173155029E+03  0.15537407380E+04  0.15770935091E+04  0.12699999809E+01 0. -1.
       -4    1    3    3    0  502 -0.12115238495E+03  0.24173155029E+03  0.16066448832E+03  0.31452620478E+03  0.12699999809E+01 0.  1.
</event>
<event>
 5   0  0.4086111E-04  0.7995399E+03  0.7818609E-02  0.9560683E-01
        1   -1    0    0  501    0  0.00000000000E+00  0.00000000000E+00  0.87212927628E+03  0.87212927630E+03  0.50400001928E-02 0. -1.
       -1   -1    0    0    0  501  0.00000000000E+00  0.00000000000E+00 -0.18324808886E+03  0.18324808893E+03  0.50400001928E-02 0.  1.
    10030    2    1    2    0    0  0.00000000000E+00  0.00000000000E+00  0.68888118742E+03  0.10553773652E+04  0.79953992561E+03 0.  0.
        3    1    3    3  502    0  0.20031227408E+03 -0.90342945040E+02 -0.96379956274E+02  0.23994991360E+03  0.10100000352E+00 0.  1.
       -3    1    3    3    0  502 -0.20031227408E+03  0.90342945040E+02  0.78526114370E+03  0.81542745163E+03  0.10100000352E+00 0. -1.
</event>
<event>
 5   0  0.6593118E-04  0.7996919E+03  0.7818609E-02  0.9560463E-01
        2   -1    0    0  501    0  0.00000000000E+00  0.00000000000E+00  0.60710248388E+03  0.60710248388E+03  0.25500000920E-02 0. -1.
       -2   -1    0    0    0  501  0.00000000000E+00  0.00000000000E+00 -0.26334395270E+03  0.26334395271E+03  0.25500000920E-02 0.  1.
    10030    2    1    2    0    0  0.00000000000E+00  0.00000000000E+00  0.34375853118E+03  0.87044643660E+03  0.79969186017E+03 0.  0.
        1    1    3    3  502    0  0.91483064113E+02  0.38438626219E+03  0.10518110859E+03  0.40888264234E+03  0.50400001928E-02 0.  1.
       -1    1    3    3    0  502 -0.91483064113E+02 -0.38438626219E+03  0.23857742259E+03  0.46156379426E+03  0.50400001928E-02 0. -1.
</event>
<event>
 5   0  0.2736375E-04  0.7997932E+03  0.7818609E-02  0.9560316E-01
        4   -1    0    0  501    0  0.00000000000E+00  0.00000000000E+00  0.66639678583E+03  0.66639799599E+03  0.12699999809E+01 0. -1.
       -4   -1    0    0    0  501  0.00000000000E+00  0.00000000000E+00 -0.23997000186E+03  0.23997336246E+03  0.12699999809E+01 0.  1.
    10030    2    1    2    0    0  0.00000000000E+00  0.00000000000E+00  0.42642678397E+03  0.90637135846E+03  0.79979324662E+03 0.  0.
        4    1    3    3  502    0 -0.27873182155E+03  0.38938815212E+02 -0.10873542393E+03  0.30171619942E+03  0.12699999809E+01 0.  1.
       -4    1    3    3    0  502  0.27873182155E+03 -0.38938815212E+02  0.53516220791E+03  0.60465515903E+03  0.12699999809E+01 0. -1.
</event>
<event>
 5   0  0.4104786E-04  0.8001376E+03  0.7818609E-02  0.9559818E-01
        1   -1    0    0  501    0  0.00000000000E+00  0.00000000000E+00  0.40367951891E+03  0.40367951894E+03  0.50400001928E-02 0.  1.
       -1   -1    0    0    0  501  0.00000000000E+00  0.00000000000E+00 -0.39649040558E+03  0.39649040561E+03  0.50400001928E-02 0. -1.
    10030    2    1    2    0    0  0.00000000000E+00  0.00000000000E+00  0.71891133295E+01  0.80016992455E+03  0.80013762866E+03 0.  0.
        2    1    3    3  502    0 -0.26695797482E+03  0.24643700997E+03 -0.16391532657E+03  0.39857997253E+03  0.25500000920E-02 0. -1.
       -2    1    3    3    0  502  0.26695797482E+03 -0.24643700997E+03  0.17110443990E+03  0.40158995202E+03  0.25500000920E-02 0.  1.
</event>
<event>
 5   0  0.6801147E-04  0.7999664E+03  0.7818609E-02  0.9560066E-01
       -2   -1    0    0    0  501  0.00000000000E+00  0.00000000000E+00  0.10480791024E+03  0.10480791028E+03  0.25500000920E-02 0.  1.
        2   -1    0    0  501    0  0.00000000000E+00  0.00000000000E+00 -0.15264742203E+04  0.15264742203E+04  0.25500000920E-02 0. -1.
    10030    2    1    2    0    0  0.00000000000E+00  0.00000000000E+00 -0.14216663100E+04  0.16312821306E+04  0.79996643204E+03 0.  0.
        4    1    3    3  502    0  0.15390473605E+03  0.48717427427E+02  0.35423106604E+02  0.16527693395E+03  0.12699999809E+01 0.  1.
       -4    1    3    3    0  502 -0.15390473605E+03 -0.48717427427E+02 -0.14570894166E+04  0.14660051966E+04  0.12699999809E+01 0. -1.
</event>
<event>
 5   0  0.7133039E-04  0.8004504E+03  0.7818609E-02  0.9559365E-01
       -2   -1    0    0    0  501  0.00000000000E+00  0.00000000000E+00  0.12068026797E+03  0.12068026800E+03  0.25500000920E-02 0. -1.
        2   -1    0    0  501    0  0.00000000000E+00  0.00000000000E+00 -0.13273106867E+04  0.13273106867E+04  0.25500000920E-02 0.  1.
    10030    2    1    2    0    0  0.00000000000E+00  0.00000000000E+00 -0.12066304187E+04  0.14479909547E+04  0.80045039666E+03 0.  0.
        2    1    3    3  502    0  0.32273767635E+03 -0.93053275016E+02 -0.20963369869E+03  0.39593535756E+03  0.25500000920E-02 0. -1.
       -2    1    3    3    0  502 -0.32273767635E+03  0.93053275016E+02 -0.99699672004E+03  0.10520555972E+04  0.25500000920E-02 0.  1.
</event>
<event>
 5   0  0.4392552E-04  0.7977079E+03  0.7818609E-02  0.9563341E-01
        1   -1    0    0  501    0  0.00000000000E+00  0.00000000000E+00  0.70217235740E+03  0.70217235741E+03  0.50400001928E-02 0. -1.
       -1   -1    0    0    0  501  0.00000000000E+00  0.00000000000E+00 -0.22656041590E+03  0.22656041596E+03  0.50400001928E-02 0.  1.
    10030    2    1    2    0    0  0.00000000000E+00  0.00000000000E+00  0.47561194149E+03  0.92873277337E+03  0.79770786974E+03 0.  0.
        5    1    3    3  502    0  0.27191710296E+03 -0.23527429977E+02 -0.10076900495E+03  0.29097926593E+03  0.46999998093E+01 0.  1.
       -5    1    3    3    0  502 -0.27191710296E+03  0.23527429977E+02  0.57638094644E+03  0.63775350745E+03  0.46999998093E+01 0. -1.
</event>
<event>
 5   0  0.6672462E-04  0.8000593E+03  0.7818609E-02  0.9559931E-01
       -2   -1    0    0    0  501  0.00000000000E+00  0.00000000000E+00  0.34718043409E+03  0.34718043410E+03  0.25500000920E-02 0.  1.
        2   -1    0    0  501    0  0.00000000000E+00  0.00000000000E+00 -0.46092375545E+03  0.46092375545E+03  0.25500000920E-02 0. -1.
    10030    2    1    2    0    0  0.00000000000E+00  0.00000000000E+00 -0.11374332136E+03  0.80810418955E+03  0.80005927156E+03 0.  0.
        5    1    3    3  502    0  0.11613662421E+03 -0.35392934697E+03  0.90360749397E+02  0.38332864902E+03  0.46999998093E+01 0.  1.
       -5    1    3    3    0  502 -0.11613662421E+03  0.35392934697E+03 -0.20410407076E+03  0.42477554053E+03  0.46999998093E+01 0. -1.
</event>
<event>
 5   0  0.7133039E-04  0.8001736E+03  0.7818609E-02  0.9559766E-01
        2   -1    0    0  501    0  0.00000000000E+00  0.00000000000E+00  0.10184352119E+04  0.10184352119E+04  0.25500000920E-02 0. -1.
       -2   -1    0    0    0  501  0.00000000000E+00  0.00000000000E+00 -0.15717195092E+03  0.15717195094E+03  0.25500000920E-02 0.  1.
    10030    2    1    2    0    0  0.00000000000E+00  0.00000000000E+00  0.86126326101E+03  0.11756071629E+04  0.80017360406E+03 0.  0.
        2    1    3    3  502    0  0.31859505076E+03  0.23723740860E+03  0.50086221897E+03  0.63925531426E+03  0.25500000920E-02 0. -1.
       -2    1    3    3    0  502 -0.31859505076E+03 -0.23723740860E+03  0.36040104204E+03  0.53635184862E+03  0.25500000920E-02 0.  1.
</event>
<event>
 5   0  0.6672462E-04  0.8003097E+03  0.7818609E-02  0.9559569E-01
        2   -1    0    0  501    0  0.00000000000E+00  0.00000000000E+00  0.75581715353E+03  0.75581715354E+03  0.25500000920E-02 0.  1.
       -2   -1    0    0    0  501  0.00000000000E+00  0.00000000000E+00 -0.21185534320E+03  0.21185534321E+03  0.25500000920E-02 0. -1.
    10030    2    1    2    0    0  0.00000000000E+00  0.00000000000E+00  0.54396181033E+03  0.96767249675E+03  0.80030969622E+03 0.  0.
        5    1    3    3  502    0  0.35636481403E+03  0.14699991704E+02  0.52699799277E+02  0.36057083809E+03  0.46999998093E+01 0. -1.
       -5    1    3    3    0  502 -0.35636481403E+03 -0.14699991704E+02  0.49126201106E+03  0.60710165866E+03  0.46999998093E+01 0.  1.
</event>
<event>
 5   0  0.4086111E-04  0.8001752E+03  0.7818609E-02  0.9559764E-01
        1   -1    0    0  501    0  0.00000000000E+00  0.00000000000E+00  0.14087183885E+04  0.14087183885E+04  0.50400001928E-02 0. -1.
       -1   -1    0    0    0  501  0.00000000000E+00  0.00000000000E+00 -0.11362816638E+03  0.11362816649E+03  0.50400001928E-02 0.  1.
    10030    2    1    2    0    0  0.00000000000E+00  0.00000000000E+00  0.12950902221E+04  0.15223465550E+04  0.80017519964E+03 0.  0.
        3    1    3    3  502    0 -0.20361321685E+03  0.11173260339E+03  0.12673322111E+04  0.12884383805E+04  0.10100000352E+00 0. -1.
       -3    1    3    3    0  502  0.20361321685E+03 -0.11173260339E+03  0.27758011005E+02  0.23390817454E+03  0.10100000352E+00 0.  1.
</event>
<event>
 5   0  0.6593118E-04  0.7998883E+03  0.7818609E-02  0.9560179E-01
        2   -1    0    0  501    0  0.00000000000E+00  0.00000000000E+00  0.90873854743E+03  0.90873854743E+03  0.25500000920E-02 0.  1.
       -2   -1    0    0    0  501  0.00000000000E+00  0.00000000000E+00 -0.17601907696E+03  0.17601907698E+03  0.25500000920E-02 0. -1.
    10030    2    1    2    0    0  0.00000000000E+00  0.00000000000E+00  0.73271947047E+03  0.10847576244E+04  0.79988829302E+03 0.  0.
        1    1    3    3  502    0 -0.31400667965E+03 -0.14367627138E+03  0.63999114439E+03  0.72720817566E+03  0.50400001928E-02 0.  1.
       -1    1    3    3    0  502  0.31400667965E+03  0.14367627138E+03  0.92728326080E+02  0.35754944875E+03  0.50400001928E-02 0. -1.
</event>
<event>
 5   0  0.4086111E-04  0.8001870E+03  0.7818609E-02  0.9559746E-01
       -1   -1    0    0    0  501  0.00000000000E+00  0.00000000000E+00  0.18744654170E+03  0.18744654177E+03  0.50400001928E-02 0.  1.
        1   -1    0    0  501    0  0.00000000000E+00  0.00000000000E+00 -0.85397580692E+03  0.85397580694E+03  0.50400001928E-02 0. -1.
    10030    2    1    2    0    0  0.00000000000E+00  0.00000000000E+00 -0.66652926522E+03  0.10414223487E+04  0.80018700751E+03 0.  0.
        3    1    3    3  502    0  0.24577397944E+03  0.68977462483E+02  0.67690800469E+02  0.26409239665E+03  0.10100000352E+00 0.  1.
       -3    1    3    3    0  502 -0.24577397944E+03 -0.68977462483E+02 -0.73422006569E+03  0.77732995205E+03  0.10100000352E+00 0. -1.
</event>
<event>
 5   0  0.7133039E-04  0.8000490E+03  0.7818609E-02  0.9559946E-01
       -2   -1    0    0    0  501  0.00000000000E+00  0.00000000000E+00  0.29532157039E+03  0.29532157040E+03  0.25500000920E-02 0. -1.
        2   -1    0    0  501    0  0.00000000000E+00  0.00000000000E+00 -0.54184872989E+03  0.54184872990E+03  0.25500000920E-02 0.  1.
    10030    2    1    2    0    0  0.00000000000E+00  0.00000000000E+00 -0.24652715950E+03  0.83717030030E+03  0.80004904308E+03 0.  0.
        2    1    3    3  502    0 -0.36113179552E+03 -0.13092686458E+03 -0.24007467877E+03  0.45298329880E+03  0.25500000920E-02 0.  1.
       -2    1    3    3    0  502  0.36113179552E+03  0.13092686458E+03 -0.64524807293E+01  0.38418700149E+03  0.25500000920E-02 0. -1.
</event>
<event>
 5   0  0.6970013E-04  0.8002007E+03  0.7818609E-02  0.9559727E-01
       -2   -1    0    0    0  501  0.00000000000E+00  0.00000000000E+00  0.41171126376E+03  0.41171126377E+03  0.25500000920E-02 0. -1.
        2   -1    0    0  501    0  0.00000000000E+00  0.00000000000E+00 -0.38881684736E+03  0.38881684737E+03  0.25500000920E-02 0.  1.
    10030    2    1    2    0    0  0.00000000000E+00  0.00000000000E+00  0.22894416393E+02  0.80052811114E+03  0.80020066385E+03 0.  0.
        3    1    3    3  502    0 -0.24154322936E+03 -0.12090893113E+03 -0.28383143538E+03  0.39181933998E+03  0.10100000352E+00 0.  1.
       -3    1    3    3    0  502  0.24154322936E+03  0.12090893113E+03  0.30672585177E+03  0.40870877116E+03  0.10100000352E+00 0. -1.
</event>
<event>
 5   0  0.6593118E-04  0.7997489E+03  0.7818609E-02  0.9560381E-01
       -2   -1    0    0    0  501  0.00000000000E+00  0.00000000000E+00  0.87779014750E+02  0.87779014787E+02  0.25500000920E-02 0.  1.
        2   -1    0    0  501    0  0.00000000000E+00  0.00000000000E+00 -0.18216151917E+04  0.18216151917E+04  0.25500000920E-02 0. -1.
    10030    2    1    2    0    0  0.00000000000E+00  0.00000000000E+00 -0.17338361769E+04  0.19093942065E+04  0.79974892765E+03 0.  0.
        1    1    3    3  502    0 -0.23990062468E+02 -0.17713863939E+03 -0.17209129019E+04  0.17301719095E+04  0.50400001928E-02 0. -1.
       -1    1    3    3    0  502  0.23990062468E+02  0.17713863939E+03 -0.12923275074E+02  0.17922229696E+03  0.50400001928E-02 0.  1.
</event>
<event>
 5   0  0.6672462E-04  0.7994328E+03  0.7818609E-02  0.9560838E-01
       -2   -1    0    0    0  501  0.00000000000E+00  0.00000000000E+00  0.10464539401E+03  0.10464539404E+03  0.25500000920E-02 0. -1.
        2   -1    0    0  501    0  0.00000000000E+00  0.00000000000E+00 -0.15268058973E+04  0.15268058973E+04  0.25500000920E-02 0.  1.
    10030    2    1    2    0    0  0.00000000000E+00  0.00000000000E+00 -0.14221605033E+04  0.16314512914E+04  0.79943281077E+03 0.  0.
        5    1    3    3  502    0  0.28552331096E+03  0.15462843303E+03 -0.11867027992E+04  0.12303329375E+04  0.46999998093E+01 0.  1.
       -5    1    3    3    0  502 -0.28552331096E+03 -0.15462843303E+03 -0.23545770409E+03  0.40111835388E+03  0.46999998093E+01 0. -1.
</event>
<event>
 5   0  0.4169155E-04  0.7996629E+03  0.7818609E-02  0.9560505E-01
       -1   -1    0    0    0  501  0.00000000000E+00  0.00000000000E+00  0.47586105294E+03  0.47586105297E+03  0.50400001928E-02 0. -1.
        1   -1    0    0  501    0  0.00000000000E+00  0.00000000000E+00 -0.33594934249E+03  0.33594934252E+03  0.50400001928E-02 0.  1.
    10030    2    1    2    0    0  0.00000000000E+00  0.00000000000E+00  0.13991171046E+03  0.81181039549E+03  0.79966294869E+03 0.  0.
        4    1    3    3  502    0 -0.13541140371E+03  0.65745417514E+02 -0.30608274222E+03  0.34109671086E+03  0.12699999809E+01 0.  1.
       -4    1    3    3    0  502  0.13541140371E+03 -0.65745417514E+02  0.44599445267E+03  0.47071368463E+03  0.12699999809E+01 0. -1.
</event>
<event>
 5   0  0.4086111E-04  0.7997486E+03  0.7818609E-02  0.9560381E-01
        1   -1    0    0  501    0  0.00000000000E+00  0.00000000000E+00  0.10130844178E+04  0.10130844178E+04  0.50400001928E-02 0. -1.
       -1   -1    0    0    0  501  0.00000000000E+00  0.00000000000E+00 -0.15783428212E+03  0.15783428220E+03  0.50400001928E-02 0.  1.
    10030    2    1    2    0    0  0.00000000000E+00  0.00000000000E+00  0.85525013564E+03  0.11709187000E+04  0.79974859013E+03 0.  0.
        3    1    3    3  502    0 -0.27906092985E+03 -0.49658111885E+01  0.83687634522E+01  0.27923056468E+03  0.10100000352E+00 0.  1.
       -3    1    3    3    0  502  0.27906092985E+03  0.49658111885E+01  0.84688137219E+03  0.89168813528E+03  0.10100000352E+00 0. -1.
</event>
<event>
 5   0  0.2736375E-04  0.8003007E+03  0.7818609E-02  0.9559582E-01
        3   -1    0    0  501    0  0.00000000000E+00  0.00000000000E+00  0.28141097425E+03  0.28141099238E+03  0.10100000352E+00 0. -1.
       -3   -1    0    0    0  501  0.00000000000E+00  0.00000000000E+00 -0.56899098073E+03  0.56899098969E+03  0.10100000352E+00 0.  1.
    10030    2    1    2    0    0  0.00000000000E+00  0.00000000000E+00 -0.28758000648E+03  0.85040198207E+03  0.80030073784E+03 0.  0.
        4    1    3    3  502    0  0.38349486707E+02  0.19806250148E+03  0.22341471042E+03  0.30102355947E+03  0.12699999809E+01 0. -1.
       -4    1    3    3    0  502 -0.38349486707E+02 -0.19806250148E+03 -0.51099471690E+03  0.54937842260E+03  0.12699999809E+01 0.  1.
</event>
<event>
 5   0  0.6801147E-04  0.8000921E+03  0.7818609E-02  0.9559884E-01
        2   -1    0    0  501    0  0.00000000000E+00  0.00000000000E+00  0.76564358057E+03  0.76564358057E+03  0.25500000920E-02 0.  1.
       -2   -1    0    0    0  501  0.00000000000E+00  0.00000000000E+00 -0.20902266086E+03  0.20902266088E+03  0.25500000920E-02 0. -1.
    10030    2    1    2    0    0  0.00000000000E+00  0.00000000000E+00  0.55662091971E+03  0.97466624145E+03  0.80009214092E+03 0.  0.
        4    1    3    3  502    0 -0.25283565031E+02  0.16149191053E+03  0.72310313498E+03  0.74134921093E+03  0.12699999809E+01 0.  1.
       -4    1    3    3    0  502  0.25283565031E+02 -0.16149191053E+03 -0.16648221527E+03  0.23331703052E+03  0.12699999809E+01 0. -1.
</event>
<event>
 5   0  0.4169155E-04  0.7997025E+03  0.7818609E-02  0.9560448E-01
        1   -1    0    0  501    0  0.00000000000E+00  0.00000000000E+00  0.38216003490E+03  0.38216003493E+03  0.50400001928E-02 0. -1.
       -1   -1    0    0    0  501  0.00000000000E+00  0.00000000000E+00 -0.41836142648E+03  0.41836142651E+03  0.50400001928E-02 0.  1.
    10030    2    1    2    0    0  0.00000000000E+00  0.00000000000E+00 -0.36201391579E+02  0.80052146144E+03  0.79970248810E+03 0.  0.
        4    1    3    3  502    0 -0.24015825465E+03  0.27019152106E+03  0.15295425729E+03  0.39252523875E+03  0.12699999809E+01 0. -1.
       -4    1    3    3    0  502  0.24015825465E+03 -0.27019152106E+03 -0.18915564887E+03  0.40799622269E+03  0.12699999809E+01 0.  1.
</event>
<event>
 5   0  0.2736375E-04  0.7993849E+03  0.7818609E-02  0.9560908E-01
       -3   -1    0    0    0  501  0.00000000000E+00  0.00000000000E+00  0.13577558371E+03  0.13577562128E+03  0.10100000352E+00 0.  1.
        3   -1    0    0  501    0  0.00000000000E+00  0.00000000000E+00 -0.11766035682E+04  0.11766035726E+04  0.10100000352E+00 0. -1.
    10030    2    1    2    0    0  0.00000000000E+00  0.00000000000E+00 -0.10408279845E+04  0.13123791939E+04  0.79938492297E+03 0.  0.
        1    1    3    3  502    0  0.14568560819E+03 -0.37124639979E+03 -0.47679574679E+03  0.62159662964E+03  0.50400001928E-02 0.  1.
       -1    1    3    3    0  502 -0.14568560819E+03  0.37124639979E+03 -0.56403223774E+03  0.69078256421E+03  0.50400001928E-02 0. -1.
</event>
<event>
 5   0  0.4087283E-04  0.8000119E+03  0.7818609E-02  0.9560000E-01
        1   -1    0    0  501    0  0.00000000000E+00  0.00000000000E+00  0.57523012639E+03  0.57523012641E+03  0.50400001928E-02 0. -1.
       -1   -1    0    0    0  501  0.00000000000E+00  0.00000000000E+00 -0.27815779891E+03  0.27815779895E+03  0.50400001928E-02 0.  1.
    10030    2    1    2    0    0  0.00000000000E+00  0.00000000000E+00  0.29707232748E+03  0.85338792536E+03  0.80001186454E+03 0.  0.
        1    1    3    3  502    0 -0.25397153984E+03 -0.30756374328E+03  0.11639716216E+03  0.41550607530E+03  0.50400001928E-02 0.  1.
       -1    1    3    3    0  502  0.25397153984E+03  0.30756374328E+03  0.18067516532E+03  0.43788185006E+03  0.50400001928E-02 0. -1.
</event>
<event>
 5   0  0.6593118E-04  0.8001994E+03  0.7818609E-02  0.9559729E-01
        2   -1    0    0  501    0  0.00000000000E+00  0.00000000000E+00  0.22994022230E+04  0.22994022230E+04  0.25500000920E-02 0. -1.
       -2   -1    0    0    0  501  0.00000000000E+00  0.00000000000E+00 -0.69617994484E+02  0.69617994531E+02  0.25500000920E-02 0.  1.
    10030    2    1    2    0    0  0.00000000000E+00  0.00000000000E+00  0.22297842285E+04  0.23690202175E+04  0.80019940348E+03 0.  0.
        1    1    3    3  502    0 -0.29233418192E+03  0.11800900164E+03  0.18442568441E+04  0.18710074039E+04  0.50400001928E-02 0. -1.
       -1    1    3    3    0  502  0.29233418192E+03 -0.11800900164E+03  0.38552738442E+03  0.49801281364E+03  0.50400001928E-02 0.  1.
</event>
<event>
 5   0  0.4392552E-04  0.8003118E+03  0.7818609E-02  0.9559566E-01
        1   -1    0    0  501    0  0.00000000000E+00  0.00000000000E+00  0.69142671467E+03  0.69142671469E+03  0.50400001928E-02 0.  1.
       -1   -1    0    0    0  501  0.00000000000E+00  0.00000000000E+00 -0.23158597231E+03  0.23158597237E+03  0.50400001928E-02 0. -1.
    10030    2    1    2    0    0  0.00000000000E+00  0.00000000000E+00  0.45984074236E+03  0.92301268706E+03  0.80031175934E+03 0.  0.
        5    1    3    3  502    0 -0.34978904828E+03 -0.73234091846E+02  0.43747576190E+03  0.56490949962E+03  0.46999998093E+01 0. -1.
       -5    1    3    3    0  502  0.34978904828E+03  0.73234091846E+02  0.22364980458E+02  0.35810318744E+03  0.46999998093E+01 0.  1.
</event>
<event>
 5   0  0.6801147E-04  0.8000768E+03  0.7818609E-02  0.9559906E-01
        2   -1    0    0  501    0  0.00000000000E+00  0.00000000000E+00  0.10518085833E+04  0.10518085833E+04  0.25500000920E-02 0.  1.
       -2   -1    0    0    0  501  0.00000000000E+00  0.00000000000E+00 -0.15214813082E+03  0.15214813084E+03  0.25500000920E-02 0. -1.
    10030    2    1    2    0    0  0.00000000000E+00  0.00000000000E+00  0.89966045250E+03  0.12039567142E+04  0.80007677118E+03 0.  0.
        4    1    3    3  502    0 -0.27108050797E+03 -0.26214104238E+03  0.65074534027E+03  0.75211280981E+03  0.12699999809E+01 0.  1.
       -4    1    3    3    0  502  0.27108050797E+03  0.26214104238E+03  0.24891511223E+03  0.45184390435E+03  0.12699999809E+01 0. -1.
</event>
<event>
 5   0  0.6593118E-04  0.8000767E+03  0.7818609E-02  0.9559906E-01
        2   -1    0    0  501    0  0.00000000000E+00  0.00000000000E+00  0.69047155728E+03  0.69047155728E+03  0.25500000920E-02 0.  1.
       -2   -1    0    0    0  501  0.00000000000E+00  0.00000000000E+00 -0.23177010025E+03  0.23177010027E+03  0.25500000920E-02 0. -1.
    10030    2    1    2    0    0  0.00000000000E+00  0.00000000000E+00  0.45870145702E+03  0.92224165755E+03  0.80007665148E+03 0.  0.
        1    1    3    3  502    0  0.36167018920E+03  0.40104193980E+02  0.42090917631E+03  0.55639752593E+03  0.50400001928E-02 0. -1.
       -1    1    3    3    0  502 -0.36167018920E+03 -0.40104193980E+02  0.37792280710E+02  0.36584413162E+03  0.50400001928E-02 0.  1.
</event>
<event>
 5   0  0.6970013E-04  0.8001874E+03  0.7818609E-02  0.9559746E-01
       -2   -1    0    0    0  501  0.00000000000E+00  0.00000000000E+00  0.74977532497E+03  0.74977532497E+03  0.25500000920E-02 0. -1.
        2   -1    0    0  501    0  0.00000000000E+00  0.00000000000E+00 -0.21349723109E+03  0.21349723111E+03  0.25500000920E-02 0.  1.
    10030    2    1    2    0    0  0.00000000000E+00  0.00000000000E+00  0.53627809388E+03  0.96327255608E+03  0.80018736763E+03 0.  0.
        3    1    3    3  502    0  0.34549604055E+03  0.14234431690E+03  0.96009014195E+02  0.38580715338E+03  0.10100000352E+00 0. -1.
       -3    1    3    3    0  502 -0.34549604055E+03 -0.14234431690E+03  0.44026907968E+03  0.57746540270E+03  0.10100000352E+00 0.  1.
</event>
<event>
 5   0  0.7133039E-04  0.7997262E+03  0.7818609E-02  0.9560414E-01
       -2   -1    0    0    0  501  0.00000000000E+00  0.00000000000E+00  0.11867084231E+03  0.11867084234E+03  0.25500000920E-02 0.  1.
        2   -1    0    0  501    0  0.00000000000E+00  0.00000000000E+00 -0.13473443734E+04  0.13473443734E+04  0.25500000920E-02 0. -1.
    10030    2    1    2    0    0  0.00000000000E+00  0.00000000000E+00 -0.12286735311E+04  0.14660152158E+04  0.79972618239E+03 0.  0.
        2    1    3    3  502    0 -0.15253882951E+03  0.36167022428E+03 -0.47452348879E+03  0.61582951136E+03  0.25500000920E-02 0.  1.
       -2    1    3    3    0  502  0.15253882951E+03 -0.36167022428E+03 -0.75415004233E+03  0.85018570441E+03  0.25500000920E-02 0. -1.
</event>
<event>
 5   0  0.6593118E-04  0.8000687E+03  0.7818609E-02  0.9559918E-01
        2   -1    0    0  501    0  0.00000000000E+00  0.00000000000E+00  0.41179002509E+03  0.41179002510E+03  0.25500000920E-02 0. -1.
       -2   -1    0    0    0  501  0.00000000000E+00  0.00000000000E+00 -0.38861426677E+03  0.38861426678E+03  0.25500000920E-02 0.  1.
    10030    2    1    2    0    0  0.00000000000E+00  0.00000000000E+00  0.23175758321E+02  0.80040429187E+03  0.80006869372E+03 0.  0.
        1    1    3    3  502    0  0.15022189808E+03 -0.35617332857E+03 -0.91418507231E+02  0.39721958932E+03  0.50400001928E-02 0.  1.
       -1    1    3    3    0  502 -0.15022189808E+03  0.35617332857E+03  0.11459426555E+03  0.40318470255E+03  0.50400001928E-02 0. -1.
</event>
<event>
 5   0  0.6672462E-04  0.8001209E+03  0.7818609E-02  0.9559842E-01
        2   -1    0    0  501    0  0.00000000000E+00  0.00000000000E+00  0.75841642144E+03  0.75841642145E+03  0.25500000920E-02 0.  1.
       -2   -1    0    0    0  501  0.00000000000E+00  0.00000000000E+00 -0.21102968473E+03  0.21102968474E+03  0.25500000920E-02 0. -1.
    10030    2    1    2    0    0  0.00000000000E+00  0.00000000000E+00  0.54738673672E+03  0.96944610619E+03  0.80012093665E+03 0.  0.
        5    1    3    3  502    0 -0.37574431628E+03  0.46636047989E+02  0.11726905413E+03  0.39639984012E+03  0.46999998093E+01 0. -1.
       -5    1    3    3    0  502  0.37574431628E+03 -0.46636047989E+02  0.43011768259E+03  0.57304626607E+03  0.46999998093E+01 0.  1.
</event>
<event>
 5   0  0.2736375E-04  0.8001112E+03  0.7818609E-02  0.9559856E-01
        3   -1    0    0  501    0  0.00000000000E+00  0.00000000000E+00  0.15687683132E+03  0.15687686383E+03  0.10100000352E+00 0. -1.
       -3   -1    0    0    0  501  0.00000000000E+00  0.00000000000E+00 -0.10201919029E+04  0.10201919079E+04  0.10100000352E+00 0.  1.
    10030    2    1    2    0    0  0.00000000000E+00  0.00000000000E+00 -0.86331507159E+03  0.11770687717E+04  0.80011123013E+03 0.  0.
        5    1    3    3  502    0 -0.12667510562E+03 -0.62639050025E+02 -0.98220706579E+03  0.99233212336E+03  0.46999998093E+01 0.  1.
       -5    1    3    3    0  502  0.12667510562E+03  0.62639050025E+02  0.11889199420E+03  0.18473664838E+03  0.46999998093E+01 0. -1.
</event>
<event>
 5   0  0.7133039E-04  0.7988890E+03  0.7818609E-02  0.9561627E-01
        2   -1    0    0  501    0  0.00000000000E+00  0.00000000000E+00  0.24798118583E+03  0.24798118584E+03  0.25500000920E-02 0. -1.
       -2   -1    0    0    0  501  0.00000000000E+00  0.00000000000E+00 -0.64341935811E+03  0.64341935811E+03  0.25500000920E-02 0.  1.
    10030    2    1    2    0    0  0.00000000000E+00  0.00000000000E+00 -0.39543817228E+03  0.89140054395E+03  0.79888896704E+03 0.  0.
        2    1    3    3  502    0  0.38246490032E+03  0.62409767493E+02 -0.89644646769E+02  0.39775688775E+03  0.25500000920E-02 0.  1.
       -2    1    3    3    0  502 -0.38246490032E+03 -0.62409767493E+02 -0.30579352551E+03  0.49364365620E+03  0.25500000920E-02 0. -1.
</event>
<event>
 5   0  0.4086111E-04  0.7979388E+03  0.7818609E-02  0.9563005E-01
        1   -1    0    0  501    0  0.00000000000E+00  0.00000000000E+00  0.53354727755E+03  0.53354727758E+03  0.50400001928E-02 0.  1.
       -1   -1    0    0    0  501  0.00000000000E+00  0.00000000000E+00 -0.29833642926E+03  0.29833642930E+03  0.50400001928E-02 0. -1.
    10030    2    1    2    0    0  0.00000000000E+00  0.00000000000E+00  0.23521084829E+03  0.83188370688E+03  0.79793881885E+03 0.  0.
        3    1    3    3  502    0  0.17235193176E+03 -0.79957099048E+02  0.48335487866E+03  0.51935563442E+03  0.10100000352E+00 0.  1.
       -3    1    3    3    0  502 -0.17235193176E+03  0.79957099048E+02 -0.24814403037E+03  0.31252807247E+03  0.10100000352E+00 0. -1.
</event>
<event>
 5   0  0.4087283E-04  0.8000440E+03  0.7818609E-02  0.9559953E-01
        1   -1    0    0  501    0  0.00000000000E+00  0.00000000000E+00  0.35637435477E+03  0.35637435481E+03  0.50400001928E-02 0. -1.
       -1   -1    0    0    0  501  0.00000000000E+00  0.00000000000E+00 -0.44901549949E+03  0.44901549952E+03  0.50400001928E-02 0.  1.
    10030    2    1    2    0    0  0.00000000000E+00  0.00000000000E+00 -0.92641144713E+02  0.80538985433E+03  0.80004402114E+03 0.  0.
        1    1    3    3  502    0 -0.23866824834E+03 -0.37311592124E+02 -0.36729731308E+03  0.43961574573E+03  0.50400001928E-02 0.  1.
       -1    1    3    3    0  502  0.23866824834E+03  0.37311592124E+02  0.27465616837E+03  0.36577410860E+03  0.50400001928E-02 0. -1.
</event>
<event>
 5   0  0.6801147E-04  0.8010521E+03  0.7818609E-02  0.9558495E-01
        2   -1    0    0  501    0  0.00000000000E+00  0.00000000000E+00  0.50592667921E+03  0.50592667922E+03  0.25500000920E-02 0.  1.
       -2   -1    0    0    0  501  0.00000000000E+00  0.00000000000E+00 -0.31708374604E+03  0.31708374605E+03  0.25500000920E-02 0. -1.
    10030    2    1    2    0    0  0.00000000000E+00  0.00000000000E+00  0.18884293317E+03  0.82301042527E+03  0.80105212483E+03 0.  0.
        4    1    3    3  502    0 -0.39490199116E+02 -0.39738497135E+03  0.12600869953E+03  0.41875302571E+03  0.12699999809E+01 0.  1.
       -4    1    3    3    0  502  0.39490199116E+02  0.39738497135E+03  0.62834233645E+02  0.40425739956E+03  0.12699999809E+01 0. -1.
</event>
<event>
 5   0  0.6672462E-04  0.7980454E+03  0.7818609E-02  0.9562851E-01
       -2   -1    0    0    0  501  0.00000000000E+00  0.00000000000E+00  0.83732634639E+03  0.83732634639E+03  0.25500000920E-02 0.  1.
        2   -1    0    0  501    0  0.00000000000E+00  0.00000000000E+00 -0.19015181062E+03  0.19015181063E+03  0.25500000920E-02 0. -1.
    10030    2    1    2    0    0  0.00000000000E+00  0.00000000000E+00  0.64717453577E+03  0.10274781570E+04  0.79804541438E+03 0.  0.
        5    1    3    3  502    0 -0.35681156188E+03 -0.21811334035E+02  0.95418143047E+02  0.37002288714E+03  0.46999998093E+01 0. -1.
       -5    1    3    3    0  502  0.35681156188E+03  0.21811334035E+02  0.55175639273E+03  0.65745526988E+03  0.46999998093E+01 0.  1.
</event>
<event>
 5   0  0.6672462E-04  0.7998716E+03  0.7818609E-02  0.9560203E-01
        2   -1    0    0  501    0  0.00000000000E+00  0.00000000000E+00  0.67051734230E+03  0.67051734230E+03  0.25500000920E-02 0.  1.
       -2   -1    0    0    0  501  0.00000000000E+00  0.00000000000E+00 -0.23854511216E+03  0.23854511217E+03  0.25500000920E-02 0. -1.
    10030    2    1    2    0    0  0.00000000000E+00  0.00000000000E+00  0.43197223014E+03  0.90906245448E+03  0.79987157627E+03 0.  0.
        5    1    3    3  502    0 -0.12696057174E+03  0.18714940995E+03  0.59083246516E+03  0.63265233763E+03  0.46999998093E+01 0.  1.
       -5    1    3    3    0  502  0.12696057174E+03 -0.18714940995E+03 -0.15886023503E+03  0.27641011684E+03  0.46999998093E+01 0. -1.
</event>
<event>
 5   0  0.4169155E-04  0.7973497E+03  0.7818609E-02  0.9563861E-01
        1   -1    0    0  501    0  0.00000000000E+00  0.00000000000E+00  0.68456392861E+03  0.68456392863E+03  0.50400001928E-02 0. -1.
       -1   -1    0    0    0  501  0.00000000000E+00  0.00000000000E+00 -0.23217937024E+03  0.23217937029E+03  0.50400001928E-02 0.  1.
    10030    2    1    2    0    0  0.00000000000E+00  0.00000000000E+00  0.45238455837E+03  0.91674329892E+03  0.79734966449E+03 0.  0.
        4    1    3    3  502    0  0.30549214620E+03 -0.14060851244E+03 -0.19980059121E+02  0.33689318905E+03  0.12699999809E+01 0.  1.
       -4    1    3    3    0  502 -0.30549214620E+03  0.14060851244E+03  0.47236461749E+03  0.57985010987E+03  0.12699999809E+01 0. -1.
</event>
<event>
 5   0  0.4392552E-04  0.7998988E+03  0.7818609E-02  0.9560164E-01
        1   -1    0    0  501    0  0.00000000000E+00  0.00000000000E+00  0.30474058475E+03  0.30474058480E+03  0.50400001928E-02 0.  1.
       -1   -1    0    0    0  501  0.00000000000E+00  0.00000000000E+00 -0.52490395212E+03  0.52490395214E+03  0.50400001928E-02 0. -1.
    10030    2    1    2    0    0  0.00000000000E+00  0.00000000000E+00 -0.22016336736E+03  0.82964453694E+03  0.79989883694E+03 0.  0.
        5    1    3    3  502    0  0.14937641340E+03  0.22130005673E+03  0.19873260706E+03  0.33287199807E+03  0.46999998093E+01 0.  1.
       -5    1    3    3    0  502 -0.14937641340E+03 -0.22130005673E+03 -0.41889597443E+03  0.49677253887E+03  0.46999998093E+01 0. -1.
</event>
<event>
 5   0  0.6593118E-04  0.7997967E+03  0.7818609E-02  0.9560311E-01
       -2   -1    0    0    0  501  0.00000000000E+00  0.00000000000E+00  0.17644143489E+03  0.17644143490E+03  0.25500000920E-02 0. -1.
        2   -1    0    0  501    0  0.00000000000E+00  0.00000000000E+00 -0.90635573688E+03  0.90635573689E+03  0.25500000920E-02 0.  1.
    10030    2    1    2    0    0  0.00000000000E+00  0.00000000000E+00 -0.72991430200E+03  0.10827971718E+04  0.79979674104E+03 0.  0.
        1    1    3    3  502    0 -0.20659399556E+03 -0.83274067999E+02  0.84679037433E+02  0.23829852876E+03  0.50400001928E-02 0. -1.
       -1    1    3    3    0  502  0.20659399556E+03  0.83274067999E+02 -0.81459333943E+03  0.84449864303E+03  0.50400001928E-02 0.  1.
</event>
<event>
 5   0  0.6801147E-04  0.8001059E+03  0.7818609E-02  0.9559864E-01
       -2   -1    0    0    0  501  0.00000000000E+00  0.00000000000E+00  0.90160554267E+02  0.90160554303E+02  0.25500000920E-02 0.  1.
        2   -1    0    0  501    0  0.00000000000E+00  0.00000000000E+00 -0.17750820490E+04  0.17750820490E+04  0.25500000920E-02 0. -1.
    10030    2    1    2    0    0  0.00000000000E+00  0.00000000000E+00 -0.16849214947E+04  0.18652426033E+04  0.80010594658E+03 0.  0.
        4    1    3    3  502    0 -0.24465141539E+03  0.19458768152E+03 -0.14244417719E+04  0.14583396914E+04  0.12699999809E+01 0. -1.
       -4    1    3    3    0  502  0.24465141539E+03 -0.19458768152E+03 -0.26047972275E+03  0.40690291190E+03  0.12699999809E+01 0.  1.
</event>
<event>
 5   0  0.7133039E-04  0.7990007E+03  0.7818609E-02  0.9561465E-01
       -2   -1    0    0    0  501  0.00000000000E+00  0.00000000000E+00  0.53384137234E+03  0.53384137235E+03  0.25500000920E-02 0.  1.
        2   -1    0    0  501    0  0.00000000000E+00  0.00000000000E+00 -0.29896623343E+03  0.29896623344E+03  0.25500000920E-02 0. -1.
    10030    2    1    2    0    0  0.00000000000E+00  0.00000000000E+00  0.23487513891E+03  0.83280760579E+03  0.79900073679E+03 0.  0.
        2    1    3    3  502    0  0.18933585420E+03  0.32401856236E+02  0.48254811991E+03  0.51937523431E+03  0.25500000920E-02 0.  1.
       -2    1    3    3    0  502 -0.18933585420E+03 -0.32401856236E+02 -0.24767298100E+03  0.31343237149E+03  0.25500000920E-02 0. -1.
</event>
<event>
 5   0  0.7133039E-04  0.8000018E+03  0.7818609E-02  0.9560015E-01
       -2   -1    0    0    0  501  0.00000000000E+00  0.00000000000E+00  0.71726902348E+03  0.71726902348E+03  0.25500000920E-02 0. -1.
        2   -1    0    0  501    0  0.00000000000E+00  0.00000000000E+00 -0.22306930251E+03  0.22306930253E+03  0.25500000920E-02 0.  1.
    10030    2    1    2    0    0  0.00000000000E+00  0.00000000000E+00  0.49419972096E+03  0.94033832601E+03  0.80000175197E+03 0.  0.
        2    1    3    3  502    0  0.34088105726E+03  0.70559432407E+01  0.49295952617E+03  0.59938199504E+03  0.25500000920E-02 0. -1.
       -2    1    3    3    0  502 -0.34088105726E+03 -0.70559432407E+01  0.12401947938E+01  0.34095633096E+03  0.25500000920E-02 0.  1.
</event>
<event>
 5   0  0.2736375E-04  0.8001057E+03  0.7818609E-02  0.9559864E-01
       -4   -1    0    0    0  501  0.00000000000E+00  0.00000000000E+00  0.36949358352E+03  0.36949576610E+03  0.12699999809E+01 0.  1.
        4   -1    0    0  501    0  0.00000000000E+00  0.00000000000E+00 -0.43313512094E+03  0.43313698283E+03  0.12699999809E+01 0. -1.
    10030    2    1    2    0    0  0.00000000000E+00  0.00000000000E+00 -0.63641537422E+02  0.80263274893E+03  0.80010567075E+03 0.  0.
        4    1    3    3  502    0 -0.24679450785E+03  0.26947267588E+03  0.13153583079E+03  0.38836366956E+03  0.12699999809E+01 0. -1.
       -4    1    3    3    0  502  0.24679450785E+03 -0.26947267588E+03 -0.19517736822E+03  0.41426907936E+03  0.12699999809E+01 0.  1.
</event>
<event>
 5   0  0.4087283E-04  0.7991405E+03  0.7818609E-02  0.9561262E-01
       -1   -1    0    0    0  501  0.00000000000E+00  0.00000000000E+00  0.35382223102E+03  0.35382223105E+03  0.50400001928E-02 0.  1.
        1   -1    0    0  501    0  0.00000000000E+00  0.00000000000E+00 -0.45123335700E+03  0.45123335703E+03  0.50400001928E-02 0. -1.
    10030    2    1    2    0    0  0.00000000000E+00  0.00000000000E+00 -0.97411125985E+02  0.80505558808E+03  0.79914052108E+03 0.  0.
        1    1    3    3  502    0  0.59999540645E+01 -0.19440746123E+03  0.30291393158E+03  0.35998209733E+03  0.50400001928E-02 0.  1.
       -1    1    3    3    0  502 -0.59999540645E+01  0.19440746123E+03 -0.40032505756E+03  0.44507349075E+03  0.50400001928E-02 0. -1.
</event>
<event>
 5   0  0.6672462E-04  0.7968123E+03  0.7818609E-02  0.9564643E-01
       -2   -1    0    0    0  501  0.00000000000E+00  0.00000000000E+00  0.13581973640E+03  0.13581973642E+03  0.25500000920E-02 0. -1.
        2   -1    0    0  501    0  0.00000000000E+00  0.00000000000E+00 -0.11686628164E+04  0.11686628164E+04  0.25500000920E-02 0.  1.
    10030    2    1    2    0    0  0.00000000000E+00  0.00000000000E+00 -0.10328430800E+04  0.13044825528E+04  0.79681233845E+03 0.  0.
        5    1    3    3  502    0  0.15863759859E+03 -0.28612212231E+03 -0.88857041148E+03  0.94689557118E+03  0.46999998093E+01 0.  1.
       -5    1    3    3    0  502 -0.15863759859E+03  0.28612212231E+03 -0.14427266854E+03  0.35758698165E+03  0.46999998093E+01 0. -1.
</event>
<event>
 5   0  0.6593118E-04  0.7979758E+03  0.7818609E-02  0.9562952E-01
       -2   -1    0    0    0  501  0.00000000000E+00  0.00000000000E+00  0.13705793087E+03  0.13705793089E+03  0.25500000920E-02 0.  1.
        2   -1    0    0  501    0  0.00000000000E+00  0.00000000000E+00 -0.11614895318E+04  0.11614895318E+04  0.25500000920E-02 0. -1.
    10030    2    1    2    0    0  0.00000000000E+00  0.00000000000E+00 -0.10244316009E+04  0.12985474627E+04  0.79797581910E+03 0.  0.
        1    1    3    3  502    0 -0.20707700417E+03  0.33602192683E+03 -0.41733237116E+03  0.57441964539E+03  0.50400001928E-02 0. -1.
       -1    1    3    3    0  502  0.20707700417E+03 -0.33602192683E+03 -0.60709922975E+03  0.72412781728E+03  0.50400001928E-02 0.  1.
</event>
<event>
 5   0  0.4169155E-04  0.8001525E+03  0.7818609E-02  0.9559796E-01
       -1   -1    0    0    0  501  0.00000000000E+00  0.00000000000E+00  0.84523284062E+02  0.84523284212E+02  0.50400001928E-02 0. -1.
        1   -1    0    0  501    0  0.00000000000E+00  0.00000000000E+00 -0.18936911860E+04  0.18936911860E+04  0.50400001928E-02 0.  1.
    10030    2    1    2    0    0  0.00000000000E+00  0.00000000000E+00 -0.18091679019E+04  0.19782144702E+04  0.80015248094E+03 0.  0.
        4    1    3    3  502    0  0.25779719753E+03  0.75517318737E+02 -0.16375569097E+04  0.16594446378E+04  0.12699999809E+01 0.  1.
       -4    1    3    3    0  502 -0.25779719753E+03 -0.75517318737E+02 -0.17161099215E+03  0.31876983234E+03  0.12699999809E+01 0. -1.
</event>
<event>
 5   0  0.4086111E-04  0.7999760E+03  0.7818609E-02  0.9560052E-01
       -1   -1    0    0    0  501  0.00000000000E+00  0.00000000000E+00  0.97705807290E+03  0.97705807291E+03  0.50400001928E-02 0. -1.
        1   -1    0    0  501    0  0.00000000000E+00  0.00000000000E+00 -0.16374709080E+03  0.16374709088E+03  0.50400001928E-02 0.  1.
    10030    2    1    2    0    0  0.00000000000E+00  0.00000000000E+00  0.81331098210E+03  0.11408051638E+04  0.79997604222E+03 0.  0.
        3    1    3    3  502    0 -0.11489531577E+03  0.73869377310E+02  0.94276802522E+03  0.95261176671E+03  0.10100000352E+00 0. -1.
       -3    1    3    3    0  502  0.11489531577E+03 -0.73869377310E+02 -0.12945704312E+03  0.18819339708E+03  0.10100000352E+00 0.  1.
</event>
<event>
 5   0  0.6672462E-04  0.7994180E+03  0.7818609E-02  0.9560860E-01
       -2   -1    0    0    0  501  0.00000000000E+00  0.00000000000E+00  0.22573086591E+03  0.22573086592E+03  0.25500000920E-02 0.  1.
        2   -1    0    0  501    0  0.00000000000E+00  0.00000000000E+00 -0.70777776691E+03  0.70777776692E+03  0.25500000920E-02 0. -1.
    10030    2    1    2    0    0  0.00000000000E+00  0.00000000000E+00 -0.48204690101E+03  0.93350863284E+03  0.79941800881E+03 0.  0.
        5    1    3    3  502    0 -0.10630334800E+02  0.51954285030E+02 -0.70361902680E+03  0.70563026906E+03  0.46999998093E+01 0. -1.
       -5    1    3    3    0  502  0.10630334800E+02 -0.51954285030E+02  0.22157212579E+03  0.22787836377E+03  0.46999998093E+01 0.  1.
</event>
<event>
 5   0  0.6672462E-04  0.8002423E+03  0.7818609E-02  0.9559666E-01
       -2   -1    0    0    0  501  0.00000000000E+00  0.00000000000E+00  0.92555617796E+02  0.92555617831E+02  0.25500000920E-02 0.  1.
        2   -1    0    0  501    0  0.00000000000E+00  0.00000000000E+00 -0.17297375019E+04  0.17297375019E+04  0.25500000920E-02 0. -1.
    10030    2    1    2    0    0  0.00000000000E+00  0.00000000000E+00 -0.16371818841E+04  0.18222931198E+04  0.80024227119E+03 0.  0.
        5    1    3    3  502    0  0.39465589878E+03  0.65622141050E+02 -0.82749505713E+03  0.91914618174E+03  0.46999998093E+01 0. -1.
       -5    1    3    3    0  502 -0.39465589878E+03 -0.65622141050E+02 -0.80968682700E+03  0.90314693802E+03  0.46999998093E+01 0.  1.
</event>
<event>
 5   0  0.7133039E-04  0.7999234E+03  0.7818609E-02  0.9560128E-01
        2   -1    0    0  501    0  0.00000000000E+00  0.00000000000E+00  0.24479068340E+03  0.24479068341E+03  0.25500000920E-02 0. -1.
       -2   -1    0    0    0  501  0.00000000000E+00  0.00000000000E+00 -0.65349442661E+03  0.65349442661E+03  0.25500000920E-02 0.  1.
    10030    2    1    2    0    0  0.00000000000E+00  0.00000000000E+00 -0.40870374321E+03  0.89828511002E+03  0.79992336456E+03 0.  0.
        2    1    3    3  502    0 -0.13253920103E+03 -0.36561664524E+03 -0.99445300800E+02  0.40141193174E+03  0.25500000920E-02 0. -1.
       -2    1    3    3    0  502  0.13253920103E+03  0.36561664524E+03 -0.30925844241E+03  0.49687317828E+03  0.25500000920E-02 0.  1.
</event>
<event>
 5   0  0.6801147E-04  0.7997918E+03  0.7818609E-02  0.9560318E-01
        2   -1    0    0  501    0  0.00000000000E+00  0.00000000000E+00  0.48167782521E+03  0.48167782522E+03  0.25500000920E-02 0.  1.
       -2   -1    0    0    0  501  0.00000000000E+00  0.00000000000E+00 -0.33199937883E+03  0.33199937884E+03  0.25500000920E-02 0. -1.
    10030    2    1    2    0    0  0.00000000000E+00  0.00000000000E+00  0.14967844638E+03  0.81367720406E+03  0.79979181984E+03 0.  0.
        4    1    3    3  502    0 -0.98212658860E+02 -0.23257909394E+03 -0.24066804586E+03  0.34880006092E+03  0.12699999809E+01 0. -1.
       -4    1    3    3    0  502  0.98212658860E+02  0.23257909394E+03  0.39034649225E+03  0.46487714313E+03  0.12699999809E+01 0.  1.
</event>
<event>
 5   0  0.4087283E-04  0.7989959E+03  0.7818609E-02  0.9561472E-01
        1   -1    0    0  501    0  0.00000000000E+00  0.00000000000E+00  0.51274114329E+03  0.51274114332E+03  0.50400001928E-02 0. -1.
       -1   -1    0    0    0  501  0.00000000000E+00  0.00000000000E+00 -0.31126547440E+03  0.31126547444E+03  0.50400001928E-02 0.  1.
    10030    2    1    2    0    0  0.00000000000E+00  0.00000000000E+00  0.20147566889E+03  0.82400661776E+03  0.79899590797E+03 0.  0.
        1    1    3    3  502    0 -0.15583280041E+03  0.22822989065E+03 -0.19678158493E+03  0.33925762610E+03  0.50400001928E-02 0. -1.
       -1    1    3    3    0  502  0.15583280041E+03 -0.22822989065E+03  0.39825725383E+03  0.48474899167E+03  0.50400001928E-02 0.  1.
</event>
<event>
 5   0  0.4087283E-04  0.7999824E+03  0.7818609E-02  0.9560043E-01
        1   -1    0    0  501    0  0.00000000000E+00  0.00000000000E+00  0.89144231562E+03  0.89144231564E+03  0.50400001928E-02 0.  1.
       -1   -1    0    0    0  501  0.00000000000E+00  0.00000000000E+00 -0.17947650934E+03  0.17947650941E+03  0.50400001928E-02 0. -1.
    10030    2    1    2    0    0  0.00000000000E+00  0.00000000000E+00  0.71196580629E+03  0.10709188250E+04  0.79998238763E+03 0.  0.
        1    1    3    3  502    0 -0.46017992236E+02 -0.12108335956E+03  0.86258740623E+03  0.87225906070E+03  0.50400001928E-02 0.  1.
       -1    1    3    3    0  502  0.46017992236E+02  0.12108335956E+03 -0.15062159994E+03  0.19865976434E+03  0.50400001928E-02 0. -1.
</event>
<event>
 5   0  0.4086111E-04  0.8004458E+03  0.7818609E-02  0.9559372E-01
       -1   -1    0    0    0  501  0.00000000000E+00  0.00000000000E+00  0.20527361334E+03  0.20527361340E+03  0.50400001928E-02 0. -1.
        1   -1    0    0  501    0  0.00000000000E+00  0.00000000000E+00 -0.78031644693E+03  0.78031644694E+03  0.50400001928E-02 0.  1.
    10030    2    1    2    0    0  0.00000000000E+00  0.00000000000E+00 -0.57504283359E+03  0.98559006035E+03  0.80044581740E+03 0.  0.
        3    1    3    3  502    0 -0.37091323758E+02 -0.39687500419E+03 -0.24324879031E+03  0.46696415220E+03  0.10100000352E+00 0. -1.
       -3    1    3    3    0  502  0.37091323758E+02  0.39687500419E+03 -0.33179404328E+03  0.51862590815E+03  0.10100000352E+00 0.  1.
</event>
<event>
 5   0  0.6593118E-04  0.7998983E+03  0.7818609E-02  0.9560164E-01
        2   -1    0    0  501    0  0.00000000000E+00  0.00000000000E+00  0.10078757171E+04  0.10078757171E+04  0.25500000920E-02 0.  1.
       -2   -1    0    0    0  501  0.00000000000E+00  0.00000000000E+00 -0.15870936838E+03  0.15870936840E+03  0.25500000920E-02 0. -1.
    10030    2    1    2    0    0  0.00000000000E+00  0.00000000000E+00  0.84916634875E+03  0.11665850855E+04  0.79989828976E+03 0.  0.
        1    1    3    3  502    0  0.34463604573E+03 -0.20237158263E+03  0.44675192427E+03  0.59942934808E+03  0.50400001928E-02 0. -1.
       -1    1    3    3    0  502 -0.34463604573E+03  0.20237158263E+03  0.40241442449E+03  0.56715573746E+03  0.50400001928E-02 0.  1.
</event>
<event>
 5   0  0.2736375E-04  0.7996652E+03  0.7818609E-02  0.9560502E-01
        3   -1    0    0  501    0  0.00000000000E+00  0.00000000000E+00  0.33188363027E+03  0.33188364564E+03  0.10100000352E+00 0.  1.
       -3   -1    0    0    0  501  0.00000000000E+00  0.00000000000E+00 -0.48169317901E+03  0.48169318960E+03  0.10100000352E+00 0. -1.
    10030    2    1    2    0    0  0.00000000000E+00  0.00000000000E+00 -0.14980954874E+03  0.81357683523E+03  0.79966515863E+03 0.  0.
        2    1    3    3  502    0  0.24992057658E+03 -0.17952937132E+03 -0.33464004348E+03  0.45461527523E+03  0.25500000920E-02 0. -1.
       -2    1    3    3    0  502 -0.24992057658E+03  0.17952937132E+03  0.18483049474E+03  0.35896156000E+03  0.25500000920E-02 0.  1.
</event>
<event>
 5   0  0.6801147E-04  0.8003902E+03  0.7818609E-02  0.9559453E-01
       -2   -1    0    0    0  501  0.00000000000E+00  0.00000000000E+00  0.10958942608E+03  0.10958942611E+03  0.25500000920E-02 0.  1.
        2   -1    0    0  501    0  0.00000000000E+00  0.00000000000E+00 -0.14614193659E+04  0.14614193659E+04  0.25500000920E-02 0. -1.
    10030    2    1    2    0    0  0.00000000000E+00  0.00000000000E+00 -0.13518299399E+04  0.15710087921E+04  0.80039017887E+03 0.  0.
        4    1    3    3  502    0 -0.45610288706E+02 -0.38240329680E+03 -0.46232155046E+03  0.60171040273E+03  0.12699999809E+01 0.  1.
       -4    1    3    3    0  502  0.45610288706E+02  0.38240329680E+03 -0.88950838940E+03  0.96929838932E+03  0.12699999809E+01 0. -1.
</event>
<event>
 5   0  0.4169155E-04  0.8000467E+03  0.7818609E-02  0.9559949E-01
       -1   -1    0    0    0  501  0.00000000000E+00  0.00000000000E+00  0.45482316202E+03  0.45482316205E+03  0.50400001928E-02 0. -1.
        1   -1    0    0  501    0  0.00000000000E+00  0.00000000000E+00 -0.35182616598E+03  0.35182616602E+03  0.50400001928E-02 0.  1.
    10030    2    1    2    0    0  0.00000000000E+00  0.00000000000E+00  0.10299699604E+03  0.80664932807E+03  0.80004672194E+03 0.  0.
        4    1    3    3  502    0  0.54052639315E+02  0.84470723137E+02 -0.33894416481E+03  0.35347100397E+03  0.12699999809E+01 0.  1.
       -4    1    3    3    0  502 -0.54052639315E+02 -0.84470723137E+02  0.44194116085E+03  0.45317832411E+03  0.12699999809E+01 0. -1.
</event>
<event>
 5   0  0.4392552E-04  0.8009677E+03  0.7818609E-02  0.9558617E-01
       -1   -1    0    0    0  501  0.00000000000E+00  0.00000000000E+00  0.23913313521E+03  0.23913313527E+03  0.50400001928E-02 0.  1.
        1   -1    0    0  501    0  0.00000000000E+00  0.00000000000E+00 -0.67070296532E+03  0.67070296534E+03  0.50400001928E-02 0. -1.
    10030    2    1    2    0    0  0.00000000000E+00  0.00000000000E+00 -0.43156983011E+03  0.90983610061E+03  0.80096767208E+03 0.  0.
        5    1    3    3  502    0 -0.16858632106E+03 -0.34101181665E+03 -0.35791042129E+03  0.52233357772E+03  0.46999998093E+01 0. -1.
       -5    1    3    3    0  502  0.16858632106E+03  0.34101181665E+03 -0.73659408813E+02  0.38750252289E+03  0.46999998093E+01 0.  1.
</event>
<event>
 5   0  0.6593118E-04  0.7998521E+03  0.7818609E-02  0.9560231E-01
        2   -1    0    0  501    0  0.00000000000E+00  0.00000000000E+00  0.13767491871E+04  0.13767491871E+04  0.25500000920E-02 0. -1.
       -2   -1    0    0    0  501  0.00000000000E+00  0.00000000000E+00 -0.11617282645E+03  0.11617282648E+03  0.25500000920E-02 0.  1.
    10030    2    1    2    0    0  0.00000000000E+00  0.00000000000E+00  0.12605763606E+04  0.14929220136E+04  0.79985209733E+03 0.  0.
        1    1    3    3  502    0  0.16292756016E+03 -0.36519362661E+03  0.64035163179E+03  0.75495826848E+03  0.50400001928E-02 0.  1.
       -1    1    3    3    0  502 -0.16292756016E+03  0.36519362661E+03  0.62022472885E+03  0.73796374510E+03  0.50400001928E-02 0. -1.
</event>
<event>
 5   0  0.4086111E-04  0.8003210E+03  0.7818609E-02  0.9559553E-01
       -1   -1    0    0    0  501  0.00000000000E+00  0.00000000000E+00  0.32907961880E+03  0.32907961883E+03  0.50400001928E-02 0.  1.
        1   -1    0    0  501    0  0.00000000000E+00  0.00000000000E+00 -0.48659482277E+03  0.48659482280E+03  0.50400001928E-02 0. -1.
    10030    2    1    2    0    0  0.00000000000E+00  0.00000000000E+00 -0.15751520397E+03  0.81567444163E+03  0.80032103261E+03 0.  0.
        3    1    3    3  502    0  0.34461370364E+03 -0.19205304783E+03 -0.14701593333E+03  0.42101861334E+03  0.10100000352E+00 0. -1.
       -3    1    3    3    0  502 -0.34461370364E+03  0.19205304783E+03 -0.10499270645E+02  0.39465582829E+03  0.10100000352E+00 0.  1.
</event>
<event>
 5   0  0.7133039E-04  0.7999876E+03  0.7818609E-02  0.9560035E-01
        2   -1    0    0  501    0  0.00000000000E+00  0.00000000000E+00  0.26763304055E+04  0.26763304055E+04  0.25500000920E-02 0. -1.
       -2   -1    0    0    0  501  0.00000000000E+00  0.00000000000E+00 -0.59781503573E+02  0.59781503627E+02  0.25500000920E-02 0.  1.
    10030    2    1    2    0    0  0.00000000000E+00  0.00000000000E+00  0.26165489019E+04  0.27361119091E+04  0.79998763934E+03 0.  0.
        2    1    3    3  502    0  0.91180201373E+02 -0.13994014188E+03  0.25513532898E+04  0.25568145575E+04  0.25500000920E-02 0. -1.
       -2    1    3    3    0  502 -0.91180201373E+02  0.13994014188E+03  0.65195612149E+02  0.17929735158E+03  0.25500000920E-02 0.  1.
</event>
<event>
 5   0  0.7133039E-04  0.7998923E+03  0.7818609E-02  0.9560173E-01
       -2   -1    0    0    0  501  0.00000000000E+00  0.00000000000E+00  0.11414855205E+03  0.11414855208E+03  0.25500000920E-02 0. -1.
        2   -1    0    0  501    0  0.00000000000E+00  0.00000000000E+00 -0.14013048674E+04  0.14013048674E+04  0.25500000920E-02 0.  1.
    10030    2    1    2    0    0  0.00000000000E+00  0.00000000000E+00 -0.12871563153E+04  0.15154534195E+04  0.79989229679E+03 0.  0.
        2    1    3    3  502    0  0.12473494478E+03 -0.32259905737E+03 -0.10240427296E+04  0.10808757886E+04  0.25500000920E-02 0.  1.
       -2    1    3    3    0  502 -0.12473494478E+03  0.32259905737E+03 -0.26311358572E+03  0.43457763088E+03  0.25500000920E-02 0. -1.
</event>
<event>
 5   0  0.6801147E-04  0.8000110E+03  0.7818609E-02  0.9560001E-01
        2   -1    0    0  501    0  0.00000000000E+00  0.00000000000E+00  0.67686915594E+03  0.67686915594E+03  0.25500000920E-02 0.  1.
       -2   -1    0    0    0  501  0.00000000000E+00  0.00000000000E+00 -0.23638897546E+03  0.23638897548E+03  0.25500000920E-02 0. -1.
    10030    2    1    2    0    0  0.00000000000E+00  0.00000000000E+00  0.44048018047E+03  0.91325813142E+03  0.80001101568E+03 0.  0.
        4    1    3    3  502    0  0.91202159456E+02 -0.17994625251E+02  0.66436465446E+03  0.67083801876E+03  0.12699999809E+01 0.  1.
       -4    1    3    3    0  502 -0.91202159456E+02  0.17994625251E+02 -0.22388447399E+03  0.24242011265E+03  0.12699999809E+01 0. -1.
</event>
<event>
 5   0  0.6970013E-04  0.8007119E+03  0.7818609E-02  0.9558987E-01
        2   -1    0    0  501    0  0.00000000000E+00  0.00000000000E+00  0.11446064732E+04  0.11446064732E+04  0.25500000920E-02 0. -1.
       -2   -1    0    0    0  501  0.00000000000E+00  0.00000000000E+00 -0.14003493925E+03  0.14003493928E+03  0.25500000920E-02 0.  1.
    10030    2    1    2    0    0  0.00000000000E+00  0.00000000000E+00  0.10045715340E+04  0.12846414125E+04  0.80071192813E+03 0.  0.
        3    1    3    3  502    0  0.75694532770E+02  0.23224321091E+03  0.10111994680E+04  0.10402840696E+04  0.10100000352E+00 0. -1.
       -3    1    3    3    0  502 -0.75694532770E+02 -0.23224321091E+03 -0.66279339994E+01  0.24435734287E+03  0.10100000352E+00 0.  1.
</event>
<event>
 5   0  0.6593118E-04  0.8000841E+03  0.7818609E-02  0.9559895E-01
        2   -1    0    0  501    0  0.00000000000E+00  0.00000000000E+00  0.10069217620E+04  0.10069217620E+04  0.25500000920E-02 0. -1.
       -2   -1    0    0    0  501  0.00000000000E+00  0.00000000000E+00 -0.15893356111E+03  0.15893356113E+03  0.25500000920E-02 0.  1.
    10030    2    1    2    0    0  0.00000000000E+00  0.00000000000E+00  0.84798820092E+03  0.11658553232E+04  0.80008414909E+03 0.  0.
        1    1    3    3  502    0 -0.14520280343E+03  0.14038266369E+03 -0.79187274146E+02  0.21693725083E+03  0.50400001928E-02 0.  1.
       -1    1    3    3    0  502  0.14520280343E+03 -0.14038266369E+03  0.92717547506E+03  0.94891807232E+03  0.50400001928E-02 0. -1.
</event>
<event>
 5   0  0.6672462E-04  0.8003267E+03  0.7818609E-02  0.9559544E-01
       -2   -1    0    0    0  501  0.00000000000E+00  0.00000000000E+00  0.18040738512E+03  0.18040738513E+03  0.25500000920E-02 0.  1.
        2   -1    0    0  501    0  0.00000000000E+00  0.00000000000E+00 -0.88760616220E+03  0.88760616220E+03  0.25500000920E-02 0. -1.
    10030    2    1    2    0    0  0.00000000000E+00  0.00000000000E+00 -0.70719877708E+03  0.10680135473E+04  0.80032670016E+03 0.  0.
        5    1    3    3  502    0  0.27448122758E+03  0.26463941592E+03 -0.51558610318E+03  0.64126834051E+03  0.46999998093E+01 0. -1.
       -5    1    3    3    0  502 -0.27448122758E+03 -0.26463941592E+03 -0.19161267390E+03  0.42674520682E+03  0.46999998093E+01 0.  1.
</event>
<event>
 5   0  0.4169155E-04  0.8000708E+03  0.7818609E-02  0.9559915E-01
       -1   -1    0    0    0  501  0.00000000000E+00  0.00000000000E+00  0.27460669940E+03  0.27460669945E+03  0.50400001928E-02 0.  1.
        1   -1    0    0  501    0  0.00000000000E+00  0.00000000000E+00 -0.58275458137E+03  0.58275458139E+03  0.50400001928E-02 0. -1.
    10030    2    1    2    0    0  0.00000000000E+00  0.00000000000E+00 -0.30814788196E+03  0.85736128084E+03  0.80007077732E+03 0.  0.
        4    1    3    3  502    0  0.26437885489E+02  0.14113143302E+03 -0.55418622626E+03  0.57248670679E+03  0.12699999809E+01 0. -1.
       -4    1    3    3    0  502 -0.26437885489E+02 -0.14113143302E+03  0.24603834430E+03  0.28487457405E+03  0.12699999809E+01 0.  1.
</event>
<event>
 5   0  0.4086111E-04  0.8000841E+03  0.7818609E-02  0.9559895E-01
        1   -1    0    0  501    0  0.00000000000E+00  0.00000000000E+00  0.18828942049E+03  0.18828942055E+03  0.50400001928E-02 0.  1.
       -1   -1    0    0    0  501  0.00000000000E+00  0.00000000000E+00 -0.84993423898E+03  0.84993423900E+03  0.50400001928E-02 0. -1.
    10030    2    1    2    0    0  0.00000000000E+00  0.00000000000E+00 -0.66164481849E+03  0.10382236596E+04  0.80008405896E+03 0.  0.
        3    1    3    3  502    0  0.28778037086E+03 -0.25648366008E+03 -0.19207645965E+03  0.43069105666E+03  0.10100000352E+00 0.  1.
       -3    1    3    3    0  502 -0.28778037086E+03  0.25648366008E+03 -0.46956835885E+03  0.60753260289E+03  0.10100000352E+00 0. -1.
</event>
<event>
 5   0  0.6801147E-04  0.8000905E+03  0.7818609E-02  0.9559886E-01
        2   -1    0    0  501    0  0.00000000000E+00  0.00000000000E+00  0.29098251845E+03  0.29098251846E+03  0.25500000920E-02 0. -1.
       -2   -1    0    0    0  501  0.00000000000E+00  0.00000000000E+00 -0.54998563783E+03  0.54998563784E+03  0.25500000920E-02 0.  1.
    10030    2    1    2    0    0  0.00000000000E+00  0.00000000000E+00 -0.25900311938E+03  0.84096815630E+03  0.80009050992E+03 0.  0.
        4    1    3    3  502    0  0.50484042892E+02  0.26100767286E+02  0.28671559530E+03  0.29229665432E+03  0.12699999809E+01 0. -1.
       -4    1    3    3    0  502 -0.50484042892E+02 -0.26100767286E+02 -0.54571871468E+03  0.54867150198E+03  0.12699999809E+01 0.  1.
</event>
<event>
 5   0  0.7133039E-04  0.7998764E+03  0.7818609E-02  0.9560196E-01
        2   -1    0    0  501    0  0.00000000000E+00  0.00000000000E+00  0.74876241488E+03  0.74876241489E+03  0.25500000920E-02 0.  1.
       -2   -1    0    0    0  501  0.00000000000E+00  0.00000000000E+00 -0.21361992129E+03  0.21361992131E+03  0.25500000920E-02 0. -1.
    10030    2    1    2    0    0  0.00000000000E+00  0.00000000000E+00  0.53514249359E+03  0.96238233619E+03  0.79987641081E+03 0.  0.
        2    1    3    3  502    0 -0.10617280992E+03 -0.35196394475E+03  0.78099557770E+02  0.37583350689E+03  0.25500000920E-02 0. -1.
       -2    1    3    3    0  502  0.10617280992E+03  0.35196394475E+03  0.45704293582E+03  0.58654882930E+03  0.25500000920E-02 0.  1.
</event>
<event>
 5   0  0.4392552E-04  0.7998710E+03  0.7818609E-02  0.9560204E-01
        1   -1    0    0  501    0  0.00000000000E+00  0.00000000000E+00  0.52621072956E+03  0.52621072958E+03  0.50400001928E-02 0.  1.
       -1   -1    0    0    0  501  0.00000000000E+00  0.00000000000E+00 -0.30396261027E+03  0.30396261031E+03  0.50400001928E-02 0. -1.
    10030    2    1    2    0    0  0.00000000000E+00  0.00000000000E+00  0.22224811929E+03  0.83017333989E+03  0.79987095693E+03 0.  0.
        5    1    3    3  502    0  0.35689069224E+03 -0.67571049541E+02 -0.62514550271E+02  0.36860137268E+03  0.46999998093E+01 0.  1.
       -5    1    3    3    0  502 -0.35689069224E+03  0.67571049541E+02  0.28476266956E+03  0.46157196721E+03  0.46999998093E+01 0. -1.
</event>
<event>
 5   0  0.4104786E-04  0.8000643E+03  0.7818609E-02  0.9559924E-01
        1   -1    0    0  501    0  0.00000000000E+00  0.00000000000E+00  0.10718028191E+04  0.10718028192E+04  0.50400001928E-02 0. -1.
       -1   -1    0    0    0  501  0.00000000000E+00  0.00000000000E+00 -0.14930519064E+03  0.14930519073E+03  0.50400001928E-02 0.  1.
    10030    2    1    2    0    0  0.00000000000E+00  0.00000000000E+00  0.92249762851E+03  0.12211080099E+04  0.80006430817E+03 0.  0.
        2    1    3    3  502    0 -0.13891772924E+03  0.26242104991E+03  0.52100096370E+02  0.30145872517E+03  0.25500000920E-02 0.  1.
       -2    1    3    3    0  502  0.13891772924E+03 -0.26242104991E+03  0.87039753214E+03  0.91964928472E+03  0.25500000920E-02 0. -1.
</event>
<event>
 5   0  0.6672462E-04  0.8001267E+03  0.7818609E-02  0.9559834E-01
       -2   -1    0    0    0  501  0.00000000000E+00  0.00000000000E+00  0.82285400410E+02  0.82285400449E+02  0.25500000920E-02 0.  1.
        2   -1    0    0  501    0  0.00000000000E+00  0.00000000000E+00 -0.19450676436E+04  0.19450676436E+04  0.25500000920E-02 0. -1.
    10030    2    1    2    0    0  0.00000000000E+00  0.00000000000E+00 -0.18627822432E+04  0.20273530440E+04  0.80012666476E+03 0.  0.
        5    1    3    3  502    0  0.23296106659E+03 -0.22350393829E+03 -0.15299435262E+04  0.15636413119E+04  0.46999998093E+01 0. -1.
       -5    1    3    3    0  502 -0.23296106659E+03  0.22350393829E+03 -0.33283871694E+03  0.46371173208E+03  0.46999998093E+01 0.  1.
</event>
<event>
 5   0  0.4104786E-04  0.7984051E+03  0.7818609E-02  0.9562329E-01
        1   -1    0    0  501    0  0.00000000000E+00  0.00000000000E+00  0.66547441788E+03  0.66547441790E+03  0.50400001928E-02 0. -1.
       -1   -1    0    0    0  501  0.00000000000E+00  0.00000000000E+00 -0.23947229130E+03  0.23947229136E+03  0.50400001928E-02 0.  1.
    10030    2    1    2    0    0  0.00000000000E+00  0.00000000000E+00  0.42600212658E+03  0.90494670925E+03  0.79840511944E+03 0.  0.
        2    1    3    3  502    0 -0.30341601469E+03 -0.25563489763E+03  0.16292128676E+03  0.42889838488E+03  0.25500000920E-02 0. -1.
       -2    1    3    3    0  502  0.30341601469E+03  0.25563489763E+03  0.26308083981E+03  0.47604832438E+03  0.25500000920E-02 0.  1.
</event>
<event>
 5   0  0.4086111E-04  0.8003599E+03  0.7818609E-02  0.9559496E-01
        1   -1    0    0  501    0  0.00000000000E+00  0.00000000000E+00  0.25395872206E+03  0.25395872211E+03  0.50400001928E-02 0. -1.
       -1   -1    0    0    0  501  0.00000000000E+00  0.00000000000E+00 -0.63059067643E+03  0.63059067645E+03  0.50400001928E-02 0.  1.
    10030    2    1    2    0    0  0.00000000000E+00  0.00000000000E+00 -0.37663195437E+03  0.88454939855E+03  0.80035992492E+03 0.  0.
        3    1    3    3  502    0  0.22199796582E+03  0.81260049306E+02 -0.54517018828E+03  0.59421951905E+03  0.10100000352E+00 0.  1.
       -3    1    3    3    0  502 -0.22199796582E+03 -0.81260049306E+02  0.16853823391E+03  0.29032987950E+03  0.10100000352E+00 0. -1.
</event>
<event>
 5   0  0.4087283E-04  0.7998622E+03  0.7818609E-02  0.9560217E-01
       -1   -1    0    0    0  501  0.00000000000E+00  0.00000000000E+00  0.24312119405E+03  0.24312119411E+03  0.50400001928E-02 0.  1.
        1   -1    0    0  501    0  0.00000000000E+00  0.00000000000E+00 -0.65788128548E+03  0.65788128550E+03  0.50400001928E-02 0. -1.
    10030    2    1    2    0    0  0.00000000000E+00  0.00000000000E+00 -0.41476009143E+03  0.90100247961E+03  0.79986219739E+03 0.  0.
        1    1    3    3  502    0 -0.27598230762E+03  0.20574119852E+03  0.21954213402E+02  0.34493138796E+03  0.50400001928E-02 0.  1.
       -1    1    3    3    0  502  0.27598230762E+03 -0.20574119852E+03 -0.43671430483E+03  0.55607109164E+03  0.50400001928E-02 0. -1.
</event>
<event>
 5   0  0.6593118E-04  0.7988528E+03  0.7818609E-02  0.9561679E-01
       -2   -1    0    0    0  501  0.00000000000E+00  0.00000000000E+00  0.52262411950E+03  0.52262411951E+03  0.25500000920E-02 0. -1.
        2   -1    0    0  501    0  0.00000000000E+00  0.00000000000E+00 -0.30526999031E+03  0.30526999032E+03  0.25500000920E-02 0.  1.
    10030    2    1    2    0    0  0.00000000000E+00  0.00000000000E+00  0.21735412919E+03  0.82789410983E+03  0.79885282726E+03 0.  0.
        1    1    3    3  502    0 -0.11903683962E+03  0.16384394172E+03  0.46547012093E+03  0.50761899090E+03  0.50400001928E-02 0. -1.
       -1    1    3    3    0  502  0.11903683962E+03 -0.16384394172E+03 -0.24811599174E+03  0.32027511893E+03  0.50400001928E-02 0.  1.
</event>
<event>
 5   0  0.2736375E-04  0.7999612E+03  0.7818609E-02  0.9560073E-01
       -3   -1    0    0    0  501  0.00000000000E+00  0.00000000000E+00  0.88307124509E+02  0.88307182268E+02  0.10100000352E+00 0.  1.
        3   -1    0    0  501    0  0.00000000000E+00  0.00000000000E+00 -0.18116819484E+04  0.18116819512E+04  0.10100000352E+00 0. -1.
    10030    2    1    2    0    0  0.00000000000E+00  0.00000000000E+00 -0.17233748239E+04  0.18999891335E+04  0.79996120139E+03 0.  0.
        2    1    3    3  502    0  0.25309565566E+03 -0.60105573244E+00 -0.15973047643E+04  0.16172322907E+04  0.25500000920E-02 0. -1.
       -2    1    3    3    0  502 -0.25309565566E+03  0.60105573244E+00 -0.12607005960E+03  0.28275684274E+03  0.25500000920E-02 0.  1.
</event>
<event>
 5   0  0.6970013E-04  0.7993612E+03  0.7818609E-02  0.9560942E-01
       -2   -1    0    0    0  501  0.00000000000E+00  0.00000000000E+00  0.56387875447E+03  0.56387875448E+03  0.25500000920E-02 0. -1.
        2   -1    0    0  501    0  0.00000000000E+00  0.00000000000E+00 -0.28329594276E+03  0.28329594277E+03  0.25500000920E-02 0.  1.
    10030    2    1    2    0    0  0.00000000000E+00  0.00000000000E+00  0.28058281171E+03  0.84717469725E+03  0.79936115332E+03 0.  0.
        3    1    3    3  502    0 -0.20556871734E+03  0.12309746098E+03  0.47932125802E+03  0.53587345618E+03  0.10100000352E+00 0. -1.
       -3    1    3    3    0  502  0.20556871734E+03 -0.12309746098E+03 -0.19873844631E+03  0.31130124107E+03  0.10100000352E+00 0.  1.
</event>
<event>
 5   0  0.6672462E-04  0.7999703E+03  0.7818609E-02  0.9560060E-01
        2   -1    0    0  501    0  0.00000000000E+00  0.00000000000E+00  0.11940901096E+04  0.11940901096E+04  0.25500000920E-02 0.  1.
       -2   -1    0    0    0  501  0.00000000000E+00  0.00000000000E+00 -0.13398327677E+03  0.13398327680E+03  0.25500000920E-02 0. -1.
    10030    2    1    2    0    0  0.00000000000E+00  0.00000000000E+00  0.10601068328E+04  0.13280733864E+04  0.79997026362E+03 0.  0.
        5    1    3    3  502    0 -0.54403716100E+02 -0.39431777432E+03  0.46533416611E+03  0.61237590385E+03  0.46999998093E+01 0.  1.
       -5    1    3    3    0  502  0.54403716100E+02  0.39431777432E+03  0.59477266673E+03  0.71569748257E+03  0.46999998093E+01 0. -1.
</event>
<event>
 5   0  0.6801147E-04  0.8003120E+03  0.7818609E-02  0.9559566E-01
        2   -1    0    0  501    0  0.00000000000E+00  0.00000000000E+00  0.13016534505E+04  0.13016534505E+04  0.25500000920E-02 0. -1.
       -2   -1    0    0    0  501  0.00000000000E+00  0.00000000000E+00 -0.12301647508E+03  0.12301647510E+03  0.25500000920E-02 0.  1.
    10030    2    1    2    0    0  0.00000000000E+00  0.00000000000E+00  0.11786369754E+04  0.14246699256E+04  0.80031198733E+03 0.  0.
        4    1    3    3  502    0 -0.31459721810E+03 -0.23357635253E+03  0.44476599173E+03  0.59274591723E+03  0.12699999809E+01 0.  1.
       -4    1    3    3    0  502  0.31459721810E+03  0.23357635253E+03  0.73387098366E+03  0.83192400834E+03  0.12699999809E+01 0. -1.
</event>
<event>
 5   0  0.6593118E-04  0.7998619E+03  0.7818609E-02  0.9560217E-01
        2   -1    0    0  501    0  0.00000000000E+00  0.00000000000E+00  0.91827894912E+03  0.91827894912E+03  0.25500000920E-02 0.  1.
       -2   -1    0    0    0  501  0.00000000000E+00  0.00000000000E+00 -0.17417883554E+03  0.17417883556E+03  0.25500000920E-02 0. -1.
    10030    2    1    2    0    0  0.00000000000E+00  0.00000000000E+00  0.74410011358E+03  0.10924577847E+04  0.79986188325E+03 0.  0.
        1    1    3    3  502    0 -0.29749788872E+03 -0.25224094845E+03  0.25131488118E+03  0.46399316740E+03  0.50400001928E-02 0. -1.
       -1    1    3    3    0  502  0.29749788872E+03  0.25224094845E+03  0.49278523240E+03  0.62846461727E+03  0.50400001928E-02 0.  1.
</event>
<event>
 5   0  0.4104786E-04  0.8037872E+03  0.7818609E-02  0.9554551E-01
       -1   -1    0    0    0  501  0.00000000000E+00  0.00000000000E+00  0.92600946212E+03  0.92600946214E+03  0.50400001928E-02 0.  1.
        1   -1    0    0  501    0  0.00000000000E+00  0.00000000000E+00 -0.17442422424E+03  0.17442422431E+03  0.50400001928E-02 0. -1.
    10030    2    1    2    0    0  0.00000000000E+00  0.00000000000E+00  0.75158523788E+03  0.11004336864E+04  0.80378724080E+03 0.  0.
        2    1    3    3  502    0  0.26723698124E+03  0.11387709395E+03 -0.44389643678E+01  0.29052246226E+03  0.25500000920E-02 0. -1.
       -2    1    3    3    0  502 -0.26723698124E+03 -0.11387709395E+03  0.75602420225E+03  0.80991122419E+03  0.25500000920E-02 0.  1.
</event>
<event>
 5   0  0.4086111E-04  0.7997905E+03  0.7818609E-02  0.9560320E-01
       -1   -1    0    0    0  501  0.00000000000E+00  0.00000000000E+00  0.22040989502E+03  0.22040989508E+03  0.50400001928E-02 0. -1.
        1   -1    0    0  501    0  0.00000000000E+00  0.00000000000E+00 -0.72554005453E+03  0.72554005454E+03  0.50400001928E-02 0.  1.
    10030    2    1    2    0    0  0.00000000000E+00  0.00000000000E+00 -0.50513015950E+03  0.94594994963E+03  0.79979049079E+03 0.  0.
        3    1    3    3  502    0 -0.26719527774E+03  0.18490194872E+03  0.23129584473E+02  0.32575609736E+03  0.10100000352E+00 0. -1.
       -3    1    3    3    0  502  0.26719527774E+03 -0.18490194872E+03 -0.52825974397E+03  0.62019385227E+03  0.10100000352E+00 0.  1.
</event>
<event>
 5   0  0.2736375E-04  0.7988313E+03  0.7818609E-02  0.9561710E-01
       -3   -1    0    0    0  501  0.00000000000E+00  0.00000000000E+00  0.83413086763E+03  0.83413087374E+03  0.10100000352E+00 0. -1.
        3   -1    0    0  501    0  0.00000000000E+00  0.00000000000E+00 -0.19125637547E+03  0.19125640214E+03  0.10100000352E+00 0.  1.
    10030    2    1    2    0    0  0.00000000000E+00  0.00000000000E+00  0.64287449215E+03  0.10253872759E+04  0.79883130440E+03 0.  0.
        1    1    3    3  502    0 -0.71728955013E+02 -0.97842058399E+02  0.80990876944E+03  0.81894464173E+03  0.50400001928E-02 0. -1.
       -1    1    3    3    0  502  0.71728955013E+02  0.97842058399E+02 -0.16703427729E+03  0.20644263415E+03  0.50400001928E-02 0.  1.
</event>
<event>
 5   0  0.6970013E-04  0.7994865E+03  0.7818609E-02  0.9560761E-01
        2   -1    0    0  501    0  0.00000000000E+00  0.00000000000E+00  0.44446356530E+03  0.44446356530E+03  0.25500000920E-02 0. -1.
       -2   -1    0    0    0  501  0.00000000000E+00  0.00000000000E+00 -0.35952253606E+03  0.35952253607E+03  0.25500000920E-02 0.  1.
    10030    2    1    2    0    0  0.00000000000E+00  0.00000000000E+00  0.84941029234E+02  0.80398610137E+03  0.79948650567E+03 0.  0.
        3    1    3    3  502    0  0.21735354034E+03 -0.35946847056E+02  0.37790427917E+03  0.43743158520E+03  0.10100000352E+00 0. -1.
       -3    1    3    3    0  502 -0.21735354034E+03  0.35946847056E+02 -0.29296324994E+03  0.36655451617E+03  0.10100000352E+00 0.  1.
</event>
<event>
 5   0  0.6970013E-04  0.8003576E+03  0.7818609E-02  0.9559500E-01
        2   -1    0    0  501    0  0.00000000000E+00  0.00000000000E+00  0.10388655128E+04  0.10388655128E+04  0.25500000920E-02 0.  1.
       -2   -1    0    0    0  501  0.00000000000E+00  0.00000000000E+00 -0.15415187049E+03  0.15415187051E+03  0.25500000920E-02 0. -1.
    10030    2    1    2    0    0  0.00000000000E+00  0.00000000000E+00  0.88471364229E+03  0.11930173833E+04  0.80035757507E+03 0.  0.
        3    1    3    3  502    0 -0.14546973595E+03 -0.31122250372E+03  0.74828397997E+03  0.82337707994E+03  0.10100000352E+00 0.  1.
       -3    1    3    3    0  502  0.14546973595E+03  0.31122250372E+03  0.13642966232E+03  0.36964030335E+03  0.10100000352E+00 0. -1.
</event>
<event>
 5   0  0.4104786E-04  0.7999453E+03  0.7818609E-02  0.9560096E-01
        1   -1    0    0  501    0  0.00000000000E+00  0.00000000000E+00  0.17903443350E+04  0.17903443350E+04  0.50400001928E-02 0.  1.
       -1   -1    0    0    0  501  0.00000000000E+00  0.00000000000E+00 -0.89356056527E+02  0.89356056669E+02  0.50400001928E-02 0. -1.
    10030    2    1    2    0    0  0.00000000000E+00  0.00000000000E+00  0.17009882785E+04  0.18797003917E+04  0.79994527248E+03 0.  0.
        2    1    3    3  502    0  0.19478414910E+03  0.26713061856E+03  0.32151306300E+03  0.46116188243E+03  0.25500000920E-02 0. -1.
       -2    1    3    3    0  502 -0.19478414910E+03 -0.26713061856E+03  0.13794752155E+04  0.14185385092E+04  0.25500000920E-02 0.  1.
</event>
<event>
 5   0  0.4087283E-04  0.8010881E+03  0.7818609E-02  0.9558443E-01
       -1   -1    0    0    0  501  0.00000000000E+00  0.00000000000E+00  0.19016474254E+03  0.19016474261E+03  0.50400001928E-02 0. -1.
        1   -1    0    0  501    0  0.00000000000E+00  0.00000000000E+00 -0.84366608290E+03  0.84366608291E+03  0.50400001928E-02 0.  1.
    10030    2    1    2    0    0  0.00000000000E+00  0.00000000000E+00 -0.65350134036E+03  0.10338308255E+04  0.80108811873E+03 0.  0.
        1    1    3    3  502    0  0.36112964541E+03 -0.17181336761E+03 -0.29786205082E+03  0.49865444491E+03  0.50400001928E-02 0.  1.
       -1    1    3    3    0  502 -0.36112964541E+03  0.17181336761E+03 -0.35563928953E+03  0.53517638062E+03  0.50400001928E-02 0. -1.
</event>
<event>
 5   0  0.6672462E-04  0.7999983E+03  0.7818609E-02  0.9560020E-01
       -2   -1    0    0    0  501  0.00000000000E+00  0.00000000000E+00  0.16757914859E+03  0.16757914861E+03  0.25500000920E-02 0. -1.
        2   -1    0    0  501    0  0.00000000000E+00  0.00000000000E+00 -0.95476860443E+03  0.95476860444E+03  0.25500000920E-02 0.  1.
    10030    2    1    2    0    0  0.00000000000E+00  0.00000000000E+00 -0.78718945584E+03  0.11223477530E+04  0.79999827460E+03 0.  0.
        5    1    3    3  502    0 -0.24562452767E+02  0.55932102931E+01  0.16642634643E+03  0.16838769810E+03  0.46999998093E+01 0. -1.
       -5    1    3    3    0  502  0.24562452767E+02 -0.55932102931E+01 -0.95361580227E+03  0.95396005494E+03  0.46999998093E+01 0.  1.
</event>
<event>
 5   0  0.4169155E-04  0.8002057E+03  0.7818609E-02  0.9559719E-01
        1   -1    0    0  501    0  0.00000000000E+00  0.00000000000E+00  0.36849882071E+03  0.36849882075E+03  0.50400001928E-02 0. -1.
       -1   -1    0    0    0  501  0.00000000000E+00  0.00000000000E+00 -0.43441737903E+03  0.43441737906E+03  0.50400001928E-02 0.  1.
    10030    2    1    2    0    0  0.00000000000E+00  0.00000000000E+00 -0.65918558317E+02  0.80291619981E+03  0.80020570330E+03 0.  0.
        4    1    3    3  502    0  0.14466776120E+03 -0.36627036506E+03 -0.10389483731E+03  0.40728183310E+03  0.12699999809E+01 0. -1.
       -4    1    3    3    0  502 -0.14466776120E+03  0.36627036506E+03  0.37976278990E+02  0.39563436671E+03  0.12699999809E+01 0.  1.
</event>
<event>
 5   0  0.4169155E-04  0.8003324E+03  0.7818609E-02  0.9559536E-01
       -1   -1    0    0    0  501  0.00000000000E+00  0.00000000000E+00  0.16800993838E+03  0.16800993846E+03  0.50400001928E-02 0.  1.
        1   -1    0    0  501    0  0.00000000000E+00  0.00000000000E+00 -0.95311616767E+03  0.95311616768E+03  0.50400001928E-02 0. -1.
    10030    2    1    2    0    0  0.00000000000E+00  0.00000000000E+00 -0.78510622929E+03  0.11211261061E+04  0.80033240258E+03 0.  0.
        4    1    3    3  502    0  0.58327039884E+02  0.13051782466E+03 -0.91612173505E+03  0.92720957311E+03  0.12699999809E+01 0. -1.
       -4    1    3    3    0  502 -0.58327039884E+02 -0.13051782466E+03  0.13101550576E+03  0.19391653304E+03  0.12699999809E+01 0.  1.
</event>
<event>
 5   0  0.6801147E-04  0.8003597E+03  0.7818609E-02  0.9559497E-01
       -2   -1    0    0    0  501  0.00000000000E+00  0.00000000000E+00  0.42824965418E+03  0.42824965419E+03  0.25500000920E-02 0.  1.
        2   -1    0    0  501    0  0.00000000000E+00  0.00000000000E+00 -0.37394984852E+03  0.37394984853E+03  0.25500000920E-02 0. -1.
    10030    2    1    2    0    0  0.00000000000E+00  0.00000000000E+00  0.54299805655E+02  0.80219950272E+03  0.80035965245E+03 0.  0.
        4    1    3    3  502    0  0.28854396037E+03 -0.62082580534E+02  0.29801253240E+03  0.41943407854E+03  0.12699999809E+01 0.  1.
       -4    1    3    3    0  502 -0.28854396037E+03  0.62082580534E+02 -0.24371272674E+03  0.38276542418E+03  0.12699999809E+01 0. -1.
</event>
<event>
 5   0  0.4087283E-04  0.8011368E+03  0.7818609E-02  0.9558373E-01
        1   -1    0    0  501    0  0.00000000000E+00  0.00000000000E+00  0.22020544394E+04  0.22020544394E+04  0.50400001928E-02 0.  1.
       -1   -1    0    0    0  501  0.00000000000E+00  0.00000000000E+00 -0.72866063329E+02  0.72866063503E+02  0.50400001928E-02 0. -1.
    10030    2    1    2    0    0  0.00000000000E+00  0.00000000000E+00  0.21291883761E+04  0.22749205029E+04  0.80113678842E+03 0.  0.
        1    1    3    3  502    0 -0.11169357426E+03  0.36919476741E+03  0.75777365800E+03  0.85029474160E+03  0.50400001928E-02 0. -1.
       -1    1    3    3    0  502  0.11169357426E+03 -0.36919476741E+03  0.13714147181E+04  0.14246257613E+04  0.50400001928E-02 0.  1.
</event>
<event>
 5   0  0.4087283E-04  0.7999684E+03  0.7818609E-02  0.9560063E-01
        1   -1    0    0  501    0  0.00000000000E+00  0.00000000000E+00  0.47190548828E+03  0.47190548831E+03  0.50400001928E-02 0. -1.
       -1   -1    0    0    0  501  0.00000000000E+00  0.00000000000E+00 -0.33902414318E+03  0.33902414321E+03  0.50400001928E-02 0.  1.
    10030    2    1    2    0    0  0.00000000000E+00  0.00000000000E+00  0.13288134511E+03  0.81092963153E+03  0.79996838401E+03 0.  0.
        1    1    3    3  502    0 -0.15794560569E+03  0.18728397259E+02 -0.30558908483E+03  0.34450291147E+03  0.50400001928E-02 0.  1.
       -1    1    3    3    0  502  0.15794560569E+03 -0.18728397259E+02  0.43847042994E+03  0.46642672005E+03  0.50400001928E-02 0. -1.
</event>
<event>
 5   0  0.4087283E-04  0.7986900E+03  0.7818609E-02  0.9561915E-01
        1   -1    0    0  501    0  0.00000000000E+00  0.00000000000E+00  0.67615608658E+03  0.67615608660E+03  0.50400001928E-02 0. -1.
       -1   -1    0    0    0  501  0.00000000000E+00  0.00000000000E+00 -0.23585744476E+03  0.23585744481E+03  0.50400001928E-02 0.  1.
    10030    2    1    2    0    0  0.00000000000E+00  0.00000000000E+00  0.44029864182E+03  0.91201353141E+03  0.79869004469E+03 0.  0.
        1    1    3    3  502    0 -0.12370427670E+03  0.19862738190E+03  0.58967073808E+03  0.63440299833E+03  0.50400001928E-02 0. -1.
       -1    1    3    3    0  502  0.12370427670E+03 -0.19862738190E+03 -0.14937209626E+03  0.27761053308E+03  0.50400001928E-02 0.  1.
</event>
<event>
 5   0  0.4392552E-04  0.8003392E+03  0.7818609E-02  0.9559526E-01
        1   -1    0    0  501    0  0.00000000000E+00  0.00000000000E+00  0.10367282257E+04  0.10367282257E+04  0.50400001928E-02 0.  1.
       -1   -1    0    0    0  501  0.00000000000E+00  0.00000000000E+00 -0.15446259173E+03  0.15446259181E+03  0.50400001928E-02 0. -1.
    10030    2    1    2    0    0  0.00000000000E+00  0.00000000000E+00  0.88226563395E+03  0.11911908175E+04  0.80033924985E+03 0.  0.
        5    1    3    3  502    0 -0.28638808274E+03  0.57882331228E+02  0.34222498976E+02  0.29421381279E+03  0.46999998093E+01 0.  1.
       -5    1    3    3    0  502  0.28638808274E+03 -0.57882331228E+02  0.84804313498E+03  0.89697700471E+03  0.46999998093E+01 0. -1.
</event>
<event>
 5   0  0.4086111E-04  0.7999462E+03  0.7818609E-02  0.9560095E-01
        1   -1    0    0  501    0  0.00000000000E+00  0.00000000000E+00  0.27276957778E+03  0.27276957783E+03  0.50400001928E-02 0. -1.
       -1   -1    0    0    0  501  0.00000000000E+00  0.00000000000E+00 -0.58649682501E+03  0.58649682503E+03  0.50400001928E-02 0.  1.
    10030    2    1    2    0    0  0.00000000000E+00  0.00000000000E+00 -0.31372724723E+03  0.85926640286E+03  0.79994622659E+03 0.  0.
        3    1    3    3  502    0  0.37599411980E+03  0.13585621628E+03 -0.17001891298E+03  0.43443633665E+03  0.10100000352E+00 0.  1.
       -3    1    3    3    0  502 -0.37599411980E+03 -0.13585621628E+03 -0.14370833425E+03  0.42483006622E+03  0.10100000352E+00 0. -1.
</event>
<event>
 5   0  0.4104786E-04  0.7996610E+03  0.7818609E-02  0.9560508E-01
       -1   -1    0    0    0  501  0.00000000000E+00  0.00000000000E+00  0.14727510208E+03  0.14727510217E+03  0.50400001928E-02 0. -1.
        1   -1    0    0  501    0  0.00000000000E+00  0.00000000000E+00 -0.10854817902E+04  0.10854817902E+04  0.50400001928E-02 0.  1.
    10030    2    1    2    0    0  0.00000000000E+00  0.00000000000E+00 -0.93820668807E+03  0.12327568923E+04  0.79966103197E+03 0.  0.
        2    1    3    3  502    0  0.30313297330E+03 -0.25763694677E+03 -0.53072964482E+03  0.66327999497E+03  0.25500000920E-02 0.  1.
       -2    1    3    3    0  502 -0.30313297330E+03  0.25763694677E+03 -0.40747704325E+03  0.56947689736E+03  0.25500000920E-02 0. -1.
</event>
<event>
 5   0  0.4104786E-04  0.7997491E+03  0.7818609E-02  0.9560380E-01
       -1   -1    0    0    0  501  0.00000000000E+00  0.00000000000E+00  0.17478538551E+03  0.17478538558E+03  0.50400001928E-02 0.  1.
        1   -1    0    0  501    0  0.00000000000E+00  0.00000000000E+00 -0.91483427591E+03  0.91483427592E+03  0.50400001928E-02 0. -1.
    10030    2    1    2    0    0  0.00000000000E+00  0.00000000000E+00 -0.74004889040E+03  0.10896196615E+04  0.79974911476E+03 0.  0.
        2    1    3    3  502    0  0.27774014856E+03  0.21597355842E+03 -0.62894584152E+03  0.72066430440E+03  0.25500000920E-02 0. -1.
       -2    1    3    3    0  502 -0.27774014856E+03 -0.21597355842E+03 -0.11110304888E+03  0.36895535711E+03  0.25500000920E-02 0.  1.
</event>
<event>
 5   0  0.4104786E-04  0.7999519E+03  0.7818609E-02  0.9560087E-01
        1   -1    0    0  501    0  0.00000000000E+00  0.00000000000E+00  0.43416926640E+03  0.43416926643E+03  0.50400001928E-02 0.  1.
       -1   -1    0    0    0  501  0.00000000000E+00  0.00000000000E+00 -0.36847556626E+03  0.36847556630E+03  0.50400001928E-02 0. -1.
    10030    2    1    2    0    0  0.00000000000E+00  0.00000000000E+00  0.65693700134E+02  0.80264483273E+03  0.79995191435E+03 0.  0.
        2    1    3    3  502    0 -0.18008261385E+03  0.34479630022E+03  0.12625443656E+03  0.40896750386E+03  0.25500000920E-02 0. -1.
       -2    1    3    3    0  502  0.18008261385E+03 -0.34479630022E+03 -0.60560736426E+02  0.39367732886E+03  0.25500000920E-02 0.  1.
</event>
<event>
 5   0  0.6672462E-04  0.8005401E+03  0.7818609E-02  0.9559236E-01
        2   -1    0    0  501    0  0.00000000000E+00  0.00000000000E+00  0.30240080428E+04  0.30240080428E+04  0.25500000920E-02 0.  1.
       -2   -1    0    0    0  501  0.00000000000E+00  0.00000000000E+00 -0.52981376253E+02  0.52981376315E+02  0.25500000920E-02 0. -1.
    10030    2    1    2    0    0  0.00000000000E+00  0.00000000000E+00  0.29710266665E+04  0.30769894191E+04  0.80054008770E+03 0.  0.
        5    1    3    3  502    0 -0.19160887070E+03  0.20170315981E+03  0.37953321909E+03  0.47060140076E+03  0.46999998093E+01 0. -1.
       -5    1    3    3    0  502  0.19160887070E+03 -0.20170315981E+03  0.25914934475E+04  0.26063880184E+04  0.46999998093E+01 0.  1.
</event>
<event>
 5   0  0.4087283E-04  0.8000926E+03  0.7818609E-02  0.9559883E-01
       -1   -1    0    0    0  501  0.00000000000E+00  0.00000000000E+00  0.28381423207E+03  0.28381423211E+03  0.50400001928E-02 0.  1.
        1   -1    0    0  501    0  0.00000000000E+00  0.00000000000E+00 -0.56387950844E+03  0.56387950846E+03  0.50400001928E-02 0. -1.
    10030    2    1    2    0    0  0.00000000000E+00  0.00000000000E+00 -0.28006527637E+03  0.84769374057E+03  0.80009256888E+03 0.  0.
        1    1    3    3  502    0  0.45414324300E+02  0.37715186724E+03 -0.71471893712E+01  0.37994351443E+03  0.50400001928E-02 0.  1.
       -1    1    3    3    0  502 -0.45414324300E+02 -0.37715186724E+03 -0.27291808700E+03  0.46775022614E+03  0.50400001928E-02 0. -1.
</event>
<event>
 5   0  0.4392552E-04  0.7997963E+03  0.7818609E-02  0.9560312E-01
       -1   -1    0    0    0  501  0.00000000000E+00  0.00000000000E+00  0.13582987566E+04  0.13582987566E+04  0.50400001928E-02 0.  1.
        1   -1    0    0  501    0  0.00000000000E+00  0.00000000000E+00 -0.11773444145E+03  0.11773444156E+03  0.50400001928E-02 0. -1.
    10030    2    1    2    0    0  0.00000000000E+00  0.00000000000E+00  0.12405643152E+04  0.14760331982E+04  0.79979633787E+03 0.  0.
        5    1    3    3  502    0  0.91756653109E+02 -0.21711856943E+03  0.12164043093E+04  0.12390404716E+04  0.46999998093E+01 0.  1.
       -5    1    3    3    0  502 -0.91756653109E+02  0.21711856943E+03  0.24160005896E+02  0.23699272661E+03  0.46999998093E+01 0. -1.
</event>
<event>
 5   0  0.6970013E-04  0.7997830E+03  0.7818609E-02  0.9560331E-01
        2   -1    0    0  501    0  0.00000000000E+00  0.00000000000E+00  0.64122894510E+03  0.64122894511E+03  0.25500000920E-02 0. -1.
       -2   -1    0    0    0  501  0.00000000000E+00  0.00000000000E+00 -0.24938553479E+03  0.24938553480E+03  0.25500000920E-02 0.  1.
    10030    2    1    2    0    0  0.00000000000E+00  0.00000000000E+00  0.39184341031E+03  0.89061447991E+03  0.79978302909E+03 0.  0.
        3    1    3    3  502    0 -0.23770807260E+03 -0.14280387119E+03  0.51676740214E+03  0.58646963393E+03  0.10100000352E+00 0.  1.
       -3    1    3    3    0  502  0.23770807260E+03  0.14280387119E+03 -0.12492399183E+03  0.30414484598E+03  0.10100000352E+00 0. -1.
</event>
<event>
 5   0  0.4169155E-04  0.8003271E+03  0.7818609E-02  0.9559544E-01
        1   -1    0    0  501    0  0.00000000000E+00  0.00000000000E+00  0.10887588012E+04  0.10887588012E+04  0.50400001928E-02 0.  1.
       -1   -1    0    0    0  501  0.00000000000E+00  0.00000000000E+00 -0.14707653998E+03  0.14707654006E+03  0.50400001928E-02 0. -1.
    10030    2    1    2    0    0  0.00000000000E+00  0.00000000000E+00  0.94168226122E+03  0.12358353413E+04  0.80032712664E+03 0.  0.
        4    1    3    3  502    0  0.20116022887E+03 -0.26486438955E+03  0.12724953874E+03  0.35610762495E+03  0.12699999809E+01 0.  1.
       -4    1    3    3    0  502 -0.20116022887E+03  0.26486438955E+03  0.81443272247E+03  0.87972771633E+03  0.12699999809E+01 0. -1.
</event>
<event>
 5   0  0.6801147E-04  0.8000516E+03  0.7818609E-02  0.9559942E-01
       -2   -1    0    0    0  501  0.00000000000E+00  0.00000000000E+00  0.28784778983E+03  0.28784778984E+03  0.25500000920E-02 0. -1.
        2   -1    0    0  501    0  0.00000000000E+00  0.00000000000E+00 -0.55592099442E+03  0.55592099442E+03  0.25500000920E-02 0.  1.
    10030    2    1    2    0    0  0.00000000000E+00  0.00000000000E+00 -0.26807320459E+03  0.84376878426E+03  0.80005157226E+03 0.  0.
        4    1    3    3  502    0 -0.98032799137E+02  0.21290282613E+02  0.27436402174E+03  0.29213170859E+03  0.12699999809E+01 0. -1.
       -4    1    3    3    0  502  0.98032799137E+02 -0.21290282613E+02 -0.54243722633E+03  0.55163707567E+03  0.12699999809E+01 0.  1.
</event>
<event>
 5   0  0.6593118E-04  0.7999286E+03  0.7818609E-02  0.9560121E-01
       -2   -1    0    0    0  501  0.00000000000E+00  0.00000000000E+00  0.35052010970E+03  0.35052010971E+03  0.25500000920E-02 0.  1.
        2   -1    0    0  501    0  0.00000000000E+00  0.00000000000E+00 -0.45638300781E+03  0.45638300781E+03  0.25500000920E-02 0. -1.
    10030    2    1    2    0    0  0.00000000000E+00  0.00000000000E+00 -0.10586289811E+03  0.80690311752E+03  0.79992855173E+03 0.  0.
        1    1    3    3  502    0 -0.24849703189E+03  0.25899246638E+03  0.12508258786E+03  0.38009673283E+03  0.50400001928E-02 0.  1.
       -1    1    3    3    0  502  0.24849703189E+03 -0.25899246638E+03 -0.23094548597E+03  0.42680638469E+03  0.50400001928E-02 0. -1.
</event>
<event>
 5   0  0.4086111E-04  0.8016956E+03  0.7818609E-02  0.9557566E-01
       -1   -1    0    0    0  501  0.00000000000E+00  0.00000000000E+00  0.45252544291E+03  0.45252544294E+03  0.50400001928E-02 0. -1.
        1   -1    0    0  501    0  0.00000000000E+00  0.00000000000E+00 -0.35507163957E+03  0.35507163961E+03  0.50400001928E-02 0.  1.
    10030    2    1    2    0    0  0.00000000000E+00  0.00000000000E+00  0.97453803341E+02  0.80759708255E+03  0.80169558060E+03 0.  0.
        3    1    3    3  502    0 -0.14188450940E+03  0.16380956042E+03  0.38842453060E+03  0.44479030145E+03  0.10100000352E+00 0. -1.
       -3    1    3    3    0  502  0.14188450940E+03 -0.16380956042E+03 -0.29097072726E+03  0.36280678110E+03  0.10100000352E+00 0.  1.
</event>
<event>
 5   0  0.6970013E-04  0.7995291E+03  0.7818609E-02  0.9560699E-01
       -2   -1    0    0    0  501  0.00000000000E+00  0.00000000000E+00  0.12250326277E+03  0.12250326279E+03  0.25500000920E-02 0.  1.
        2   -1    0    0  501    0  0.00000000000E+00  0.00000000000E+00 -0.13045504316E+04  0.13045504316E+04  0.25500000920E-02 0. -1.
    10030    2    1    2    0    0  0.00000000000E+00  0.00000000000E+00 -0.11820471688E+04  0.14270536944E+04  0.79952907222E+03 0.  0.
        3    1    3    3  502    0  0.19418342601E+03 -0.12417836784E+02 -0.12143240260E+04  0.12298147243E+04  0.10100000352E+00 0. -1.
       -3    1    3    3    0  502 -0.19418342601E+03  0.12417836784E+02  0.32276857251E+02  0.19723897009E+03  0.10100000352E+00 0.  1.
</event>
<event>
 5   0  0.4169155E-04  0.7993522E+03  0.7818609E-02  0.9560955E-01
       -1   -1    0    0    0  501  0.00000000000E+00  0.00000000000E+00  0.39080878590E+03  0.39080878593E+03  0.50400001928E-02 0. -1.
        1   -1    0    0  501    0  0.00000000000E+00  0.00000000000E+00 -0.40874461638E+03  0.40874461641E+03  0.50400001928E-02 0.  1.
    10030    2    1    2    0    0  0.00000000000E+00  0.00000000000E+00 -0.17935830488E+02  0.79955340234E+03  0.79935220597E+03 0.  0.
        4    1    3    3  502    0  0.32976316530E+03 -0.20579355984E+03 -0.10196787321E+03  0.40186290514E+03  0.12699999809E+01 0.  1.
       -4    1    3    3    0  502 -0.32976316530E+03  0.20579355984E+03  0.84032042723E+02  0.39769049720E+03  0.12699999809E+01 0. -1.
</event>
<event>
 5   0  0.7133039E-04  0.8057724E+03  0.7818609E-02  0.9551699E-01
       -2   -1    0    0    0  501  0.00000000000E+00  0.00000000000E+00  0.15947227514E+03  0.15947227516E+03  0.25500000920E-02 0.  1.
        2   -1    0    0  501    0  0.00000000000E+00  0.00000000000E+00 -0.10178401311E+04  0.10178401311E+04  0.25500000920E-02 0. -1.
    10030    2    1    2    0    0  0.00000000000E+00  0.00000000000E+00 -0.85836785599E+03  0.11773124063E+04  0.80577237843E+03 0.  0.
        2    1    3    3  502    0 -0.11780515102E+03 -0.18440366423E+03  0.65078802601E+02  0.22829370456E+03  0.25500000920E-02 0.  1.
       -2    1    3    3    0  502  0.11780515102E+03  0.18440366423E+03 -0.92344665859E+03  0.94901870175E+03  0.25500000920E-02 0. -1.
</event>
<event>
 5   0  0.4169155E-04  0.8000171E+03  0.7818609E-02  0.9559992E-01
        1   -1    0    0  501    0  0.00000000000E+00  0.00000000000E+00  0.87980567487E+03  0.87980567488E+03  0.50400001928E-02 0.  1.
       -1   -1    0    0    0  501  0.00000000000E+00  0.00000000000E+00 -0.18186612290E+03  0.18186612297E+03  0.50400001928E-02 0. -1.
    10030    2    1    2    0    0  0.00000000000E+00  0.00000000000E+00  0.69793955196E+03  0.10616717979E+04  0.80001711742E+03 0.  0.
        4    1    3    3  502    0  0.39674494163E+03  0.49631700377E+02  0.33352904506E+03  0.52068521315E+03  0.12699999809E+01 0. -1.
       -4    1    3    3    0  502 -0.39674494163E+03 -0.49631700377E+02  0.36441050691E+03  0.54098658471E+03  0.12699999809E+01 0.  1.
</event>
<event>
 5   0  0.4169155E-04  0.7992525E+03  0.7818609E-02  0.9561100E-01
       -1   -1    0    0    0  501  0.00000000000E+00  0.00000000000E+00  0.70022915583E+03  0.70022915585E+03  0.50400001928E-02 0. -1.
        1   -1    0    0  501    0  0.00000000000E+00  0.00000000000E+00 -0.22806984880E+03  0.22806984885E+03  0.50400001928E-02 0.  1.
    10030    2    1    2    0    0  0.00000000000E+00  0.00000000000E+00  0.47215930703E+03  0.92829900470E+03  0.79925254514E+03 0.  0.
        4    1    3    3  502    0  0.11949062861E+03  0.22036984258E+03  0.59755035407E+03  0.64800379350E+03  0.12699999809E+01 0. -1.
       -4    1    3    3    0  502 -0.11949062861E+03 -0.22036984258E+03 -0.12539104704E+03  0.28029521120E+03  0.12699999809E+01 0.  1.
</event>
<event>
 5   0  0.4104786E-04  0.7998329E+03  0.7818609E-02  0.9560259E-01
       -1   -1    0    0    0  501  0.00000000000E+00  0.00000000000E+00  0.99798794846E+02  0.99798794973E+02  0.50400001928E-02 0. -1.
        1   -1    0    0  501    0  0.00000000000E+00  0.00000000000E+00 -0.16025559294E+04  0.16025559295E+04  0.50400001928E-02 0.  1.
    10030    2    1    2    0    0  0.00000000000E+00  0.00000000000E+00 -0.15027571346E+04  0.17023547244E+04  0.79983285891E+03 0.  0.
        2    1    3    3  502    0  0.32515503957E+03  0.35385777538E+02 -0.26159397990E+03  0.41881901024E+03  0.25500000920E-02 0. -1.
       -2    1    3    3    0  502 -0.32515503957E+03 -0.35385777538E+02 -0.12411631547E+04  0.12835357142E+04  0.25500000920E-02 0.  1.
</event>
<event>
 5   0  0.7133039E-04  0.7999657E+03  0.7818609E-02  0.9560067E-01
        2   -1    0    0  501    0  0.00000000000E+00  0.00000000000E+00  0.42505947556E+03  0.42505947556E+03  0.25500000920E-02 0. -1.
       -2   -1    0    0    0  501  0.00000000000E+00  0.00000000000E+00 -0.37638566785E+03  0.37638566786E+03  0.25500000920E-02 0.  1.
    10030    2    1    2    0    0  0.00000000000E+00  0.00000000000E+00  0.48673807709E+02  0.80144514342E+03  0.79996573574E+03 0.  0.
        2    1    3    3  502    0 -0.93596988856E+02 -0.30951017002E+03 -0.21153288606E+03  0.38639759776E+03  0.25500000920E-02 0. -1.
       -2    1    3    3    0  502  0.93596988856E+02  0.30951017002E+03  0.26020669376E+03  0.41504754565E+03  0.25500000920E-02 0.  1.
</event>
<event>
 5   0  0.6593118E-04  0.8000547E+03  0.7818609E-02  0.9559938E-01
       -2   -1    0    0    0  501  0.00000000000E+00  0.00000000000E+00  0.16683055936E+03  0.16683055938E+03  0.25500000920E-02 0.  1.
        2   -1    0    0  501    0  0.00000000000E+00  0.00000000000E+00 -0.95918801708E+03  0.95918801708E+03  0.25500000920E-02 0. -1.
    10030    2    1    2    0    0  0.00000000000E+00  0.00000000000E+00 -0.79235745771E+03  0.11260185765E+04  0.80005468172E+03 0.  0.
        1    1    3    3  502    0  0.20375444832E+03  0.40740959255E+02  0.84918803942E+02  0.22447027478E+03  0.50400001928E-02 0.  1.
       -1    1    3    3    0  502 -0.20375444832E+03 -0.40740959255E+02 -0.87727626166E+03  0.90154830168E+03  0.50400001928E-02 0. -1.
</event>
<event>
 5   0  0.6672462E-04  0.8000663E+03  0.7818609E-02  0.9559921E-01
       -2   -1    0    0    0  501  0.00000000000E+00  0.00000000000E+00  0.15143412185E+03  0.15143412187E+03  0.25500000920E-02 0. -1.
        2   -1    0    0  501    0  0.00000000000E+00  0.00000000000E+00 -0.10567400952E+04  0.10567400952E+04  0.25500000920E-02 0.  1.
    10030    2    1    2    0    0  0.00000000000E+00  0.00000000000E+00 -0.90530597336E+03  0.12081742171E+04  0.80006626815E+03 0.  0.
        5    1    3    3  502    0  0.67900224436E+02 -0.76190498615E+02  0.13140156382E+03  0.16644486634E+03  0.46999998093E+01 0. -1.
       -5    1    3    3    0  502 -0.67900224436E+02  0.76190498615E+02 -0.10367075372E+04  0.10417293507E+04  0.46999998093E+01 0.  1.
</event>
<event>
 5   0  0.6593118E-04  0.7993519E+03  0.7818609E-02  0.9560956E-01
       -2   -1    0    0    0  501  0.00000000000E+00  0.00000000000E+00  0.12356512013E+03  0.12356512015E+03  0.25500000920E-02 0.  1.
        2   -1    0    0  501    0  0.00000000000E+00  0.00000000000E+00 -0.12927666569E+04  0.12927666569E+04  0.25500000920E-02 0. -1.
    10030    2    1    2    0    0  0.00000000000E+00  0.00000000000E+00 -0.11692015368E+04  0.14163317771E+04  0.79935190567E+03 0.  0.
        1    1    3    3  502    0 -0.38373349748E+03  0.24113625197E+02 -0.77795178350E+03  0.86777983468E+03  0.50400001928E-02 0. -1.
       -1    1    3    3    0  502  0.38373349748E+03 -0.24113625197E+02 -0.39124975328E+03  0.54855194237E+03  0.50400001928E-02 0.  1.
</event>
<event>
 5   0  0.4087283E-04  0.7993622E+03  0.7818609E-02  0.9560941E-01
        1   -1    0    0  501    0  0.00000000000E+00  0.00000000000E+00  0.36996378531E+03  0.36996378534E+03  0.50400001928E-02 0.  1.
       -1   -1    0    0    0  501  0.00000000000E+00  0.00000000000E+00 -0.43178548172E+03  0.43178548175E+03  0.50400001928E-02 0. -1.
    10030    2    1    2    0    0  0.00000000000E+00  0.00000000000E+00 -0.61821696410E+02  0.80174926709E+03  0.79936222398E+03 0.  0.
        1    1    3    3  502    0 -0.22135213494E+03  0.15047301955E+03 -0.32862393455E+03  0.42383084791E+03  0.50400001928E-02 0. -1.
       -1    1    3    3    0  502  0.22135213494E+03 -0.15047301955E+03  0.26680223814E+03  0.37791841918E+03  0.50400001928E-02 0.  1.
</event>
<event>
 5   0  0.6672462E-04  0.7998752E+03  0.7818609E-02  0.9560198E-01
        2   -1    0    0  501    0  0.00000000000E+00  0.00000000000E+00  0.37776114417E+03  0.37776114417E+03  0.25500000920E-02 0. -1.
       -2   -1    0    0    0  501  0.00000000000E+00  0.00000000000E+00 -0.42341596092E+03  0.42341596093E+03  0.25500000920E-02 0.  1.
    10030    2    1    2    0    0  0.00000000000E+00  0.00000000000E+00 -0.45654816759E+02  0.80117710511E+03  0.79987523493E+03 0.  0.
        5    1    3    3  502    0 -0.89842754449E+00  0.37378865825E+02 -0.42163373391E+03  0.42331440130E+03  0.46999998093E+01 0.  1.
       -5    1    3    3    0  502  0.89842754449E+00 -0.37378865825E+02  0.37597891715E+03  0.37786270380E+03  0.46999998093E+01 0. -1.
</event>
<event>
 5   0  0.4392552E-04  0.7999597E+03  0.7818609E-02  0.9560076E-01
       -1   -1    0    0    0  501  0.00000000000E+00  0.00000000000E+00  0.84909915811E+02  0.84909915960E+02  0.50400001928E-02 0. -1.
        1   -1    0    0  501    0  0.00000000000E+00  0.00000000000E+00 -0.18841599334E+04  0.18841599334E+04  0.50400001928E-02 0.  1.
    10030    2    1    2    0    0  0.00000000000E+00  0.00000000000E+00 -0.17992500176E+04  0.19690698494E+04  0.79995965266E+03 0.  0.
        5    1    3    3  502    0 -0.13874451214E+03  0.17241257071E+03 -0.17196487556E+04  0.17338368051E+04  0.46999998093E+01 0.  1.
       -5    1    3    3    0  502  0.13874451214E+03 -0.17241257071E+03 -0.79601261970E+02  0.23523304422E+03  0.46999998093E+01 0. -1.
</event>
<event>
 5   0  0.6801147E-04  0.7999487E+03  0.7818609E-02  0.9560091E-01
        2   -1    0    0  501    0  0.00000000000E+00  0.00000000000E+00  0.17091776994E+04  0.17091776994E+04  0.25500000920E-02 0.  1.
       -2   -1    0    0    0  501  0.00000000000E+00  0.00000000000E+00 -0.93600262018E+02  0.93600262053E+02  0.25500000920E-02 0. -1.
    10030    2    1    2    0    0  0.00000000000E+00  0.00000000000E+00  0.16155774374E+04  0.18027779614E+04  0.79994869968E+03 0.  0.
        4    1    3    3  502    0  0.17059525483E+03  0.93209523060E+02  0.20030754525E+02  0.19543183002E+03  0.12699999809E+01 0. -1.
       -4    1    3    3    0  502 -0.17059525483E+03 -0.93209523060E+02  0.15955466828E+04  0.16073461314E+04  0.12699999809E+01 0.  1.
</event>
<event>
 5   0  0.6801147E-04  0.8002128E+03  0.7818609E-02  0.9559709E-01
       -2   -1    0    0    0  501  0.00000000000E+00  0.00000000000E+00  0.13405085305E+03  0.13405085307E+03  0.25500000920E-02 0. -1.
        2   -1    0    0  501    0  0.00000000000E+00  0.00000000000E+00 -0.11942119903E+04  0.11942119903E+04  0.25500000920E-02 0.  1.
    10030    2    1    2    0    0  0.00000000000E+00  0.00000000000E+00 -0.10601611372E+04  0.13282628433E+04  0.80021281178E+03 0.  0.
        4    1    3    3  502    0 -0.11535342556E+03  0.10761939294E+03  0.80241568031E+02  0.17699906402E+03  0.12699999809E+01 0. -1.
       -4    1    3    3    0  502  0.11535342556E+03 -0.10761939294E+03 -0.11404027053E+04  0.11512637793E+04  0.12699999809E+01 0.  1.
</event>
<event>
 5   0  0.2736375E-04  0.7992190E+03  0.7818609E-02  0.9561148E-01
       -4   -1    0    0    0  501  0.00000000000E+00  0.00000000000E+00  0.51531883511E+03  0.51532040006E+03  0.12699999809E+01 0.  1.
        4   -1    0    0  501    0  0.00000000000E+00  0.00000000000E+00 -0.30987810215E+03  0.30988070462E+03  0.12699999809E+01 0. -1.
    10030    2    1    2    0    0  0.00000000000E+00  0.00000000000E+00  0.20544073296E+03  0.82520110468E+03  0.79921897400E+03 0.  0.
        3    1    3    3  502    0  0.29232041597E+03 -0.56150980797E+02  0.37800289051E+03  0.48113444449E+03  0.10100000352E+00 0.  1.
       -3    1    3    3    0  502 -0.29232041597E+03  0.56150980797E+02 -0.17256215755E+03  0.34406666019E+03  0.10100000352E+00 0. -1.
</event>
<event>
 5   0  0.2736375E-04  0.7998554E+03  0.7818609E-02  0.9560226E-01
       -3   -1    0    0    0  501  0.00000000000E+00  0.00000000000E+00  0.79980357941E+03  0.79980358579E+03  0.10100000352E+00 0.  1.
        3   -1    0    0  501    0  0.00000000000E+00  0.00000000000E+00 -0.19997677970E+03  0.19997680521E+03  0.10100000352E+00 0. -1.
    10030    2    1    2    0    0  0.00000000000E+00  0.00000000000E+00  0.59982679971E+03  0.99978039099E+03  0.79985538728E+03 0.  0.
        5    1    3    3  502    0  0.19095254488E+03 -0.15659985541E+03 -0.93242886680E+02  0.26401271754E+03  0.46999998093E+01 0. -1.
       -5    1    3    3    0  502 -0.19095254488E+03  0.15659985541E+03  0.69306968639E+03  0.73576767345E+03  0.46999998093E+01 0.  1.
</event>
<event>
 5   0  0.4087283E-04  0.8006227E+03  0.7818609E-02  0.9559116E-01
        1   -1    0    0  501    0  0.00000000000E+00  0.00000000000E+00  0.59464833150E+03  0.59464833152E+03  0.50400001928E-02 0.  1.
       -1   -1    0    0    0  501  0.00000000000E+00  0.00000000000E+00 -0.26948559719E+03  0.26948559724E+03  0.50400001928E-02 0. -1.
    10030    2    1    2    0    0  0.00000000000E+00  0.00000000000E+00  0.32516273431E+03  0.86413392876E+03  0.80062265960E+03 0.  0.
        1    1    3    3  502    0  0.32362970430E+03 -0.93046373285E+01  0.41668537295E+03  0.52768310741E+03  0.50400001928E-02 0.  1.
       -1    1    3    3    0  502 -0.32362970430E+03  0.93046373285E+01 -0.91522638646E+02  0.33645082136E+03  0.50400001928E-02 0. -1.
</event>
<event>
 5   0  0.4392552E-04  0.8011397E+03  0.7818609E-02  0.9558369E-01
        1   -1    0    0  501    0  0.00000000000E+00  0.00000000000E+00  0.15623474365E+04  0.15623474365E+04  0.50400001928E-02 0. -1.
       -1   -1    0    0    0  501  0.00000000000E+00  0.00000000000E+00 -0.10270199577E+03  0.10270199590E+03  0.50400001928E-02 0.  1.
    10030    2    1    2    0    0  0.00000000000E+00  0.00000000000E+00  0.14596454407E+04  0.16650494324E+04  0.80113968803E+03 0.  0.
        5    1    3    3  502    0  0.31919185676E+03 -0.22182344078E+03  0.93073626966E+03  0.10086531485E+04  0.46999998093E+01 0.  1.
       -5    1    3    3    0  502 -0.31919185676E+03  0.22182344078E+03  0.52890917107E+03  0.65639628392E+03  0.46999998093E+01 0. -1.
</event>
<event>
 5   0  0.6801147E-04  0.7995850E+03  0.7818609E-02  0.9560618E-01
        2   -1    0    0  501    0  0.00000000000E+00  0.00000000000E+00  0.14968824795E+03  0.14968824797E+03  0.25500000920E-02 0. -1.
       -2   -1    0    0    0  501  0.00000000000E+00  0.00000000000E+00 -0.10677794045E+04  0.10677794045E+04  0.25500000920E-02 0.  1.
    10030    2    1    2    0    0  0.00000000000E+00  0.00000000000E+00 -0.91809115652E+03  0.12174676525E+04  0.79958496302E+03 0.  0.
        4    1    3    3  502    0 -0.10041026942E+03 -0.15441008002E+03 -0.99932570522E+03  0.10161585374E+04  0.12699999809E+01 0.  1.
       -4    1    3    3    0  502  0.10041026942E+03  0.15441008002E+03  0.81234548704E+02  0.20130911510E+03  0.12699999809E+01 0. -1.
</event>
<event>
 5   0  0.6672462E-04  0.7993709E+03  0.7818609E-02  0.9560928E-01
        2   -1    0    0  501    0  0.00000000000E+00  0.00000000000E+00  0.53471465589E+03  0.53471465590E+03  0.25500000920E-02 0. -1.
       -2   -1    0    0    0  501  0.00000000000E+00  0.00000000000E+00 -0.29875459582E+03  0.29875459583E+03  0.25500000920E-02 0.  1.
    10030    2    1    2    0    0  0.00000000000E+00  0.00000000000E+00  0.23596006007E+03  0.83346925172E+03  0.79937090491E+03 0.  0.
        5    1    3    3  502    0  0.12231745270E+03  0.34078596641E+03 -0.58440825177E+02  0.36678884141E+03  0.46999998093E+01 0.  1.
       -5    1    3    3    0  502 -0.12231745270E+03 -0.34078596641E+03  0.29440088525E+03  0.46668041031E+03  0.46999998093E+01 0. -1.
</event>
<event>
 5   0  0.6593118E-04  0.7999164E+03  0.7818609E-02  0.9560138E-01
       -2   -1    0    0    0  501  0.00000000000E+00  0.00000000000E+00  0.10214100958E+03  0.10214100961E+03  0.25500000920E-02 0. -1.
        2   -1    0    0  501    0  0.00000000000E+00  0.00000000000E+00 -0.15661346749E+04  0.15661346749E+04  0.25500000920E-02 0.  1.
    10030    2    1    2    0    0  0.00000000000E+00  0.00000000000E+00 -0.14639936653E+04  0.16682756845E+04  0.79991643779E+03 0.  0.
        1    1    3    3  502    0  0.31952848275E+02 -0.32197210567E+03 -0.24164763430E+03  0.40383239163E+03  0.50400001928E-02 0. -1.
       -1    1    3    3    0  502 -0.31952848275E+02  0.32197210567E+03 -0.12223460310E+04  0.12644432929E+04  0.50400001928E-02 0.  1.
</event>
<event>
 5   0  0.6593118E-04  0.7998925E+03  0.7818609E-02  0.9560173E-01
       -2   -1    0    0    0  501  0.00000000000E+00  0.00000000000E+00  0.25366868103E+03  0.25366868104E+03  0.25500000920E-02 0.  1.
        2   -1    0    0  501    0  0.00000000000E+00  0.00000000000E+00 -0.63057443012E+03  0.63057443013E+03  0.25500000920E-02 0. -1.
    10030    2    1    2    0    0  0.00000000000E+00  0.00000000000E+00 -0.37690574909E+03  0.88424311117E+03  0.79989245274E+03 0.  0.
        1    1    3    3  502    0  0.12226333268E+03 -0.40146043175E+02  0.23015756338E+03  0.26369021845E+03  0.50400001928E-02 0.  1.
       -1    1    3    3    0  502 -0.12226333268E+03  0.40146043175E+02 -0.60706331247E+03  0.62055289273E+03  0.50400001928E-02 0. -1.
</event>
<event>
 5   0  0.4392552E-04  0.8024225E+03  0.7818609E-02  0.9556517E-01
       -1   -1    0    0    0  501  0.00000000000E+00  0.00000000000E+00  0.21138352675E+03  0.21138352682E+03  0.50400001928E-02 0.  1.
        1   -1    0    0  501    0  0.00000000000E+00  0.00000000000E+00 -0.76150897737E+03  0.76150897738E+03  0.50400001928E-02 0. -1.
    10030    2    1    2    0    0  0.00000000000E+00  0.00000000000E+00 -0.55012545061E+03  0.97289250420E+03  0.80242246561E+03 0.  0.
        5    1    3    3  502    0  0.37025341078E+03  0.32508647782E+02 -0.45815370205E+03  0.58997568176E+03  0.46999998093E+01 0. -1.
       -5    1    3    3    0  502 -0.37025341078E+03 -0.32508647782E+02 -0.91971748563E+02  0.38291682244E+03  0.46999998093E+01 0.  1.
</event>
<event>
 5   0  0.4392552E-04  0.8000848E+03  0.7818609E-02  0.9559894E-01
        1   -1    0    0  501    0  0.00000000000E+00  0.00000000000E+00  0.11829830364E+04  0.11829830364E+04  0.50400001928E-02 0.  1.
       -1   -1    0    0    0  501  0.00000000000E+00  0.00000000000E+00 -0.13527997547E+03  0.13527997557E+03  0.50400001928E-02 0. -1.
    10030    2    1    2    0    0  0.00000000000E+00  0.00000000000E+00  0.10477030610E+04  0.13182630120E+04  0.80008478606E+03 0.  0.
        5    1    3    3  502    0  0.18829668881E+03 -0.29330943362E+03  0.20045030718E+03  0.40210506403E+03  0.46999998093E+01 0. -1.
       -5    1    3    3    0  502 -0.18829668881E+03  0.29330943362E+03  0.84725275378E+03  0.91615794798E+03  0.46999998093E+01 0.  1.
</event>
<event>
 5   0  0.6801147E-04  0.8002657E+03  0.7818609E-02  0.9559633E-01
        2   -1    0    0  501    0  0.00000000000E+00  0.00000000000E+00  0.41242317888E+03  0.41242317888E+03  0.25500000920E-02 0.  1.
       -2   -1    0    0    0  501  0.00000000000E+00  0.00000000000E+00 -0.38820875315E+03  0.38820875316E+03  0.25500000920E-02 0. -1.
    10030    2    1    2    0    0  0.00000000000E+00  0.00000000000E+00  0.24214425724E+02  0.80063193205E+03  0.80026567601E+03 0.  0.
        4    1    3    3  502    0  0.29242061628E+03  0.41239288366E+02 -0.25800557351E+03  0.39214663660E+03  0.12699999809E+01 0. -1.
       -4    1    3    3    0  502 -0.29242061628E+03 -0.41239288366E+02  0.28221999924E+03  0.40848529545E+03  0.12699999809E+01 0.  1.
</event>
<event>
 5   0  0.4169155E-04  0.8001913E+03  0.7818609E-02  0.9559740E-01
       -1   -1    0    0    0  501  0.00000000000E+00  0.00000000000E+00  0.26888069114E+03  0.26888069119E+03  0.50400001928E-02 0.  1.
        1   -1    0    0  501    0  0.00000000000E+00  0.00000000000E+00 -0.59534409648E+03  0.59534409650E+03  0.50400001928E-02 0. -1.
    10030    2    1    2    0    0  0.00000000000E+00  0.00000000000E+00 -0.32646340534E+03  0.86422478769E+03  0.80019130752E+03 0.  0.
        4    1    3    3  502    0  0.11109791077E+03  0.32917722937E+03 -0.37754077377E+03  0.51306826336E+03  0.12699999809E+01 0. -1.
       -4    1    3    3    0  502 -0.11109791077E+03 -0.32917722937E+03  0.51077368428E+02  0.35115652433E+03  0.12699999809E+01 0.  1.
</event>
<event>
 5   0  0.6801147E-04  0.7990734E+03  0.7818609E-02  0.9561359E-01
        2   -1    0    0  501    0  0.00000000000E+00  0.00000000000E+00  0.91583567819E+03  0.91583567819E+03  0.25500000920E-02 0.  1.
       -2   -1    0    0    0  501  0.00000000000E+00  0.00000000000E+00 -0.17429934617E+03  0.17429934619E+03  0.25500000920E-02 0. -1.
    10030    2    1    2    0    0  0.00000000000E+00  0.00000000000E+00  0.74153633201E+03  0.10901350244E+04  0.79907336314E+03 0.  0.
        4    1    3    3  502    0 -0.24940659461E+03 -0.22950917438E+03  0.82172791895E+02  0.34875792634E+03  0.12699999809E+01 0. -1.
       -4    1    3    3    0  502  0.24940659461E+03  0.22950917438E+03  0.65936354012E+03  0.74137709804E+03  0.12699999809E+01 0.  1.
</event>
<event>
 5   0  0.4086111E-04  0.8053081E+03  0.7818609E-02  0.9552366E-01
       -1   -1    0    0    0  501  0.00000000000E+00  0.00000000000E+00  0.15061176077E+03  0.15061176086E+03  0.50400001928E-02 0.  1.
        1   -1    0    0  501    0  0.00000000000E+00  0.00000000000E+00 -0.10764781525E+04  0.10764781525E+04  0.50400001928E-02 0. -1.
    10030    2    1    2    0    0  0.00000000000E+00  0.00000000000E+00 -0.92586639173E+03  0.12270899134E+04  0.80530806538E+03 0.  0.
        3    1    3    3  502    0  0.25075997654E+03 -0.10459884036E+03 -0.91574346934E+03  0.95520029055E+03  0.10100000352E+00 0. -1.
       -3    1    3    3    0  502 -0.25075997654E+03  0.10459884036E+03 -0.10122922396E+02  0.27188962282E+03  0.10100000352E+00 0.  1.
</event>
<event>
 5   0  0.4169155E-04  0.7983805E+03  0.7818609E-02  0.9562364E-01
       -1   -1    0    0    0  501  0.00000000000E+00  0.00000000000E+00  0.19436496377E+03  0.19436496383E+03  0.50400001928E-02 0.  1.
        1   -1    0    0  501    0  0.00000000000E+00  0.00000000000E+00 -0.81986412096E+03  0.81986412098E+03  0.50400001928E-02 0. -1.
    10030    2    1    2    0    0  0.00000000000E+00  0.00000000000E+00 -0.62549915719E+03  0.10142290848E+04  0.79838051130E+03 0.  0.
        4    1    3    3  502    0  0.12600195266E+03  0.74706602103E+02  0.15898565268E+03  0.21618422498E+03  0.12699999809E+01 0.  1.
       -4    1    3    3    0  502 -0.12600195266E+03 -0.74706602103E+02 -0.78448480988E+03  0.79804485983E+03  0.12699999809E+01 0. -1.
</event>
<event>
 5   0  0.4104786E-04  0.8001751E+03  0.7818609E-02  0.9559764E-01
       -1   -1    0    0    0  501  0.00000000000E+00  0.00000000000E+00  0.98574731068E+03  0.98574731069E+03  0.50400001928E-02 0.  1.
        1   -1    0    0  501    0  0.00000000000E+00  0.00000000000E+00 -0.16238445438E+03  0.16238445446E+03  0.50400001928E-02 0. -1.
    10030    2    1    2    0    0  0.00000000000E+00  0.00000000000E+00  0.82336285630E+03  0.11481317652E+04  0.80017507898E+03 0.  0.
        2    1    3    3  502    0 -0.36895818212E+03 -0.94661497632E+02  0.58729156071E+03  0.70000165470E+03  0.25500000920E-02 0.  1.
       -2    1    3    3    0  502  0.36895818212E+03  0.94661497632E+02  0.23607129559E+03  0.44813011045E+03  0.25500000920E-02 0. -1.
</event>
<event>
 5   0  0.6593118E-04  0.7990688E+03  0.7818609E-02  0.9561366E-01
        2   -1    0    0  501    0  0.00000000000E+00  0.00000000000E+00  0.12062290689E+04  0.12062290690E+04  0.25500000920E-02 0. -1.
       -2   -1    0    0    0  501  0.00000000000E+00  0.00000000000E+00 -0.13233616054E+03  0.13233616056E+03  0.25500000920E-02 0.  1.
    10030    2    1    2    0    0  0.00000000000E+00  0.00000000000E+00  0.10738929084E+04  0.13385652295E+04  0.79906876734E+03 0.  0.
        1    1    3    3  502    0 -0.22227674943E+03  0.74028029588E+02  0.10790883327E+04  0.11042276633E+04  0.50400001928E-02 0. -1.
       -1    1    3    3    0  502  0.22227674943E+03 -0.74028029588E+02 -0.51954242921E+01  0.23433756626E+03  0.50400001928E-02 0.  1.
</event>
<event>
 5   0  0.4087283E-04  0.7999298E+03  0.7818609E-02  0.9560119E-01
       -1   -1    0    0    0  501  0.00000000000E+00  0.00000000000E+00  0.42295472391E+03  0.42295472394E+03  0.50400001928E-02 0.  1.
        1   -1    0    0  501    0  0.00000000000E+00  0.00000000000E+00 -0.37822468670E+03  0.37822468674E+03  0.50400001928E-02 0. -1.
    10030    2    1    2    0    0  0.00000000000E+00  0.00000000000E+00  0.44730037204E+02  0.80117941067E+03  0.79992979183E+03 0.  0.
        1    1    3    3  502    0 -0.34709281076E+03  0.58850393419E+02  0.21249077465E+03  0.41120447155E+03  0.50400001928E-02 0.  1.
       -1    1    3    3    0  502  0.34709281076E+03 -0.58850393419E+02 -0.16776073744E+03  0.38997493912E+03  0.50400001928E-02 0. -1.
</event>
<event>
 5   0  0.6593118E-04  0.7997212E+03  0.7818609E-02  0.9560421E-01
        2   -1    0    0  501    0  0.00000000000E+00  0.00000000000E+00  0.89077148176E+03  0.89077148176E+03  0.25500000920E-02 0.  1.
       -2   -1    0    0    0  501  0.00000000000E+00  0.00000000000E+00 -0.17949438803E+03  0.17949438805E+03  0.25500000920E-02 0. -1.
    10030    2    1    2    0    0  0.00000000000E+00  0.00000000000E+00  0.71127709373E+03  0.10702658698E+04  0.79972115641E+03 0.  0.
        1    1    3    3  502    0 -0.27270231079E+03 -0.53731065146E+02  0.74034976916E+03  0.79080424784E+03  0.50400001928E-02 0.  1.
       -1    1    3    3    0  502  0.27270231079E+03  0.53731065146E+02 -0.29072675428E+02  0.27946162197E+03  0.50400001928E-02 0. -1.
</event>
<event>
 5   0  0.7133039E-04  0.7988895E+03  0.7818609E-02  0.9561626E-01
        2   -1    0    0  501    0  0.00000000000E+00  0.00000000000E+00  0.35685930931E+03  0.35685930932E+03  0.25500000920E-02 0.  1.
       -2   -1    0    0    0  501  0.00000000000E+00  0.00000000000E+00 -0.44711209206E+03  0.44711209206E+03  0.25500000920E-02 0. -1.
    10030    2    1    2    0    0  0.00000000000E+00  0.00000000000E+00 -0.90252782742E+02  0.80397140139E+03  0.79888951017E+03 0.  0.
        2    1    3    3  502    0 -0.26091623350E+02 -0.27293420691E+03 -0.33746047526E+03  0.43480274433E+03  0.25500000920E-02 0. -1.
       -2    1    3    3    0  502  0.26091623350E+02  0.27293420691E+03  0.24720769251E+03  0.36916865706E+03  0.25500000920E-02 0.  1.
</event>
<event>
 5   0  0.6801147E-04  0.7995714E+03  0.7818609E-02  0.9560638E-01
       -2   -1    0    0    0  501  0.00000000000E+00  0.00000000000E+00  0.66864685155E+03  0.66864685155E+03  0.25500000920E-02 0.  1.
        2   -1    0    0  501    0  0.00000000000E+00  0.00000000000E+00 -0.23903293626E+03  0.23903293627E+03  0.25500000920E-02 0. -1.
    10030    2    1    2    0    0  0.00000000000E+00  0.00000000000E+00  0.42961391529E+03  0.90767978782E+03  0.79957143584E+03 0.  0.
        4    1    3    3  502    0  0.24514069257E+03 -0.20835403862E+03 -0.54602632241E+02  0.32632564243E+03  0.12699999809E+01 0. -1.
       -4    1    3    3    0  502 -0.24514069257E+03  0.20835403862E+03  0.48421654753E+03  0.58135414539E+03  0.12699999809E+01 0.  1.
</event>
<event>
 5   0  0.4104786E-04  0.7998155E+03  0.7818609E-02  0.9560284E-01
        1   -1    0    0  501    0  0.00000000000E+00  0.00000000000E+00  0.77049135591E+03  0.77049135593E+03  0.50400001928E-02 0.  1.
       -1   -1    0    0    0  501  0.00000000000E+00  0.00000000000E+00 -0.20756390005E+03  0.20756390011E+03  0.50400001928E-02 0. -1.
    10030    2    1    2    0    0  0.00000000000E+00  0.00000000000E+00  0.56292745586E+03  0.97805525604E+03  0.79981545579E+03 0.  0.
        2    1    3    3  502    0  0.28630646070E+03 -0.18402003589E+02 -0.59218671014E+02  0.29294517265E+03  0.25500000920E-02 0. -1.
       -2    1    3    3    0  502 -0.28630646070E+03  0.18402003589E+02  0.62214612687E+03  0.68511008339E+03  0.25500000920E-02 0.  1.
</event>
<event>
 5   0  0.4087283E-04  0.7971150E+03  0.7818609E-02  0.9564202E-01
        1   -1    0    0  501    0  0.00000000000E+00  0.00000000000E+00  0.37465532096E+03  0.37465532100E+03  0.50400001928E-02 0.  1.
       -1   -1    0    0    0  501  0.00000000000E+00  0.00000000000E+00 -0.42398460779E+03  0.42398460782E+03  0.50400001928E-02 0. -1.
    10030    2    1    2    0    0  0.00000000000E+00  0.00000000000E+00 -0.49329286829E+02  0.79863992882E+03  0.79711502141E+03 0.  0.
        1    1    3    3  502    0  0.31494959423E+03  0.18399496257E+03  0.13626859042E+03  0.38937966295E+03  0.50400001928E-02 0.  1.
       -1    1    3    3    0  502 -0.31494959423E+03 -0.18399496257E+03 -0.18559787725E+03  0.40926026587E+03  0.50400001928E-02 0. -1.
</event>
<event>
 5   0  0.6801147E-04  0.7999337E+03  0.7818609E-02  0.9560113E-01
        2   -1    0    0  501    0  0.00000000000E+00  0.00000000000E+00  0.59760086915E+03  0.59760086915E+03  0.25500000920E-02 0. -1.
       -2   -1    0    0    0  501  0.00000000000E+00  0.00000000000E+00 -0.26769286114E+03  0.26769286116E+03  0.25500000920E-02 0.  1.
    10030    2    1    2    0    0  0.00000000000E+00  0.00000000000E+00  0.32990800800E+03  0.86529373031E+03  0.79993371348E+03 0.  0.
        4    1    3    3  502    0  0.36251773860E+03  0.37224431607E+02 -0.13337739853E+02  0.36467009380E+03  0.12699999809E+01 0.  1.
       -4    1    3    3    0  502 -0.36251773860E+03 -0.37224431607E+02  0.34324574786E+03  0.50062363651E+03  0.12699999809E+01 0. -1.
</event>
<event>
 5   0  0.6970013E-04  0.7996965E+03  0.7818609E-02  0.9560457E-01
       -2   -1    0    0    0  501  0.00000000000E+00  0.00000000000E+00  0.19782099997E+03  0.19782099999E+03  0.25500000920E-02 0. -1.
        2   -1    0    0  501    0  0.00000000000E+00  0.00000000000E+00 -0.80819843159E+03  0.80819843160E+03  0.25500000920E-02 0.  1.
    10030    2    1    2    0    0  0.00000000000E+00  0.00000000000E+00 -0.61037743162E+03  0.10060194316E+04  0.79969649724E+03 0.  0.
        3    1    3    3  502    0  0.81747868390E+02  0.26343202664E+03  0.58979299069E+02  0.28205977127E+03  0.10100000352E+00 0. -1.
       -3    1    3    3    0  502 -0.81747868390E+02 -0.26343202664E+03 -0.66935673069E+03  0.72395966032E+03  0.10100000352E+00 0.  1.
</event>
<event>
 5   0  0.2736375E-04  0.8001047E+03  0.7818609E-02  0.9559866E-01
        4   -1    0    0  501    0  0.00000000000E+00  0.00000000000E+00  0.54931145178E+03  0.54931291989E+03  0.12699999809E+01 0.  1.
       -4   -1    0    0    0  501  0.00000000000E+00  0.00000000000E+00 -0.29134671394E+03  0.29134948193E+03  0.12699999809E+01 0. -1.
    10030    2    1    2    0    0  0.00000000000E+00  0.00000000000E+00  0.25796473784E+03  0.84066240182E+03  0.80010466057E+03 0.  0.
        1    1    3    3  502    0 -0.33365052287E+03  0.32710736961E+02  0.35833442907E+03  0.49070992124E+03  0.50400001928E-02 0.  1.
       -1    1    3    3    0  502  0.33365052287E+03 -0.32710736961E+02 -0.10036969122E+03  0.34995248058E+03  0.50400001928E-02 0. -1.
</event>
<event>
 5   0  0.2736375E-04  0.8002033E+03  0.7818609E-02  0.9559723E-01
        3   -1    0    0  501    0  0.00000000000E+00  0.00000000000E+00  0.12098889101E+04  0.12098889143E+04  0.10100000352E+00 0.  1.
       -3   -1    0    0    0  501  0.00000000000E+00  0.00000000000E+00 -0.13231073282E+03  0.13231077137E+03  0.10100000352E+00 0. -1.
    10030    2    1    2    0    0  0.00000000000E+00  0.00000000000E+00  0.10775781773E+04  0.13421996857E+04  0.80020326676E+03 0.  0.
        4    1    3    3  502    0 -0.20852411679E+03 -0.17105919679E+03  0.10344832797E+04  0.10690653979E+04  0.12699999809E+01 0.  1.
       -4    1    3    3    0  502  0.20852411679E+03  0.17105919679E+03  0.43094897599E+02  0.27313428782E+03  0.12699999809E+01 0. -1.
</event>
<event>
 5   0  0.4086111E-04  0.7999189E+03  0.7818609E-02  0.9560135E-01
        1   -1    0    0  501    0  0.00000000000E+00  0.00000000000E+00  0.37339308099E+03  0.37339308102E+03  0.50400001928E-02 0.  1.
       -1   -1    0    0    0  501  0.00000000000E+00  0.00000000000E+00 -0.42841593852E+03  0.42841593855E+03  0.50400001928E-02 0. -1.
    10030    2    1    2    0    0  0.00000000000E+00  0.00000000000E+00 -0.55022857532E+02  0.80180901957E+03  0.79991886402E+03 0.  0.
        3    1    3    3  502    0 -0.29788287210E+03  0.25540167340E+03 -0.10517558517E+03  0.40623408791E+03  0.10100000352E+00 0. -1.
       -3    1    3    3    0  502  0.29788287210E+03 -0.25540167340E+03  0.50152727643E+02  0.39557493166E+03  0.10100000352E+00 0.  1.
</event>
<event>
 5   0  0.7133039E-04  0.8011337E+03  0.7818609E-02  0.9558378E-01
        2   -1    0    0  501    0  0.00000000000E+00  0.00000000000E+00  0.25733456475E+03  0.25733456476E+03  0.25500000920E-02 0.  1.
       -2   -1    0    0    0  501  0.00000000000E+00  0.00000000000E+00 -0.62352220655E+03  0.62352220655E+03  0.25500000920E-02 0. -1.
    10030    2    1    2    0    0  0.00000000000E+00  0.00000000000E+00 -0.36618764180E+03  0.88085677131E+03  0.80113373575E+03 0.  0.
        2    1    3    3  502    0 -0.35244241148E+03  0.85582198009E+02  0.38681319930E+01  0.36270501579E+03  0.25500000920E-02 0.  1.
       -2    1    3    3    0  502  0.35244241148E+03 -0.85582198009E+02 -0.37005577379E+03  0.51815175552E+03  0.25500000920E-02 0. -1.
</event>
<event>
 5   0  0.6801147E-04  0.7997152E+03  0.7818609E-02  0.9560429E-01
       -2   -1    0    0    0  501  0.00000000000E+00  0.00000000000E+00  0.28783285659E+03  0.28783285660E+03  0.25500000920E-02 0.  1.
        2   -1    0    0  501    0  0.00000000000E+00  0.00000000000E+00 -0.55548245547E+03  0.55548245548E+03  0.25500000920E-02 0. -1.
    10030    2    1    2    0    0  0.00000000000E+00  0.00000000000E+00 -0.26764959888E+03  0.84331531208E+03  0.79971520418E+03 0.  0.
        4    1    3    3  502    0 -0.25445987071E+03 -0.11002113819E+03 -0.43768385550E+03  0.51809578933E+03  0.12699999809E+01 0. -1.
       -4    1    3    3    0  502  0.25445987071E+03  0.11002113819E+03  0.17003425662E+03  0.32521952275E+03  0.12699999809E+01 0.  1.
</event>
<event>
 5   0  0.4087283E-04  0.7998864E+03  0.7818609E-02  0.9560182E-01
       -1   -1    0    0    0  501  0.00000000000E+00  0.00000000000E+00  0.15020136030E+03  0.15020136039E+03  0.50400001928E-02 0.  1.
        1   -1    0    0  501    0  0.00000000000E+00  0.00000000000E+00 -0.10649341704E+04  0.10649341704E+04  0.50400001928E-02 0. -1.
    10030    2    1    2    0    0  0.00000000000E+00  0.00000000000E+00 -0.91473281009E+03  0.12151355308E+04  0.79988639465E+03 0.  0.
        1    1    3    3  502    0  0.27659901794E+03  0.22732489544E+03 -0.72814318325E+03  0.81140379600E+03  0.50400001928E-02 0. -1.
       -1    1    3    3    0  502 -0.27659901794E+03 -0.22732489544E+03 -0.18658962684E+03  0.40373173480E+03  0.50400001928E-02 0.  1.
</event>
<event>
 5   0  0.4087283E-04  0.8002641E+03  0.7818609E-02  0.9559635E-01
       -1   -1    0    0    0  501  0.00000000000E+00  0.00000000000E+00  0.10344813907E+03  0.10344813919E+03  0.50400001928E-02 0.  1.
        1   -1    0    0  501    0  0.00000000000E+00  0.00000000000E+00 -0.15476902176E+04  0.15476902177E+04  0.50400001928E-02 0. -1.
    10030    2    1    2    0    0  0.00000000000E+00  0.00000000000E+00 -0.14442420786E+04  0.16511383568E+04  0.80026413884E+03 0.  0.
        1    1    3    3  502    0 -0.10763832907E+03  0.27942388802E+03 -0.17451805362E+03  0.34658371305E+03  0.50400001928E-02 0.  1.
       -1    1    3    3    0  502  0.10763832907E+03 -0.27942388802E+03 -0.12697240250E+04  0.13045546438E+04  0.50400001928E-02 0. -1.
</event>
<event>
 5   0  0.6970013E-04  0.7998815E+03  0.7818609E-02  0.9560189E-01
       -2   -1    0    0    0  501  0.00000000000E+00  0.00000000000E+00  0.23719713534E+03  0.23719713535E+03  0.25500000920E-02 0.  1.
        2   -1    0    0  501    0  0.00000000000E+00  0.00000000000E+00 -0.67434464652E+03  0.67434464653E+03  0.25500000920E-02 0. -1.
    10030    2    1    2    0    0  0.00000000000E+00  0.00000000000E+00 -0.43714751119E+03  0.91154178188E+03  0.79988153721E+03 0.  0.
        3    1    3    3  502    0  0.13293543802E+03 -0.11661360150E+03 -0.62737281250E+03  0.65181839403E+03  0.10100000352E+00 0. -1.
       -3    1    3    3    0  502 -0.13293543802E+03  0.11661360150E+03  0.19022530131E+03  0.25972338785E+03  0.10100000352E+00 0.  1.
</event>
<event>
 5   0  0.4169155E-04  0.7991918E+03  0.7818609E-02  0.9561188E-01
        1   -1    0    0  501    0  0.00000000000E+00  0.00000000000E+00  0.77053313223E+03  0.77053313225E+03  0.50400001928E-02 0. -1.
       -1   -1    0    0    0  501  0.00000000000E+00  0.00000000000E+00 -0.20722908177E+03  0.20722908183E+03  0.50400001928E-02 0.  1.
    10030    2    1    2    0    0  0.00000000000E+00  0.00000000000E+00  0.56330405046E+03  0.97776221408E+03  0.79919177550E+03 0.  0.
        4    1    3    3  502    0  0.52811863290E+02 -0.86426461159E+02  0.75456553304E+03  0.76133394949E+03  0.12699999809E+01 0. -1.
       -4    1    3    3    0  502 -0.52811863290E+02  0.86426461159E+02 -0.19126148259E+03  0.21642826459E+03  0.12699999809E+01 0.  1.
</event>
<event>
 5   0  0.4087283E-04  0.7996302E+03  0.7818609E-02  0.9560553E-01
       -1   -1    0    0    0  501  0.00000000000E+00  0.00000000000E+00  0.98314157161E+03  0.98314157163E+03  0.50400001928E-02 0.  1.
        1   -1    0    0  501    0  0.00000000000E+00  0.00000000000E+00 -0.16259317036E+03  0.16259317044E+03  0.50400001928E-02 0. -1.
    10030    2    1    2    0    0  0.00000000000E+00  0.00000000000E+00  0.82054840125E+03  0.11457347421E+04  0.79963017726E+03 0.  0.
        1    1    3    3  502    0  0.18876750044E+03  0.21693171990E+03  0.12268042829E+02  0.28782467792E+03  0.50400001928E-02 0. -1.
       -1    1    3    3    0  502 -0.18876750044E+03 -0.21693171990E+03  0.80828035842E+03  0.85791006414E+03  0.50400001928E-02 0.  1.
</event>
<event>
 5   0  0.2736375E-04  0.7999887E+03  0.7818609E-02  0.9560033E-01
        3   -1    0    0  501    0  0.00000000000E+00  0.00000000000E+00  0.55007757000E+03  0.55007757927E+03  0.10100000352E+00 0.  1.
       -3   -1    0    0    0  501  0.00000000000E+00  0.00000000000E+00 -0.29085984665E+03  0.29085986418E+03  0.10100000352E+00 0. -1.
    10030    2    1    2    0    0  0.00000000000E+00  0.00000000000E+00  0.25921772336E+03  0.84093744346E+03  0.79998872224E+03 0.  0.
        4    1    3    3  502    0 -0.23841910867E+03  0.31946355537E+03  0.16436550833E+03  0.43118240666E+03  0.12699999809E+01 0.  1.
       -4    1    3    3    0  502  0.23841910867E+03 -0.31946355537E+03  0.94852215022E+02  0.40975503679E+03  0.12699999809E+01 0. -1.
</event>
<event>
 5   0  0.4087283E-04  0.8001547E+03  0.7818609E-02  0.9559793E-01
        1   -1    0    0  501    0  0.00000000000E+00  0.00000000000E+00  0.12687787285E+04  0.12687787285E+04  0.50400001928E-02 0.  1.
       -1   -1    0    0    0  501  0.00000000000E+00  0.00000000000E+00 -0.12615428728E+03  0.12615428738E+03  0.50400001928E-02 0. -1.
    10030    2    1    2    0    0  0.00000000000E+00  0.00000000000E+00  0.11426244412E+04  0.13949330159E+04  0.80015467578E+03 0.  0.
        1    1    3    3  502    0  0.19347782795E+03  0.33527884871E+03  0.74752046492E+03  0.84180307780E+03  0.50400001928E-02 0.  1.
       -1    1    3    3    0  502 -0.19347782795E+03 -0.33527884871E+03  0.39510397632E+03  0.55312993811E+03  0.50400001928E-02 0. -1.
</event>
<event>
 5   0  0.4086111E-04  0.7998022E+03  0.7818609E-02  0.9560304E-01
       -1   -1    0    0    0  501  0.00000000000E+00  0.00000000000E+00  0.26316353563E+03  0.26316353568E+03  0.50400001928E-02 0. -1.
        1   -1    0    0  501    0  0.00000000000E+00  0.00000000000E+00 -0.60768630753E+03  0.60768630755E+03  0.50400001928E-02 0.  1.
    10030    2    1    2    0    0  0.00000000000E+00  0.00000000000E+00 -0.34452277191E+03  0.87084984323E+03  0.79980216872E+03 0.  0.
        3    1    3    3  502    0  0.33789693923E+03 -0.13492201015E+03 -0.35296339638E+03  0.50691366104E+03  0.10100000352E+00 0.  1.
       -3    1    3    3    0  502 -0.33789693923E+03  0.13492201015E+03  0.84406244743E+01  0.36393618219E+03  0.10100000352E+00 0. -1.
</event>
<event>
 5   0  0.6672462E-04  0.7982420E+03  0.7818609E-02  0.9562565E-01
       -2   -1    0    0    0  501  0.00000000000E+00  0.00000000000E+00  0.26787459368E+03  0.26787459370E+03  0.25500000920E-02 0. -1.
        2   -1    0    0  501    0  0.00000000000E+00  0.00000000000E+00 -0.59467220323E+03  0.59467220324E+03  0.25500000920E-02 0.  1.
    10030    2    1    2    0    0  0.00000000000E+00  0.00000000000E+00 -0.32679760955E+03  0.86254679693E+03  0.79824200547E+03 0.  0.
        5    1    3    3  502    0 -0.19635727288E+03  0.77874410053E+02  0.20248599345E+03  0.29264871415E+03  0.46999998093E+01 0. -1.
       -5    1    3    3    0  502  0.19635727288E+03 -0.77874410053E+02 -0.52928360300E+03  0.56989808278E+03  0.46999998093E+01 0.  1.
</event>
<event>
 5   0  0.4169155E-04  0.7999806E+03  0.7818609E-02  0.9560045E-01
       -1   -1    0    0    0  501  0.00000000000E+00  0.00000000000E+00  0.32486678435E+03  0.32486678439E+03  0.50400001928E-02 0.  1.
        1   -1    0    0  501    0  0.00000000000E+00  0.00000000000E+00 -0.49248565618E+03  0.49248565620E+03  0.50400001928E-02 0. -1.
    10030    2    1    2    0    0  0.00000000000E+00  0.00000000000E+00 -0.16761887182E+03  0.81735244060E+03  0.79998057849E+03 0.  0.
        4    1    3    3  502    0 -0.98887496455E+01 -0.30249578583E+03 -0.35100144291E+03  0.46347072576E+03  0.12699999809E+01 0. -1.
       -4    1    3    3    0  502  0.98887496455E+01  0.30249578583E+03  0.18338257109E+03  0.35388171483E+03  0.12699999809E+01 0.  1.
</event>
<event>
 5   0  0.4087283E-04  0.7999282E+03  0.7818609E-02  0.9560121E-01
       -1   -1    0    0    0  501  0.00000000000E+00  0.00000000000E+00  0.21638275500E+03  0.21638275506E+03  0.50400001928E-02 0.  1.
        1   -1    0    0  501    0  0.00000000000E+00  0.00000000000E+00 -0.73929774497E+03  0.73929774499E+03  0.50400001928E-02 0. -1.
    10030    2    1    2    0    0  0.00000000000E+00  0.00000000000E+00 -0.52291498997E+03  0.95568050005E+03  0.79992820392E+03 0.  0.
        1    1    3    3  502    0 -0.25725133448E+03 -0.17644426951E+03  0.37602610428E+02  0.31420500580E+03  0.50400001928E-02 0.  1.
       -1    1    3    3    0  502  0.25725133448E+03  0.17644426951E+03 -0.56051760040E+03  0.64147549425E+03  0.50400001928E-02 0. -1.
</event>
<event>
 5   0  0.4087283E-04  0.8024688E+03  0.7818609E-02  0.9556450E-01
       -1   -1    0    0    0  501  0.00000000000E+00  0.00000000000E+00  0.28046129647E+03  0.28046129652E+03  0.50400001928E-02 0. -1.
        1   -1    0    0  501    0  0.00000000000E+00  0.00000000000E+00 -0.57401518509E+03  0.57401518512E+03  0.50400001928E-02 0.  1.
    10030    2    1    2    0    0  0.00000000000E+00  0.00000000000E+00 -0.29355388862E+03  0.85447648164E+03  0.80246879824E+03 0.  0.
        1    1    3    3  502    0  0.82797361311E+02 -0.12074055992E+03  0.25100513631E+03  0.29058090841E+03  0.50400001928E-02 0. -1.
       -1    1    3    3    0  502 -0.82797361311E+02  0.12074055992E+03 -0.54455902493E+03  0.56389557323E+03  0.50400001928E-02 0.  1.
</event>
<event>
 5   0  0.6672462E-04  0.8001603E+03  0.7818609E-02  0.9559785E-01
        2   -1    0    0  501    0  0.00000000000E+00  0.00000000000E+00  0.74523680423E+03  0.74523680423E+03  0.25500000920E-02 0. -1.
       -2   -1    0    0    0  501  0.00000000000E+00  0.00000000000E+00 -0.21478289170E+03  0.21478289171E+03  0.25500000920E-02 0.  1.
    10030    2    1    2    0    0  0.00000000000E+00  0.00000000000E+00  0.53045391253E+03  0.96001969595E+03  0.80016027350E+03 0.  0.
        5    1    3    3  502    0 -0.99767870341E+02  0.29851852630E+03  0.56149129113E+03  0.64370917231E+03  0.46999998093E+01 0. -1.
       -5    1    3    3    0  502  0.99767870341E+02 -0.29851852630E+03 -0.31037378602E+02  0.31631052364E+03  0.46999998093E+01 0.  1.
</event>
<event>
 5   0  0.6801147E-04  0.7995079E+03  0.7818609E-02  0.9560730E-01
       -2   -1    0    0    0  501  0.00000000000E+00  0.00000000000E+00  0.18694965177E+03  0.18694965178E+03  0.25500000920E-02 0.  1.
        2   -1    0    0  501    0  0.00000000000E+00  0.00000000000E+00 -0.85479290111E+03  0.85479290111E+03  0.25500000920E-02 0. -1.
    10030    2    1    2    0    0  0.00000000000E+00  0.00000000000E+00 -0.66784324934E+03  0.10417425529E+04  0.79950793669E+03 0.  0.
        4    1    3    3  502    0 -0.15917585070E+03 -0.88173649370E+00 -0.81171537660E+03  0.82717664039E+03  0.12699999809E+01 0. -1.
       -4    1    3    3    0  502  0.15917585070E+03  0.88173649370E+00  0.14387212726E+03  0.21456591250E+03  0.12699999809E+01 0.  1.
</event>
<event>
 5   0  0.4392552E-04  0.7997521E+03  0.7818609E-02  0.9560376E-01
       -1   -1    0    0    0  501  0.00000000000E+00  0.00000000000E+00  0.18622987752E+03  0.18622987759E+03  0.50400001928E-02 0. -1.
        1   -1    0    0  501    0  0.00000000000E+00  0.00000000000E+00 -0.85862085455E+03  0.85862085457E+03  0.50400001928E-02 0.  1.
    10030    2    1    2    0    0  0.00000000000E+00  0.00000000000E+00 -0.67239097703E+03  0.10448507322E+04  0.79975210315E+03 0.  0.
        5    1    3    3  502    0  0.11929259149E+03 -0.12966397499E+03  0.13274344716E+03  0.22064990722E+03  0.46999998093E+01 0. -1.
       -5    1    3    3    0  502 -0.11929259149E+03  0.12966397499E+03 -0.80513442420E+03  0.82420082493E+03  0.46999998093E+01 0.  1.
</event>
<event>
 5   0  0.6801147E-04  0.7998340E+03  0.7818609E-02  0.9560257E-01
       -2   -1    0    0    0  501  0.00000000000E+00  0.00000000000E+00  0.55562607344E+03  0.55562607345E+03  0.25500000920E-02 0. -1.
        2   -1    0    0  501    0  0.00000000000E+00  0.00000000000E+00 -0.28784397349E+03  0.28784397351E+03  0.25500000920E-02 0.  1.
    10030    2    1    2    0    0  0.00000000000E+00  0.00000000000E+00  0.26778209995E+03  0.84347004695E+03  0.79983402469E+03 0.  0.
        4    1    3    3  502    0 -0.27348838021E+03  0.11617735980E+03  0.41614780056E+03  0.51134496952E+03  0.12699999809E+01 0. -1.
       -4    1    3    3    0  502  0.27348838021E+03 -0.11617735980E+03 -0.14836570061E+03  0.33212507743E+03  0.12699999809E+01 0.  1.
</event>
<event>
 5   0  0.4086111E-04  0.8002738E+03  0.7818609E-02  0.9559621E-01
       -1   -1    0    0    0  501  0.00000000000E+00  0.00000000000E+00  0.28671880435E+03  0.28671880439E+03  0.50400001928E-02 0. -1.
        1   -1    0    0  501    0  0.00000000000E+00  0.00000000000E+00 -0.55842002916E+03  0.55842002918E+03  0.50400001928E-02 0.  1.
    10030    2    1    2    0    0  0.00000000000E+00  0.00000000000E+00 -0.27170122482E+03  0.84513883358E+03  0.80027376094E+03 0.  0.
        3    1    3    3  502    0 -0.30053331769E+03  0.23878807599E+03 -0.16513286769E+02  0.38420400716E+03  0.10100000352E+00 0.  1.
       -3    1    3    3    0  502  0.30053331769E+03 -0.23878807599E+03 -0.25518793805E+03  0.46093482642E+03  0.10100000352E+00 0. -1.
</event>
<event>
 5   0  0.7133039E-04  0.7999969E+03  0.7818609E-02  0.9560022E-01
       -2   -1    0    0    0  501  0.00000000000E+00  0.00000000000E+00  0.10300037899E+03  0.10300037902E+03  0.25500000920E-02 0. -1.
        2   -1    0    0  501    0  0.00000000000E+00  0.00000000000E+00 -0.15533804731E+04  0.15533804731E+04  0.25500000920E-02 0.  1.
    10030    2    1    2    0    0  0.00000000000E+00  0.00000000000E+00 -0.14503800941E+04  0.16563808522E+04  0.79999694368E+03 0.  0.
        2    1    3    3  502    0  0.70009397879E+01  0.62562522613E+02 -0.15430592472E+04  0.15443428773E+04  0.25500000920E-02 0.  1.
       -2    1    3    3    0  502 -0.70009397879E+01 -0.62562522613E+02  0.92679153033E+02  0.11203797484E+03  0.25500000920E-02 0. -1.
</event>
<event>
 5   0  0.6593118E-04  0.7999995E+03  0.7818609E-02  0.9560018E-01
        2   -1    0    0  501    0  0.00000000000E+00  0.00000000000E+00  0.41666717446E+03  0.41666717447E+03  0.25500000920E-02 0. -1.
       -2   -1    0    0    0  501  0.00000000000E+00  0.00000000000E+00 -0.38399909667E+03  0.38399909668E+03  0.25500000920E-02 0.  1.
    10030    2    1    2    0    0  0.00000000000E+00  0.00000000000E+00  0.32668077797E+02  0.80066627115E+03  0.79999954653E+03 0.  0.
        1    1    3    3  502    0 -0.91782926225E+02 -0.31213775197E+02 -0.37206336351E+03  0.38448608791E+03  0.50400001928E-02 0.  1.
       -1    1    3    3    0  502  0.91782926225E+02  0.31213775197E+02  0.40473144131E+03  0.41618018323E+03  0.50400001928E-02 0. -1.
</event>
<event>
 5   0  0.2736375E-04  0.7999298E+03  0.7818609E-02  0.9560119E-01
       -3   -1    0    0    0  501  0.00000000000E+00  0.00000000000E+00  0.50833184844E+03  0.50833185848E+03  0.10100000352E+00 0.  1.
        3   -1    0    0  501    0  0.00000000000E+00  0.00000000000E+00 -0.31469979234E+03  0.31469980855E+03  0.10100000352E+00 0. -1.
    10030    2    1    2    0    0  0.00000000000E+00  0.00000000000E+00  0.19363205610E+03  0.82303166702E+03  0.79992984178E+03 0.  0.
        5    1    3    3  502    0 -0.23076689165E+03 -0.21607712017E+03  0.34885413652E+03  0.47081204180E+03  0.46999998093E+01 0.  1.
       -5    1    3    3    0  502  0.23076689165E+03  0.21607712017E+03 -0.15522208041E+03  0.35221962522E+03  0.46999998093E+01 0. -1.
</event>
<event>
 5   0  0.4169155E-04  0.7998426E+03  0.7818609E-02  0.9560245E-01
        1   -1    0    0  501    0  0.00000000000E+00  0.00000000000E+00  0.60862024234E+03  0.60862024236E+03  0.50400001928E-02 0. -1.
       -1   -1    0    0    0  501  0.00000000000E+00  0.00000000000E+00 -0.26278629870E+03  0.26278629875E+03  0.50400001928E-02 0.  1.
    10030    2    1    2    0    0  0.00000000000E+00  0.00000000000E+00  0.34583394364E+03  0.87140654111E+03  0.79984263659E+03 0.  0.
        4    1    3    3  502    0  0.38786862969E+03 -0.53697319793E+02  0.84340970546E+02  0.40055023189E+03  0.12699999809E+01 0. -1.
       -4    1    3    3    0  502 -0.38786862969E+03  0.53697319793E+02  0.26149297310E+03  0.47085630922E+03  0.12699999809E+01 0.  1.
</event>
<event>
 5   0  0.6593118E-04  0.8002524E+03  0.7818609E-02  0.9559652E-01
       -2   -1    0    0    0  501  0.00000000000E+00  0.00000000000E+00  0.88118605992E+02  0.88118606029E+02  0.25500000920E-02 0.  1.
        2   -1    0    0  501    0  0.00000000000E+00  0.00000000000E+00 -0.18168806705E+04  0.18168806705E+04  0.25500000920E-02 0. -1.
    10030    2    1    2    0    0  0.00000000000E+00  0.00000000000E+00 -0.17287620645E+04  0.19049992766E+04  0.80025244012E+03 0.  0.
        1    1    3    3  502    0 -0.33626810229E+03 -0.79410793303E+02 -0.13447386253E+04  0.13884179058E+04  0.50400001928E-02 0. -1.
       -1    1    3    3    0  502  0.33626810229E+03  0.79410793303E+02 -0.38402343921E+03  0.51658137075E+03  0.50400001928E-02 0.  1.
</event>
<event>
 5   0  0.2736375E-04  0.8000574E+03  0.7818609E-02  0.9559934E-01
       -4   -1    0    0    0  501  0.00000000000E+00  0.00000000000E+00  0.64896607452E+03  0.64896731719E+03  0.12699999809E+01 0.  1.
        4   -1    0    0  501    0  0.00000000000E+00  0.00000000000E+00 -0.24657827896E+03  0.24658154950E+03  0.12699999809E+01 0. -1.
    10030    2    1    2    0    0  0.00000000000E+00  0.00000000000E+00  0.40238779556E+03  0.89554886669E+03  0.80005739458E+03 0.  0.
        4    1    3    3  502    0 -0.20784617603E+03  0.15040743678E+03  0.54474480303E+03  0.60213864123E+03  0.12699999809E+01 0.  1.
       -4    1    3    3    0  502  0.20784617603E+03 -0.15040743678E+03 -0.14235700747E+03  0.29341022547E+03  0.12699999809E+01 0. -1.
</event>
<event>
 5   0  0.6801147E-04  0.7997723E+03  0.7818609E-02  0.9560347E-01
       -2   -1    0    0    0  501  0.00000000000E+00  0.00000000000E+00  0.59857603589E+02  0.59857603644E+02  0.25500000920E-02 0.  1.
        2   -1    0    0  501    0  0.00000000000E+00  0.00000000000E+00 -0.26714888247E+04  0.26714888247E+04  0.25500000920E-02 0. -1.
    10030    2    1    2    0    0  0.00000000000E+00  0.00000000000E+00 -0.26116312211E+04  0.27313464283E+04  0.79977226543E+03 0.  0.
        4    1    3    3  502    0  0.21435637219E+03  0.28894174664E+03 -0.19019663325E+04  0.19356945860E+04  0.12699999809E+01 0. -1.
       -4    1    3    3    0  502 -0.21435637219E+03 -0.28894174664E+03 -0.70966488854E+03  0.79565184232E+03  0.12699999809E+01 0.  1.
</event>
<event>
 5   0  0.6970013E-04  0.7996705E+03  0.7818609E-02  0.9560494E-01
        2   -1    0    0  501    0  0.00000000000E+00  0.00000000000E+00  0.11005210484E+04  0.11005210484E+04  0.25500000920E-02 0.  1.
       -2   -1    0    0    0  501  0.00000000000E+00  0.00000000000E+00 -0.14526595810E+03  0.14526595812E+03  0.25500000920E-02 0. -1.
    10030    2    1    2    0    0  0.00000000000E+00  0.00000000000E+00  0.95525509031E+03  0.12457870065E+04  0.79967054346E+03 0.  0.
        3    1    3    3  502    0  0.14164858759E+03  0.37170136291E+03  0.54075531303E+03  0.67129914668E+03  0.10100000352E+00 0. -1.
       -3    1    3    3    0  502 -0.14164858759E+03 -0.37170136291E+03  0.41449977727E+03  0.57448785985E+03  0.10100000352E+00 0.  1.
</event>
<event>
 5   0  0.4104786E-04  0.7999648E+03  0.7818609E-02  0.9560068E-01
        1   -1    0    0  501    0  0.00000000000E+00  0.00000000000E+00  0.95548180679E+03  0.95548180681E+03  0.50400001928E-02 0.  1.
       -1   -1    0    0    0  501  0.00000000000E+00  0.00000000000E+00 -0.16744004651E+03  0.16744004659E+03  0.50400001928E-02 0. -1.
    10030    2    1    2    0    0  0.00000000000E+00  0.00000000000E+00  0.78804176028E+03  0.11229218534E+04  0.79996479478E+03 0.  0.
        2    1    3    3  502    0  0.19952058604E+03  0.25667677633E+03  0.66938971105E+02  0.33192206558E+03  0.25500000920E-02 0. -1.
       -2    1    3    3    0  502 -0.19952058604E+03 -0.25667677633E+03  0.72110278918E+03  0.79099978782E+03  0.25500000920E-02 0.  1.
</event>
<event>
 5   0  0.4169155E-04  0.8000097E+03  0.7818609E-02  0.9560003E-01
        1   -1    0    0  501    0  0.00000000000E+00  0.00000000000E+00  0.18175786347E+03  0.18175786354E+03  0.50400001928E-02 0. -1.
       -1   -1    0    0    0  501  0.00000000000E+00  0.00000000000E+00 -0.88031348070E+03  0.88031348071E+03  0.50400001928E-02 0.  1.
    10030    2    1    2    0    0  0.00000000000E+00  0.00000000000E+00 -0.69855561723E+03  0.10620713442E+04  0.80000974363E+03 0.  0.
        4    1    3    3  502    0  0.31307296842E+03 -0.12151002618E+02 -0.19141725503E+02  0.31389544274E+03  0.12699999809E+01 0. -1.
       -4    1    3    3    0  502 -0.31307296842E+03  0.12151002618E+02 -0.67941389173E+03  0.74817590151E+03  0.12699999809E+01 0.  1.
</event>
<event>
 5   0  0.4086111E-04  0.8002861E+03  0.7818609E-02  0.9559603E-01
        1   -1    0    0  501    0  0.00000000000E+00  0.00000000000E+00  0.11830585381E+04  0.11830585381E+04  0.50400001928E-02 0. -1.
       -1   -1    0    0    0  501  0.00000000000E+00  0.00000000000E+00 -0.13533940991E+03  0.13533941001E+03  0.50400001928E-02 0.  1.
    10030    2    1    2    0    0  0.00000000000E+00  0.00000000000E+00  0.10477191282E+04  0.13183979481E+04  0.80028606011E+03 0.  0.
        3    1    3    3  502    0  0.38280364530E+01  0.13778453061E+03  0.11427135173E+04  0.11509967088E+04  0.10100000352E+00 0. -1.
       -3    1    3    3    0  502 -0.38280364530E+01 -0.13778453061E+03 -0.94994389184E+02  0.16740123929E+03  0.10100000352E+00 0.  1.
</event>
<event>
 5   0  0.4086111E-04  0.7998766E+03  0.7818609E-02  0.9560196E-01
       -1   -1    0    0    0  501  0.00000000000E+00  0.00000000000E+00  0.28464635157E+03  0.28464635161E+03  0.50400001928E-02 0. -1.
        1   -1    0    0  501    0  0.00000000000E+00  0.00000000000E+00 -0.56192757968E+03  0.56192757970E+03  0.50400001928E-02 0.  1.
    10030    2    1    2    0    0  0.00000000000E+00  0.00000000000E+00 -0.27728122811E+03  0.84657393131E+03  0.79987657905E+03 0.  0.
        3    1    3    3  502    0 -0.14503869501E+03 -0.11752539981E+03  0.23570638316E+03  0.30067582529E+03  0.10100000352E+00 0. -1.
       -3    1    3    3    0  502  0.14503869501E+03  0.11752539981E+03 -0.51298761126E+03  0.54589810602E+03  0.10100000352E+00 0.  1.
</event>
<event>
 5   0  0.6593118E-04  0.8001339E+03  0.7818609E-02  0.9559823E-01
       -2   -1    0    0    0  501  0.00000000000E+00  0.00000000000E+00  0.15775582484E+03  0.15775582486E+03  0.25500000920E-02 0.  1.
        2   -1    0    0  501    0  0.00000000000E+00  0.00000000000E+00 -0.10145651522E+04  0.10145651522E+04  0.25500000920E-02 0. -1.
    10030    2    1    2    0    0  0.00000000000E+00  0.00000000000E+00 -0.85680932732E+03  0.11723209770E+04  0.80013389491E+03 0.  0.
        1    1    3    3  502    0  0.13006936414E+02  0.32460225759E+03 -0.77050449125E+03  0.83618955811E+03  0.50400001928E-02 0. -1.
       -1    1    3    3    0  502 -0.13006936414E+02 -0.32460225759E+03 -0.86304836078E+02  0.33613141892E+03  0.50400001928E-02 0.  1.
</event>
<event>
 5   0  0.6672462E-04  0.8002643E+03  0.7818609E-02  0.9559635E-01
       -2   -1    0    0    0  501  0.00000000000E+00  0.00000000000E+00  0.24361954524E+03  0.24361954525E+03  0.25500000920E-02 0. -1.
        2   -1    0    0  501    0  0.00000000000E+00  0.00000000000E+00 -0.65719576827E+03  0.65719576828E+03  0.25500000920E-02 0.  1.
    10030    2    1    2    0    0  0.00000000000E+00  0.00000000000E+00 -0.41357622303E+03  0.90081531353E+03  0.80026429186E+03 0.  0.
        5    1    3    3  502    0  0.18623614239E+03 -0.20934542197E+03 -0.52828652470E+03  0.59801182983E+03  0.46999998093E+01 0.  1.
       -5    1    3    3    0  502 -0.18623614239E+03  0.20934542197E+03  0.11471030166E+03  0.30280348370E+03  0.46999998093E+01 0. -1.
</event>
<event>
 5   0  0.7133039E-04  0.8001785E+03  0.7818609E-02  0.9559759E-01
        2   -1    0    0  501    0  0.00000000000E+00  0.00000000000E+00  0.94604980322E+03  0.94604980322E+03  0.25500000920E-02 0. -1.
       -2   -1    0    0    0  501  0.00000000000E+00  0.00000000000E+00 -0.16919977715E+03  0.16919977717E+03  0.25500000920E-02 0.  1.
    10030    2    1    2    0    0  0.00000000000E+00  0.00000000000E+00  0.77685002607E+03  0.11152495804E+04  0.80017851981E+03 0.  0.
        2    1    3    3  502    0 -0.27042446925E+03 -0.10224251648E+03  0.29615456699E+01  0.28912228642E+03  0.25500000920E-02 0.  1.
       -2    1    3    3    0  502  0.27042446925E+03  0.10224251648E+03  0.77388848040E+03  0.82612729397E+03  0.25500000920E-02 0. -1.
</event>
<event>
 5   0  0.4087283E-04  0.7998033E+03  0.7818609E-02  0.9560302E-01
       -1   -1    0    0    0  501  0.00000000000E+00  0.00000000000E+00  0.46171969969E+03  0.46171969971E+03  0.50400001928E-02 0. -1.
        1   -1    0    0  501    0  0.00000000000E+00  0.00000000000E+00 -0.34636018089E+03  0.34636018092E+03  0.50400001928E-02 0.  1.
    10030    2    1    2    0    0  0.00000000000E+00  0.00000000000E+00  0.11535951880E+03  0.80807988064E+03  0.79980327263E+03 0.  0.
        1    1    3    3  502    0  0.72418422244E+02 -0.23650215797E+03 -0.25980701583E+03  0.35871630030E+03  0.50400001928E-02 0.  1.
       -1    1    3    3    0  502 -0.72418422244E+02  0.23650215797E+03  0.37516653462E+03  0.44936358034E+03  0.50400001928E-02 0. -1.
</event>
<event>
 5   0  0.7133039E-04  0.7990258E+03  0.7818609E-02  0.9561428E-01
       -2   -1    0    0    0  501  0.00000000000E+00  0.00000000000E+00  0.16759509681E+03  0.16759509683E+03  0.25500000920E-02 0. -1.
        2   -1    0    0  501    0  0.00000000000E+00  0.00000000000E+00 -0.95235811377E+03  0.95235811377E+03  0.25500000920E-02 0.  1.
    10030    2    1    2    0    0  0.00000000000E+00  0.00000000000E+00 -0.78476301696E+03  0.11199532106E+04  0.79902578253E+03 0.  0.
        2    1    3    3  502    0 -0.39281885598E+03  0.66315629219E+02 -0.35018900486E+03  0.53041187338E+03  0.25500000920E-02 0. -1.
       -2    1    3    3    0  502  0.39281885598E+03 -0.66315629219E+02 -0.43457401210E+03  0.58954133722E+03  0.25500000920E-02 0.  1.
</event>
<event>
 5   0  0.4087283E-04  0.8001343E+03  0.7818609E-02  0.9559823E-01
        1   -1    0    0  501    0  0.00000000000E+00  0.00000000000E+00  0.57504716165E+03  0.57504716168E+03  0.50400001928E-02 0.  1.
       -1   -1    0    0    0  501  0.00000000000E+00  0.00000000000E+00 -0.27833148548E+03  0.27833148552E+03  0.50400001928E-02 0. -1.
    10030    2    1    2    0    0  0.00000000000E+00  0.00000000000E+00  0.29671567618E+03  0.85337864720E+03  0.80013431560E+03 0.  0.
        1    1    3    3  502    0  0.16833558553E+03  0.17230169606E+03 -0.19231747414E+03  0.30823814609E+03  0.50400001928E-02 0. -1.
       -1    1    3    3    0  502 -0.16833558553E+03 -0.17230169606E+03  0.48903315032E+03  0.54514050111E+03  0.50400001928E-02 0.  1.
</event>
<event>
 5   0  0.4392552E-04  0.8000160E+03  0.7818609E-02  0.9559994E-01
        1   -1    0    0  501    0  0.00000000000E+00  0.00000000000E+00  0.53332716401E+03  0.53332716404E+03  0.50400001928E-02 0. -1.
       -1   -1    0    0    0  501  0.00000000000E+00  0.00000000000E+00 -0.30001545291E+03  0.30001545295E+03  0.50400001928E-02 0.  1.
    10030    2    1    2    0    0  0.00000000000E+00  0.00000000000E+00  0.23331171110E+03  0.83334261699E+03  0.80001597656E+03 0.  0.
        5    1    3    3  502    0 -0.20417874481E+03 -0.14193235327E+03 -0.20968488620E+03  0.32530538611E+03  0.46999998093E+01 0.  1.
       -5    1    3    3    0  502  0.20417874481E+03  0.14193235327E+03  0.44299659730E+03  0.50803723088E+03  0.46999998093E+01 0. -1.
</event>
<event>
 5   0  0.6801147E-04  0.7998640E+03  0.7818609E-02  0.9560214E-01
        2   -1    0    0  501    0  0.00000000000E+00  0.00000000000E+00  0.18083228290E+04  0.18083228290E+04  0.25500000920E-02 0.  1.
       -2   -1    0    0    0  501  0.00000000000E+00  0.00000000000E+00 -0.88449689548E+02  0.88449689585E+02  0.25500000920E-02 0. -1.
    10030    2    1    2    0    0  0.00000000000E+00  0.00000000000E+00  0.17198731394E+04  0.18967725186E+04  0.79986397059E+03 0.  0.
        4    1    3    3  502    0 -0.16475969998E+03 -0.60006931651E+02  0.75708340533E+01  0.17551501648E+03  0.12699999809E+01 0. -1.
       -4    1    3    3    0  502  0.16475969998E+03  0.60006931651E+02  0.17123023054E+04  0.17212575021E+04  0.12699999809E+01 0.  1.
</event>
<event>
 5   0  0.4087283E-04  0.7997901E+03  0.7818609E-02  0.9560321E-01
        1   -1    0    0  501    0  0.00000000000E+00  0.00000000000E+00  0.11880144843E+04  0.11880144843E+04  0.50400001928E-02 0. -1.
       -1   -1    0    0    0  501  0.00000000000E+00  0.00000000000E+00 -0.13460783638E+03  0.13460783647E+03  0.50400001928E-02 0.  1.
    10030    2    1    2    0    0  0.00000000000E+00  0.00000000000E+00  0.10534066479E+04  0.13226223208E+04  0.79979012095E+03 0.  0.
        1    1    3    3  502    0 -0.17215840326E+03  0.43516210408E+02  0.11192397664E+04  0.11332386470E+04  0.50400001928E-02 0. -1.
       -1    1    3    3    0  502  0.17215840326E+03 -0.43516210408E+02 -0.65833118467E+02  0.18938367378E+03  0.50400001928E-02 0.  1.
</event>
<event>
 5   0  0.4392552E-04  0.7998521E+03  0.7818609E-02  0.9560231E-01
        1   -1    0    0  501    0  0.00000000000E+00  0.00000000000E+00  0.11359422519E+04  0.11359422519E+04  0.50400001928E-02 0.  1.
       -1   -1    0    0    0  501  0.00000000000E+00  0.00000000000E+00 -0.14080015490E+03  0.14080015499E+03  0.50400001928E-02 0. -1.
    10030    2    1    2    0    0  0.00000000000E+00  0.00000000000E+00  0.99514209704E+03  0.12767424069E+04  0.79985209906E+03 0.  0.
        5    1    3    3  502    0 -0.18032849379E+03  0.20926740023E+03  0.95911847045E+03  0.99811900134E+03  0.46999998093E+01 0.  1.
       -5    1    3    3    0  502  0.18032849379E+03 -0.20926740023E+03  0.36023626580E+02  0.27862340559E+03  0.46999998093E+01 0. -1.
</event>
<event>
 5   0  0.4087283E-04  0.7998146E+03  0.7818609E-02  0.9560285E-01
        1   -1    0    0  501    0  0.00000000000E+00  0.00000000000E+00  0.44220858188E+03  0.44220858191E+03  0.50400001928E-02 0. -1.
       -1   -1    0    0    0  501  0.00000000000E+00  0.00000000000E+00 -0.36165256287E+03  0.36165256291E+03  0.50400001928E-02 0.  1.
    10030    2    1    2    0    0  0.00000000000E+00  0.00000000000E+00  0.80556019013E+02  0.80386114482E+03  0.79981464599E+03 0.  0.
        1    1    3    3  502    0 -0.11731513383E+02 -0.34019250521E+03  0.25123825094E+03  0.42307118522E+03  0.50400001928E-02 0. -1.
       -1    1    3    3    0  502  0.11731513383E+02  0.34019250521E+03 -0.17068223193E+03  0.38078995959E+03  0.50400001928E-02 0.  1.
</event>
<event>
 5   0  0.4104786E-04  0.7998397E+03  0.7818609E-02  0.9560249E-01
       -1   -1    0    0    0  501  0.00000000000E+00  0.00000000000E+00  0.21327584049E+03  0.21327584055E+03  0.50400001928E-02 0. -1.
        1   -1    0    0  501    0  0.00000000000E+00  0.00000000000E+00 -0.74990154350E+03  0.74990154352E+03  0.50400001928E-02 0.  1.
    10030    2    1    2    0    0  0.00000000000E+00  0.00000000000E+00 -0.53662570301E+03  0.96317738408E+03  0.79983968898E+03 0.  0.
        2    1    3    3  502    0 -0.39159103721E+02 -0.32334414109E+03  0.11134671731E+02  0.32589699278E+03  0.25500000920E-02 0. -1.
       -2    1    3    3    0  502  0.39159103721E+02  0.32334414109E+03 -0.54776037474E+03  0.63728039129E+03  0.25500000920E-02 0.  1.
</event>
<event>
 5   0  0.4104786E-04  0.8001002E+03  0.7818609E-02  0.9559872E-01
        1   -1    0    0  501    0  0.00000000000E+00  0.00000000000E+00  0.15594585709E+04  0.15594585709E+04  0.50400001928E-02 0. -1.
       -1   -1    0    0    0  501  0.00000000000E+00  0.00000000000E+00 -0.10262541841E+03  0.10262541854E+03  0.50400001928E-02 0.  1.
    10030    2    1    2    0    0  0.00000000000E+00  0.00000000000E+00  0.14568331525E+04  0.16620839894E+04  0.80010021483E+03 0.  0.
        2    1    3    3  502    0  0.19433494106E+03  0.11279743420E+03  0.14159855520E+04  0.14337030424E+04  0.25500000920E-02 0. -1.
       -2    1    3    3    0  502 -0.19433494106E+03 -0.11279743420E+03  0.40847600497E+02  0.22838094700E+03  0.25500000920E-02 0.  1.
</event>
<event>
 5   0  0.2736375E-04  0.7999135E+03  0.7818609E-02  0.9560142E-01
        3   -1    0    0  501    0  0.00000000000E+00  0.00000000000E+00  0.32032353902E+03  0.32032355494E+03  0.10100000352E+00 0.  1.
       -3   -1    0    0    0  501  0.00000000000E+00  0.00000000000E+00 -0.49938692560E+03  0.49938693581E+03  0.10100000352E+00 0. -1.
    10030    2    1    2    0    0  0.00000000000E+00  0.00000000000E+00 -0.17906338658E+03  0.81971049075E+03  0.79991349047E+03 0.  0.
        5    1    3    3  502    0 -0.85246543038E+01  0.11638025440E+03  0.30246159416E+03  0.32422544515E+03  0.46999998093E+01 0.  1.
       -5    1    3    3    0  502  0.85246543038E+01 -0.11638025440E+03 -0.48152498073E+03  0.49548504560E+03  0.46999998093E+01 0. -1.
</event>
<event>
 5   0  0.4392552E-04  0.7999697E+03  0.7818609E-02  0.9560061E-01
        1   -1    0    0  501    0  0.00000000000E+00  0.00000000000E+00  0.10863643875E+04  0.10863643875E+04  0.50400001928E-02 0.  1.
       -1   -1    0    0    0  501  0.00000000000E+00  0.00000000000E+00 -0.14726908067E+03  0.14726908075E+03  0.50400001928E-02 0. -1.
    10030    2    1    2    0    0  0.00000000000E+00  0.00000000000E+00  0.93909530679E+03  0.12336334682E+04  0.79996971110E+03 0.  0.
        5    1    3    3  502    0 -0.90283774183E+02  0.26308723728E+03  0.26345419732E+02  0.27943196926E+03  0.46999998093E+01 0. -1.
       -5    1    3    3    0  502  0.90283774183E+02 -0.26308723728E+03  0.91274988706E+03  0.95420149896E+03  0.46999998093E+01 0.  1.
</event>
<event>
 5   0  0.6593118E-04  0.7999695E+03  0.7818609E-02  0.9560061E-01
       -2   -1    0    0    0  501  0.00000000000E+00  0.00000000000E+00  0.24955507198E+03  0.24955507199E+03  0.25500000920E-02 0.  1.
        2   -1    0    0  501    0  0.00000000000E+00  0.00000000000E+00 -0.64109208681E+03  0.64109208682E+03  0.25500000920E-02 0. -1.
    10030    2    1    2    0    0  0.00000000000E+00  0.00000000000E+00 -0.39153701483E+03  0.89064715881E+03  0.79996945411E+03 0.  0.
        1    1    3    3  502    0  0.12445778737E+03  0.12818389788E+03 -0.59419736010E+03  0.62047671616E+03  0.50400001928E-02 0. -1.
       -1    1    3    3    0  502 -0.12445778737E+03 -0.12818389788E+03  0.20266034527E+03  0.27017044265E+03  0.50400001928E-02 0.  1.
</event>
<event>
 5   0  0.4104786E-04  0.7999308E+03  0.7818609E-02  0.9560117E-01
        1   -1    0    0  501    0  0.00000000000E+00  0.00000000000E+00  0.78875009644E+03  0.78875009645E+03  0.50400001928E-02 0. -1.
       -1   -1    0    0    0  501  0.00000000000E+00  0.00000000000E+00 -0.20281751931E+03  0.20281751937E+03  0.50400001928E-02 0.  1.
    10030    2    1    2    0    0  0.00000000000E+00  0.00000000000E+00  0.58593257713E+03  0.99156761583E+03  0.79993084190E+03 0.  0.
        2    1    3    3  502    0  0.16974873152E+03  0.28751352624E+03  0.56593474031E+03  0.65708507053E+03  0.25500000920E-02 0. -1.
       -2    1    3    3    0  502 -0.16974873152E+03 -0.28751352624E+03  0.19997836815E+02  0.33448254529E+03  0.25500000920E-02 0.  1.
</event>
<event>
 5   0  0.6970013E-04  0.8004172E+03  0.7818609E-02  0.9559413E-01
       -2   -1    0    0    0  501  0.00000000000E+00  0.00000000000E+00  0.95748375045E+02  0.95748375079E+02  0.25500000920E-02 0.  1.
        2   -1    0    0  501    0  0.00000000000E+00  0.00000000000E+00 -0.16727900889E+04  0.16727900889E+04  0.25500000920E-02 0. -1.
    10030    2    1    2    0    0  0.00000000000E+00  0.00000000000E+00 -0.15770417139E+04  0.17685384640E+04  0.80041722330E+03 0.  0.
        3    1    3    3  502    0  0.38318972978E+03 -0.57034218080E+02 -0.10103511460E+04  0.10820798119E+04  0.10100000352E+00 0. -1.
       -3    1    3    3    0  502 -0.38318972978E+03  0.57034218080E+02 -0.56669056791E+03  0.68645865207E+03  0.10100000352E+00 0.  1.
</event>
<event>
 5   0  0.4169155E-04  0.7996888E+03  0.7818609E-02  0.9560468E-01
       -1   -1    0    0    0  501  0.00000000000E+00  0.00000000000E+00  0.33314607974E+03  0.33314607978E+03  0.50400001928E-02 0.  1.
        1   -1    0    0  501    0  0.00000000000E+00  0.00000000000E+00 -0.47989623748E+03  0.47989623751E+03  0.50400001928E-02 0. -1.
    10030    2    1    2    0    0  0.00000000000E+00  0.00000000000E+00 -0.14675015774E+03  0.81304231728E+03  0.79968881504E+03 0.  0.
        4    1    3    3  502    0 -0.15034494609E+03  0.36530023851E+03 -0.13626319698E+03  0.41787215607E+03  0.12699999809E+01 0.  1.
       -4    1    3    3    0  502  0.15034494609E+03 -0.36530023851E+03 -0.10486960761E+02  0.39517016121E+03  0.12699999809E+01 0. -1.
</event>
<event>
 5   0  0.6593118E-04  0.8001074E+03  0.7818609E-02  0.9559862E-01
       -2   -1    0    0    0  501  0.00000000000E+00  0.00000000000E+00  0.14553348945E+03  0.14553348948E+03  0.25500000920E-02 0. -1.
        2   -1    0    0  501    0  0.00000000000E+00  0.00000000000E+00 -0.10996984130E+04  0.10996984131E+04  0.25500000920E-02 0.  1.
    10030    2    1    2    0    0  0.00000000000E+00  0.00000000000E+00 -0.95416492359E+03  0.12452319025E+04  0.80010736133E+03 0.  0.
        1    1    3    3  502    0  0.39400261595E+03 -0.30497089164E+01 -0.58485864077E+03  0.70519996583E+03  0.50400001928E-02 0. -1.
       -1    1    3    3    0  502 -0.39400261595E+03  0.30497089164E+01 -0.36930628283E+03  0.54003193670E+03  0.50400001928E-02 0.  1.
</event>
<event>
 5   0  0.4087283E-04  0.7992844E+03  0.7818609E-02  0.9561053E-01
       -1   -1    0    0    0  501  0.00000000000E+00  0.00000000000E+00  0.12644251516E+03  0.12644251526E+03  0.50400001928E-02 0.  1.
        1   -1    0    0  501    0  0.00000000000E+00  0.00000000000E+00 -0.12631343734E+04  0.12631343734E+04  0.50400001928E-02 0. -1.
    10030    2    1    2    0    0  0.00000000000E+00  0.00000000000E+00 -0.11366918583E+04  0.13895768887E+04  0.79928439806E+03 0.  0.
        1    1    3    3  502    0  0.21503230587E+03  0.30140154994E+03 -0.30680258242E+03  0.48084260573E+03  0.50400001928E-02 0.  1.
       -1    1    3    3    0  502 -0.21503230587E+03 -0.30140154994E+03 -0.82988927584E+03  0.90873428298E+03  0.50400001928E-02 0. -1.
</event>
<event>
 5   0  0.6801147E-04  0.7997701E+03  0.7818609E-02  0.9560350E-01
       -2   -1    0    0    0  501  0.00000000000E+00  0.00000000000E+00  0.14697854748E+03  0.14697854750E+03  0.25500000920E-02 0.  1.
        2   -1    0    0  501    0  0.00000000000E+00  0.00000000000E+00 -0.10879686263E+04  0.10879686263E+04  0.25500000920E-02 0. -1.
    10030    2    1    2    0    0  0.00000000000E+00  0.00000000000E+00 -0.94099007880E+03  0.12349471738E+04  0.79977008798E+03 0.  0.
        4    1    3    3  502    0 -0.86796788301E+02 -0.22159550759E+02 -0.10722725573E+04  0.10760087259E+04  0.12699999809E+01 0. -1.
       -4    1    3    3    0  502  0.86796788301E+02  0.22159550759E+02  0.13128247851E+03  0.15893844788E+03  0.12699999809E+01 0.  1.
</event>
<event>
 5   0  0.2736375E-04  0.8002383E+03  0.7818609E-02  0.9559672E-01
        3   -1    0    0  501    0  0.00000000000E+00  0.00000000000E+00  0.10737545931E+03  0.10737550681E+03  0.10100000352E+00 0.  1.
       -3   -1    0    0    0  501  0.00000000000E+00  0.00000000000E+00 -0.14909859754E+04  0.14909859788E+04  0.10100000352E+00 0. -1.
    10030    2    1    2    0    0  0.00000000000E+00  0.00000000000E+00 -0.13836105161E+04  0.15983614856E+04  0.80023832605E+03 0.  0.
        2    1    3    3  502    0 -0.25760414877E+03 -0.26276012012E+03 -0.10056672843E+04  0.10708732254E+04  0.25500000920E-02 0. -1.
       -2    1    3    3    0  502  0.25760414877E+03  0.26276012012E+03 -0.37794323176E+03  0.52748826018E+03  0.25500000920E-02 0.  1.
</event>
<event>
 5   0  0.6801147E-04  0.8003374E+03  0.7818609E-02  0.9559529E-01
        2   -1    0    0  501    0  0.00000000000E+00  0.00000000000E+00  0.59697904441E+03  0.59697904442E+03  0.25500000920E-02 0.  1.
       -2   -1    0    0    0  501  0.00000000000E+00  0.00000000000E+00 -0.26824221889E+03  0.26824221890E+03  0.25500000920E-02 0. -1.
    10030    2    1    2    0    0  0.00000000000E+00  0.00000000000E+00  0.32873682552E+03  0.86522126332E+03  0.80033738763E+03 0.  0.
        4    1    3    3  502    0 -0.17255340888E+02 -0.15665416681E+03 -0.23327620259E+03  0.28152739540E+03  0.12699999809E+01 0. -1.
       -4    1    3    3    0  502  0.17255340888E+02  0.15665416681E+03  0.56201302811E+03  0.58369386791E+03  0.12699999809E+01 0.  1.
</event>
<event>
 5   0  0.6672462E-04  0.7999120E+03  0.7818609E-02  0.9560145E-01
        2   -1    0    0  501    0  0.00000000000E+00  0.00000000000E+00  0.12254267343E+04  0.12254267343E+04  0.25500000920E-02 0. -1.
       -2   -1    0    0    0  501  0.00000000000E+00  0.00000000000E+00 -0.13053802959E+03  0.13053802962E+03  0.25500000920E-02 0.  1.
    10030    2    1    2    0    0  0.00000000000E+00  0.00000000000E+00  0.10948887047E+04  0.13559647640E+04  0.79991197347E+03 0.  0.
        5    1    3    3  502    0 -0.22530411955E+02  0.22612729029E+03  0.11053021443E+04  0.11284308091E+04  0.46999998093E+01 0. -1.
       -5    1    3    3    0  502  0.22530411955E+02 -0.22612729029E+03 -0.10413439517E+02  0.22753395483E+03  0.46999998093E+01 0.  1.
</event>
<event>
 5   0  0.7133039E-04  0.7973424E+03  0.7818609E-02  0.9563872E-01
        2   -1    0    0  501    0  0.00000000000E+00  0.00000000000E+00  0.76488953882E+03  0.76488953883E+03  0.25500000920E-02 0. -1.
       -2   -1    0    0    0  501  0.00000000000E+00  0.00000000000E+00 -0.20779301910E+03  0.20779301911E+03  0.25500000920E-02 0.  1.
    10030    2    1    2    0    0  0.00000000000E+00  0.00000000000E+00  0.55709651973E+03  0.97268255794E+03  0.79734235196E+03 0.  0.
        2    1    3    3  502    0  0.11072470076E+03  0.20278056832E+03  0.67489335999E+03  0.71334491349E+03  0.25500000920E-02 0. -1.
       -2    1    3    3    0  502 -0.11072470076E+03 -0.20278056832E+03 -0.11779684026E+03  0.25933764444E+03  0.25500000920E-02 0.  1.
</event>
<event>
 5   0  0.6970013E-04  0.8000271E+03  0.7818609E-02  0.9559978E-01
        2   -1    0    0  501    0  0.00000000000E+00  0.00000000000E+00  0.32125770846E+03  0.32125770847E+03  0.25500000920E-02 0. -1.
       -2   -1    0    0    0  501  0.00000000000E+00  0.00000000000E+00 -0.49807631017E+03  0.49807631018E+03  0.25500000920E-02 0.  1.
    10030    2    1    2    0    0  0.00000000000E+00  0.00000000000E+00 -0.17681860170E+03  0.81933401865E+03  0.80002713467E+03 0.  0.
        3    1    3    3  502    0  0.22103942002E+03  0.67148213407E+02 -0.42285340040E+03  0.48184262596E+03  0.10100000352E+00 0.  1.
       -3    1    3    3    0  502 -0.22103942002E+03 -0.67148213407E+02  0.24603479869E+03  0.33749139269E+03  0.10100000352E+00 0. -1.
</event>
<event>
 5   0  0.6970013E-04  0.7999847E+03  0.7818609E-02  0.9560039E-01
       -2   -1    0    0    0  501  0.00000000000E+00  0.00000000000E+00  0.24813873613E+03  0.24813873614E+03  0.25500000920E-02 0.  1.
        2   -1    0    0  501    0  0.00000000000E+00  0.00000000000E+00 -0.64477592565E+03  0.64477592566E+03  0.25500000920E-02 0. -1.
    10030    2    1    2    0    0  0.00000000000E+00  0.00000000000E+00 -0.39663718953E+03  0.89291466180E+03  0.79998470806E+03 0.  0.
        3    1    3    3  502    0 -0.18589395016E+03  0.64266683383E+02 -0.58706947858E+03  0.61914243126E+03  0.10100000352E+00 0. -1.
       -3    1    3    3    0  502  0.18589395016E+03 -0.64266683383E+02  0.19043228905E+03  0.27377223054E+03  0.10100000352E+00 0.  1.
</event>
<event>
 5   0  0.7133039E-04  0.8002616E+03  0.7818609E-02  0.9559639E-01
       -2   -1    0    0    0  501  0.00000000000E+00  0.00000000000E+00  0.58466269149E+03  0.58466269150E+03  0.25500000920E-02 0. -1.
        2   -1    0    0  501    0  0.00000000000E+00  0.00000000000E+00 -0.27384107081E+03  0.27384107083E+03  0.25500000920E-02 0.  1.
    10030    2    1    2    0    0  0.00000000000E+00  0.00000000000E+00  0.31082162068E+03  0.85850376232E+03  0.80026160100E+03 0.  0.
        2    1    3    3  502    0 -0.31440471818E+03  0.24748593471E+03  0.15300175619E+03  0.42837968217E+03  0.25500000920E-02 0. -1.
       -2    1    3    3    0  502  0.31440471818E+03 -0.24748593471E+03  0.15781986449E+03  0.43012408015E+03  0.25500000920E-02 0.  1.
</event>
<event>
 5   0  0.4392552E-04  0.7999966E+03  0.7818609E-02  0.9560022E-01
       -1   -1    0    0    0  501  0.00000000000E+00  0.00000000000E+00  0.20215646186E+03  0.20215646192E+03  0.50400001928E-02 0. -1.
        1   -1    0    0  501    0  0.00000000000E+00  0.00000000000E+00 -0.79145940488E+03  0.79145940490E+03  0.50400001928E-02 0.  1.
    10030    2    1    2    0    0  0.00000000000E+00  0.00000000000E+00 -0.58930294302E+03  0.99361586682E+03  0.79999658259E+03 0.  0.
        5    1    3    3  502    0 -0.22230632549E+03 -0.29310274642E+03 -0.99660562688E+02  0.38116091099E+03  0.46999998093E+01 0.  1.
       -5    1    3    3    0  502  0.22230632549E+03  0.29310274642E+03 -0.48964238033E+03  0.61245495584E+03  0.46999998093E+01 0. -1.
</event>
<event>
 5   0  0.6672462E-04  0.8008637E+03  0.7818609E-02  0.9558768E-01
       -2   -1    0    0    0  501  0.00000000000E+00  0.00000000000E+00  0.28330083094E+03  0.28330083095E+03  0.25500000920E-02 0. -1.
        2   -1    0    0  501    0  0.00000000000E+00  0.00000000000E+00 -0.56599077450E+03  0.56599077450E+03  0.25500000920E-02 0.  1.
    10030    2    1    2    0    0  0.00000000000E+00  0.00000000000E+00 -0.28268994356E+03  0.84929160545E+03  0.80086367560E+03 0.  0.
        5    1    3    3  502    0 -0.27455159104E+03 -0.71475945271E+02  0.15829386974E+03  0.32490987380E+03  0.46999998093E+01 0. -1.
       -5    1    3    3    0  502  0.27455159104E+03  0.71475945271E+02 -0.44098381331E+03  0.52438173165E+03  0.46999998093E+01 0.  1.
</event>
<event>
 5   0  0.6970013E-04  0.7995585E+03  0.7818609E-02  0.9560656E-01
       -2   -1    0    0    0  501  0.00000000000E+00  0.00000000000E+00  0.46948673231E+03  0.46948673231E+03  0.25500000920E-02 0.  1.
        2   -1    0    0  501    0  0.00000000000E+00  0.00000000000E+00 -0.34042164342E+03  0.34042164343E+03  0.25500000920E-02 0. -1.
    10030    2    1    2    0    0  0.00000000000E+00  0.00000000000E+00  0.12906508888E+03  0.80990837575E+03  0.79955849063E+03 0.  0.
        3    1    3    3  502    0  0.52997706560E+02  0.32795006132E+02 -0.33547046028E+03  0.34121065230E+03  0.10100000352E+00 0. -1.
       -3    1    3    3    0  502 -0.52997706560E+02 -0.32795006132E+02  0.46453554916E+03  0.46869772344E+03  0.10100000352E+00 0.  1.
</event>
<event>
 5   0  0.4169155E-04  0.8002780E+03  0.7818609E-02  0.9559615E-01
       -1   -1    0    0    0  501  0.00000000000E+00  0.00000000000E+00  0.14762228047E+03  0.14762228056E+03  0.50400001928E-02 0.  1.
        1   -1    0    0  501    0  0.00000000000E+00  0.00000000000E+00 -0.10846006133E+04  0.10846006133E+04  0.50400001928E-02 0. -1.
    10030    2    1    2    0    0  0.00000000000E+00  0.00000000000E+00 -0.93697833280E+03  0.12322228938E+04  0.80027799169E+03 0.  0.
        4    1    3    3  502    0  0.10889010039E+03  0.17641544241E+03 -0.99545533288E+03  0.10168148282E+04  0.12699999809E+01 0. -1.
       -4    1    3    3    0  502 -0.10889010039E+03 -0.17641544241E+03  0.58477000080E+02  0.21540806560E+03  0.12699999809E+01 0.  1.
</event>
<event>
 5   0  0.6593118E-04  0.8001432E+03  0.7818609E-02  0.9559810E-01
        2   -1    0    0  501    0  0.00000000000E+00  0.00000000000E+00  0.35254862711E+03  0.35254862712E+03  0.25500000920E-02 0. -1.
       -2   -1    0    0    0  501  0.00000000000E+00  0.00000000000E+00 -0.45400053666E+03  0.45400053667E+03  0.25500000920E-02 0.  1.
    10030    2    1    2    0    0  0.00000000000E+00  0.00000000000E+00 -0.10145190955E+03  0.80654916379E+03  0.80014315198E+03 0.  0.
        1    1    3    3  502    0 -0.28286461917E+02 -0.20603346929E+03  0.29378119615E+03  0.35994069738E+03  0.50400001928E-02 0. -1.
       -1    1    3    3    0  502  0.28286461917E+02  0.20603346929E+03 -0.39523310570E+03  0.44660846640E+03  0.50400001928E-02 0.  1.
</event>
<event>
 5   0  0.7133039E-04  0.7999684E+03  0.7818609E-02  0.9560063E-01
       -2   -1    0    0    0  501  0.00000000000E+00  0.00000000000E+00  0.13303037911E+04  0.13303037911E+04  0.25500000920E-02 0.  1.
        2   -1    0    0  501    0  0.00000000000E+00  0.00000000000E+00 -0.12026378221E+03  0.12026378224E+03  0.25500000920E-02 0. -1.
    10030    2    1    2    0    0  0.00000000000E+00  0.00000000000E+00  0.12100400089E+04  0.14505675733E+04  0.79996841294E+03 0.  0.
        2    1    3    3  502    0 -0.53406743985E+02 -0.26931672319E+03  0.77596456485E+02  0.28531559326E+03  0.25500000920E-02 0. -1.
       -2    1    3    3    0  502  0.53406743985E+02  0.26931672319E+03  0.11324435524E+04  0.11652519801E+04  0.25500000920E-02 0.  1.
</event>
<event>
 5   0  0.4104786E-04  0.8000698E+03  0.7818609E-02  0.9559916E-01
        1   -1    0    0  501    0  0.00000000000E+00  0.00000000000E+00  0.70084944214E+03  0.70084944216E+03  0.50400001928E-02 0. -1.
       -1   -1    0    0    0  501  0.00000000000E+00  0.00000000000E+00 -0.22833421715E+03  0.22833421720E+03  0.50400001928E-02 0.  1.
    10030    2    1    2    0    0  0.00000000000E+00  0.00000000000E+00  0.47251522499E+03  0.92918365936E+03  0.80006976882E+03 0.  0.
        2    1    3    3  502    0  0.25027826277E+03  0.25066974624E+03  0.20374356186E+02  0.35480930779E+03  0.25500000920E-02 0.  1.
       -2    1    3    3    0  502 -0.25027826277E+03 -0.25066974624E+03  0.45214086881E+03  0.57437435158E+03  0.25500000920E-02 0. -1.
</event>
<event>
 5   0  0.6672462E-04  0.8045445E+03  0.7818609E-02  0.9553462E-01
       -2   -1    0    0    0  501  0.00000000000E+00  0.00000000000E+00  0.12920431100E+03  0.12920431103E+03  0.25500000920E-02 0. -1.
        2   -1    0    0  501    0  0.00000000000E+00  0.00000000000E+00 -0.12524579339E+04  0.12524579339E+04  0.25500000920E-02 0.  1.
    10030    2    1    2    0    0  0.00000000000E+00  0.00000000000E+00 -0.11232536229E+04  0.13816622449E+04  0.80454450324E+03 0.  0.
        5    1    3    3  502    0 -0.78009638823E+02  0.25597222153E+03 -0.45876307444E+02  0.27154006616E+03  0.46999998093E+01 0. -1.
       -5    1    3    3    0  502  0.78009638823E+02 -0.25597222153E+03 -0.10773773154E+04  0.11101221788E+04  0.46999998093E+01 0.  1.
</event>
<event>
 5   0  0.4086111E-04  0.8000085E+03  0.7818609E-02  0.9560005E-01
        1   -1    0    0  501    0  0.00000000000E+00  0.00000000000E+00  0.29435363294E+03  0.29435363298E+03  0.50400001928E-02 0.  1.
       -1   -1    0    0    0  501  0.00000000000E+00  0.00000000000E+00 -0.54357538877E+03  0.54357538880E+03  0.50400001928E-02 0. -1.
    10030    2    1    2    0    0  0.00000000000E+00  0.00000000000E+00 -0.24922175584E+03  0.83792902178E+03  0.80000847618E+03 0.  0.
        3    1    3    3  502    0 -0.22992501598E+03 -0.26583666326E+03  0.75408926501E+02  0.35947344952E+03  0.10100000352E+00 0.  1.
       -3    1    3    3    0  502  0.22992501598E+03  0.26583666326E+03 -0.32463068234E+03  0.47845557226E+03  0.10100000352E+00 0. -1.
</event>
<event>
 5   0  0.4086111E-04  0.7997665E+03  0.7818609E-02  0.9560355E-01
       -1   -1    0    0    0  501  0.00000000000E+00  0.00000000000E+00  0.12522667006E+03  0.12522667016E+03  0.50400001928E-02 0. -1.
        1   -1    0    0  501    0  0.00000000000E+00  0.00000000000E+00 -0.12769374253E+04  0.12769374253E+04  0.50400001928E-02 0.  1.
    10030    2    1    2    0    0  0.00000000000E+00  0.00000000000E+00 -0.11517107553E+04  0.14021640955E+04  0.79976652024E+03 0.  0.
        3    1    3    3  502    0  0.37809428956E+02 -0.35987951452E+03 -0.27747975064E+03  0.45600201765E+03  0.10100000352E+00 0. -1.
       -3    1    3    3    0  502 -0.37809428956E+02  0.35987951452E+03 -0.87423100464E+03  0.94616207785E+03  0.10100000352E+00 0.  1.
</event>
<event>
 5   0  0.4104786E-04  0.8000567E+03  0.7818609E-02  0.9559935E-01
        1   -1    0    0  501    0  0.00000000000E+00  0.00000000000E+00  0.17425719990E+03  0.17425719997E+03  0.50400001928E-02 0. -1.
       -1   -1    0    0    0  501  0.00000000000E+00  0.00000000000E+00 -0.91831326400E+03  0.91831326401E+03  0.50400001928E-02 0.  1.
    10030    2    1    2    0    0  0.00000000000E+00  0.00000000000E+00 -0.74405606410E+03  0.10925704640E+04  0.80005674313E+03 0.  0.
        2    1    3    3  502    0 -0.75574070716E+02  0.18363728059E+03  0.10219408522E+03  0.22333320856E+03  0.25500000920E-02 0. -1.
       -2    1    3    3    0  502  0.75574070716E+02 -0.18363728059E+03 -0.84625014932E+03  0.86923725542E+03  0.25500000920E-02 0.  1.
</event>
<event>
 5   0  0.6801147E-04  0.7997369E+03  0.7818609E-02  0.9560398E-01
        2   -1    0    0  501    0  0.00000000000E+00  0.00000000000E+00  0.67784766063E+03  0.67784766064E+03  0.25500000920E-02 0. -1.
       -2   -1    0    0    0  501  0.00000000000E+00  0.00000000000E+00 -0.23588597704E+03  0.23588597705E+03  0.25500000920E-02 0.  1.
    10030    2    1    2    0    0  0.00000000000E+00  0.00000000000E+00  0.44196168360E+03  0.91373363769E+03  0.79973685102E+03 0.  0.
        4    1    3    3  502    0  0.33018165414E+02  0.51471327445E+02 -0.23050961193E+03  0.23848645850E+03  0.12699999809E+01 0.  1.
       -4    1    3    3    0  502 -0.33018165414E+02 -0.51471327445E+02  0.67247129553E+03  0.67524717919E+03  0.12699999809E+01 0. -1.
</event>
<event>
 5   0  0.7133039E-04  0.7994742E+03  0.7818609E-02  0.9560778E-01
       -2   -1    0    0    0  501  0.00000000000E+00  0.00000000000E+00  0.16367346272E+03  0.16367346274E+03  0.25500000920E-02 0. -1.
        2   -1    0    0  501    0  0.00000000000E+00  0.00000000000E+00 -0.97627158784E+03  0.97627158784E+03  0.25500000920E-02 0.  1.
    10030    2    1    2    0    0  0.00000000000E+00  0.00000000000E+00 -0.81259812511E+03  0.11399450506E+04  0.79947420559E+03 0.  0.
        2    1    3    3  502    0  0.18149056474E+03  0.20085985553E+03  0.13076568325E+02  0.27102491269E+03  0.25500000920E-02 0. -1.
       -2    1    3    3    0  502 -0.18149056474E+03 -0.20085985553E+03 -0.82567469344E+03  0.86892013790E+03  0.25500000920E-02 0.  1.
</event>
<event>
 5   0  0.6801147E-04  0.7994552E+03  0.7818609E-02  0.9560806E-01
        2   -1    0    0  501    0  0.00000000000E+00  0.00000000000E+00  0.17562039933E+04  0.17562039933E+04  0.25500000920E-02 0.  1.
       -2   -1    0    0    0  501  0.00000000000E+00  0.00000000000E+00 -0.90981552770E+02  0.90981552806E+02  0.25500000920E-02 0. -1.
    10030    2    1    2    0    0  0.00000000000E+00  0.00000000000E+00  0.16652224405E+04  0.18471855461E+04  0.79945523033E+03 0.  0.
        4    1    3    3  502    0 -0.18075960142E+03 -0.24015860067E+03  0.22378814820E+03  0.37474382604E+03  0.12699999809E+01 0. -1.
       -4    1    3    3    0  502  0.18075960142E+03  0.24015860067E+03  0.14414342923E+04  0.14724417201E+04  0.12699999809E+01 0.  1.
</event>
<event>
 5   0  0.6593118E-04  0.7993216E+03  0.7818609E-02  0.9561000E-01
       -2   -1    0    0    0  501  0.00000000000E+00  0.00000000000E+00  0.56333423534E+02  0.56333423591E+02  0.25500000920E-02 0.  1.
        2   -1    0    0  501    0  0.00000000000E+00  0.00000000000E+00 -0.28354168776E+04  0.28354168776E+04  0.25500000920E-02 0. -1.
    10030    2    1    2    0    0  0.00000000000E+00  0.00000000000E+00 -0.27790834541E+04  0.28917503012E+04  0.79932156219E+03 0.  0.
        1    1    3    3  502    0 -0.14056490293E+02  0.38326719320E+03 -0.98284716919E+03  0.10550260112E+04  0.50400001928E-02 0.  1.
       -1    1    3    3    0  502  0.14056490293E+02 -0.38326719320E+03 -0.17962362849E+04  0.18367242900E+04  0.50400001928E-02 0. -1.
</event>
<event>
 5   0  0.6970013E-04  0.7999122E+03  0.7818609E-02  0.9560144E-01
       -2   -1    0    0    0  501  0.00000000000E+00  0.00000000000E+00  0.15974357628E+03  0.15974357630E+03  0.25500000920E-02 0.  1.
        2   -1    0    0  501    0  0.00000000000E+00  0.00000000000E+00 -0.10013852802E+04  0.10013852802E+04  0.25500000920E-02 0. -1.
    10030    2    1    2    0    0  0.00000000000E+00  0.00000000000E+00 -0.84164170392E+03  0.11611288565E+04  0.79991215995E+03 0.  0.
        3    1    3    3  502    0 -0.52889573739E+02 -0.15840915054E+03  0.10670886879E+03  0.19818566766E+03  0.10100000352E+00 0.  1.
       -3    1    3    3    0  502  0.52889573739E+02  0.15840915054E+03 -0.94835057272E+03  0.96294318885E+03  0.10100000352E+00 0. -1.
</event>
<event>
 5   0  0.4087283E-04  0.8007630E+03  0.7818609E-02  0.9558913E-01
        1   -1    0    0  501    0  0.00000000000E+00  0.00000000000E+00  0.10992066008E+04  0.10992066008E+04  0.50400001928E-02 0. -1.
       -1   -1    0    0    0  501  0.00000000000E+00  0.00000000000E+00 -0.14583730479E+03  0.14583730488E+03  0.50400001928E-02 0.  1.
    10030    2    1    2    0    0  0.00000000000E+00  0.00000000000E+00  0.95336929604E+03  0.12450439057E+04  0.80076295653E+03 0.  0.
        1    1    3    3  502    0 -0.23232740302E+03  0.31977538415E+03  0.57591360119E+03  0.69850468471E+03  0.50400001928E-02 0. -1.
       -1    1    3    3    0  502  0.23232740302E+03 -0.31977538415E+03  0.37745569486E+03  0.54653922102E+03  0.50400001928E-02 0.  1.
</event>
<event>
 5   0  0.7133039E-04  0.8003239E+03  0.7818609E-02  0.9559548E-01
        2   -1    0    0  501    0  0.00000000000E+00  0.00000000000E+00  0.17357324040E+04  0.17357324040E+04  0.25500000920E-02 0. -1.
       -2   -1    0    0    0  501  0.00000000000E+00  0.00000000000E+00 -0.92254755617E+02  0.92254755652E+02  0.25500000920E-02 0.  1.
    10030    2    1    2    0    0  0.00000000000E+00  0.00000000000E+00  0.16434776484E+04  0.18279871597E+04  0.80032385641E+03 0.  0.
        2    1    3    3  502    0 -0.33426880172E+03 -0.20485711460E+03  0.63862193312E+03  0.74935975517E+03  0.25500000920E-02 0.  1.
       -2    1    3    3    0  502  0.33426880172E+03  0.20485711460E+03  0.10048557153E+04  0.10786274045E+04  0.25500000920E-02 0. -1.
</event>
<event>
 5   0  0.4104786E-04  0.7999596E+03  0.7818609E-02  0.9560076E-01
       -1   -1    0    0    0  501  0.00000000000E+00  0.00000000000E+00  0.11227186659E+03  0.11227186670E+03  0.50400001928E-02 0. -1.
        1   -1    0    0  501    0  0.00000000000E+00  0.00000000000E+00 -0.14249683356E+04  0.14249683356E+04  0.50400001928E-02 0.  1.
    10030    2    1    2    0    0  0.00000000000E+00  0.00000000000E+00 -0.13126964690E+04  0.15372402023E+04  0.79995963638E+03 0.  0.
        2    1    3    3  502    0 -0.50344807928E+02  0.17315466728E+03  0.29727499128E+02  0.18275902905E+03  0.25500000920E-02 0. -1.
       -2    1    3    3    0  502  0.50344807928E+02 -0.17315466728E+03 -0.13424239681E+04  0.13544811732E+04  0.25500000920E-02 0.  1.
</event>
<event>
 5   0  0.6801147E-04  0.7999701E+03  0.7818609E-02  0.9560060E-01
       -2   -1    0    0    0  501  0.00000000000E+00  0.00000000000E+00  0.12105867909E+03  0.12105867912E+03  0.25500000920E-02 0. -1.
        2   -1    0    0  501    0  0.00000000000E+00  0.00000000000E+00 -0.13215742159E+04  0.13215742159E+04  0.25500000920E-02 0.  1.
    10030    2    1    2    0    0  0.00000000000E+00  0.00000000000E+00 -0.12005155368E+04  0.14426328951E+04  0.79997007175E+03 0.  0.
        4    1    3    3  502    0 -0.27395559811E+02 -0.37344355250E+03 -0.34665776314E+03  0.51027818026E+03  0.12699999809E+01 0.  1.
       -4    1    3    3    0  502  0.27395559811E+02  0.37344355250E+03 -0.85385777370E+03  0.93235471480E+03  0.12699999809E+01 0. -1.
</event>
<event>
 5   0  0.6801147E-04  0.8000388E+03  0.7818609E-02  0.9559961E-01
        2   -1    0    0  501    0  0.00000000000E+00  0.00000000000E+00  0.10556344269E+04  0.10556344269E+04  0.25500000920E-02 0.  1.
       -2   -1    0    0    0  501  0.00000000000E+00  0.00000000000E+00 -0.15158233433E+03  0.15158233435E+03  0.25500000920E-02 0. -1.
    10030    2    1    2    0    0  0.00000000000E+00  0.00000000000E+00  0.90405209253E+03  0.12072167612E+04  0.80003882565E+03 0.  0.
        4    1    3    3  502    0 -0.16193516130E+02 -0.12771149690E+03 -0.11946778039E+03  0.17563205817E+03  0.12699999809E+01 0. -1.
       -4    1    3    3    0  502  0.16193516130E+02  0.12771149690E+03  0.10235198729E+04  0.10315847030E+04  0.12699999809E+01 0.  1.
</event>
<event>
 5   0  0.4169155E-04  0.8007347E+03  0.7818609E-02  0.9558954E-01
       -1   -1    0    0    0  501  0.00000000000E+00  0.00000000000E+00  0.13346118549E+03  0.13346118558E+03  0.50400001928E-02 0. -1.
        1   -1    0    0  501    0  0.00000000000E+00  0.00000000000E+00 -0.12010534014E+04  0.12010534014E+04  0.50400001928E-02 0.  1.
    10030    2    1    2    0    0  0.00000000000E+00  0.00000000000E+00 -0.10675922159E+04  0.13345145870E+04  0.80073468979E+03 0.  0.
        4    1    3    3  502    0 -0.10137530772E+03  0.34594649686E+03 -0.82407614972E+03  0.89947709540E+03  0.12699999809E+01 0.  1.
       -4    1    3    3    0  502  0.10137530772E+03 -0.34594649686E+03 -0.24351606620E+03  0.43503749161E+03  0.12699999809E+01 0. -1.
</event>
<event>
 5   0  0.4086111E-04  0.8004004E+03  0.7818609E-02  0.9559438E-01
       -1   -1    0    0    0  501  0.00000000000E+00  0.00000000000E+00  0.13920111934E+04  0.13920111935E+04  0.50400001928E-02 0.  1.
        1   -1    0    0  501    0  0.00000000000E+00  0.00000000000E+00 -0.11505668862E+03  0.11505668873E+03  0.50400001928E-02 0. -1.
    10030    2    1    2    0    0  0.00000000000E+00  0.00000000000E+00  0.12769545048E+04  0.15070678822E+04  0.80040039611E+03 0.  0.
        3    1    3    3  502    0 -0.18686580049E+03 -0.20715761995E+03  0.98224635332E+02  0.29577220302E+03  0.10100000352E+00 0. -1.
       -3    1    3    3    0  502  0.18686580049E+03  0.20715761995E+03  0.11787298695E+04  0.12112956792E+04  0.10100000352E+00 0.  1.
</event>
<event>
 5   0  0.6970013E-04  0.8000313E+03  0.7818609E-02  0.9559972E-01
       -2   -1    0    0    0  501  0.00000000000E+00  0.00000000000E+00  0.86793740706E+02  0.86793740744E+02  0.25500000920E-02 0. -1.
        2   -1    0    0  501    0  0.00000000000E+00  0.00000000000E+00 -0.18435952873E+04  0.18435952873E+04  0.25500000920E-02 0.  1.
    10030    2    1    2    0    0  0.00000000000E+00  0.00000000000E+00 -0.17568015466E+04  0.19303890281E+04  0.80003132782E+03 0.  0.
        3    1    3    3  502    0 -0.18574338291E+03 -0.65746728442E+02 -0.17183827310E+04  0.17296422916E+04  0.10100000352E+00 0.  1.
       -3    1    3    3    0  502  0.18574338291E+03  0.65746728442E+02 -0.38418815620E+02  0.20074673644E+03  0.10100000352E+00 0. -1.
</event>
<event>
 5   0  0.4392552E-04  0.7998298E+03  0.7818609E-02  0.9560264E-01
       -1   -1    0    0    0  501  0.00000000000E+00  0.00000000000E+00  0.25194327873E+03  0.25194327878E+03  0.50400001928E-02 0. -1.
        1   -1    0    0  501    0  0.00000000000E+00  0.00000000000E+00 -0.63479336519E+03  0.63479336521E+03  0.50400001928E-02 0.  1.
    10030    2    1    2    0    0  0.00000000000E+00  0.00000000000E+00 -0.38285008646E+03  0.88673664399E+03  0.79982978632E+03 0.  0.
        5    1    3    3  502    0  0.61719994084E+02 -0.31043280286E+03 -0.46238207437E+03  0.56035449089E+03  0.46999998093E+01 0.  1.
       -5    1    3    3    0  502 -0.61719994084E+02  0.31043280286E+03  0.79531987906E+02  0.32638215310E+03  0.46999998093E+01 0. -1.
</event>
<event>
 5   0  0.4169155E-04  0.8009685E+03  0.7818609E-02  0.9558616E-01
       -1   -1    0    0    0  501  0.00000000000E+00  0.00000000000E+00  0.19283339898E+03  0.19283339905E+03  0.50400001928E-02 0. -1.
        1   -1    0    0  501    0  0.00000000000E+00  0.00000000000E+00 -0.83174191143E+03  0.83174191145E+03  0.50400001928E-02 0.  1.
    10030    2    1    2    0    0  0.00000000000E+00  0.00000000000E+00 -0.63890851245E+03  0.10245753105E+04  0.80096846355E+03 0.  0.
        4    1    3    3  502    0 -0.34971406559E+03 -0.48056149615E+02 -0.77502642595E+02  0.36141056113E+03  0.12699999809E+01 0. -1.
       -4    1    3    3    0  502  0.34971406559E+03  0.48056149615E+02 -0.56140586986E+03  0.66316474936E+03  0.12699999809E+01 0.  1.
</event>
<event>
 5   0  0.6801147E-04  0.8000274E+03  0.7818609E-02  0.9559977E-01
        2   -1    0    0  501    0  0.00000000000E+00  0.00000000000E+00  0.67274067289E+03  0.67274067289E+03  0.25500000920E-02 0. -1.
       -2   -1    0    0    0  501  0.00000000000E+00  0.00000000000E+00 -0.23784941909E+03  0.23784941910E+03  0.25500000920E-02 0.  1.
    10030    2    1    2    0    0  0.00000000000E+00  0.00000000000E+00  0.43489125380E+03  0.91059009199E+03  0.80002744515E+03 0.  0.
        4    1    3    3  502    0  0.12706834146E+03 -0.21341266147E+03 -0.13944458412E+03  0.28484685783E+03  0.12699999809E+01 0.  1.
       -4    1    3    3    0  502 -0.12706834146E+03  0.21341266147E+03  0.57433583792E+03  0.62574323416E+03  0.12699999809E+01 0. -1.
</event>
<event>
 5   0  0.6593118E-04  0.7987935E+03  0.7818609E-02  0.9561765E-01
        2   -1    0    0  501    0  0.00000000000E+00  0.00000000000E+00  0.16079674242E+04  0.16079674242E+04  0.25500000920E-02 0. -1.
       -2   -1    0    0    0  501  0.00000000000E+00  0.00000000000E+00 -0.99204600285E+02  0.99204600318E+02  0.25500000920E-02 0.  1.
    10030    2    1    2    0    0  0.00000000000E+00  0.00000000000E+00  0.15087628239E+04  0.17071720245E+04  0.79879350427E+03 0.  0.
        1    1    3    3  502    0  0.25778452534E+03 -0.28071172677E+03  0.49911640055E+03  0.62798814987E+03  0.50400001928E-02 0.  1.
       -1    1    3    3    0  502 -0.25778452534E+03  0.28071172677E+03  0.10096464233E+04  0.10791838746E+04  0.50400001928E-02 0. -1.
</event>
<event>
 5   0  0.4104786E-04  0.8052669E+03  0.7818609E-02  0.9552425E-01
       -1   -1    0    0    0  501  0.00000000000E+00  0.00000000000E+00  0.64070073082E+03  0.64070073083E+03  0.50400001928E-02 0.  1.
        1   -1    0    0  501    0  0.00000000000E+00  0.00000000000E+00 -0.25302561598E+03  0.25302561603E+03  0.50400001928E-02 0. -1.
    10030    2    1    2    0    0  0.00000000000E+00  0.00000000000E+00  0.38767511484E+03  0.89372634686E+03  0.80526690508E+03 0.  0.
        2    1    3    3  502    0 -0.99492532372E+02 -0.29906076235E+03 -0.84240705649E+02  0.32624009575E+03  0.25500000920E-02 0. -1.
       -2    1    3    3    0  502  0.99492532372E+02  0.29906076235E+03  0.47191582049E+03  0.56748625112E+03  0.25500000920E-02 0.  1.
</event>
<event>
 5   0  0.7133039E-04  0.7998720E+03  0.7818609E-02  0.9560202E-01
       -2   -1    0    0    0  501  0.00000000000E+00  0.00000000000E+00  0.48341605668E+03  0.48341605669E+03  0.25500000920E-02 0. -1.
        2   -1    0    0  501    0  0.00000000000E+00  0.00000000000E+00 -0.33087196321E+03  0.33087196322E+03  0.25500000920E-02 0.  1.
    10030    2    1    2    0    0  0.00000000000E+00  0.00000000000E+00  0.15254409347E+03  0.81428801991E+03  0.79987203909E+03 0.  0.
        2    1    3    3  502    0  0.11531807958E+03  0.30083607207E+03 -0.16495473257E+03  0.36195395500E+03  0.25500000920E-02 0.  1.
       -2    1    3    3    0  502 -0.11531807958E+03 -0.30083607207E+03  0.31749882603E+03  0.45233406491E+03  0.25500000920E-02 0. -1.
</event>
<event>
 5   0  0.2736375E-04  0.8002648E+03  0.7818609E-02  0.9559634E-01
        3   -1    0    0  501    0  0.00000000000E+00  0.00000000000E+00  0.46999428810E+03  0.46999429896E+03  0.10100000352E+00 0. -1.
       -3   -1    0    0    0  501  0.00000000000E+00  0.00000000000E+00 -0.34065502379E+03  0.34065503876E+03  0.10100000352E+00 0.  1.
    10030    2    1    2    0    0  0.00000000000E+00  0.00000000000E+00  0.12933926431E+03  0.81064933772E+03  0.80026477084E+03 0.  0.
        1    1    3    3  502    0 -0.37554003055E+03 -0.94568692197E+02 -0.37296262457E+02  0.38905598994E+03  0.50400001928E-02 0.  1.
       -1    1    3    3    0  502  0.37554003055E+03  0.94568692197E+02  0.16663552677E+03  0.42159334778E+03  0.50400001928E-02 0. -1.
</event>
<event>
 5   0  0.6593118E-04  0.8007375E+03  0.7818609E-02  0.9558950E-01
       -2   -1    0    0    0  501  0.00000000000E+00  0.00000000000E+00  0.18052835184E+03  0.18052835185E+03  0.25500000920E-02 0. -1.
        2   -1    0    0  501    0  0.00000000000E+00  0.00000000000E+00 -0.88792231049E+03  0.88792231050E+03  0.25500000920E-02 0.  1.
    10030    2    1    2    0    0  0.00000000000E+00  0.00000000000E+00 -0.70739395866E+03  0.10684506624E+04  0.80073753823E+03 0.  0.
        1    1    3    3  502    0 -0.20110407566E+03  0.29007961831E+03 -0.10156055113E+03  0.36729222668E+03  0.50400001928E-02 0. -1.
       -1    1    3    3    0  502  0.20110407566E+03 -0.29007961831E+03 -0.60583340753E+03  0.70115843567E+03  0.50400001928E-02 0.  1.
</event>
<event>
 5   0  0.6970013E-04  0.8001827E+03  0.7818609E-02  0.9559753E-01
       -2   -1    0    0    0  501  0.00000000000E+00  0.00000000000E+00  0.77584985423E+02  0.77584985465E+02  0.25500000920E-02 0. -1.
        2   -1    0    0  501    0  0.00000000000E+00  0.00000000000E+00 -0.20631965876E+04  0.20631965876E+04  0.25500000920E-02 0.  1.
    10030    2    1    2    0    0  0.00000000000E+00  0.00000000000E+00 -0.19856116021E+04  0.21407815730E+04  0.80018267219E+03 0.  0.
        3    1    3    3  502    0 -0.24464883000E+03 -0.18671771993E+02 -0.14732501027E+03  0.28619286144E+03  0.10100000352E+00 0. -1.
       -3    1    3    3    0  502  0.24464883000E+03  0.18671771993E+02 -0.18382865919E+04  0.18545887116E+04  0.10100000352E+00 0.  1.
</event>
<event>
 5   0  0.7133039E-04  0.8000998E+03  0.7818609E-02  0.9559873E-01
        2   -1    0    0  501    0  0.00000000000E+00  0.00000000000E+00  0.13651669707E+04  0.13651669707E+04  0.25500000920E-02 0. -1.
       -2   -1    0    0    0  501  0.00000000000E+00  0.00000000000E+00 -0.11723101429E+03  0.11723101432E+03  0.25500000920E-02 0.  1.
    10030    2    1    2    0    0  0.00000000000E+00  0.00000000000E+00  0.12479359564E+04  0.14823979850E+04  0.80009976546E+03 0.  0.
        2    1    3    3  502    0 -0.14343796549E+03  0.25159260402E+03  0.11353000290E+04  0.11716567092E+04  0.25500000920E-02 0. -1.
       -2    1    3    3    0  502  0.14343796549E+03 -0.25159260402E+03  0.11263592739E+03  0.31074127581E+03  0.25500000920E-02 0.  1.
</event>
<event>
 5   0  0.4392552E-04  0.8002315E+03  0.7818609E-02  0.9559682E-01
       -1   -1    0    0    0  501  0.00000000000E+00  0.00000000000E+00  0.91025603848E+03  0.91025603850E+03  0.50400001928E-02 0. -1.
        1   -1    0    0  501    0  0.00000000000E+00  0.00000000000E+00 -0.17587647369E+03  0.17587647376E+03  0.50400001928E-02 0.  1.
    10030    2    1    2    0    0  0.00000000000E+00  0.00000000000E+00  0.73437956479E+03  0.10861325123E+04  0.80023152212E+03 0.  0.
        5    1    3    3  502    0 -0.30116774612E+03  0.24887147799E+03  0.25018445250E+03  0.46395406468E+03  0.46999998093E+01 0. -1.
       -5    1    3    3    0  502  0.30116774612E+03 -0.24887147799E+03  0.48419511229E+03  0.62217844757E+03  0.46999998093E+01 0.  1.
</event>
<event>
 5   0  0.6801147E-04  0.7997428E+03  0.7818609E-02  0.9560389E-01
       -2   -1    0    0    0  501  0.00000000000E+00  0.00000000000E+00  0.14740248506E+03  0.14740248508E+03  0.25500000920E-02 0. -1.
        2   -1    0    0  501    0  0.00000000000E+00  0.00000000000E+00 -0.10847655540E+04  0.10847655540E+04  0.25500000920E-02 0.  1.
    10030    2    1    2    0    0  0.00000000000E+00  0.00000000000E+00 -0.93736306892E+03  0.12321680391E+04  0.79974280460E+03 0.  0.
        4    1    3    3  502    0  0.15158911451E+03 -0.26597283393E+02  0.99938636853E+02  0.18351026990E+03  0.12699999809E+01 0. -1.
       -4    1    3    3    0  502 -0.15158911451E+03  0.26597283393E+02 -0.10373017058E+04  0.10486577692E+04  0.12699999809E+01 0.  1.
</event>
<event>
 5   0  0.4086111E-04  0.8002093E+03  0.7818609E-02  0.9559714E-01
       -1   -1    0    0    0  501  0.00000000000E+00  0.00000000000E+00  0.10976034112E+04  0.10976034112E+04  0.50400001928E-02 0.  1.
        1   -1    0    0  501    0  0.00000000000E+00  0.00000000000E+00 -0.14584843646E+03  0.14584843654E+03  0.50400001928E-02 0. -1.
    10030    2    1    2    0    0  0.00000000000E+00  0.00000000000E+00  0.95175497474E+03  0.12434518477E+04  0.80020932619E+03 0.  0.
        3    1    3    3  502    0  0.10835893794E+03  0.12978406972E+03 -0.87611214855E+02  0.19042399890E+03  0.10100000352E+00 0. -1.
       -3    1    3    3    0  502 -0.10835893794E+03 -0.12978406972E+03  0.10393661896E+04  0.10530278489E+04  0.10100000352E+00 0.  1.
</event>
<event>
 5   0  0.4087283E-04  0.7991832E+03  0.7818609E-02  0.9561200E-01
       -1   -1    0    0    0  501  0.00000000000E+00  0.00000000000E+00  0.26152497171E+03  0.26152497176E+03  0.50400001928E-02 0.  1.
        1   -1    0    0  501    0  0.00000000000E+00  0.00000000000E+00 -0.61054760205E+03  0.61054760207E+03  0.50400001928E-02 0. -1.
    10030    2    1    2    0    0  0.00000000000E+00  0.00000000000E+00 -0.34902263034E+03  0.87207257383E+03  0.79918319397E+03 0.  0.
        1    1    3    3  502    0  0.12460713244E+03 -0.20060107923E+02 -0.58822634470E+03  0.60161414379E+03  0.50400001928E-02 0. -1.
       -1    1    3    3    0  502 -0.12460713244E+03  0.20060107923E+02  0.23920371436E+03  0.27045843003E+03  0.50400001928E-02 0.  1.
</event>
<event>
 5   0  0.6970013E-04  0.7987458E+03  0.7818609E-02  0.9561834E-01
        2   -1    0    0  501    0  0.00000000000E+00  0.00000000000E+00  0.40076294812E+03  0.40076294813E+03  0.25500000920E-02 0. -1.
       -2   -1    0    0    0  501  0.00000000000E+00  0.00000000000E+00 -0.39798764126E+03  0.39798764127E+03  0.25500000920E-02 0.  1.
    10030    2    1    2    0    0  0.00000000000E+00  0.00000000000E+00  0.27753068637E+01  0.79875058939E+03  0.79874576789E+03 0.  0.
        3    1    3    3  502    0 -0.23977761875E+03 -0.30004308214E+03 -0.10806405857E+03  0.39899499815E+03  0.10100000352E+00 0. -1.
       -3    1    3    3    0  502  0.23977761875E+03  0.30004308214E+03  0.11083936544E+03  0.39975559124E+03  0.10100000352E+00 0.  1.
</event>
<event>
 5   0  0.4392552E-04  0.7996532E+03  0.7818609E-02  0.9560519E-01
        1   -1    0    0  501    0  0.00000000000E+00  0.00000000000E+00  0.10140471974E+04  0.10140471974E+04  0.50400001928E-02 0.  1.
       -1   -1    0    0    0  501  0.00000000000E+00  0.00000000000E+00 -0.15764679533E+03  0.15764679541E+03  0.50400001928E-02 0. -1.
    10030    2    1    2    0    0  0.00000000000E+00  0.00000000000E+00  0.85640040203E+03  0.11716939928E+04  0.79965315240E+03 0.  0.
        5    1    3    3  502    0  0.35676672413E+03  0.51064909080E+02  0.68177395337E+03  0.77118605659E+03  0.46999998093E+01 0.  1.
       -5    1    3    3    0  502 -0.35676672413E+03 -0.51064909080E+02  0.17462644866E+03  0.40050793620E+03  0.46999998093E+01 0. -1.
</event>
<event>
 5   0  0.4086111E-04  0.8010336E+03  0.7818609E-02  0.9558522E-01
       -1   -1    0    0    0  501  0.00000000000E+00  0.00000000000E+00  0.82247055951E+03  0.82247055952E+03  0.50400001928E-02 0. -1.
        1   -1    0    0  501    0  0.00000000000E+00  0.00000000000E+00 -0.19503884322E+03  0.19503884329E+03  0.50400001928E-02 0.  1.
    10030    2    1    2    0    0  0.00000000000E+00  0.00000000000E+00  0.62743171628E+03  0.10175094028E+04  0.80103359868E+03 0.  0.
        3    1    3    3  502    0  0.27577540248E+03  0.24434036560E+03  0.51318652280E+03  0.63175525661E+03  0.10100000352E+00 0.  1.
       -3    1    3    3    0  502 -0.27577540248E+03 -0.24434036560E+03  0.11424519348E+03  0.38575414620E+03  0.10100000352E+00 0. -1.
</event>
<event>
 5   0  0.4169155E-04  0.7996754E+03  0.7818609E-02  0.9560487E-01
       -1   -1    0    0    0  501  0.00000000000E+00  0.00000000000E+00  0.13493381600E+04  0.13493381600E+04  0.50400001928E-02 0.  1.
        1   -1    0    0  501    0  0.00000000000E+00  0.00000000000E+00 -0.11848044421E+03  0.11848044432E+03  0.50400001928E-02 0. -1.
    10030    2    1    2    0    0  0.00000000000E+00  0.00000000000E+00  0.12308577158E+04  0.14678186043E+04  0.79967539581E+03 0.  0.
        4    1    3    3  502    0 -0.83951792448E+02  0.30772578625E+03  0.10579581650E+04  0.11049978076E+04  0.12699999809E+01 0.  1.
       -4    1    3    3    0  502  0.83951792448E+02 -0.30772578625E+03  0.17289955079E+03  0.36282079673E+03  0.12699999809E+01 0. -1.
</event>
<event>
 5   0  0.4392552E-04  0.7990662E+03  0.7818609E-02  0.9561370E-01
       -1   -1    0    0    0  501  0.00000000000E+00  0.00000000000E+00  0.65104025760E+03  0.65104025762E+03  0.50400001928E-02 0. -1.
        1   -1    0    0  501    0  0.00000000000E+00  0.00000000000E+00 -0.24518712550E+03  0.24518712555E+03  0.50400001928E-02 0.  1.
    10030    2    1    2    0    0  0.00000000000E+00  0.00000000000E+00  0.40585313210E+03  0.89622738317E+03  0.79906617843E+03 0.  0.
        5    1    3    3  502    0  0.16608669121E+03  0.31354813773E+03 -0.29931501806E+01  0.35486373810E+03  0.46999998093E+01 0.  1.
       -5    1    3    3    0  502 -0.16608669121E+03 -0.31354813773E+03  0.40884628228E+03  0.54136364507E+03  0.46999998093E+01 0. -1.
</event>
<event>
 5   0  0.4169155E-04  0.7994802E+03  0.7818609E-02  0.9560770E-01
       -1   -1    0    0    0  501  0.00000000000E+00  0.00000000000E+00  0.48816090550E+03  0.48816090553E+03  0.50400001928E-02 0. -1.
        1   -1    0    0  501    0  0.00000000000E+00  0.00000000000E+00 -0.32733502104E+03  0.32733502107E+03  0.50400001928E-02 0.  1.
    10030    2    1    2    0    0  0.00000000000E+00  0.00000000000E+00  0.16082588447E+03  0.81549592660E+03  0.79948023190E+03 0.  0.
        4    1    3    3  502    0  0.20049149857E+03  0.81380025443E+02  0.42325772796E+03  0.47536119606E+03  0.12699999809E+01 0. -1.
       -4    1    3    3    0  502 -0.20049149857E+03 -0.81380025443E+02 -0.26243184349E+03  0.34013473054E+03  0.12699999809E+01 0.  1.
</event>
<event>
 5   0  0.6593118E-04  0.8016216E+03  0.7818609E-02  0.9557673E-01
       -2   -1    0    0    0  501  0.00000000000E+00  0.00000000000E+00  0.15889933010E+03  0.15889933012E+03  0.25500000920E-02 0.  1.
        2   -1    0    0  501    0  0.00000000000E+00  0.00000000000E+00 -0.10110130448E+04  0.10110130448E+04  0.25500000920E-02 0. -1.
    10030    2    1    2    0    0  0.00000000000E+00  0.00000000000E+00 -0.85211371468E+03  0.11699123749E+04  0.80162159540E+03 0.  0.
        1    1    3    3  502    0 -0.26485249894E+02 -0.89700594914E+02  0.14275041974E+03  0.17066149991E+03  0.50400001928E-02 0.  1.
       -1    1    3    3    0  502  0.26485249894E+02  0.89700594914E+02 -0.99486413443E+03  0.99925087500E+03  0.50400001928E-02 0. -1.
</event>
<event>
 5   0  0.4169155E-04  0.8000991E+03  0.7818609E-02  0.9559874E-01
        1   -1    0    0  501    0  0.00000000000E+00  0.00000000000E+00  0.63956645830E+03  0.63956645832E+03  0.50400001928E-02 0.  1.
       -1   -1    0    0    0  501  0.00000000000E+00  0.00000000000E+00 -0.25023147209E+03  0.25023147214E+03  0.50400001928E-02 0. -1.
    10030    2    1    2    0    0  0.00000000000E+00  0.00000000000E+00  0.38933498621E+03  0.88979793046E+03  0.80009913483E+03 0.  0.
        4    1    3    3  502    0  0.61878609569E+02  0.26868431394E+03  0.51702166594E+03  0.58594644707E+03  0.12699999809E+01 0.  1.
       -4    1    3    3    0  502 -0.61878609569E+02 -0.26868431394E+03 -0.12768667973E+03  0.30385148339E+03  0.12699999809E+01 0. -1.
</event>
<event>
 5   0  0.6970013E-04  0.7994230E+03  0.7818609E-02  0.9560853E-01
       -2   -1    0    0    0  501  0.00000000000E+00  0.00000000000E+00  0.12402136739E+03  0.12402136742E+03  0.25500000920E-02 0.  1.
        2   -1    0    0  501    0  0.00000000000E+00  0.00000000000E+00 -0.12882399280E+04  0.12882399280E+04  0.25500000920E-02 0. -1.
    10030    2    1    2    0    0  0.00000000000E+00  0.00000000000E+00 -0.11642185606E+04  0.14122612954E+04  0.79942298544E+03 0.  0.
        3    1    3    3  502    0 -0.25142188342E+03 -0.15759055524E+03 -0.10899814458E+03  0.31611446074E+03  0.10100000352E+00 0.  1.
       -3    1    3    3    0  502  0.25142188342E+03  0.15759055524E+03 -0.10552204160E+04  0.10961468347E+04  0.10100000352E+00 0. -1.
</event>
<event>
 5   0  0.6801147E-04  0.8005673E+03  0.7818609E-02  0.9559196E-01
       -2   -1    0    0    0  501  0.00000000000E+00  0.00000000000E+00  0.33743274042E+03  0.33743274043E+03  0.25500000920E-02 0. -1.
        2   -1    0    0  501    0  0.00000000000E+00  0.00000000000E+00 -0.47484134013E+03  0.47484134013E+03  0.25500000920E-02 0.  1.
    10030    2    1    2    0    0  0.00000000000E+00  0.00000000000E+00 -0.13740859970E+03  0.81227408057E+03  0.80056733551E+03 0.  0.
        4    1    3    3  502    0 -0.32518588976E+03 -0.14081479249E+03  0.12016481398E+03  0.37418693738E+03  0.12699999809E+01 0. -1.
       -4    1    3    3    0  502  0.32518588976E+03  0.14081479249E+03 -0.25757341369E+03  0.43808714319E+03  0.12699999809E+01 0.  1.
</event>
<event>
 5   0  0.4169155E-04  0.8039804E+03  0.7818609E-02  0.9554273E-01
        1   -1    0    0  501    0  0.00000000000E+00  0.00000000000E+00  0.38820714611E+03  0.38820714615E+03  0.50400001928E-02 0.  1.
       -1   -1    0    0    0  501  0.00000000000E+00  0.00000000000E+00 -0.41626261173E+03  0.41626261176E+03  0.50400001928E-02 0. -1.
    10030    2    1    2    0    0  0.00000000000E+00  0.00000000000E+00 -0.28055465615E+02  0.80446975790E+03  0.80398039916E+03 0.  0.
        4    1    3    3  502    0  0.17044457686E+03 -0.13443111769E+03 -0.35256993333E+03  0.41404136263E+03  0.12699999809E+01 0. -1.
       -4    1    3    3    0  502 -0.17044457686E+03  0.13443111769E+03  0.32451446771E+03  0.39042839527E+03  0.12699999809E+01 0.  1.
</event>
<event>
 5   0  0.4087283E-04  0.8000626E+03  0.7818609E-02  0.9559927E-01
        1   -1    0    0  501    0  0.00000000000E+00  0.00000000000E+00  0.55853675794E+03  0.55853675796E+03  0.50400001928E-02 0.  1.
       -1   -1    0    0    0  501  0.00000000000E+00  0.00000000000E+00 -0.28650761405E+03  0.28650761410E+03  0.50400001928E-02 0. -1.
    10030    2    1    2    0    0  0.00000000000E+00  0.00000000000E+00  0.27202914388E+03  0.84504437206E+03  0.80006258232E+03 0.  0.
        1    1    3    3  502    0  0.97135261638E+02  0.12954779228E+03 -0.25034813952E+03  0.29814774949E+03  0.50400001928E-02 0. -1.
       -1    1    3    3    0  502 -0.97135261638E+02 -0.12954779228E+03  0.52237728340E+03  0.54689662257E+03  0.50400001928E-02 0.  1.
</event>
<event>
 5   0  0.7133039E-04  0.7999717E+03  0.7818609E-02  0.9560058E-01
        2   -1    0    0  501    0  0.00000000000E+00  0.00000000000E+00  0.10954365351E+04  0.10954365351E+04  0.25500000920E-02 0. -1.
       -2   -1    0    0    0  501  0.00000000000E+00  0.00000000000E+00 -0.14605016722E+03  0.14605016724E+03  0.25500000920E-02 0.  1.
    10030    2    1    2    0    0  0.00000000000E+00  0.00000000000E+00  0.94938636791E+03  0.12414867024E+04  0.79997172237E+03 0.  0.
        2    1    3    3  502    0  0.24169538776E+03 -0.30119294724E+03  0.63638166973E+03  0.74438933463E+03  0.25500000920E-02 0. -1.
       -2    1    3    3    0  502 -0.24169538776E+03  0.30119294724E+03  0.31300469818E+03  0.49709736774E+03  0.25500000920E-02 0.  1.
</event>
<event>
 5   0  0.6970013E-04  0.8000003E+03  0.7818609E-02  0.9560017E-01
        2   -1    0    0  501    0  0.00000000000E+00  0.00000000000E+00  0.60027885872E+03  0.60027885873E+03  0.25500000920E-02 0.  1.
       -2   -1    0    0    0  501  0.00000000000E+00  0.00000000000E+00 -0.26654298586E+03  0.26654298588E+03  0.25500000920E-02 0. -1.
    10030    2    1    2    0    0  0.00000000000E+00  0.00000000000E+00  0.33373587286E+03  0.86682184460E+03  0.80000029841E+03 0.  0.
        3    1    3    3  502    0  0.38714708283E+03  0.94538582730E+02  0.20408360434E+03  0.44773936071E+03  0.10100000352E+00 0. -1.
       -3    1    3    3    0  502 -0.38714708283E+03 -0.94538582730E+02  0.12965226852E+03  0.41908248389E+03  0.10100000352E+00 0.  1.
</event>
<event>
 5   0  0.4169155E-04  0.8003200E+03  0.7818609E-02  0.9559554E-01
       -1   -1    0    0    0  501  0.00000000000E+00  0.00000000000E+00  0.43911121609E+03  0.43911121612E+03  0.50400001928E-02 0. -1.
        1   -1    0    0  501    0  0.00000000000E+00  0.00000000000E+00 -0.36466391508E+03  0.36466391511E+03  0.50400001928E-02 0.  1.
    10030    2    1    2    0    0  0.00000000000E+00  0.00000000000E+00  0.74447301014E+02  0.80377513123E+03  0.80031997411E+03 0.  0.
        4    1    3    3  502    0 -0.27093235624E+02  0.26100600999E+03 -0.26618691735E+03  0.37378505660E+03  0.12699999809E+01 0.  1.
       -4    1    3    3    0  502  0.27093235624E+02 -0.26100600999E+03  0.34063421836E+03  0.42999007464E+03  0.12699999809E+01 0. -1.
</event>
<event>
 5   0  0.4104786E-04  0.8006220E+03  0.7818609E-02  0.9559117E-01
       -1   -1    0    0    0  501  0.00000000000E+00  0.00000000000E+00  0.22181984491E+03  0.22181984496E+03  0.50400001928E-02 0.  1.
        1   -1    0    0  501    0  0.00000000000E+00  0.00000000000E+00 -0.72242816512E+03  0.72242816514E+03  0.50400001928E-02 0. -1.
    10030    2    1    2    0    0  0.00000000000E+00  0.00000000000E+00 -0.50060832022E+03  0.94424801011E+03  0.80062201713E+03 0.  0.
        2    1    3    3  502    0 -0.28622301203E+03  0.10074394437E+03 -0.55824986000E+03  0.63538638728E+03  0.25500000920E-02 0. -1.
       -2    1    3    3    0  502  0.28622301203E+03 -0.10074394437E+03  0.57641539776E+02  0.30886162283E+03  0.25500000920E-02 0.  1.
</event>
<event>
 5   0  0.4087283E-04  0.7998309E+03  0.7818609E-02  0.9560262E-01
       -1   -1    0    0    0  501  0.00000000000E+00  0.00000000000E+00  0.23021407281E+03  0.23021407287E+03  0.50400001928E-02 0.  1.
        1   -1    0    0  501    0  0.00000000000E+00  0.00000000000E+00 -0.69471148972E+03  0.69471148974E+03  0.50400001928E-02 0. -1.
    10030    2    1    2    0    0  0.00000000000E+00  0.00000000000E+00 -0.46449741691E+03  0.92492556261E+03  0.79983088591E+03 0.  0.
        1    1    3    3  502    0 -0.22621206026E+03 -0.15417947255E+03 -0.56937324993E+03  0.63176665291E+03  0.50400001928E-02 0. -1.
       -1    1    3    3    0  502  0.22621206026E+03  0.15417947255E+03  0.10487583302E+03  0.29315890970E+03  0.50400001928E-02 0.  1.
</event>
<event>
 5   0  0.7133039E-04  0.8000675E+03  0.7818609E-02  0.9559919E-01
       -2   -1    0    0    0  501  0.00000000000E+00  0.00000000000E+00  0.19495326145E+03  0.19495326147E+03  0.25500000920E-02 0.  1.
        2   -1    0    0  501    0  0.00000000000E+00  0.00000000000E+00 -0.82084812619E+03  0.82084812619E+03  0.25500000920E-02 0. -1.
    10030    2    1    2    0    0  0.00000000000E+00  0.00000000000E+00 -0.62589486474E+03  0.10158013877E+04  0.80006754557E+03 0.  0.
        2    1    3    3  502    0 -0.39816677209E+03 -0.14603024658E+02 -0.26757664213E+03  0.47994508660E+03  0.25500000920E-02 0.  1.
       -2    1    3    3    0  502  0.39816677209E+03  0.14603024658E+02 -0.35831822261E+03  0.53585630106E+03  0.25500000920E-02 0. -1.
</event>
<event>
 5   0  0.2736375E-04  0.7997317E+03  0.7818609E-02  0.9560406E-01
        3   -1    0    0  501    0  0.00000000000E+00  0.00000000000E+00  0.14333945498E+03  0.14333949057E+03  0.10100000352E+00 0.  1.
       -3   -1    0    0    0  501  0.00000000000E+00  0.00000000000E+00 -0.11154826242E+04  0.11154826288E+04  0.10100000352E+00 0. -1.
    10030    2    1    2    0    0  0.00000000000E+00  0.00000000000E+00 -0.97214316926E+03  0.12588221194E+04  0.79973169671E+03 0.  0.
        3    1    3    3  502    0  0.10040977879E+03 -0.95668505109E+02  0.10426871243E+03  0.17351242359E+03  0.10100000352E+00 0.  1.
       -3    1    3    3    0  502 -0.10040977879E+03  0.95668505109E+02 -0.10764118817E+04  0.10853096958E+04  0.10100000352E+00 0. -1.
</event>
<event>
 5   0  0.4086111E-04  0.8000310E+03  0.7818609E-02  0.9559972E-01
        1   -1    0    0  501    0  0.00000000000E+00  0.00000000000E+00  0.50940969098E+03  0.50940969101E+03  0.50400001928E-02 0.  1.
       -1   -1    0    0    0  501  0.00000000000E+00  0.00000000000E+00 -0.31411337499E+03  0.31411337503E+03  0.50400001928E-02 0. -1.
    10030    2    1    2    0    0  0.00000000000E+00  0.00000000000E+00  0.19529631599E+03  0.82352306604E+03  0.80003099269E+03 0.  0.
        3    1    3    3  502    0 -0.37297484924E+03  0.86834589466E+02 -0.21339828056E+02  0.38354384698E+03  0.10100000352E+00 0. -1.
       -3    1    3    3    0  502  0.37297484924E+03 -0.86834589466E+02  0.21663614405E+03  0.43997921906E+03  0.10100000352E+00 0.  1.
</event>
<event>
 5   0  0.4087283E-04  0.7999520E+03  0.7818609E-02  0.9560087E-01
       -1   -1    0    0    0  501  0.00000000000E+00  0.00000000000E+00  0.32509278167E+03  0.32509278171E+03  0.50400001928E-02 0. -1.
        1   -1    0    0  501    0  0.00000000000E+00  0.00000000000E+00 -0.49210814647E+03  0.49210814650E+03  0.50400001928E-02 0.  1.
    10030    2    1    2    0    0  0.00000000000E+00  0.00000000000E+00 -0.16701536480E+03  0.81720092821E+03  0.79995201418E+03 0.  0.
        1    1    3    3  502    0 -0.36001908432E+03  0.15606948392E+03 -0.43159585200E+01  0.39241566280E+03  0.50400001928E-02 0. -1.
       -1    1    3    3    0  502  0.36001908432E+03 -0.15606948392E+03 -0.16269940628E+03  0.42478526542E+03  0.50400001928E-02 0.  1.
</event>
<event>
 5   0  0.6970013E-04  0.8001682E+03  0.7818609E-02  0.9559774E-01
        2   -1    0    0  501    0  0.00000000000E+00  0.00000000000E+00  0.23045344493E+04  0.23045344493E+04  0.25500000920E-02 0. -1.
       -2   -1    0    0    0  501  0.00000000000E+00  0.00000000000E+00 -0.69457533207E+02  0.69457533254E+02  0.25500000920E-02 0.  1.
    10030    2    1    2    0    0  0.00000000000E+00  0.00000000000E+00  0.22350769161E+04  0.23739919826E+04  0.80016817757E+03 0.  0.
        3    1    3    3  502    0  0.34643542579E+03 -0.55120191063E+02  0.54676143640E+03  0.64961820960E+03  0.10100000352E+00 0.  1.
       -3    1    3    3    0  502 -0.34643542579E+03  0.55120191063E+02  0.16883154797E+04  0.17243737730E+04  0.10100000352E+00 0. -1.
</event>
<event>
 5   0  0.6970013E-04  0.7999201E+03  0.7818609E-02  0.9560133E-01
        2   -1    0    0  501    0  0.00000000000E+00  0.00000000000E+00  0.46084507976E+03  0.46084507976E+03  0.25500000920E-02 0. -1.
       -2   -1    0    0    0  501  0.00000000000E+00  0.00000000000E+00 -0.34711890268E+03  0.34711890269E+03  0.25500000920E-02 0.  1.
    10030    2    1    2    0    0  0.00000000000E+00  0.00000000000E+00  0.11372617708E+03  0.80796398245E+03  0.79992009200E+03 0.  0.
        3    1    3    3  502    0 -0.18691595863E+01  0.39195255773E+03  0.13727347645E+03  0.41530027547E+03  0.10100000352E+00 0. -1.
       -3    1    3    3    0  502  0.18691595863E+01 -0.39195255773E+03 -0.23547299366E+02  0.39266370698E+03  0.10100000352E+00 0.  1.
</event>
<event>
 5   0  0.4087283E-04  0.7995549E+03  0.7818609E-02  0.9560662E-01
       -1   -1    0    0    0  501  0.00000000000E+00  0.00000000000E+00  0.17664785411E+03  0.17664785418E+03  0.50400001928E-02 0.  1.
        1   -1    0    0  501    0  0.00000000000E+00  0.00000000000E+00 -0.90474920179E+03  0.90474920181E+03  0.50400001928E-02 0. -1.
    10030    2    1    2    0    0  0.00000000000E+00  0.00000000000E+00 -0.72810134768E+03  0.10813970560E+04  0.79955488879E+03 0.  0.
        1    1    3    3  502    0  0.16382121478E+02 -0.20331714972E+03 -0.82907385565E+03  0.85379722149E+03  0.50400001928E-02 0. -1.
       -1    1    3    3    0  502 -0.16382121478E+02  0.20331714972E+03  0.10097250796E+03  0.22759983450E+03  0.50400001928E-02 0.  1.
</event>
<event>
 5   0  0.6593118E-04  0.7998600E+03  0.7818609E-02  0.9560220E-01
        2   -1    0    0  501    0  0.00000000000E+00  0.00000000000E+00  0.31701524891E+03  0.31701524892E+03  0.25500000920E-02 0. -1.
       -2   -1    0    0    0  501  0.00000000000E+00  0.00000000000E+00 -0.50453088827E+03  0.50453088827E+03  0.25500000920E-02 0.  1.
    10030    2    1    2    0    0  0.00000000000E+00  0.00000000000E+00 -0.18751563935E+03  0.82154613720E+03  0.79985995058E+03 0.  0.
        1    1    3    3  502    0  0.36245763109E+03  0.73555654856E+02 -0.25006131310E+03  0.44644890977E+03  0.50400001928E-02 0.  1.
       -1    1    3    3    0  502 -0.36245763109E+03 -0.73555654856E+02  0.62545673749E+02  0.37509722743E+03  0.50400001928E-02 0. -1.
</event>
<event>
 5   0  0.4104786E-04  0.7996933E+03  0.7818609E-02  0.9560461E-01
        1   -1    0    0  501    0  0.00000000000E+00  0.00000000000E+00  0.68706720948E+03  0.68706720949E+03  0.50400001928E-02 0.  1.
       -1   -1    0    0    0  501  0.00000000000E+00  0.00000000000E+00 -0.23269536423E+03  0.23269536428E+03  0.50400001928E-02 0. -1.
    10030    2    1    2    0    0  0.00000000000E+00  0.00000000000E+00  0.45437184525E+03  0.91976257377E+03  0.79969332770E+03 0.  0.
        2    1    3    3  502    0  0.26148221688E+03 -0.24627647235E+03  0.25165133957E+02  0.36008101110E+03  0.25500000920E-02 0. -1.
       -2    1    3    3    0  502 -0.26148221688E+03  0.24627647235E+03  0.42920671129E+03  0.55968156268E+03  0.25500000920E-02 0.  1.
</event>
<event>
 5   0  0.4087283E-04  0.7999097E+03  0.7818609E-02  0.9560148E-01
        1   -1    0    0  501    0  0.00000000000E+00  0.00000000000E+00  0.40760384228E+03  0.40760384231E+03  0.50400001928E-02 0. -1.
       -1   -1    0    0    0  501  0.00000000000E+00  0.00000000000E+00 -0.39244936893E+03  0.39244936896E+03  0.50400001928E-02 0.  1.
    10030    2    1    2    0    0  0.00000000000E+00  0.00000000000E+00  0.15154473355E+02  0.80005321127E+03  0.79990967165E+03 0.  0.
        1    1    3    3  502    0  0.31328970564E+03 -0.24817284030E+03 -0.73811266182E+01  0.39974326684E+03  0.50400001928E-02 0. -1.
       -1    1    3    3    0  502 -0.31328970564E+03  0.24817284030E+03  0.22535599973E+02  0.40030994444E+03  0.50400001928E-02 0.  1.
</event>
<event>
 5   0  0.6672462E-04  0.8006430E+03  0.7818609E-02  0.9559087E-01
        2   -1    0    0  501    0  0.00000000000E+00  0.00000000000E+00  0.92482073814E+03  0.92482073814E+03  0.25500000920E-02 0. -1.
       -2   -1    0    0    0  501  0.00000000000E+00  0.00000000000E+00 -0.17328473634E+03  0.17328473636E+03  0.25500000920E-02 0.  1.
    10030    2    1    2    0    0  0.00000000000E+00  0.00000000000E+00  0.75153600180E+03  0.10981054745E+04  0.80064303602E+03 0.  0.
        5    1    3    3  502    0 -0.10256662353E+03  0.16396898786E+03  0.85644843461E+03  0.87802719342E+03  0.46999998093E+01 0. -1.
       -5    1    3    3    0  502  0.10256662353E+03 -0.16396898786E+03 -0.10491243281E+03  0.22007828108E+03  0.46999998093E+01 0.  1.
</event>
<event>
 5   0  0.6593118E-04  0.8002000E+03  0.7818609E-02  0.9559728E-01
       -2   -1    0    0    0  501  0.00000000000E+00  0.00000000000E+00  0.11027094842E+03  0.11027094845E+03  0.25500000920E-02 0.  1.
        2   -1    0    0  501    0  0.00000000000E+00  0.00000000000E+00 -0.14516969479E+04  0.14516969479E+04  0.25500000920E-02 0. -1.
    10030    2    1    2    0    0  0.00000000000E+00  0.00000000000E+00 -0.13414259995E+04  0.15619678964E+04  0.80019997322E+03 0.  0.
        1    1    3    3  502    0  0.37564635445E+03 -0.47517917742E+02 -0.92305294597E+03  0.99769478159E+03  0.50400001928E-02 0.  1.
       -1    1    3    3    0  502 -0.37564635445E+03  0.47517917742E+02 -0.41837305353E+03  0.56427311478E+03  0.50400001928E-02 0. -1.
</event>
<event>
 5   0  0.4104786E-04  0.8002097E+03  0.7818609E-02  0.9559714E-01
       -1   -1    0    0    0  501  0.00000000000E+00  0.00000000000E+00  0.33796714983E+03  0.33796714987E+03  0.50400001928E-02 0. -1.
        1   -1    0    0  501    0  0.00000000000E+00  0.00000000000E+00 -0.47366696134E+03  0.47366696137E+03  0.50400001928E-02 0.  1.
    10030    2    1    2    0    0  0.00000000000E+00  0.00000000000E+00 -0.13569981151E+03  0.81163411124E+03  0.80020965483E+03 0.  0.
        2    1    3    3  502    0 -0.77019935360E+02  0.35737739363E+03  0.97054167556E+02  0.37824619412E+03  0.25500000920E-02 0. -1.
       -2    1    3    3    0  502  0.77019935360E+02 -0.35737739363E+03 -0.23275397906E+03  0.43338791711E+03  0.25500000920E-02 0.  1.
</event>
<event>
 5   0  0.4104786E-04  0.7992457E+03  0.7818609E-02  0.9561109E-01
       -1   -1    0    0    0  501  0.00000000000E+00  0.00000000000E+00  0.28090450390E+03  0.28090450394E+03  0.50400001928E-02 0.  1.
        1   -1    0    0  501    0  0.00000000000E+00  0.00000000000E+00 -0.56851506291E+03  0.56851506293E+03  0.50400001928E-02 0. -1.
    10030    2    1    2    0    0  0.00000000000E+00  0.00000000000E+00 -0.28761055901E+03  0.84941956687E+03  0.79924574877E+03 0.  0.
        2    1    3    3  502    0  0.34268377101E+03  0.31246147070E+01 -0.36227373936E+03  0.49868245644E+03  0.25500000920E-02 0. -1.
       -2    1    3    3    0  502 -0.34268377101E+03 -0.31246147070E+01  0.74663180349E+02  0.35073711043E+03  0.25500000920E-02 0.  1.
</event>
<event>
 5   0  0.7133039E-04  0.7999323E+03  0.7818609E-02  0.9560115E-01
       -2   -1    0    0    0  501  0.00000000000E+00  0.00000000000E+00  0.14805813472E+03  0.14805813474E+03  0.25500000920E-02 0. -1.
        2   -1    0    0  501    0  0.00000000000E+00  0.00000000000E+00 -0.10804736335E+04  0.10804736335E+04  0.25500000920E-02 0.  1.
    10030    2    1    2    0    0  0.00000000000E+00  0.00000000000E+00 -0.93241549875E+03  0.12285317682E+04  0.79993227413E+03 0.  0.
        2    1    3    3  502    0 -0.38275715782E+03 -0.97501161644E+02 -0.36952105589E+03  0.54088384071E+03  0.25500000920E-02 0. -1.
       -2    1    3    3    0  502  0.38275715782E+03  0.97501161644E+02 -0.56289444286E+03  0.68764792750E+03  0.25500000920E-02 0.  1.
</event>
<event>
 5   0  0.2736375E-04  0.7987781E+03  0.7818609E-02  0.9561787E-01
       -3   -1    0    0    0  501  0.00000000000E+00  0.00000000000E+00  0.70198179066E+03  0.70198179793E+03  0.10100000352E+00 0. -1.
        3   -1    0    0  501    0  0.00000000000E+00  0.00000000000E+00 -0.22723039893E+03  0.22723042138E+03  0.10100000352E+00 0.  1.
    10030    2    1    2    0    0  0.00000000000E+00  0.00000000000E+00  0.47475139173E+03  0.92921221931E+03  0.79877810721E+03 0.  0.
        4    1    3    3  502    0 -0.31215102391E+03 -0.14049826256E+03 -0.19685818018E+01  0.34232077314E+03  0.12699999809E+01 0.  1.
       -4    1    3    3    0  502  0.31215102391E+03  0.14049826256E+03  0.47671997354E+03  0.58689144616E+03  0.12699999809E+01 0. -1.
</event>
<event>
 5   0  0.4086111E-04  0.7999766E+03  0.7818609E-02  0.9560051E-01
       -1   -1    0    0    0  501  0.00000000000E+00  0.00000000000E+00  0.17230415668E+03  0.17230415676E+03  0.50400001928E-02 0. -1.
        1   -1    0    0  501    0  0.00000000000E+00  0.00000000000E+00 -0.92853608655E+03  0.92853608657E+03  0.50400001928E-02 0.  1.
    10030    2    1    2    0    0  0.00000000000E+00  0.00000000000E+00 -0.75623192987E+03  0.11008402433E+04  0.79997656814E+03 0.  0.
        3    1    3    3  502    0 -0.18623003302E+03  0.35153878737E+03 -0.43534335242E+03  0.58973298103E+03  0.10100000352E+00 0.  1.
       -3    1    3    3    0  502  0.18623003302E+03 -0.35153878737E+03 -0.32088857745E+03  0.51110726229E+03  0.10100000352E+00 0. -1.
</event>
<event>
 5   0  0.6672462E-04  0.7998605E+03  0.7818609E-02  0.9560219E-01
        2   -1    0    0  501    0  0.00000000000E+00  0.00000000000E+00  0.51394379668E+03  0.51394379668E+03  0.25500000920E-02 0. -1.
       -2   -1    0    0    0  501  0.00000000000E+00  0.00000000000E+00 -0.31120950308E+03  0.31120950309E+03  0.25500000920E-02 0.  1.
    10030    2    1    2    0    0  0.00000000000E+00  0.00000000000E+00  0.20273429360E+03  0.82515329977E+03  0.79986047178E+03 0.  0.
        5    1    3    3  502    0  0.23024252118E+03  0.23303269717E+03  0.33798039958E+03  0.47071084225E+03  0.46999998093E+01 0. -1.
       -5    1    3    3    0  502 -0.23024252118E+03 -0.23303269717E+03 -0.13524610599E+03  0.35444245752E+03  0.46999998093E+01 0.  1.
</event>
<event>
 5   0  0.4086111E-04  0.8003522E+03  0.7818609E-02  0.9559507E-01
       -1   -1    0    0    0  501  0.00000000000E+00  0.00000000000E+00  0.28857252285E+03  0.28857252289E+03  0.50400001928E-02 0.  1.
        1   -1    0    0  501    0  0.00000000000E+00  0.00000000000E+00 -0.55494164777E+03  0.55494164779E+03  0.50400001928E-02 0. -1.
    10030    2    1    2    0    0  0.00000000000E+00  0.00000000000E+00 -0.26636912492E+03  0.84351417068E+03  0.80035220086E+03 0.  0.
        3    1    3    3  502    0  0.95147418047E+02 -0.38867371304E+03 -0.13796976894E+03  0.42326818178E+03  0.10100000352E+00 0. -1.
       -3    1    3    3    0  502 -0.95147418047E+02  0.38867371304E+03 -0.12839935599E+03  0.42024598890E+03  0.10100000352E+00 0.  1.
</event>
<event>
 5   0  0.7133039E-04  0.8003254E+03  0.7818609E-02  0.9559546E-01
       -2   -1    0    0    0  501  0.00000000000E+00  0.00000000000E+00  0.50398002231E+03  0.50398002231E+03  0.25500000920E-02 0. -1.
        2   -1    0    0  501    0  0.00000000000E+00  0.00000000000E+00 -0.31773122692E+03  0.31773122693E+03  0.25500000920E-02 0.  1.
    10030    2    1    2    0    0  0.00000000000E+00  0.00000000000E+00  0.18624879539E+03  0.82171124924E+03  0.80032541091E+03 0.  0.
        2    1    3    3  502    0  0.15703017499E+03  0.15401758825E+03  0.43634786174E+03  0.48865053955E+03  0.25500000920E-02 0. -1.
       -2    1    3    3    0  502 -0.15703017499E+03 -0.15401758825E+03 -0.25009906635E+03  0.33306070970E+03  0.25500000920E-02 0.  1.
</event>
<event>
 5   0  0.7133039E-04  0.7998951E+03  0.7818609E-02  0.9560169E-01
        2   -1    0    0  501    0  0.00000000000E+00  0.00000000000E+00  0.84514773495E+03  0.84514773496E+03  0.25500000920E-02 0.  1.
       -2   -1    0    0    0  501  0.00000000000E+00  0.00000000000E+00 -0.18926636897E+03  0.18926636898E+03  0.25500000920E-02 0. -1.
    10030    2    1    2    0    0  0.00000000000E+00  0.00000000000E+00  0.65588136599E+03  0.10344141039E+04  0.79989510074E+03 0.  0.
        2    1    3    3  502    0  0.20128588285E+03 -0.32774061079E+03  0.18611319034E+03  0.42727980788E+03  0.25500000920E-02 0. -1.
       -2    1    3    3    0  502 -0.20128588285E+03  0.32774061079E+03  0.46976817564E+03  0.60713429606E+03  0.25500000920E-02 0.  1.
</event>
<event>
 5   0  0.4087283E-04  0.7986874E+03  0.7818609E-02  0.9561919E-01
        1   -1    0    0  501    0  0.00000000000E+00  0.00000000000E+00  0.29887208918E+03  0.29887208922E+03  0.50400001928E-02 0.  1.
       -1   -1    0    0    0  501  0.00000000000E+00  0.00000000000E+00 -0.53359074565E+03  0.53359074568E+03  0.50400001928E-02 0. -1.
    10030    2    1    2    0    0  0.00000000000E+00  0.00000000000E+00 -0.23471865648E+03  0.83246283489E+03  0.79868737550E+03 0.  0.
        1    1    3    3  502    0 -0.34479954030E+03 -0.40235302260E+02  0.88396431764E+02  0.35821715720E+03  0.50400001928E-02 0.  1.
       -1    1    3    3    0  502  0.34479954030E+03  0.40235302260E+02 -0.32311508824E+03  0.47424567770E+03  0.50400001928E-02 0. -1.
</event>
<event>
 5   0  0.6970013E-04  0.7997574E+03  0.7818609E-02  0.9560368E-01
       -2   -1    0    0    0  501  0.00000000000E+00  0.00000000000E+00  0.16784848794E+03  0.16784848796E+03  0.25500000920E-02 0.  1.
        2   -1    0    0  501    0  0.00000000000E+00  0.00000000000E+00 -0.95266267905E+03  0.95266267905E+03  0.25500000920E-02 0. -1.
    10030    2    1    2    0    0  0.00000000000E+00  0.00000000000E+00 -0.78481419111E+03  0.11205111670E+04  0.79975743875E+03 0.  0.
        3    1    3    3  502    0 -0.30805914321E+03  0.24424128620E+03 -0.49487399140E+03  0.63202414445E+03  0.10100000352E+00 0.  1.
       -3    1    3    3    0  502  0.30805914321E+03 -0.24424128620E+03 -0.28994019971E+03  0.48848702256E+03  0.10100000352E+00 0. -1.
</event>
<event>
 5   0  0.7133039E-04  0.7995862E+03  0.7818609E-02  0.9560616E-01
        2   -1    0    0  501    0  0.00000000000E+00  0.00000000000E+00  0.96003840150E+03  0.96003840150E+03  0.25500000920E-02 0.  1.
       -2   -1    0    0    0  501  0.00000000000E+00  0.00000000000E+00 -0.16648762143E+03  0.16648762145E+03  0.25500000920E-02 0. -1.
    10030    2    1    2    0    0  0.00000000000E+00  0.00000000000E+00  0.79355078007E+03  0.11265260230E+04  0.79958616787E+03 0.  0.
        2    1    3    3  502    0  0.80041142240E+02  0.17410276156E+03  0.89112418041E+03  0.91149364284E+03  0.25500000920E-02 0.  1.
       -2    1    3    3    0  502 -0.80041142240E+02 -0.17410276156E+03 -0.97573400341E+02  0.21503238011E+03  0.25500000920E-02 0. -1.
</event>
<event>
 5   0  0.4086111E-04  0.8001711E+03  0.7818609E-02  0.9559770E-01
       -1   -1    0    0    0  501  0.00000000000E+00  0.00000000000E+00  0.22340026372E+03  0.22340026378E+03  0.50400001928E-02 0. -1.
        1   -1    0    0  501    0  0.00000000000E+00  0.00000000000E+00 -0.71650959493E+03  0.71650959495E+03  0.50400001928E-02 0.  1.
    10030    2    1    2    0    0  0.00000000000E+00  0.00000000000E+00 -0.49310933121E+03  0.93990985873E+03  0.80017106296E+03 0.  0.
        3    1    3    3  502    0 -0.34010356458E+03 -0.11871150105E+03 -0.42068198636E+02  0.36267423214E+03  0.10100000352E+00 0. -1.
       -3    1    3    3    0  502  0.34010356458E+03  0.11871150105E+03 -0.45104113258E+03  0.57723562659E+03  0.10100000352E+00 0.  1.
</event>
<event>
 5   0  0.4086111E-04  0.8000197E+03  0.7818609E-02  0.9559989E-01
        1   -1    0    0  501    0  0.00000000000E+00  0.00000000000E+00  0.41503333920E+03  0.41503333923E+03  0.50400001928E-02 0.  1.
       -1   -1    0    0    0  501  0.00000000000E+00  0.00000000000E+00 -0.38553015065E+03  0.38553015069E+03  0.50400001928E-02 0. -1.
    10030    2    1    2    0    0  0.00000000000E+00  0.00000000000E+00  0.29503188550E+02  0.80056348992E+03  0.80001966430E+03 0.  0.
        3    1    3    3  502    0  0.17348674719E+02  0.23349801205E+03  0.33929528789E+03  0.41224216272E+03  0.10100000352E+00 0.  1.
       -3    1    3    3    0  502 -0.17348674719E+02 -0.23349801205E+03 -0.30979209934E+03  0.38832132720E+03  0.10100000352E+00 0. -1.
</event>
<event>
 5   0  0.4169155E-04  0.8028276E+03  0.7818609E-02  0.9555933E-01
       -1   -1    0    0    0  501  0.00000000000E+00  0.00000000000E+00  0.14250626031E+03  0.14250626040E+03  0.50400001928E-02 0.  1.
        1   -1    0    0  501    0  0.00000000000E+00  0.00000000000E+00 -0.11307086132E+04  0.11307086132E+04  0.50400001928E-02 0. -1.
    10030    2    1    2    0    0  0.00000000000E+00  0.00000000000E+00 -0.98820235293E+03  0.12732148736E+04  0.80282764285E+03 0.  0.
        4    1    3    3  502    0  0.24896611366E+03  0.84854251806E+01  0.50845014063E+01  0.24916579470E+03  0.12699999809E+01 0.  1.
       -4    1    3    3    0  502 -0.24896611366E+03 -0.84854251806E+01 -0.99328685433E+03  0.10240490789E+04  0.12699999809E+01 0. -1.
</event>
<event>
 5   0  0.6970013E-04  0.8000399E+03  0.7818609E-02  0.9559959E-01
       -2   -1    0    0    0  501  0.00000000000E+00  0.00000000000E+00  0.18260706824E+03  0.18260706826E+03  0.25500000920E-02 0.  1.
        2   -1    0    0  501    0  0.00000000000E+00  0.00000000000E+00 -0.87628577720E+03  0.87628577720E+03  0.25500000920E-02 0. -1.
    10030    2    1    2    0    0  0.00000000000E+00  0.00000000000E+00 -0.69367870895E+03  0.10588928455E+04  0.80003994082E+03 0.  0.
        3    1    3    3  502    0  0.59675704391E+02  0.30347430179E+03 -0.11069241873E+02  0.30948405429E+03  0.10100000352E+00 0.  1.
       -3    1    3    3    0  502 -0.59675704391E+02 -0.30347430179E+03 -0.68260946708E+03  0.74940879117E+03  0.10100000352E+00 0. -1.
</event>
<event>
 5   0  0.7133039E-04  0.7995880E+03  0.7818609E-02  0.9560614E-01
       -2   -1    0    0    0  501  0.00000000000E+00  0.00000000000E+00  0.17616220208E+03  0.17616220210E+03  0.25500000920E-02 0.  1.
        2   -1    0    0  501    0  0.00000000000E+00  0.00000000000E+00 -0.90731852365E+03  0.90731852365E+03  0.25500000920E-02 0. -1.
    10030    2    1    2    0    0  0.00000000000E+00  0.00000000000E+00 -0.73115632157E+03  0.10834807258E+04  0.79958796672E+03 0.  0.
        2    1    3    3  502    0 -0.18303597726E+03 -0.12246480979E+03 -0.81771681441E+03  0.84685334455E+03  0.25500000920E-02 0. -1.
       -2    1    3    3    0  502  0.18303597726E+03  0.12246480979E+03  0.86560492843E+02  0.23662738120E+03  0.25500000920E-02 0.  1.
</event>
<event>
 5   0  0.6801147E-04  0.7993388E+03  0.7818609E-02  0.9560975E-01
       -2   -1    0    0    0  501  0.00000000000E+00  0.00000000000E+00  0.46877633916E+03  0.46877633917E+03  0.25500000920E-02 0.  1.
        2   -1    0    0  501    0  0.00000000000E+00  0.00000000000E+00 -0.34075022661E+03  0.34075022662E+03  0.25500000920E-02 0. -1.
    10030    2    1    2    0    0  0.00000000000E+00  0.00000000000E+00  0.12802611255E+03  0.80952656579E+03  0.79933883631E+03 0.  0.
        4    1    3    3  502    0 -0.17447062361E+03  0.10557309216E+03  0.41212107732E+03  0.45981634547E+03  0.12699999809E+01 0.  1.
       -4    1    3    3    0  502  0.17447062361E+03 -0.10557309216E+03 -0.28409496476E+03  0.34971022032E+03  0.12699999809E+01 0. -1.
</event>
<event>
 5   0  0.4104786E-04  0.8005172E+03  0.7818609E-02  0.9559269E-01
       -1   -1    0    0    0  501  0.00000000000E+00  0.00000000000E+00  0.32867001490E+03  0.32867001494E+03  0.50400001928E-02 0.  1.
        1   -1    0    0  501    0  0.00000000000E+00  0.00000000000E+00 -0.48744015811E+03  0.48744015813E+03  0.50400001928E-02 0. -1.
    10030    2    1    2    0    0  0.00000000000E+00  0.00000000000E+00 -0.15877014321E+03  0.81611017308E+03  0.80051724293E+03 0.  0.
        2    1    3    3  502    0  0.33804243366E+03  0.17377459386E+03  0.48504309781E+02  0.38317484847E+03  0.25500000920E-02 0.  1.
       -2    1    3    3    0  502 -0.33804243366E+03 -0.17377459386E+03 -0.20727445299E+03  0.43293532461E+03  0.25500000920E-02 0. -1.
</event>
<event>
 5   0  0.4392552E-04  0.7999863E+03  0.7818609E-02  0.9560037E-01
        1   -1    0    0  501    0  0.00000000000E+00  0.00000000000E+00  0.89333174154E+03  0.89333174156E+03  0.50400001928E-02 0.  1.
       -1   -1    0    0    0  501  0.00000000000E+00  0.00000000000E+00 -0.17909868129E+03  0.17909868136E+03  0.50400001928E-02 0. -1.
    10030    2    1    2    0    0  0.00000000000E+00  0.00000000000E+00  0.71423306025E+03  0.10724304229E+04  0.79998634216E+03 0.  0.
        5    1    3    3  502    0  0.19898895125E+03 -0.26386979031E+03  0.65911065336E+03  0.73734172019E+03  0.46999998093E+01 0.  1.
       -5    1    3    3    0  502 -0.19898895125E+03  0.26386979031E+03  0.55122406890E+02  0.33508870273E+03  0.46999998093E+01 0. -1.
</event>
<event>
 5   0  0.6593118E-04  0.7998327E+03  0.7818609E-02  0.9560259E-01
        2   -1    0    0  501    0  0.00000000000E+00  0.00000000000E+00  0.22859086662E+04  0.22859086662E+04  0.25500000920E-02 0. -1.
       -2   -1    0    0    0  501  0.00000000000E+00  0.00000000000E+00 -0.69964767450E+02  0.69964767496E+02  0.25500000920E-02 0.  1.
    10030    2    1    2    0    0  0.00000000000E+00  0.00000000000E+00  0.22159438987E+04  0.23558734337E+04  0.79983265324E+03 0.  0.
        1    1    3    3  502    0 -0.31776678638E+03  0.15625758759E+03  0.16553907071E+04  0.16928409723E+04  0.50400001928E-02 0. -1.
       -1    1    3    3    0  502  0.31776678638E+03 -0.15625758759E+03  0.56055319158E+03  0.66303246136E+03  0.50400001928E-02 0.  1.
</event>
<event>
 5   0  0.7133039E-04  0.8009698E+03  0.7818609E-02  0.9558614E-01
       -2   -1    0    0    0  501  0.00000000000E+00  0.00000000000E+00  0.17501124230E+03  0.17501124232E+03  0.25500000920E-02 0.  1.
        2   -1    0    0  501    0  0.00000000000E+00  0.00000000000E+00 -0.91644483214E+03  0.91644483214E+03  0.25500000920E-02 0. -1.
    10030    2    1    2    0    0  0.00000000000E+00  0.00000000000E+00 -0.74143358984E+03  0.10914560745E+04  0.80096978366E+03 0.  0.
        2    1    3    3  502    0  0.32765294136E+03  0.45981132159E+02 -0.67820140545E+03  0.75460443999E+03  0.25500000920E-02 0. -1.
       -2    1    3    3    0  502 -0.32765294136E+03 -0.45981132159E+02 -0.63232184388E+02  0.33685163447E+03  0.25500000920E-02 0.  1.
</event>
<event>
 5   0  0.4087283E-04  0.8005019E+03  0.7818609E-02  0.9559291E-01
       -1   -1    0    0    0  501  0.00000000000E+00  0.00000000000E+00  0.78451481868E+03  0.78451481869E+03  0.50400001928E-02 0. -1.
        1   -1    0    0  501    0  0.00000000000E+00  0.00000000000E+00 -0.20420367966E+03  0.20420367972E+03  0.50400001928E-02 0.  1.
    10030    2    1    2    0    0  0.00000000000E+00  0.00000000000E+00  0.58031113902E+03  0.98871849842E+03  0.80050187448E+03 0.  0.
        1    1    3    3  502    0  0.19433006596E+03  0.14402462255E+03 -0.10371814856E+03  0.26318191580E+03  0.50400001928E-02 0.  1.
       -1    1    3    3    0  502 -0.19433006596E+03 -0.14402462255E+03  0.68402928757E+03  0.72553658262E+03  0.50400001928E-02 0. -1.
</event>
<event>
 5   0  0.4086111E-04  0.7999280E+03  0.7818609E-02  0.9560121E-01
        1   -1    0    0  501    0  0.00000000000E+00  0.00000000000E+00  0.57784804750E+03  0.57784804753E+03  0.50400001928E-02 0. -1.
       -1   -1    0    0    0  501  0.00000000000E+00  0.00000000000E+00 -0.27683956711E+03  0.27683956715E+03  0.50400001928E-02 0.  1.
    10030    2    1    2    0    0  0.00000000000E+00  0.00000000000E+00  0.30100848040E+03  0.85468761468E+03  0.79992800515E+03 0.  0.
        3    1    3    3  502    0 -0.29781729455E+03  0.86043745880E+02 -0.11952671646E+03  0.33224285288E+03  0.10100000352E+00 0.  1.
       -3    1    3    3    0  502  0.29781729455E+03 -0.86043745880E+02  0.42053519686E+03  0.52244476180E+03  0.10100000352E+00 0. -1.
</event>
<event>
 5   0  0.4169155E-04  0.7987596E+03  0.7818609E-02  0.9561814E-01
       -1   -1    0    0    0  501  0.00000000000E+00  0.00000000000E+00  0.16639737816E+03  0.16639737824E+03  0.50400001928E-02 0.  1.
        1   -1    0    0  501    0  0.00000000000E+00  0.00000000000E+00 -0.95857415638E+03  0.95857415639E+03  0.50400001928E-02 0. -1.
    10030    2    1    2    0    0  0.00000000000E+00  0.00000000000E+00 -0.79217677822E+03  0.11249715346E+04  0.79875960450E+03 0.  0.
        4    1    3    3  502    0  0.28023059424E+03  0.27719427764E+03 -0.48667324657E+03  0.62627335512E+03  0.12699999809E+01 0. -1.
       -4    1    3    3    0  502 -0.28023059424E+03 -0.27719427764E+03 -0.30550353164E+03  0.49869817951E+03  0.12699999809E+01 0.  1.
</event>
<event>
 5   0  0.2736375E-04  0.8001307E+03  0.7818609E-02  0.9559828E-01
        3   -1    0    0  501    0  0.00000000000E+00  0.00000000000E+00  0.65552106773E+03  0.65552107551E+03  0.10100000352E+00 0.  1.
       -3   -1    0    0    0  501  0.00000000000E+00  0.00000000000E+00 -0.24416037837E+03  0.24416039926E+03  0.10100000352E+00 0. -1.
    10030    2    1    2    0    0  0.00000000000E+00  0.00000000000E+00  0.41136068936E+03  0.89968147477E+03  0.80013070139E+03 0.  0.
        4    1    3    3  502    0 -0.24105782644E+03 -0.30903160512E+03  0.11543737704E+03  0.40857901263E+03  0.12699999809E+01 0.  1.
       -4    1    3    3    0  502  0.24105782644E+03  0.30903160512E+03  0.29592331232E+03  0.49110246214E+03  0.12699999809E+01 0. -1.
</event>
<event>
 5   0  0.4087283E-04  0.8003179E+03  0.7818609E-02  0.9559557E-01
        1   -1    0    0  501    0  0.00000000000E+00  0.00000000000E+00  0.72211573855E+03  0.72211573857E+03  0.50400001928E-02 0. -1.
       -1   -1    0    0    0  501  0.00000000000E+00  0.00000000000E+00 -0.22174724608E+03  0.22174724614E+03  0.50400001928E-02 0.  1.
    10030    2    1    2    0    0  0.00000000000E+00  0.00000000000E+00  0.50036849246E+03  0.94386298471E+03  0.80031787788E+03 0.  0.
        1    1    3    3  502    0  0.14935058000E+03 -0.50093902576E+02 -0.18364106228E+03  0.24194841310E+03  0.50400001928E-02 0.  1.
       -1    1    3    3    0  502 -0.14935058000E+03  0.50093902576E+02  0.68400955475E+03  0.70191457161E+03  0.50400001928E-02 0. -1.
</event>
<event>
 5   0  0.6970013E-04  0.7995311E+03  0.7818609E-02  0.9560696E-01
       -2   -1    0    0    0  501  0.00000000000E+00  0.00000000000E+00  0.36244566792E+03  0.36244566793E+03  0.25500000920E-02 0. -1.
        2   -1    0    0  501    0  0.00000000000E+00  0.00000000000E+00 -0.44092809738E+03  0.44092809738E+03  0.25500000920E-02 0.  1.
    10030    2    1    2    0    0  0.00000000000E+00  0.00000000000E+00 -0.78482429456E+02  0.80337376531E+03  0.79953105947E+03 0.  0.
        3    1    3    3  502    0 -0.25941001396E+03  0.13635054103E+03  0.23396158718E+03  0.37499741313E+03  0.10100000352E+00 0. -1.
       -3    1    3    3    0  502  0.25941001396E+03 -0.13635054103E+03 -0.31244401663E+03  0.42837635218E+03  0.10100000352E+00 0.  1.
</event>
<event>
 5   0  0.4104786E-04  0.8001622E+03  0.7818609E-02  0.9559782E-01
       -1   -1    0    0    0  501  0.00000000000E+00  0.00000000000E+00  0.15096303586E+03  0.15096303594E+03  0.50400001928E-02 0.  1.
        1   -1    0    0  501    0  0.00000000000E+00  0.00000000000E+00 -0.10602918506E+04  0.10602918506E+04  0.50400001928E-02 0. -1.
    10030    2    1    2    0    0  0.00000000000E+00  0.00000000000E+00 -0.90932881477E+03  0.12112548866E+04  0.80016217537E+03 0.  0.
        2    1    3    3  502    0  0.26997032143E+03 -0.29418963894E+03 -0.49276066925E+03  0.63422755796E+03  0.25500000920E-02 0. -1.
       -2    1    3    3    0  502 -0.26997032143E+03  0.29418963894E+03 -0.41656814552E+03  0.57702732863E+03  0.25500000920E-02 0.  1.
</event>
<event>
 5   0  0.6593118E-04  0.7998379E+03  0.7818609E-02  0.9560252E-01
        2   -1    0    0  501    0  0.00000000000E+00  0.00000000000E+00  0.15314360373E+04  0.15314360373E+04  0.25500000920E-02 0. -1.
       -2   -1    0    0    0  501  0.00000000000E+00  0.00000000000E+00 -0.10443477869E+03  0.10443477872E+03  0.25500000920E-02 0.  1.
    10030    2    1    2    0    0  0.00000000000E+00  0.00000000000E+00  0.14270012586E+04  0.16358708160E+04  0.79983794272E+03 0.  0.
        1    1    3    3  502    0  0.38423010262E+03 -0.94491200985E+02  0.83229839320E+03  0.92156495928E+03  0.50400001928E-02 0. -1.
       -1    1    3    3    0  502 -0.38423010262E+03  0.94491200985E+02  0.59470286541E+03  0.71430585674E+03  0.50400001928E-02 0.  1.
</event>
<event>
 5   0  0.4104786E-04  0.8006818E+03  0.7818609E-02  0.9559031E-01
       -1   -1    0    0    0  501  0.00000000000E+00  0.00000000000E+00  0.18379679281E+03  0.18379679287E+03  0.50400001928E-02 0.  1.
        1   -1    0    0  501    0  0.00000000000E+00  0.00000000000E+00 -0.87201099814E+03  0.87201099815E+03  0.50400001928E-02 0. -1.
    10030    2    1    2    0    0  0.00000000000E+00  0.00000000000E+00 -0.68821420533E+03  0.10558077910E+04  0.80068177147E+03 0.  0.
        2    1    3    3  502    0 -0.36716823602E+03  0.13111777883E+03 -0.46401193685E+03  0.60606226002E+03  0.25500000920E-02 0. -1.
       -2    1    3    3    0  502  0.36716823602E+03 -0.13111777883E+03 -0.22420226848E+03  0.44974553101E+03  0.25500000920E-02 0.  1.
</event>
<event>
 5   0  0.4086111E-04  0.8001523E+03  0.7818609E-02  0.9559797E-01
        1   -1    0    0  501    0  0.00000000000E+00  0.00000000000E+00  0.16108664619E+04  0.16108664619E+04  0.50400001928E-02 0.  1.
       -1   -1    0    0    0  501  0.00000000000E+00  0.00000000000E+00 -0.99363242702E+02  0.99363242829E+02  0.50400001928E-02 0. -1.
    10030    2    1    2    0    0  0.00000000000E+00  0.00000000000E+00  0.15115032191E+04  0.17102297047E+04  0.80015227382E+03 0.  0.
        3    1    3    3  502    0  0.15629427432E+03  0.12896599601E+03  0.18430445939E+02  0.20346945680E+03  0.10100000352E+00 0. -1.
       -3    1    3    3    0  502 -0.15629427432E+03 -0.12896599601E+03  0.14930727732E+04  0.15067602479E+04  0.10100000352E+00 0.  1.
</event>
<event>
 5   0  0.6801147E-04  0.7997820E+03  0.7818609E-02  0.9560333E-01
       -2   -1    0    0    0  501  0.00000000000E+00  0.00000000000E+00  0.17576779983E+03  0.17576779985E+03  0.25500000920E-02 0.  1.
        2   -1    0    0  501    0  0.00000000000E+00  0.00000000000E+00 -0.90979573871E+03  0.90979573871E+03  0.25500000920E-02 0. -1.
    10030    2    1    2    0    0  0.00000000000E+00  0.00000000000E+00 -0.73402793888E+03  0.10855635386E+04  0.79978195854E+03 0.  0.
        4    1    3    3  502    0  0.30971672424E+03 -0.18314000310E+03 -0.60385237877E+03  0.70292532907E+03  0.12699999809E+01 0. -1.
       -4    1    3    3    0  502 -0.30971672424E+03  0.18314000310E+03 -0.13017556011E+03  0.38263820949E+03  0.12699999809E+01 0.  1.
</event>
<event>
 5   0  0.4169155E-04  0.7997922E+03  0.7818609E-02  0.9560318E-01
       -1   -1    0    0    0  501  0.00000000000E+00  0.00000000000E+00  0.12741582631E+03  0.12741582641E+03  0.50400001928E-02 0.  1.
        1   -1    0    0  501    0  0.00000000000E+00  0.00000000000E+00 -0.12550786544E+04  0.12550786544E+04  0.50400001928E-02 0. -1.
    10030    2    1    2    0    0  0.00000000000E+00  0.00000000000E+00 -0.11276628281E+04  0.13824944808E+04  0.79979218278E+03 0.  0.
        4    1    3    3  502    0 -0.35417459345E+03  0.55976293753E+02 -0.86985264966E+03  0.94086036856E+03  0.12699999809E+01 0. -1.
       -4    1    3    3    0  502  0.35417459345E+03 -0.55976293753E+02 -0.25781017841E+03  0.44163411224E+03  0.12699999809E+01 0.  1.
</event>
<event>
 5   0  0.7133039E-04  0.8002040E+03  0.7818609E-02  0.9559722E-01
        2   -1    0    0  501    0  0.00000000000E+00  0.00000000000E+00  0.24535810840E+04  0.24535810840E+04  0.25500000920E-02 0. -1.
       -2   -1    0    0    0  501  0.00000000000E+00  0.00000000000E+00 -0.65244059852E+02  0.65244059902E+02  0.25500000920E-02 0.  1.
    10030    2    1    2    0    0  0.00000000000E+00  0.00000000000E+00  0.23883370241E+04  0.25188251439E+04  0.80020395190E+03 0.  0.
        2    1    3    3  502    0  0.17452323348E+03 -0.14469103824E+03  0.15643080272E+03  0.27543502249E+03  0.25500000920E-02 0.  1.
       -2    1    3    3    0  502 -0.17452323348E+03  0.14469103824E+03  0.22319062214E+04  0.22433901214E+04  0.25500000920E-02 0. -1.
</event>
<event>
 5   0  0.4086111E-04  0.7999239E+03  0.7818609E-02  0.9560127E-01
        1   -1    0    0  501    0  0.00000000000E+00  0.00000000000E+00  0.10979865076E+04  0.10979865076E+04  0.50400001928E-02 0.  1.
       -1   -1    0    0    0  501  0.00000000000E+00  0.00000000000E+00 -0.14569354533E+03  0.14569354541E+03  0.50400001928E-02 0. -1.
    10030    2    1    2    0    0  0.00000000000E+00  0.00000000000E+00  0.95229296225E+03  0.12436800530E+04  0.79992386406E+03 0.  0.
        3    1    3    3  502    0 -0.34054444149E+03  0.17054584557E+02  0.15110313165E+03  0.37295246625E+03  0.10100000352E+00 0. -1.
       -3    1    3    3    0  502  0.34054444149E+03 -0.17054584557E+02  0.80118983060E+03  0.87072758676E+03  0.10100000352E+00 0.  1.
</event>
<event>
 5   0  0.6970013E-04  0.7997857E+03  0.7818609E-02  0.9560327E-01
       -2   -1    0    0    0  501  0.00000000000E+00  0.00000000000E+00  0.32316607378E+03  0.32316607379E+03  0.25500000920E-02 0.  1.
        2   -1    0    0  501    0  0.00000000000E+00  0.00000000000E+00 -0.49483629030E+03  0.49483629031E+03  0.25500000920E-02 0. -1.
    10030    2    1    2    0    0  0.00000000000E+00  0.00000000000E+00 -0.17167021652E+03  0.81800236410E+03  0.79978572407E+03 0.  0.
        3    1    3    3  502    0 -0.29718260086E+03 -0.65710820021E+02  0.17945453153E+03  0.35332612302E+03  0.10100000352E+00 0.  1.
       -3    1    3    3    0  502  0.29718260086E+03  0.65710820021E+02 -0.35112474805E+03  0.46467624107E+03  0.10100000352E+00 0. -1.
</event>
<event>
 5   0  0.4104786E-04  0.8001780E+03  0.7818609E-02  0.9559760E-01
        1   -1    0    0  501    0  0.00000000000E+00  0.00000000000E+00  0.19084171945E+04  0.19084171945E+04  0.50400001928E-02 0.  1.
       -1   -1    0    0    0  501  0.00000000000E+00  0.00000000000E+00 -0.83876419349E+02  0.83876419500E+02  0.50400001928E-02 0. -1.
    10030    2    1    2    0    0  0.00000000000E+00  0.00000000000E+00  0.18245407751E+04  0.19922936140E+04  0.80017798283E+03 0.  0.
        2    1    3    3  502    0 -0.44233926933E+02  0.25130531954E+03  0.14501923556E+03  0.29349886305E+03  0.25500000920E-02 0. -1.
       -2    1    3    3    0  502  0.44233926933E+02 -0.25130531954E+03  0.16795215396E+04  0.16987947509E+04  0.25500000920E-02 0.  1.
</event>
<event>
 5   0  0.7133039E-04  0.8000668E+03  0.7818609E-02  0.9559920E-01
        2   -1    0    0  501    0  0.00000000000E+00  0.00000000000E+00  0.68543386987E+03  0.68543386987E+03  0.25500000920E-02 0. -1.
       -2   -1    0    0    0  501  0.00000000000E+00  0.00000000000E+00 -0.23346777964E+03  0.23346777965E+03  0.25500000920E-02 0.  1.
    10030    2    1    2    0    0  0.00000000000E+00  0.00000000000E+00  0.45196609023E+03  0.91890164952E+03  0.80006680645E+03 0.  0.
        2    1    3    3  502    0 -0.59761090988E+02 -0.15828839019E+03 -0.19034978766E+03  0.25467556643E+03  0.25500000920E-02 0.  1.
       -2    1    3    3    0  502  0.59761090988E+02  0.15828839019E+03  0.64231587789E+03  0.66422608309E+03  0.25500000920E-02 0. -1.
</event>
<event>
 5   0  0.6593118E-04  0.8002430E+03  0.7818609E-02  0.9559665E-01
        2   -1    0    0  501    0  0.00000000000E+00  0.00000000000E+00  0.10914503784E+04  0.10914503784E+04  0.25500000920E-02 0. -1.
       -2   -1    0    0    0  501  0.00000000000E+00  0.00000000000E+00 -0.14668299899E+03  0.14668299902E+03  0.25500000920E-02 0.  1.
    10030    2    1    2    0    0  0.00000000000E+00  0.00000000000E+00  0.94476737943E+03  0.12381333774E+04  0.80024300003E+03 0.  0.
        1    1    3    3  502    0  0.21821498512E+03  0.18206310246E+03  0.36599958570E+02  0.28653849655E+03  0.50400001928E-02 0.  1.
       -1    1    3    3    0  502 -0.21821498512E+03 -0.18206310246E+03  0.90816742086E+03  0.95159488089E+03  0.50400001928E-02 0. -1.
</event>
<event>
 5   0  0.4087283E-04  0.8002668E+03  0.7818609E-02  0.9559631E-01
       -1   -1    0    0    0  501  0.00000000000E+00  0.00000000000E+00  0.13464279008E+03  0.13464279018E+03  0.50400001928E-02 0.  1.
        1   -1    0    0  501    0  0.00000000000E+00  0.00000000000E+00 -0.11891222284E+04  0.11891222285E+04  0.50400001928E-02 0. -1.
    10030    2    1    2    0    0  0.00000000000E+00  0.00000000000E+00 -0.10544794384E+04  0.13237650186E+04  0.80026679215E+03 0.  0.
        1    1    3    3  502    0 -0.32234293909E+03 -0.14107278002E+03 -0.84239952397E+03  0.91293124476E+03  0.50400001928E-02 0. -1.
       -1    1    3    3    0  502  0.32234293909E+03  0.14107278002E+03 -0.21207991439E+03  0.41083377387E+03  0.50400001928E-02 0.  1.
</event>
<event>
 5   0  0.4104786E-04  0.8004426E+03  0.7818609E-02  0.9559377E-01
       -1   -1    0    0    0  501  0.00000000000E+00  0.00000000000E+00  0.58416114184E+03  0.58416114187E+03  0.50400001928E-02 0.  1.
        1   -1    0    0  501    0  0.00000000000E+00  0.00000000000E+00 -0.27420017470E+03  0.27420017475E+03  0.50400001928E-02 0. -1.
    10030    2    1    2    0    0  0.00000000000E+00  0.00000000000E+00  0.30996096714E+03  0.85836131661E+03  0.80044259551E+03 0.  0.
        2    1    3    3  502    0  0.43533357690E+02 -0.35234806589E+03  0.35309930731E+03  0.50072291100E+03  0.25500000920E-02 0.  1.
       -2    1    3    3    0  502 -0.43533357690E+02  0.35234806589E+03 -0.43138340167E+02  0.35763840561E+03  0.25500000920E-02 0. -1.
</event>
<event>
 5   0  0.7133039E-04  0.7999720E+03  0.7818609E-02  0.9560058E-01
        2   -1    0    0  501    0  0.00000000000E+00  0.00000000000E+00  0.10557624101E+04  0.10557624101E+04  0.25500000920E-02 0. -1.
       -2   -1    0    0    0  501  0.00000000000E+00  0.00000000000E+00 -0.15153863370E+03  0.15153863372E+03  0.25500000920E-02 0.  1.
    10030    2    1    2    0    0  0.00000000000E+00  0.00000000000E+00  0.90422377639E+03  0.12073010438E+04  0.79997198240E+03 0.  0.
        2    1    3    3  502    0 -0.83365324262E+01  0.14454135681E+03 -0.11060573675E+03  0.18219585783E+03  0.25500000920E-02 0.  1.
       -2    1    3    3    0  502  0.83365324262E+01 -0.14454135681E+03  0.10148295131E+04  0.10251051860E+04  0.25500000920E-02 0. -1.
</event>
<event>
 5   0  0.6801147E-04  0.7999358E+03  0.7818609E-02  0.9560110E-01
       -2   -1    0    0    0  501  0.00000000000E+00  0.00000000000E+00  0.58959230733E+02  0.58959230788E+02  0.25500000920E-02 0.  1.
        2   -1    0    0  501    0  0.00000000000E+00  0.00000000000E+00 -0.27133040251E+04  0.27133040251E+04  0.25500000920E-02 0. -1.
    10030    2    1    2    0    0  0.00000000000E+00  0.00000000000E+00 -0.26543447944E+04  0.27722632559E+04  0.79993579278E+03 0.  0.
        4    1    3    3  502    0  0.35384045830E+03  0.84183188795E+02 -0.75055923585E+03  0.83404475817E+03  0.12699999809E+01 0.  1.
       -4    1    3    3    0  502 -0.35384045830E+03 -0.84183188795E+02 -0.19037855585E+04  0.19382184977E+04  0.12699999809E+01 0. -1.
</event>
<event>
 5   0  0.6970013E-04  0.7967265E+03  0.7818609E-02  0.9564768E-01
       -2   -1    0    0    0  501  0.00000000000E+00  0.00000000000E+00  0.29255461310E+03  0.29255461311E+03  0.25500000920E-02 0.  1.
        2   -1    0    0  501    0  0.00000000000E+00  0.00000000000E+00 -0.54243980935E+03  0.54243980936E+03  0.25500000920E-02 0. -1.
    10030    2    1    2    0    0  0.00000000000E+00  0.00000000000E+00 -0.24988519626E+03  0.83499442247E+03  0.79672647392E+03 0.  0.
        3    1    3    3  502    0  0.95417329414E+02  0.34328966049E+03 -0.31165993005E+03  0.47337530560E+03  0.10100000352E+00 0. -1.
       -3    1    3    3    0  502 -0.95417329414E+02 -0.34328966049E+03  0.61774733792E+02  0.36161911687E+03  0.10100000352E+00 0.  1.
</event>
<event>
 5   0  0.6672462E-04  0.8000373E+03  0.7818609E-02  0.9559963E-01
       -2   -1    0    0    0  501  0.00000000000E+00  0.00000000000E+00  0.17354504866E+03  0.17354504868E+03  0.25500000920E-02 0. -1.
        2   -1    0    0  501    0  0.00000000000E+00  0.00000000000E+00 -0.92203674562E+03  0.92203674563E+03  0.25500000920E-02 0.  1.
    10030    2    1    2    0    0  0.00000000000E+00  0.00000000000E+00 -0.74849169697E+03  0.10955817943E+04  0.80003727887E+03 0.  0.
        5    1    3    3  502    0 -0.25487728515E+03  0.26288565894E+03 -0.59472362959E+03  0.69841934806E+03  0.46999998093E+01 0.  1.
       -5    1    3    3    0  502  0.25487728515E+03 -0.26288565894E+03 -0.15376806738E+03  0.39716244624E+03  0.46999998093E+01 0. -1.
</event>
<event>
 5   0  0.4169155E-04  0.8003098E+03  0.7818609E-02  0.9559569E-01
       -1   -1    0    0    0  501  0.00000000000E+00  0.00000000000E+00  0.77590710646E+03  0.77590710648E+03  0.50400001928E-02 0.  1.
        1   -1    0    0  501    0  0.00000000000E+00  0.00000000000E+00 -0.20637001295E+03  0.20637001301E+03  0.50400001928E-02 0. -1.
    10030    2    1    2    0    0  0.00000000000E+00  0.00000000000E+00  0.56953709351E+03  0.98227711949E+03  0.80030983912E+03 0.  0.
        4    1    3    3  502    0 -0.29672184502E+03  0.50146271703E+01 -0.44691648372E+02  0.30011323885E+03  0.12699999809E+01 0. -1.
       -4    1    3    3    0  502  0.29672184502E+03 -0.50146271703E+01  0.61422874188E+03  0.68216388064E+03  0.12699999809E+01 0.  1.
</event>
<event>
 5   0  0.4086111E-04  0.7996293E+03  0.7818609E-02  0.9560554E-01
       -1   -1    0    0    0  501  0.00000000000E+00  0.00000000000E+00  0.13189795085E+03  0.13189795094E+03  0.50400001928E-02 0. -1.
        1   -1    0    0  501    0  0.00000000000E+00  0.00000000000E+00 -0.12119351016E+04  0.12119351016E+04  0.50400001928E-02 0.  1.
    10030    2    1    2    0    0  0.00000000000E+00  0.00000000000E+00 -0.10800371508E+04  0.13438330526E+04  0.79962930545E+03 0.  0.
        3    1    3    3  502    0  0.14959758292E+03 -0.36599401462E+03 -0.44030126456E+03  0.59177383292E+03  0.10100000352E+00 0.  1.
       -3    1    3    3    0  502 -0.14959758292E+03  0.36599401462E+03 -0.63973588620E+03  0.75205921964E+03  0.10100000352E+00 0. -1.
</event>
<event>
 5   0  0.4169155E-04  0.7999435E+03  0.7818609E-02  0.9560099E-01
        1   -1    0    0  501    0  0.00000000000E+00  0.00000000000E+00  0.26082260836E+03  0.26082260841E+03  0.50400001928E-02 0. -1.
       -1   -1    0    0    0  501  0.00000000000E+00  0.00000000000E+00 -0.61335715611E+03  0.61335715613E+03  0.50400001928E-02 0.  1.
    10030    2    1    2    0    0  0.00000000000E+00  0.00000000000E+00 -0.35253454775E+03  0.87417976454E+03  0.79994353136E+03 0.  0.
        4    1    3    3  502    0 -0.97006841473E+02  0.35239223245E+03 -0.35377673763E+03  0.50867495100E+03  0.12699999809E+01 0.  1.
       -4    1    3    3    0  502  0.97006841473E+02 -0.35239223245E+03  0.12421898841E+01  0.36550481354E+03  0.12699999809E+01 0. -1.
</event>
<event>
 5   0  0.6801147E-04  0.7997698E+03  0.7818609E-02  0.9560350E-01
       -2   -1    0    0    0  501  0.00000000000E+00  0.00000000000E+00  0.25484712411E+03  0.25484712413E+03  0.25500000920E-02 0. -1.
        2   -1    0    0  501    0  0.00000000000E+00  0.00000000000E+00 -0.62746611580E+03  0.62746611580E+03  0.25500000920E-02 0.  1.
    10030    2    1    2    0    0  0.00000000000E+00  0.00000000000E+00 -0.37261899168E+03  0.88231323993E+03  0.79976980463E+03 0.  0.
        4    1    3    3  502    0 -0.12812477362E+03 -0.46457812616E+02 -0.60105157547E+03  0.61631071324E+03  0.12699999809E+01 0.  1.
       -4    1    3    3    0  502  0.12812477362E+03  0.46457812616E+02  0.22843258379E+03  0.26600252669E+03  0.12699999809E+01 0. -1.
</event>
<event>
 5   0  0.6801147E-04  0.7987995E+03  0.7818609E-02  0.9561756E-01
        2   -1    0    0  501    0  0.00000000000E+00  0.00000000000E+00  0.22829025675E+03  0.22829025676E+03  0.25500000920E-02 0.  1.
       -2   -1    0    0    0  501  0.00000000000E+00  0.00000000000E+00 -0.69876026817E+03  0.69876026817E+03  0.25500000920E-02 0. -1.
    10030    2    1    2    0    0  0.00000000000E+00  0.00000000000E+00 -0.47047001142E+03  0.92705052493E+03  0.79879950183E+03 0.  0.
        4    1    3    3  502    0  0.19818210984E+03 -0.53923546595E+02  0.16230309730E+03  0.26177816149E+03  0.12699999809E+01 0.  1.
       -4    1    3    3    0  502 -0.19818210984E+03  0.53923546595E+02 -0.63277310872E+03  0.66527236344E+03  0.12699999809E+01 0. -1.
</event>
<event>
 5   0  0.4392552E-04  0.7997180E+03  0.7818609E-02  0.9560425E-01
       -1   -1    0    0    0  501  0.00000000000E+00  0.00000000000E+00  0.11130147788E+03  0.11130147799E+03  0.50400001928E-02 0. -1.
        1   -1    0    0  501    0  0.00000000000E+00  0.00000000000E+00 -0.14365237196E+04  0.14365237196E+04  0.50400001928E-02 0.  1.
    10030    2    1    2    0    0  0.00000000000E+00  0.00000000000E+00 -0.13252222417E+04  0.15478251976E+04  0.79971798301E+03 0.  0.
        5    1    3    3  502    0  0.12361890501E+03 -0.47314638723E+02  0.67612497474E+02  0.14870725782E+03  0.46999998093E+01 0. -1.
       -5    1    3    3    0  502 -0.12361890501E+03  0.47314638723E+02 -0.13928347392E+04  0.13991179398E+04  0.46999998093E+01 0.  1.
</event>
<event>
 5   0  0.7133039E-04  0.8002880E+03  0.7818609E-02  0.9559600E-01
        2   -1    0    0  501    0  0.00000000000E+00  0.00000000000E+00  0.10551921761E+04  0.10551921761E+04  0.25500000920E-02 0. -1.
       -2   -1    0    0    0  501  0.00000000000E+00  0.00000000000E+00 -0.15174034972E+03  0.15174034974E+03  0.25500000920E-02 0.  1.
    10030    2    1    2    0    0  0.00000000000E+00  0.00000000000E+00  0.90345182636E+03  0.12069325258E+04  0.80028802274E+03 0.  0.
        2    1    3    3  502    0  0.35053249196E+03  0.10894037767E+03  0.69195899871E+03  0.78329323354E+03  0.25500000920E-02 0. -1.
       -2    1    3    3    0  502 -0.35053249196E+03 -0.10894037767E+03  0.21149282765E+03  0.42363929228E+03  0.25500000920E-02 0.  1.
</event>
<event>
 5   0  0.4104786E-04  0.8034271E+03  0.7818609E-02  0.9555070E-01
        1   -1    0    0  501    0  0.00000000000E+00  0.00000000000E+00  0.27601676141E+03  0.27601676146E+03  0.50400001928E-02 0.  1.
       -1   -1    0    0    0  501  0.00000000000E+00  0.00000000000E+00 -0.58465207345E+03  0.58465207347E+03  0.50400001928E-02 0. -1.
    10030    2    1    2    0    0  0.00000000000E+00  0.00000000000E+00 -0.30863531204E+03  0.86066883493E+03  0.80342708916E+03 0.  0.
        2    1    3    3  502    0  0.90719327059E+02 -0.41453091772E+02  0.26254116452E+03  0.28084910218E+03  0.25500000920E-02 0.  1.
       -2    1    3    3    0  502 -0.90719327059E+02  0.41453091772E+02 -0.57117647656E+03  0.57981973276E+03  0.25500000920E-02 0. -1.
</event>
<event>
 5   0  0.4086111E-04  0.7998154E+03  0.7818609E-02  0.9560284E-01
       -1   -1    0    0    0  501  0.00000000000E+00  0.00000000000E+00  0.18643200890E+03  0.18643200896E+03  0.50400001928E-02 0. -1.
        1   -1    0    0  501    0  0.00000000000E+00  0.00000000000E+00 -0.85782566415E+03  0.85782566417E+03  0.50400001928E-02 0.  1.
    10030    2    1    2    0    0  0.00000000000E+00  0.00000000000E+00 -0.67139365526E+03  0.10442576731E+04  0.79981538343E+03 0.  0.
        3    1    3    3  502    0 -0.28907598858E+03  0.68871705920E+02 -0.68510153492E+03  0.74677463964E+03  0.10100000352E+00 0.  1.
       -3    1    3    3    0  502  0.28907598858E+03 -0.68871705920E+02  0.13707879665E+02  0.29748303349E+03  0.10100000352E+00 0. -1.
</event>
<event>
 5   0  0.6672462E-04  0.7987885E+03  0.7818609E-02  0.9561772E-01
       -2   -1    0    0    0  501  0.00000000000E+00  0.00000000000E+00  0.16222584804E+03  0.16222584806E+03  0.25500000920E-02 0. -1.
        2   -1    0    0  501    0  0.00000000000E+00  0.00000000000E+00 -0.98329430460E+03  0.98329430461E+03  0.25500000920E-02 0.  1.
    10030    2    1    2    0    0  0.00000000000E+00  0.00000000000E+00 -0.82106845657E+03  0.11455201527E+04  0.79878846373E+03 0.  0.
        5    1    3    3  502    0  0.36112830111E+03 -0.10879217305E+03 -0.59885291995E+03  0.70774027476E+03  0.46999998093E+01 0.  1.
       -5    1    3    3    0  502 -0.36112830111E+03  0.10879217305E+03 -0.22221553661E+03  0.43777987790E+03  0.46999998093E+01 0. -1.
</event>
<event>
 5   0  0.6593118E-04  0.8001796E+03  0.7818609E-02  0.9559757E-01
        2   -1    0    0  501    0  0.00000000000E+00  0.00000000000E+00  0.33580689870E+03  0.33580689871E+03  0.25500000920E-02 0. -1.
       -2   -1    0    0    0  501  0.00000000000E+00  0.00000000000E+00 -0.47667830614E+03  0.47667830614E+03  0.25500000920E-02 0.  1.
    10030    2    1    2    0    0  0.00000000000E+00  0.00000000000E+00 -0.14087140743E+03  0.81248520486E+03  0.80017963901E+03 0.  0.
        1    1    3    3  502    0 -0.25059096450E+03 -0.25008020926E+03 -0.25967763641E+03  0.43905400286E+03  0.50400001928E-02 0.  1.
       -1    1    3    3    0  502  0.25059096450E+03  0.25008020926E+03  0.11880622898E+03  0.37343120199E+03  0.50400001928E-02 0. -1.
</event>
<event>
 5   0  0.4169155E-04  0.8004282E+03  0.7818609E-02  0.9559398E-01
        1   -1    0    0  501    0  0.00000000000E+00  0.00000000000E+00  0.90623282154E+03  0.90623282156E+03  0.50400001928E-02 0.  1.
       -1   -1    0    0    0  501  0.00000000000E+00  0.00000000000E+00 -0.17674410480E+03  0.17674410487E+03  0.50400001928E-02 0. -1.
    10030    2    1    2    0    0  0.00000000000E+00  0.00000000000E+00  0.72948871675E+03  0.10829769264E+04  0.80042815750E+03 0.  0.
        4    1    3    3  502    0 -0.22474833094E+03  0.23325031253E+03  0.46711833785E+02  0.32726308816E+03  0.12699999809E+01 0. -1.
       -4    1    3    3    0  502  0.22474833094E+03 -0.23325031253E+03  0.68277688296E+03  0.75571383827E+03  0.12699999809E+01 0.  1.
</event>
<event>
 5   0  0.4104786E-04  0.7989122E+03  0.7818609E-02  0.9561593E-01
       -1   -1    0    0    0  501  0.00000000000E+00  0.00000000000E+00  0.39140132293E+03  0.39140132297E+03  0.50400001928E-02 0. -1.
        1   -1    0    0  501    0  0.00000000000E+00  0.00000000000E+00 -0.40767664832E+03  0.40767664835E+03  0.50400001928E-02 0.  1.
    10030    2    1    2    0    0  0.00000000000E+00  0.00000000000E+00 -0.16275325387E+02  0.79907797132E+03  0.79891220921E+03 0.  0.
        2    1    3    3  502    0  0.30165493647E+03 -0.13575905461E+03  0.21582609820E+03  0.39497737438E+03  0.25500000920E-02 0. -1.
       -2    1    3    3    0  502 -0.30165493647E+03  0.13575905461E+03 -0.23210142359E+03  0.40410059693E+03  0.25500000920E-02 0.  1.
</event>
<event>
 5   0  0.4086111E-04  0.7999179E+03  0.7818609E-02  0.9560136E-01
        1   -1    0    0  501    0  0.00000000000E+00  0.00000000000E+00  0.55060582358E+03  0.55060582360E+03  0.50400001928E-02 0.  1.
       -1   -1    0    0    0  501  0.00000000000E+00  0.00000000000E+00 -0.29052936279E+03  0.29052936283E+03  0.50400001928E-02 0. -1.
    10030    2    1    2    0    0  0.00000000000E+00  0.00000000000E+00  0.26007646079E+03  0.84113518644E+03  0.79991789354E+03 0.  0.
        3    1    3    3  502    0  0.15287816365E+03 -0.10153561440E+02 -0.25844698793E+03  0.30044913630E+03  0.10100000352E+00 0. -1.
       -3    1    3    3    0  502 -0.15287816365E+03  0.10153561440E+02  0.51852344873E+03  0.54068605014E+03  0.10100000352E+00 0.  1.
</event>
<event>
 5   0  0.6801147E-04  0.7997596E+03  0.7818609E-02  0.9560365E-01
        2   -1    0    0  501    0  0.00000000000E+00  0.00000000000E+00  0.11561197711E+04  0.11561197711E+04  0.25500000920E-02 0. -1.
       -2   -1    0    0    0  501  0.00000000000E+00  0.00000000000E+00 -0.13831079958E+03  0.13831079961E+03  0.25500000920E-02 0.  1.
    10030    2    1    2    0    0  0.00000000000E+00  0.00000000000E+00  0.10178089716E+04  0.12944305707E+04  0.79975958882E+03 0.  0.
        4    1    3    3  502    0  0.33137575039E+03 -0.11731056356E+03  0.20040426738E+03  0.40464198936E+03  0.12699999809E+01 0.  1.
       -4    1    3    3    0  502 -0.33137575039E+03  0.11731056356E+03  0.81740470417E+03  0.88978858139E+03  0.12699999809E+01 0. -1.
</event>
<event>
 5   0  0.4392552E-04  0.7999332E+03  0.7818609E-02  0.9560114E-01
        1   -1    0    0  501    0  0.00000000000E+00  0.00000000000E+00  0.43536256824E+03  0.43536256827E+03  0.50400001928E-02 0. -1.
       -1   -1    0    0    0  501  0.00000000000E+00  0.00000000000E+00 -0.36744840754E+03  0.36744840758E+03  0.50400001928E-02 0.  1.
    10030    2    1    2    0    0  0.00000000000E+00  0.00000000000E+00  0.67914160703E+02  0.80281097585E+03  0.79993320329E+03 0.  0.
        5    1    3    3  502    0  0.29298816892E+03  0.15716431637E+03  0.25703697228E+03  0.42027703314E+03  0.46999998093E+01 0. -1.
       -5    1    3    3    0  502 -0.29298816892E+03 -0.15716431637E+03 -0.18912281158E+03  0.38253394271E+03  0.46999998093E+01 0.  1.
</event>
<event>
 5   0  0.6970013E-04  0.8009186E+03  0.7818609E-02  0.9558688E-01
        2   -1    0    0  501    0  0.00000000000E+00  0.00000000000E+00  0.12366634574E+04  0.12366634574E+04  0.25500000920E-02 0.  1.
       -2   -1    0    0    0  501  0.00000000000E+00  0.00000000000E+00 -0.12967768673E+03  0.12967768676E+03  0.25500000920E-02 0. -1.
    10030    2    1    2    0    0  0.00000000000E+00  0.00000000000E+00  0.11069857707E+04  0.13663411442E+04  0.80091861370E+03 0.  0.
        3    1    3    3  502    0  0.21392373828E+03 -0.32837107188E+03  0.41305621719E+03  0.56939123229E+03  0.10100000352E+00 0. -1.
       -3    1    3    3    0  502 -0.21392373828E+03  0.32837107188E+03  0.69392955348E+03  0.79694991188E+03  0.10100000352E+00 0.  1.
</event>
<event>
 5   0  0.6970013E-04  0.8001446E+03  0.7818609E-02  0.9559808E-01
       -2   -1    0    0    0  501  0.00000000000E+00  0.00000000000E+00  0.17775792732E+03  0.17775792734E+03  0.25500000920E-02 0.  1.
        2   -1    0    0  501    0  0.00000000000E+00  0.00000000000E+00 -0.90042582230E+03  0.90042582231E+03  0.25500000920E-02 0. -1.
    10030    2    1    2    0    0  0.00000000000E+00  0.00000000000E+00 -0.72266789498E+03  0.10781837496E+04  0.80014455666E+03 0.  0.
        3    1    3    3  502    0 -0.20615478970E+03  0.21110931110E+02 -0.82246638474E+03  0.84817240756E+03  0.10100000352E+00 0. -1.
       -3    1    3    3    0  502  0.20615478970E+03 -0.21110931110E+02  0.99798489751E+02  0.23001134208E+03  0.10100000352E+00 0.  1.
</event>
<event>
 5   0  0.4392552E-04  0.7996887E+03  0.7818609E-02  0.9560468E-01
       -1   -1    0    0    0  501  0.00000000000E+00  0.00000000000E+00  0.99890067257E+02  0.99890067384E+02  0.50400001928E-02 0.  1.
        1   -1    0    0  501    0  0.00000000000E+00  0.00000000000E+00 -0.16005144127E+04  0.16005144128E+04  0.50400001928E-02 0. -1.
    10030    2    1    2    0    0  0.00000000000E+00  0.00000000000E+00 -0.15006243455E+04  0.17004044801E+04  0.79968867055E+03 0.  0.
        5    1    3    3  502    0  0.14228646226E+03 -0.37165709707E+03 -0.83208529567E+03  0.92236785743E+03  0.46999998093E+01 0. -1.
       -5    1    3    3    0  502 -0.14228646226E+03  0.37165709707E+03 -0.66853904981E+03  0.77803662271E+03  0.46999998093E+01 0.  1.
</event>
<event>
 5   0  0.2736375E-04  0.7997596E+03  0.7818609E-02  0.9560365E-01
        3   -1    0    0  501    0  0.00000000000E+00  0.00000000000E+00  0.47783744045E+03  0.47783745113E+03  0.10100000352E+00 0.  1.
       -3   -1    0    0    0  501  0.00000000000E+00  0.00000000000E+00 -0.33464068434E+03  0.33464069959E+03  0.10100000352E+00 0. -1.
    10030    2    1    2    0    0  0.00000000000E+00  0.00000000000E+00  0.14319675611E+03  0.81247815071E+03  0.79975961040E+03 0.  0.
        5    1    3    3  502    0 -0.17483117262E+03 -0.32112479029E+03 -0.92823243613E+02  0.37726027410E+03  0.46999998093E+01 0. -1.
       -5    1    3    3    0  502  0.17483117262E+03  0.32112479029E+03  0.23601999972E+03  0.43521787662E+03  0.46999998093E+01 0.  1.
</event>
<event>
 5   0  0.2736375E-04  0.8009695E+03  0.7818609E-02  0.9558615E-01
       -3   -1    0    0    0  501  0.00000000000E+00  0.00000000000E+00  0.11902796906E+04  0.11902796949E+04  0.10100000352E+00 0. -1.
        3   -1    0    0  501    0  0.00000000000E+00  0.00000000000E+00 -0.13474817245E+03  0.13474821030E+03  0.10100000352E+00 0.  1.
    10030    2    1    2    0    0  0.00000000000E+00  0.00000000000E+00  0.10555315181E+04  0.13250279052E+04  0.80096951483E+03 0.  0.
        3    1    3    3  502    0  0.16785698488E+03 -0.36274055402E+03  0.48619906892E+03  0.62940147896E+03  0.10100000352E+00 0.  1.
       -3    1    3    3    0  502 -0.16785698488E+03  0.36274055402E+03  0.56933244920E+03  0.69562642619E+03  0.10100000352E+00 0. -1.
</event>
<event>
 5   0  0.4392552E-04  0.7998792E+03  0.7818609E-02  0.9560192E-01
       -1   -1    0    0    0  501  0.00000000000E+00  0.00000000000E+00  0.79555760807E+03  0.79555760809E+03  0.50400001928E-02 0. -1.
        1   -1    0    0  501    0  0.00000000000E+00  0.00000000000E+00 -0.20105605273E+03  0.20105605279E+03  0.50400001928E-02 0.  1.
    10030    2    1    2    0    0  0.00000000000E+00  0.00000000000E+00  0.59450155534E+03  0.99661366088E+03  0.79987917196E+03 0.  0.
        5    1    3    3  502    0 -0.32191082996E+03  0.17677222415E+03  0.10003301959E+03  0.38066218184E+03  0.46999998093E+01 0.  1.
       -5    1    3    3    0  502  0.32191082996E+03 -0.17677222415E+03  0.49446853576E+03  0.61595147904E+03  0.46999998093E+01 0. -1.
</event>
<event>
 5   0  0.6970013E-04  0.7999522E+03  0.7818609E-02  0.9560086E-01
       -2   -1    0    0    0  501  0.00000000000E+00  0.00000000000E+00  0.16430737103E+03  0.16430737105E+03  0.25500000920E-02 0.  1.
        2   -1    0    0  501    0  0.00000000000E+00  0.00000000000E+00 -0.97366827574E+03  0.97366827575E+03  0.25500000920E-02 0. -1.
    10030    2    1    2    0    0  0.00000000000E+00  0.00000000000E+00 -0.80936090471E+03  0.11379756468E+04  0.79995218521E+03 0.  0.
        3    1    3    3  502    0  0.44184351758E+02 -0.25844046100E+03 -0.83436997096E+03  0.87459532783E+03  0.10100000352E+00 0. -1.
       -3    1    3    3    0  502 -0.44184351758E+02  0.25844046100E+03  0.25009066242E+02  0.26338031897E+03  0.10100000352E+00 0.  1.
</event>
<event>
 5   0  0.4392552E-04  0.7976176E+03  0.7818609E-02  0.9563472E-01
        1   -1    0    0  501    0  0.00000000000E+00  0.00000000000E+00  0.27987564873E+03  0.27987564878E+03  0.50400001928E-02 0.  1.
       -1   -1    0    0    0  501  0.00000000000E+00  0.00000000000E+00 -0.56828260557E+03  0.56828260560E+03  0.50400001928E-02 0. -1.
    10030    2    1    2    0    0  0.00000000000E+00  0.00000000000E+00 -0.28840695684E+03  0.84815825438E+03  0.79761760996E+03 0.  0.
        5    1    3    3  502    0 -0.28289552905E+03 -0.18882553325E+03  0.77174124178E+02  0.34880208974E+03  0.46999998093E+01 0.  1.
       -5    1    3    3    0  502  0.28289552905E+03  0.18882553325E+03 -0.36558108102E+03  0.49935616464E+03  0.46999998093E+01 0. -1.
</event>
<event>
 5   0  0.7133039E-04  0.8001337E+03  0.7818609E-02  0.9559824E-01
        2   -1    0    0  501    0  0.00000000000E+00  0.00000000000E+00  0.84629279434E+03  0.84629279434E+03  0.25500000920E-02 0. -1.
       -2   -1    0    0    0  501  0.00000000000E+00  0.00000000000E+00 -0.18912305094E+03  0.18912305095E+03  0.25500000920E-02 0.  1.
    10030    2    1    2    0    0  0.00000000000E+00  0.00000000000E+00  0.65716974340E+03  0.10354158453E+04  0.80013367698E+03 0.  0.
        2    1    3    3  502    0 -0.77635051303E+02  0.10415088738E+03  0.81824158961E+03  0.82848893022E+03  0.25500000920E-02 0. -1.
       -2    1    3    3    0  502  0.77635051303E+02 -0.10415088738E+03 -0.16107184621E+03  0.20692691507E+03  0.25500000920E-02 0.  1.
</event>
<event>
 5   0  0.6593118E-04  0.7999975E+03  0.7818609E-02  0.9560021E-01
        2   -1    0    0  501    0  0.00000000000E+00  0.00000000000E+00  0.79873595252E+03  0.79873595253E+03  0.25500000920E-02 0. -1.
       -2   -1    0    0    0  501  0.00000000000E+00  0.00000000000E+00 -0.20031525291E+03  0.20031525292E+03  0.25500000920E-02 0.  1.
    10030    2    1    2    0    0  0.00000000000E+00  0.00000000000E+00  0.59842069962E+03  0.99905120545E+03  0.79999748586E+03 0.  0.
        1    1    3    3  502    0 -0.38793652192E+03  0.34751620350E+02  0.18546110400E+03  0.43139105378E+03  0.50400001928E-02 0.  1.
       -1    1    3    3    0  502  0.38793652192E+03 -0.34751620350E+02  0.41295959561E+03  0.56766015167E+03  0.50400001928E-02 0. -1.
</event>
<event>
 5   0  0.4087283E-04  0.7999423E+03  0.7818609E-02  0.9560101E-01
       -1   -1    0    0    0  501  0.00000000000E+00  0.00000000000E+00  0.36880800491E+03  0.36880800494E+03  0.50400001928E-02 0.  1.
        1   -1    0    0  501    0  0.00000000000E+00  0.00000000000E+00 -0.43376744105E+03  0.43376744108E+03  0.50400001928E-02 0. -1.
    10030    2    1    2    0    0  0.00000000000E+00  0.00000000000E+00 -0.64959436146E+02  0.80257544602E+03  0.79994225930E+03 0.  0.
        1    1    3    3  502    0 -0.16260562503E+03 -0.16157093072E+03 -0.36132554880E+03  0.42790408643E+03  0.50400001928E-02 0. -1.
       -1    1    3    3    0  502  0.16260562503E+03  0.16157093072E+03  0.29636611266E+03  0.37467135959E+03  0.50400001928E-02 0.  1.
</event>
<event>
 5   0  0.6801147E-04  0.8001099E+03  0.7818609E-02  0.9559858E-01
        2   -1    0    0  501    0  0.00000000000E+00  0.00000000000E+00  0.30728176718E+03  0.30728176719E+03  0.25500000920E-02 0.  1.
       -2   -1    0    0    0  501  0.00000000000E+00  0.00000000000E+00 -0.52083780262E+03  0.52083780262E+03  0.25500000920E-02 0. -1.
    10030    2    1    2    0    0  0.00000000000E+00  0.00000000000E+00 -0.21355603543E+03  0.82811956982E+03  0.80010989348E+03 0.  0.
        4    1    3    3  502    0  0.40774702268E+02  0.39796432253E+03 -0.10889134938E+03  0.41460477231E+03  0.12699999809E+01 0. -1.
       -4    1    3    3    0  502 -0.40774702268E+02 -0.39796432253E+03 -0.10466468605E+03  0.41351479751E+03  0.12699999809E+01 0.  1.
</event>
<event>
 5   0  0.6801147E-04  0.8000539E+03  0.7818609E-02  0.9559939E-01
       -2   -1    0    0    0  501  0.00000000000E+00  0.00000000000E+00  0.12183859237E+03  0.12183859240E+03  0.25500000920E-02 0. -1.
        2   -1    0    0  501    0  0.00000000000E+00  0.00000000000E+00 -0.13133897088E+04  0.13133897088E+04  0.25500000920E-02 0.  1.
    10030    2    1    2    0    0  0.00000000000E+00  0.00000000000E+00 -0.11915511164E+04  0.14352283012E+04  0.80005388162E+03 0.  0.
        4    1    3    3  502    0 -0.23200196554E+03 -0.31073430304E+03 -0.77190125739E+03  0.86383672251E+03  0.12699999809E+01 0. -1.
       -4    1    3    3    0  502  0.23200196554E+03  0.31073430304E+03 -0.41964985902E+03  0.57139157867E+03  0.12699999809E+01 0.  1.
</event>
<event>
 5   0  0.6970013E-04  0.8003227E+03  0.7818609E-02  0.9559550E-01
       -2   -1    0    0    0  501  0.00000000000E+00  0.00000000000E+00  0.27766262858E+03  0.27766262859E+03  0.25500000920E-02 0.  1.
        2   -1    0    0  501    0  0.00000000000E+00  0.00000000000E+00 -0.57670384878E+03  0.57670384879E+03  0.25500000920E-02 0. -1.
    10030    2    1    2    0    0  0.00000000000E+00  0.00000000000E+00 -0.29904122020E+03  0.85436647738E+03  0.80032270135E+03 0.  0.
        3    1    3    3  502    0 -0.83571557761E+02  0.25540327999E+03 -0.46604575881E+03  0.53797183960E+03  0.10100000352E+00 0. -1.
       -3    1    3    3    0  502  0.83571557761E+02 -0.25540327999E+03  0.16700453861E+03  0.31639463778E+03  0.10100000352E+00 0.  1.
</event>
<event>
 5   0  0.4169155E-04  0.8000266E+03  0.7818609E-02  0.9559979E-01
        1   -1    0    0  501    0  0.00000000000E+00  0.00000000000E+00  0.11916346971E+04  0.11916346971E+04  0.50400001928E-02 0.  1.
       -1   -1    0    0    0  501  0.00000000000E+00  0.00000000000E+00 -0.13427825479E+03  0.13427825488E+03  0.50400001928E-02 0. -1.
    10030    2    1    2    0    0  0.00000000000E+00  0.00000000000E+00  0.10573564423E+04  0.13259129520E+04  0.80002656840E+03 0.  0.
        4    1    3    3  502    0 -0.38256501111E+03  0.77113359916E+02  0.38318565961E+03  0.54693264726E+03  0.12699999809E+01 0. -1.
       -4    1    3    3    0  502  0.38256501111E+03 -0.77113359916E+02  0.67417078271E+03  0.77898030473E+03  0.12699999809E+01 0.  1.
</event>
<event>
 5   0  0.4104786E-04  0.8003436E+03  0.7818609E-02  0.9559520E-01
       -1   -1    0    0    0  501  0.00000000000E+00  0.00000000000E+00  0.11193963166E+03  0.11193963178E+03  0.50400001928E-02 0. -1.
        1   -1    0    0  501    0  0.00000000000E+00  0.00000000000E+00 -0.14305698488E+04  0.14305698488E+04  0.50400001928E-02 0.  1.
    10030    2    1    2    0    0  0.00000000000E+00  0.00000000000E+00 -0.13186302172E+04  0.15425094806E+04  0.80034358132E+03 0.  0.
        2    1    3    3  502    0  0.33064774995E+03 -0.81832448555E+02 -0.25452064532E+03  0.42521199781E+03  0.25500000920E-02 0. -1.
       -2    1    3    3    0  502 -0.33064774995E+03  0.81832448555E+02 -0.10641095719E+04  0.11172974828E+04  0.25500000920E-02 0.  1.
</event>
<event>
 5   0  0.6970013E-04  0.7978432E+03  0.7818609E-02  0.9563144E-01
        2   -1    0    0  501    0  0.00000000000E+00  0.00000000000E+00  0.23963445199E+04  0.23963445199E+04  0.25500000920E-02 0.  1.
       -2   -1    0    0    0  501  0.00000000000E+00  0.00000000000E+00 -0.66408834826E+02  0.66408834874E+02  0.25500000920E-02 0. -1.
    10030    2    1    2    0    0  0.00000000000E+00  0.00000000000E+00  0.23299356851E+04  0.24627533548E+04  0.79784321134E+03 0.  0.
        3    1    3    3  502    0 -0.26882913973E+03  0.88778873234E+02  0.29744096004E+03  0.41063600623E+03  0.10100000352E+00 0. -1.
       -3    1    3    3    0  502  0.26882913973E+03 -0.88778873234E+02  0.20324947251E+04  0.20521173486E+04  0.10100000352E+00 0.  1.
</event>
<event>
 5   0  0.6801147E-04  0.7999662E+03  0.7818609E-02  0.9560066E-01
       -2   -1    0    0    0  501  0.00000000000E+00  0.00000000000E+00  0.66442280771E+02  0.66442280820E+02  0.25500000920E-02 0. -1.
        2   -1    0    0  501    0  0.00000000000E+00  0.00000000000E+00 -0.24079018160E+04  0.24079018160E+04  0.25500000920E-02 0.  1.
    10030    2    1    2    0    0  0.00000000000E+00  0.00000000000E+00 -0.23414595352E+04  0.24743440968E+04  0.79996622076E+03 0.  0.
        4    1    3    3  502    0 -0.13647369812E+03 -0.20662008013E+03 -0.19915440355E+03  0.31777510467E+03  0.12699999809E+01 0. -1.
       -4    1    3    3    0  502  0.13647369812E+03  0.20662008013E+03 -0.21423051317E+04  0.21565689922E+04  0.12699999809E+01 0.  1.
</event>
<event>
 5   0  0.6801147E-04  0.7998800E+03  0.7818609E-02  0.9560191E-01
       -2   -1    0    0    0  501  0.00000000000E+00  0.00000000000E+00  0.66902507755E+03  0.66902507755E+03  0.25500000920E-02 0.  1.
        2   -1    0    0  501    0  0.00000000000E+00  0.00000000000E+00 -0.23908220389E+03  0.23908220390E+03  0.25500000920E-02 0. -1.
    10030    2    1    2    0    0  0.00000000000E+00  0.00000000000E+00  0.42994287366E+03  0.90810728146E+03  0.79987996601E+03 0.  0.
        4    1    3    3  502    0 -0.92644725967E+02  0.27302101096E+03  0.52965124636E+03  0.60303861679E+03  0.12699999809E+01 0.  1.
       -4    1    3    3    0  502  0.92644725967E+02 -0.27302101096E+03 -0.99708372700E+02  0.30506866466E+03  0.12699999809E+01 0. -1.
</event>
<event>
 5   0  0.4086111E-04  0.8000096E+03  0.7818609E-02  0.9560003E-01
       -1   -1    0    0    0  501  0.00000000000E+00  0.00000000000E+00  0.20766785665E+03  0.20766785671E+03  0.50400001928E-02 0.  1.
        1   -1    0    0  501    0  0.00000000000E+00  0.00000000000E+00 -0.77047960916E+03  0.77047960918E+03  0.50400001928E-02 0. -1.
    10030    2    1    2    0    0  0.00000000000E+00  0.00000000000E+00 -0.56281175251E+03  0.97814746589E+03  0.80000962260E+03 0.  0.
        3    1    3    3  502    0 -0.27079417488E+03  0.89449390361E+01 -0.64119984675E+03  0.69609392381E+03  0.10100000352E+00 0. -1.
       -3    1    3    3    0  502  0.27079417488E+03 -0.89449390361E+01  0.78388094239E+02  0.28205354208E+03  0.10100000352E+00 0.  1.
</event>
<event>
 5   0  0.4087283E-04  0.7995555E+03  0.7818609E-02  0.9560661E-01
       -1   -1    0    0    0  501  0.00000000000E+00  0.00000000000E+00  0.77558788226E+03  0.77558788228E+03  0.50400001928E-02 0. -1.
        1   -1    0    0  501    0  0.00000000000E+00  0.00000000000E+00 -0.20606592642E+03  0.20606592648E+03  0.50400001928E-02 0.  1.
    10030    2    1    2    0    0  0.00000000000E+00  0.00000000000E+00  0.56952195584E+03  0.98165380876E+03  0.79955546528E+03 0.  0.
        1    1    3    3  502    0 -0.78798922137E+02 -0.82666814701E+02 -0.18561156567E+03  0.21793284681E+03  0.50400001928E-02 0.  1.
       -1    1    3    3    0  502  0.78798922137E+02  0.82666814701E+02  0.75513352151E+03  0.76372096195E+03  0.50400001928E-02 0. -1.
</event>
<event>
 5   0  0.4104786E-04  0.7937446E+03  0.7818609E-02  0.9569116E-01
       -1   -1    0    0    0  501  0.00000000000E+00  0.00000000000E+00  0.15109324871E+03  0.15109324880E+03  0.50400001928E-02 0. -1.
        1   -1    0    0  501    0  0.00000000000E+00  0.00000000000E+00 -0.10424531963E+04  0.10424531963E+04  0.50400001928E-02 0.  1.
    10030    2    1    2    0    0  0.00000000000E+00  0.00000000000E+00 -0.89135994757E+03  0.11935464451E+04  0.79374464436E+03 0.  0.
        2    1    3    3  502    0  0.66783269308E+02 -0.37467922106E+03 -0.27646888721E+03  0.47040362387E+03  0.25500000920E-02 0. -1.
       -2    1    3    3    0  502 -0.66783269308E+02  0.37467922106E+03 -0.61489106036E+03  0.72314282121E+03  0.25500000920E-02 0.  1.
</event>
<event>
 5   0  0.6593118E-04  0.8001587E+03  0.7818609E-02  0.9559787E-01
       -2   -1    0    0    0  501  0.00000000000E+00  0.00000000000E+00  0.78613623192E+02  0.78613623233E+02  0.25500000920E-02 0. -1.
        2   -1    0    0  501    0  0.00000000000E+00  0.00000000000E+00 -0.20360779895E+04  0.20360779895E+04  0.25500000920E-02 0.  1.
    10030    2    1    2    0    0  0.00000000000E+00  0.00000000000E+00 -0.19574643663E+04  0.21146916127E+04  0.80015865402E+03 0.  0.
        1    1    3    3  502    0  0.38204999359E+03 -0.10083745739E+03 -0.11444759427E+04  0.12107665233E+04  0.50400001928E-02 0. -1.
       -1    1    3    3    0  502 -0.38204999359E+03  0.10083745739E+03 -0.81298842356E+03  0.90392508942E+03  0.50400001928E-02 0.  1.
</event>
<event>
 5   0  0.6801147E-04  0.7998912E+03  0.7818609E-02  0.9560175E-01
       -2   -1    0    0    0  501  0.00000000000E+00  0.00000000000E+00  0.16033511278E+03  0.16033511280E+03  0.25500000920E-02 0.  1.
        2   -1    0    0  501    0  0.00000000000E+00  0.00000000000E+00 -0.99763847090E+03  0.99763847090E+03  0.25500000920E-02 0. -1.
    10030    2    1    2    0    0  0.00000000000E+00  0.00000000000E+00 -0.83730335812E+03  0.11579735837E+04  0.79989118449E+03 0.  0.
        4    1    3    3  502    0 -0.89032638308E+02  0.27333411248E+03 -0.82118689420E+03  0.87005050189E+03  0.12699999809E+01 0. -1.
       -4    1    3    3    0  502  0.89032638308E+02 -0.27333411248E+03 -0.16116463927E+02  0.28792308181E+03  0.12699999809E+01 0.  1.
</event>
<event>
 5   0  0.4392552E-04  0.8002275E+03  0.7818609E-02  0.9559688E-01
       -1   -1    0    0    0  501  0.00000000000E+00  0.00000000000E+00  0.47397018442E+03  0.47397018444E+03  0.50400001928E-02 0.  1.
        1   -1    0    0  501    0  0.00000000000E+00  0.00000000000E+00 -0.33776602331E+03  0.33776602335E+03  0.50400001928E-02 0. -1.
    10030    2    1    2    0    0  0.00000000000E+00  0.00000000000E+00  0.13620416111E+03  0.81173620779E+03  0.80022752860E+03 0.  0.
        5    1    3    3  502    0 -0.19222839387E+03 -0.28051564057E+03 -0.14570917653E+03  0.36999193793E+03  0.46999998093E+01 0. -1.
       -5    1    3    3    0  502  0.19222839387E+03  0.28051564057E+03  0.28191333764E+03  0.44174426985E+03  0.46999998093E+01 0.  1.
</event>
<event>
 5   0  0.6593118E-04  0.7999947E+03  0.7818609E-02  0.9560025E-01
       -2   -1    0    0    0  501  0.00000000000E+00  0.00000000000E+00  0.44058874363E+03  0.44058874363E+03  0.25500000920E-02 0. -1.
        2   -1    0    0  501    0  0.00000000000E+00  0.00000000000E+00 -0.36314567259E+03  0.36314567259E+03  0.25500000920E-02 0.  1.
    10030    2    1    2    0    0  0.00000000000E+00  0.00000000000E+00  0.77443071041E+02  0.80373441623E+03  0.79999473909E+03 0.  0.
        1    1    3    3  502    0  0.57265915699E+02 -0.16025973036E+03 -0.32495864728E+03  0.36682514737E+03  0.50400001928E-02 0.  1.
       -1    1    3    3    0  502 -0.57265915699E+02  0.16025973036E+03  0.40240171832E+03  0.43690926885E+03  0.50400001928E-02 0. -1.
</event>
<event>
 5   0  0.4087283E-04  0.8003349E+03  0.7818609E-02  0.9559533E-01
        1   -1    0    0  501    0  0.00000000000E+00  0.00000000000E+00  0.53089655345E+03  0.53089655347E+03  0.50400001928E-02 0.  1.
       -1   -1    0    0    0  501  0.00000000000E+00  0.00000000000E+00 -0.30162933527E+03  0.30162933532E+03  0.50400001928E-02 0. -1.
    10030    2    1    2    0    0  0.00000000000E+00  0.00000000000E+00  0.22926721818E+03  0.83252588879E+03  0.80033486628E+03 0.  0.
        1    1    3    3  502    0 -0.92080052708E+01 -0.11935770503E+03  0.51183350794E+03  0.52564682915E+03  0.50400001928E-02 0.  1.
       -1    1    3    3    0  502  0.92080052708E+01  0.11935770503E+03 -0.28256628977E+03  0.30687905965E+03  0.50400001928E-02 0. -1.
</event>
<event>
 5   0  0.4392552E-04  0.8000516E+03  0.7818609E-02  0.9559942E-01
       -1   -1    0    0    0  501  0.00000000000E+00  0.00000000000E+00  0.97849398841E+02  0.97849398971E+02  0.50400001928E-02 0. -1.
        1   -1    0    0  501    0  0.00000000000E+00  0.00000000000E+00 -0.16353767888E+04  0.16353767888E+04  0.50400001928E-02 0.  1.
    10030    2    1    2    0    0  0.00000000000E+00  0.00000000000E+00 -0.15375273900E+04  0.17332261878E+04  0.80005158780E+03 0.  0.
        5    1    3    3  502    0 -0.24220057713E+02  0.39925635468E+03 -0.77420036421E+03  0.87143590808E+03  0.46999998093E+01 0.  1.
       -5    1    3    3    0  502  0.24220057713E+02 -0.39925635468E+03 -0.76332702578E+03  0.86179027973E+03  0.46999998093E+01 0. -1.
</event>
<event>
 5   0  0.4392552E-04  0.7994909E+03  0.7818609E-02  0.9560754E-01
       -1   -1    0    0    0  501  0.00000000000E+00  0.00000000000E+00  0.23027963864E+03  0.23027963869E+03  0.50400001928E-02 0.  1.
        1   -1    0    0  501    0  0.00000000000E+00  0.00000000000E+00 -0.69392344838E+03  0.69392344840E+03  0.50400001928E-02 0. -1.
    10030    2    1    2    0    0  0.00000000000E+00  0.00000000000E+00 -0.46364380974E+03  0.92420308709E+03  0.79949094046E+03 0.  0.
        5    1    3    3  502    0 -0.37799075901E+03 -0.72683648606E+02 -0.35640316282E+03  0.52460006780E+03  0.46999998093E+01 0.  1.
       -5    1    3    3    0  502  0.37799075901E+03  0.72683648606E+02 -0.10724064692E+03  0.39960301929E+03  0.46999998093E+01 0. -1.
</event>
<event>
 5   0  0.6672462E-04  0.8002900E+03  0.7818609E-02  0.9559597E-01
        2   -1    0    0  501    0  0.00000000000E+00  0.00000000000E+00  0.24113682030E+03  0.24113682032E+03  0.25500000920E-02 0.  1.
       -2   -1    0    0    0  501  0.00000000000E+00  0.00000000000E+00 -0.66400487795E+03  0.66400487796E+03  0.25500000920E-02 0. -1.
    10030    2    1    2    0    0  0.00000000000E+00  0.00000000000E+00 -0.42286805765E+03  0.90514169827E+03  0.80029000979E+03 0.  0.
        5    1    3    3  502    0 -0.30018456572E+03 -0.25474210610E+03 -0.13074548248E+03  0.41487442113E+03  0.46999998093E+01 0.  1.
       -5    1    3    3    0  502  0.30018456572E+03  0.25474210610E+03 -0.29212257517E+03  0.49026727714E+03  0.46999998093E+01 0. -1.
</event>
<event>
 5   0  0.6672462E-04  0.7997244E+03  0.7818609E-02  0.9560416E-01
        2   -1    0    0  501    0  0.00000000000E+00  0.00000000000E+00  0.69396127368E+03  0.69396127369E+03  0.25500000920E-02 0. -1.
       -2   -1    0    0    0  501  0.00000000000E+00  0.00000000000E+00 -0.23040157377E+03  0.23040157379E+03  0.25500000920E-02 0.  1.
    10030    2    1    2    0    0  0.00000000000E+00  0.00000000000E+00  0.46355969991E+03  0.92436284747E+03  0.79972437653E+03 0.  0.
        5    1    3    3  502    0 -0.33534267561E+03  0.17042614044E+03  0.75129307549E+02  0.38362257790E+03  0.46999998093E+01 0.  1.
       -5    1    3    3    0  502  0.33534267561E+03 -0.17042614044E+03  0.38843039236E+03  0.54074026957E+03  0.46999998093E+01 0. -1.
</event>
<event>
 5   0  0.6801147E-04  0.7997331E+03  0.7818609E-02  0.9560403E-01
       -2   -1    0    0    0  501  0.00000000000E+00  0.00000000000E+00  0.44697549296E+03  0.44697549297E+03  0.25500000920E-02 0. -1.
        2   -1    0    0  501    0  0.00000000000E+00  0.00000000000E+00 -0.35772266575E+03  0.35772266576E+03  0.25500000920E-02 0.  1.
    10030    2    1    2    0    0  0.00000000000E+00  0.00000000000E+00  0.89252827217E+02  0.80469815873E+03  0.79973311767E+03 0.  0.
        4    1    3    3  502    0 -0.18476788873E+03 -0.22971393483E+03 -0.22720629976E+03  0.37219884485E+03  0.12699999809E+01 0.  1.
       -4    1    3    3    0  502  0.18476788873E+03  0.22971393483E+03  0.31645912697E+03  0.43249931388E+03  0.12699999809E+01 0. -1.
</event>
<event>
 5   0  0.4087283E-04  0.7999588E+03  0.7818609E-02  0.9560077E-01
        1   -1    0    0  501    0  0.00000000000E+00  0.00000000000E+00  0.56479036663E+03  0.56479036665E+03  0.50400001928E-02 0. -1.
       -1   -1    0    0    0  501  0.00000000000E+00  0.00000000000E+00 -0.28326178492E+03  0.28326178496E+03  0.50400001928E-02 0.  1.
    10030    2    1    2    0    0  0.00000000000E+00  0.00000000000E+00  0.28152858171E+03  0.84805215161E+03  0.79995881740E+03 0.  0.
        1    1    3    3  502    0 -0.99610877940E+02 -0.32596701549E+02 -0.26844558393E+03  0.28818033159E+03  0.50400001928E-02 0.  1.
       -1    1    3    3    0  502  0.99610877940E+02  0.32596701549E+02  0.54997416564E+03  0.55987182002E+03  0.50400001928E-02 0. -1.
</event>
<event>
 5   0  0.6672462E-04  0.7999555E+03  0.7818609E-02  0.9560082E-01
       -2   -1    0    0    0  501  0.00000000000E+00  0.00000000000E+00  0.22433238315E+03  0.22433238316E+03  0.25500000920E-02 0. -1.
        2   -1    0    0  501    0  0.00000000000E+00  0.00000000000E+00 -0.71314800644E+03  0.71314800644E+03  0.25500000920E-02 0.  1.
    10030    2    1    2    0    0  0.00000000000E+00  0.00000000000E+00 -0.48881562329E+03  0.93748038960E+03  0.79995547834E+03 0.  0.
        5    1    3    3  502    0 -0.18723402382E+03  0.18955170479E+03 -0.59397216198E+03  0.65100802428E+03  0.46999998093E+01 0.  1.
       -5    1    3    3    0  502  0.18723402382E+03 -0.18955170479E+03  0.10515653869E+03  0.28647236533E+03  0.46999998093E+01 0. -1.
</event>
<event>
 5   0  0.4086111E-04  0.7996765E+03  0.7818609E-02  0.9560485E-01
       -1   -1    0    0    0  501  0.00000000000E+00  0.00000000000E+00  0.26847902614E+03  0.26847902619E+03  0.50400001928E-02 0. -1.
        1   -1    0    0  501    0  0.00000000000E+00  0.00000000000E+00 -0.59546787235E+03  0.59546787237E+03  0.50400001928E-02 0.  1.
    10030    2    1    2    0    0  0.00000000000E+00  0.00000000000E+00 -0.32698884621E+03  0.86394689856E+03  0.79967652084E+03 0.  0.
        3    1    3    3  502    0 -0.52726834173E+01 -0.35700707837E+03  0.30938554277E+02  0.35838395547E+03  0.10100000352E+00 0. -1.
       -3    1    3    3    0  502  0.52726834173E+01  0.35700707837E+03 -0.35792740049E+03  0.50556294309E+03  0.10100000352E+00 0.  1.
</event>
<event>
 5   0  0.6970013E-04  0.8001895E+03  0.7818609E-02  0.9559743E-01
        2   -1    0    0  501    0  0.00000000000E+00  0.00000000000E+00  0.11502764692E+04  0.11502764692E+04  0.25500000920E-02 0. -1.
       -2   -1    0    0    0  501  0.00000000000E+00  0.00000000000E+00 -0.13916288810E+03  0.13916288813E+03  0.25500000920E-02 0.  1.
    10030    2    1    2    0    0  0.00000000000E+00  0.00000000000E+00  0.10111135811E+04  0.12894393573E+04  0.80018946652E+03 0.  0.
        3    1    3    3  502    0 -0.17695961870E+03 -0.21178253210E+03  0.38775994860E+02  0.27869362305E+03  0.10100000352E+00 0.  1.
       -3    1    3    3    0  502  0.17695961870E+03  0.21178253210E+03  0.97233758621E+03  0.10107457343E+04  0.10100000352E+00 0. -1.
</event>
<event>
 5   0  0.6672462E-04  0.7993724E+03  0.7818609E-02  0.9560926E-01
        2   -1    0    0  501    0  0.00000000000E+00  0.00000000000E+00  0.60716402239E+03  0.60716402240E+03  0.25500000920E-02 0. -1.
       -2   -1    0    0    0  501  0.00000000000E+00  0.00000000000E+00 -0.26310694803E+03  0.26310694804E+03  0.25500000920E-02 0.  1.
    10030    2    1    2    0    0  0.00000000000E+00  0.00000000000E+00  0.34405707436E+03  0.87027097043E+03  0.79937243608E+03 0.  0.
        5    1    3    3  502    0 -0.26059718289E+02 -0.31534801085E+03 -0.93763050615E+02  0.33005617177E+03  0.46999998093E+01 0.  1.
       -5    1    3    3    0  502  0.26059718289E+02  0.31534801085E+03  0.43782012498E+03  0.54021479867E+03  0.46999998093E+01 0. -1.
</event>
<event>
 5   0  0.4169155E-04  0.7996600E+03  0.7818609E-02  0.9560509E-01
        1   -1    0    0  501    0  0.00000000000E+00  0.00000000000E+00  0.73549343083E+03  0.73549343085E+03  0.50400001928E-02 0.  1.
       -1   -1    0    0    0  501  0.00000000000E+00  0.00000000000E+00 -0.21735618246E+03  0.21735618252E+03  0.50400001928E-02 0. -1.
    10030    2    1    2    0    0  0.00000000000E+00  0.00000000000E+00  0.51813724837E+03  0.95284961337E+03  0.79966003873E+03 0.  0.
        4    1    3    3  502    0  0.23967599744E+03  0.12849408807E+03  0.60831631309E+03  0.66633750013E+03  0.12699999809E+01 0.  1.
       -4    1    3    3    0  502 -0.23967599744E+03 -0.12849408807E+03 -0.90179064715E+02  0.28651211323E+03  0.12699999809E+01 0. -1.
</event>
<event>
 5   0  0.6970013E-04  0.7998721E+03  0.7818609E-02  0.9560202E-01
        2   -1    0    0  501    0  0.00000000000E+00  0.00000000000E+00  0.11907225730E+04  0.11907225730E+04  0.25500000920E-02 0. -1.
       -2   -1    0    0    0  501  0.00000000000E+00  0.00000000000E+00 -0.13432922315E+03  0.13432922317E+03  0.25500000920E-02 0.  1.
    10030    2    1    2    0    0  0.00000000000E+00  0.00000000000E+00  0.10563933498E+04  0.13250517961E+04  0.79987208535E+03 0.  0.
        3    1    3    3  502    0 -0.36083694293E+03  0.16132627862E+03  0.62922576698E+03  0.74307102191E+03  0.10100000352E+00 0.  1.
       -3    1    3    3    0  502  0.36083694293E+03 -0.16132627862E+03  0.42716758283E+03  0.58198077424E+03  0.10100000352E+00 0. -1.
</event>
<event>
 5   0  0.7133039E-04  0.7999573E+03  0.7818609E-02  0.9560079E-01
        2   -1    0    0  501    0  0.00000000000E+00  0.00000000000E+00  0.43859719435E+03  0.43859719436E+03  0.25500000920E-02 0.  1.
       -2   -1    0    0    0  501  0.00000000000E+00  0.00000000000E+00 -0.36476045193E+03  0.36476045194E+03  0.25500000920E-02 0. -1.
    10030    2    1    2    0    0  0.00000000000E+00  0.00000000000E+00  0.73836742422E+02  0.80335764629E+03  0.79995727594E+03 0.  0.
        2    1    3    3  502    0  0.18024907993E+03  0.34170152274E+03 -0.67123402740E+02  0.39211632542E+03  0.25500000920E-02 0. -1.
       -2    1    3    3    0  502 -0.18024907993E+03 -0.34170152274E+03  0.14096014516E+03  0.41124132087E+03  0.25500000920E-02 0.  1.
</event>
<event>
 5   0  0.6801147E-04  0.7999926E+03  0.7818609E-02  0.9560028E-01
       -2   -1    0    0    0  501  0.00000000000E+00  0.00000000000E+00  0.22184813934E+03  0.22184813936E+03  0.25500000920E-02 0. -1.
        2   -1    0    0  501    0  0.00000000000E+00  0.00000000000E+00 -0.72120068572E+03  0.72120068572E+03  0.25500000920E-02 0.  1.
    10030    2    1    2    0    0  0.00000000000E+00  0.00000000000E+00 -0.49935254637E+03  0.94304882508E+03  0.79999257554E+03 0.  0.
        4    1    3    3  502    0 -0.11839847776E+03  0.37904196436E+03 -0.30626472586E+03  0.50148848989E+03  0.12699999809E+01 0.  1.
       -4    1    3    3    0  502  0.11839847776E+03 -0.37904196436E+03 -0.19308782052E+03  0.44156033519E+03  0.12699999809E+01 0. -1.
</event>
<event>
 5   0  0.6970013E-04  0.7986266E+03  0.7818609E-02  0.9562007E-01
        2   -1    0    0  501    0  0.00000000000E+00  0.00000000000E+00  0.23120683673E+04  0.23120683673E+04  0.25500000920E-02 0.  1.
       -2   -1    0    0    0  501  0.00000000000E+00  0.00000000000E+00 -0.68964697771E+02  0.68964697818E+02  0.25500000920E-02 0. -1.
    10030    2    1    2    0    0  0.00000000000E+00  0.00000000000E+00  0.22431036695E+04  0.23810330651E+04  0.79862656163E+03 0.  0.
        3    1    3    3  502    0  0.11538607540E+03 -0.31988913484E+03  0.17455722398E+04  0.17783884445E+04  0.10100000352E+00 0.  1.
       -3    1    3    3    0  502 -0.11538607540E+03  0.31988913484E+03  0.49753142970E+03  0.60264462059E+03  0.10100000352E+00 0. -1.
</event>
<event>
 5   0  0.6593118E-04  0.7999242E+03  0.7818609E-02  0.9560127E-01
       -2   -1    0    0    0  501  0.00000000000E+00  0.00000000000E+00  0.22069833347E+03  0.22069833348E+03  0.25500000920E-02 0.  1.
        2   -1    0    0  501    0  0.00000000000E+00  0.00000000000E+00 -0.72483413791E+03  0.72483413792E+03  0.25500000920E-02 0. -1.
    10030    2    1    2    0    0  0.00000000000E+00  0.00000000000E+00 -0.50413580445E+03  0.94553247140E+03  0.79992421213E+03 0.  0.
        1    1    3    3  502    0 -0.24071336103E+03  0.31940605616E+03 -0.24904612253E+03  0.47115509342E+03  0.50400001928E-02 0. -1.
       -1    1    3    3    0  502  0.24071336103E+03 -0.31940605616E+03 -0.25508968192E+03  0.47437737798E+03  0.50400001928E-02 0.  1.
</event>
<event>
 5   0  0.6593118E-04  0.7988532E+03  0.7818609E-02  0.9561679E-01
        2   -1    0    0  501    0  0.00000000000E+00  0.00000000000E+00  0.78674194851E+03  0.78674194851E+03  0.25500000920E-02 0.  1.
       -2   -1    0    0    0  501  0.00000000000E+00  0.00000000000E+00 -0.20278771167E+03  0.20278771169E+03  0.25500000920E-02 0. -1.
    10030    2    1    2    0    0  0.00000000000E+00  0.00000000000E+00  0.58395423684E+03  0.98952966020E+03  0.79885317656E+03 0.  0.
        1    1    3    3  502    0  0.24849084572E+03 -0.24525916421E+03  0.53230119370E+03  0.63658802916E+03  0.50400001928E-02 0.  1.
       -1    1    3    3    0  502 -0.24849084572E+03  0.24525916421E+03  0.51653043140E+02  0.35294163104E+03  0.50400001928E-02 0. -1.
</event>
<event>
 5   0  0.4087283E-04  0.8000094E+03  0.7818609E-02  0.9560003E-01
        1   -1    0    0  501    0  0.00000000000E+00  0.00000000000E+00  0.15454961703E+03  0.15454961712E+03  0.50400001928E-02 0. -1.
       -1   -1    0    0    0  501  0.00000000000E+00  0.00000000000E+00 -0.10352906311E+04  0.10352906311E+04  0.50400001928E-02 0.  1.
    10030    2    1    2    0    0  0.00000000000E+00  0.00000000000E+00 -0.88074101404E+03  0.11898402482E+04  0.80000942646E+03 0.  0.
        1    1    3    3  502    0 -0.27969487608E+02 -0.27263313938E+03 -0.87371032413E+03  0.91568600046E+03  0.50400001928E-02 0.  1.
       -1    1    3    3    0  502  0.27969487608E+02  0.27263313938E+03 -0.70306899097E+01  0.27415424774E+03  0.50400001928E-02 0. -1.
</event>
<event>
 5   0  0.4104786E-04  0.8001741E+03  0.7818609E-02  0.9559765E-01
       -1   -1    0    0    0  501  0.00000000000E+00  0.00000000000E+00  0.44897194736E+03  0.44897194739E+03  0.50400001928E-02 0.  1.
        1   -1    0    0  501    0  0.00000000000E+00  0.00000000000E+00 -0.35652480823E+03  0.35652480827E+03  0.50400001928E-02 0. -1.
    10030    2    1    2    0    0  0.00000000000E+00  0.00000000000E+00  0.92447139129E+02  0.80549675566E+03  0.80017407471E+03 0.  0.
        2    1    3    3  502    0  0.20244029421E+03 -0.33320505078E+03  0.13660924513E+03  0.41312197284E+03  0.25500000920E-02 0.  1.
       -2    1    3    3    0  502 -0.20244029421E+03  0.33320505078E+03 -0.44162106002E+02  0.39237478282E+03  0.25500000920E-02 0. -1.
</event>
<event>
 5   0  0.6593118E-04  0.7999075E+03  0.7818609E-02  0.9560151E-01
        2   -1    0    0  501    0  0.00000000000E+00  0.00000000000E+00  0.56563121279E+03  0.56563121279E+03  0.25500000920E-02 0.  1.
       -2   -1    0    0    0  501  0.00000000000E+00  0.00000000000E+00 -0.28280440396E+03  0.28280440397E+03  0.25500000920E-02 0. -1.
    10030    2    1    2    0    0  0.00000000000E+00  0.00000000000E+00  0.28282680883E+03  0.84843561676E+03  0.79990748965E+03 0.  0.
        1    1    3    3  502    0  0.16659960888E+03  0.15512604217E+03 -0.20738886148E+03  0.30794424581E+03  0.50400001928E-02 0. -1.
       -1    1    3    3    0  502 -0.16659960888E+03 -0.15512604217E+03  0.49021567031E+03  0.54049137095E+03  0.50400001928E-02 0.  1.
</event>
<event>
 5   0  0.4086111E-04  0.8009073E+03  0.7818609E-02  0.9558705E-01
        1   -1    0    0  501    0  0.00000000000E+00  0.00000000000E+00  0.19650280379E+03  0.19650280386E+03  0.50400001928E-02 0. -1.
       -1   -1    0    0    0  501  0.00000000000E+00  0.00000000000E+00 -0.81608576419E+03  0.81608576421E+03  0.50400001928E-02 0.  1.
    10030    2    1    2    0    0  0.00000000000E+00  0.00000000000E+00 -0.61958296040E+03  0.10125885681E+04  0.80090733756E+03 0.  0.
        3    1    3    3  502    0  0.25783907657E+03 -0.69340637946E+02  0.67542804416E+02  0.27541088233E+03  0.10100000352E+00 0. -1.
       -3    1    3    3    0  502 -0.25783907657E+03  0.69340637946E+02 -0.68712576481E+03  0.73717768573E+03  0.10100000352E+00 0.  1.
</event>
<event>
 5   0  0.6672462E-04  0.8002230E+03  0.7818609E-02  0.9559694E-01
        2   -1    0    0  501    0  0.00000000000E+00  0.00000000000E+00  0.71914200585E+03  0.71914200585E+03  0.25500000920E-02 0. -1.
       -2   -1    0    0    0  501  0.00000000000E+00  0.00000000000E+00 -0.22261142373E+03  0.22261142375E+03  0.25500000920E-02 0.  1.
    10030    2    1    2    0    0  0.00000000000E+00  0.00000000000E+00  0.49653058212E+03  0.94175342960E+03  0.80022303340E+03 0.  0.
        5    1    3    3  502    0 -0.25418310881E+03 -0.23602774854E+03  0.48289833984E+03  0.59458476898E+03  0.46999998093E+01 0. -1.
       -5    1    3    3    0  502  0.25418310881E+03  0.23602774854E+03  0.13632242274E+02  0.34716866061E+03  0.46999998093E+01 0.  1.
</event>
<event>
 5   0  0.4086111E-04  0.8003079E+03  0.7818609E-02  0.9559571E-01
       -1   -1    0    0    0  501  0.00000000000E+00  0.00000000000E+00  0.50344944134E+03  0.50344944136E+03  0.50400001928E-02 0. -1.
        1   -1    0    0  501    0  0.00000000000E+00  0.00000000000E+00 -0.31805218820E+03  0.31805218824E+03  0.50400001928E-02 0.  1.
    10030    2    1    2    0    0  0.00000000000E+00  0.00000000000E+00  0.18539725314E+03  0.82150162960E+03  0.80030793196E+03 0.  0.
        3    1    3    3  502    0 -0.69285925050E+02  0.11658560342E+03 -0.29374209269E+03  0.32353851324E+03  0.10100000352E+00 0.  1.
       -3    1    3    3    0  502  0.69285925050E+02 -0.11658560342E+03  0.47913934583E+03  0.49796311636E+03  0.10100000352E+00 0. -1.
</event>
<event>
 5   0  0.7133039E-04  0.7977928E+03  0.7818609E-02  0.9563217E-01
        2   -1    0    0  501    0  0.00000000000E+00  0.00000000000E+00  0.12893366951E+04  0.12893366951E+04  0.25500000920E-02 0. -1.
       -2   -1    0    0    0  501  0.00000000000E+00  0.00000000000E+00 -0.12341101855E+03  0.12341101857E+03  0.25500000920E-02 0.  1.
    10030    2    1    2    0    0  0.00000000000E+00  0.00000000000E+00  0.11659256765E+04  0.14127477136E+04  0.79779284230E+03 0.  0.
        2    1    3    3  502    0 -0.89369928211E+01 -0.27287066542E+03  0.10979643881E+04  0.11313991636E+04  0.25500000920E-02 0. -1.
       -2    1    3    3    0  502  0.89369928211E+01  0.27287066542E+03  0.67961288452E+02  0.28134855006E+03  0.25500000920E-02 0.  1.
</event>
<event>
 5   0  0.4169155E-04  0.7986601E+03  0.7818609E-02  0.9561959E-01
        1   -1    0    0  501    0  0.00000000000E+00  0.00000000000E+00  0.40866848693E+03  0.40866848696E+03  0.50400001928E-02 0. -1.
       -1   -1    0    0    0  501  0.00000000000E+00  0.00000000000E+00 -0.39020496424E+03  0.39020496427E+03  0.50400001928E-02 0.  1.
    10030    2    1    2    0    0  0.00000000000E+00  0.00000000000E+00  0.18463522692E+02  0.79887345124E+03  0.79866005874E+03 0.  0.
        4    1    3    3  502    0  0.33657117812E+03  0.80870168718E+01 -0.20557500986E+03  0.39447212242E+03  0.12699999809E+01 0.  1.
       -4    1    3    3    0  502 -0.33657117812E+03 -0.80870168718E+01  0.22403853255E+03  0.40440132882E+03  0.12699999809E+01 0. -1.
</event>
<event>
 5   0  0.4392552E-04  0.7995709E+03  0.7818609E-02  0.9560638E-01
        1   -1    0    0  501    0  0.00000000000E+00  0.00000000000E+00  0.57535545176E+03  0.57535545178E+03  0.50400001928E-02 0. -1.
       -1   -1    0    0    0  501  0.00000000000E+00  0.00000000000E+00 -0.27779073941E+03  0.27779073946E+03  0.50400001928E-02 0.  1.
    10030    2    1    2    0    0  0.00000000000E+00  0.00000000000E+00  0.29756471235E+03  0.85314619124E+03  0.79957092593E+03 0.  0.
        5    1    3    3  502    0  0.12447946403E+03  0.37941229960E+03  0.12860788016E+03  0.41953653821E+03  0.46999998093E+01 0.  1.
       -5    1    3    3    0  502 -0.12447946403E+03 -0.37941229960E+03  0.16895683219E+03  0.43360965303E+03  0.46999998093E+01 0. -1.
</event>
<event>
 5   0  0.4087283E-04  0.7992516E+03  0.7818609E-02  0.9561101E-01
       -1   -1    0    0    0  501  0.00000000000E+00  0.00000000000E+00  0.74315620968E+02  0.74315621139E+02  0.50400001928E-02 0.  1.
        1   -1    0    0  501    0  0.00000000000E+00  0.00000000000E+00 -0.21489531512E+04  0.21489531512E+04  0.50400001928E-02 0. -1.
    10030    2    1    2    0    0  0.00000000000E+00  0.00000000000E+00 -0.20746375303E+04  0.22232687724E+04  0.79925162011E+03 0.  0.
        1    1    3    3  502    0  0.57882448303E+02  0.22581673379E+03 -0.19402206913E+04  0.19541749937E+04  0.50400001928E-02 0. -1.
       -1    1    3    3    0  502 -0.57882448303E+02 -0.22581673379E+03 -0.13441683892E+03  0.26909377862E+03  0.50400001928E-02 0.  1.
</event>
<event>
 5   0  0.4104786E-04  0.7999625E+03  0.7818609E-02  0.9560071E-01
       -1   -1    0    0    0  501  0.00000000000E+00  0.00000000000E+00  0.82463583857E+02  0.82463584011E+02  0.50400001928E-02 0. -1.
        1   -1    0    0  501    0  0.00000000000E+00  0.00000000000E+00 -0.19400683973E+04  0.19400683973E+04  0.50400001928E-02 0.  1.
    10030    2    1    2    0    0  0.00000000000E+00  0.00000000000E+00 -0.18576048135E+04  0.20225319814E+04  0.79996248196E+03 0.  0.
        2    1    3    3  502    0  0.14727644337E+02 -0.28318622168E+02 -0.19368431829E+04  0.19371061827E+04  0.25500000920E-02 0.  1.
       -2    1    3    3    0  502 -0.14727644337E+02  0.28318622168E+02  0.79238369460E+02  0.85425798623E+02  0.25500000920E-02 0. -1.
</event>
<event>
 5   0  0.6970013E-04  0.8014622E+03  0.7818609E-02  0.9557903E-01
        2   -1    0    0  501    0  0.00000000000E+00  0.00000000000E+00  0.14517095822E+04  0.14517095822E+04  0.25500000920E-02 0. -1.
       -2   -1    0    0    0  501  0.00000000000E+00  0.00000000000E+00 -0.11061814850E+03  0.11061814853E+03  0.25500000920E-02 0.  1.
    10030    2    1    2    0    0  0.00000000000E+00  0.00000000000E+00  0.13410914337E+04  0.15623277307E+04  0.80146222909E+03 0.  0.
        3    1    3    3  502    0 -0.26484989946E+03 -0.21118152270E+03  0.10879167784E+04  0.11394323287E+04  0.10100000352E+00 0. -1.
       -3    1    3    3    0  502  0.26484989946E+03  0.21118152270E+03  0.25317465536E+03  0.42289540207E+03  0.10100000352E+00 0.  1.
</event>
<event>
 5   0  0.6593118E-04  0.8000953E+03  0.7818609E-02  0.9559879E-01
        2   -1    0    0  501    0  0.00000000000E+00  0.00000000000E+00  0.24520395250E+03  0.24520395251E+03  0.25500000920E-02 0. -1.
       -2   -1    0    0    0  501  0.00000000000E+00  0.00000000000E+00 -0.65267349204E+03  0.65267349204E+03  0.25500000920E-02 0.  1.
    10030    2    1    2    0    0  0.00000000000E+00  0.00000000000E+00 -0.40746953954E+03  0.89787744456E+03  0.80009529420E+03 0.  0.
        1    1    3    3  502    0 -0.24185239633E+03  0.16514049679E+03 -0.50957471308E+03  0.58773323330E+03  0.50400001928E-02 0.  1.
       -1    1    3    3    0  502  0.24185239633E+03 -0.16514049679E+03  0.10210517354E+03  0.31014421126E+03  0.50400001928E-02 0. -1.
</event>
<event>
 5   0  0.2736375E-04  0.8000207E+03  0.7818609E-02  0.9559987E-01
        4   -1    0    0  501    0  0.00000000000E+00  0.00000000000E+00  0.86867696673E+03  0.86867789510E+03  0.12699999809E+01 0. -1.
       -4   -1    0    0    0  501  0.00000000000E+00  0.00000000000E+00 -0.18419446796E+03  0.18419884616E+03  0.12699999809E+01 0.  1.
    10030    2    1    2    0    0  0.00000000000E+00  0.00000000000E+00  0.68448249878E+03  0.10528767413E+04  0.80002071295E+03 0.  0.
        5    1    3    3  502    0 -0.24199001204E+02  0.94744496721E+02  0.85266983520E+03  0.85827154746E+03  0.46999998093E+01 0. -1.
       -5    1    3    3    0  502  0.24199001204E+02 -0.94744496721E+02 -0.16818733643E+03  0.19460519379E+03  0.46999998093E+01 0.  1.
</event>
<event>
 5   0  0.4104786E-04  0.8008147E+03  0.7818609E-02  0.9558839E-01
        1   -1    0    0  501    0  0.00000000000E+00  0.00000000000E+00  0.23726356709E+03  0.23726356714E+03  0.50400001928E-02 0.  1.
       -1   -1    0    0    0  501  0.00000000000E+00  0.00000000000E+00 -0.67572974926E+03  0.67572974928E+03  0.50400001928E-02 0. -1.
    10030    2    1    2    0    0  0.00000000000E+00  0.00000000000E+00 -0.43846618218E+03  0.91299331642E+03  0.80081471198E+03 0.  0.
        2    1    3    3  502    0  0.16013370283E+03 -0.49848384977E+02  0.19528990875E+03  0.25742146906E+03  0.25500000920E-02 0.  1.
       -2    1    3    3    0  502 -0.16013370283E+03  0.49848384977E+02 -0.63375609093E+03  0.65557184737E+03  0.25500000920E-02 0. -1.
</event>
<event>
 5   0  0.4086111E-04  0.7999875E+03  0.7818609E-02  0.9560035E-01
       -1   -1    0    0    0  501  0.00000000000E+00  0.00000000000E+00  0.25468929996E+03  0.25468930001E+03  0.50400001928E-02 0.  1.
        1   -1    0    0  501    0  0.00000000000E+00  0.00000000000E+00 -0.62819674369E+03  0.62819674371E+03  0.50400001928E-02 0. -1.
    10030    2    1    2    0    0  0.00000000000E+00  0.00000000000E+00 -0.37350744372E+03  0.88288604372E+03  0.79998747221E+03 0.  0.
        3    1    3    3  502    0 -0.32532806658E+03  0.21167063295E+03 -0.80025890636E+02  0.39629151029E+03  0.10100000352E+00 0.  1.
       -3    1    3    3    0  502  0.32532806658E+03 -0.21167063295E+03 -0.29348155309E+03  0.48659453343E+03  0.10100000352E+00 0. -1.
</event>
<event>
 5   0  0.4169155E-04  0.8005574E+03  0.7818609E-02  0.9559211E-01
       -1   -1    0    0    0  501  0.00000000000E+00  0.00000000000E+00  0.35881777138E+03  0.35881777141E+03  0.50400001928E-02 0.  1.
        1   -1    0    0  501    0  0.00000000000E+00  0.00000000000E+00 -0.44653039841E+03  0.44653039844E+03  0.50400001928E-02 0. -1.
    10030    2    1    2    0    0  0.00000000000E+00  0.00000000000E+00 -0.87712627029E+02  0.80534816985E+03  0.80055741190E+03 0.  0.
        4    1    3    3  502    0 -0.98559227503E+01  0.32809220543E+02 -0.44505092229E+03  0.44636926473E+03  0.12699999809E+01 0. -1.
       -4    1    3    3    0  502  0.98559227503E+01 -0.32809220543E+02  0.35733829526E+03  0.35897890512E+03  0.12699999809E+01 0.  1.
</event>
<event>
 5   0  0.7133039E-04  0.7997471E+03  0.7818609E-02  0.9560383E-01
       -2   -1    0    0    0  501  0.00000000000E+00  0.00000000000E+00  0.11963900037E+03  0.11963900039E+03  0.25500000920E-02 0.  1.
        2   -1    0    0  501    0  0.00000000000E+00  0.00000000000E+00 -0.13365110331E+04  0.13365110331E+04  0.25500000920E-02 0. -1.
    10030    2    1    2    0    0  0.00000000000E+00  0.00000000000E+00 -0.12168720328E+04  0.14561500335E+04  0.79974707003E+03 0.  0.
        2    1    3    3  502    0 -0.36149478177E+03  0.67361663571E+02 -0.32238042458E+03  0.48902475308E+03  0.25500000920E-02 0.  1.
       -2    1    3    3    0  502  0.36149478177E+03 -0.67361663571E+02 -0.89449160817E+03  0.96712528044E+03  0.25500000920E-02 0. -1.
</event>
<event>
 5   0  0.6593118E-04  0.8011853E+03  0.7818609E-02  0.9558303E-01
       -2   -1    0    0    0  501  0.00000000000E+00  0.00000000000E+00  0.37343522338E+03  0.37343522339E+03  0.25500000920E-02 0. -1.
        2   -1    0    0  501    0  0.00000000000E+00  0.00000000000E+00 -0.42972503480E+03  0.42972503481E+03  0.25500000920E-02 0.  1.
    10030    2    1    2    0    0  0.00000000000E+00  0.00000000000E+00 -0.56289811419E+02  0.80316025819E+03  0.80118528286E+03 0.  0.
        1    1    3    3  502    0  0.25522932817E+03  0.22819223560E+03 -0.23664982700E+03  0.41619328081E+03  0.50400001928E-02 0.  1.
       -1    1    3    3    0  502 -0.25522932817E+03 -0.22819223560E+03  0.18036001558E+03  0.38696697739E+03  0.50400001928E-02 0. -1.
</event>
<event>
 5   0  0.2736375E-04  0.7999001E+03  0.7818609E-02  0.9560162E-01
        3   -1    0    0  501    0  0.00000000000E+00  0.00000000000E+00  0.25957104850E+03  0.25957106815E+03  0.10100000352E+00 0. -1.
       -3   -1    0    0    0  501  0.00000000000E+00  0.00000000000E+00 -0.61624751632E+03  0.61624752460E+03  0.10100000352E+00 0.  1.
    10030    2    1    2    0    0  0.00000000000E+00  0.00000000000E+00 -0.35667646782E+03  0.87581859275E+03  0.79990005920E+03 0.  0.
        4    1    3    3  502    0 -0.25435340473E+03 -0.22994524950E+03 -0.40376194352E+03  0.52971293377E+03  0.12699999809E+01 0.  1.
       -4    1    3    3    0  502  0.25435340473E+03  0.22994524950E+03  0.47085475702E+02  0.34610565899E+03  0.12699999809E+01 0. -1.
</event>
<event>
 5   0  0.4087283E-04  0.7978631E+03  0.7818609E-02  0.9563115E-01
       -1   -1    0    0    0  501  0.00000000000E+00  0.00000000000E+00  0.99912085075E+03  0.99912085076E+03  0.50400001928E-02 0.  1.
        1   -1    0    0  501    0  0.00000000000E+00  0.00000000000E+00 -0.15928643180E+03  0.15928643188E+03  0.50400001928E-02 0. -1.
    10030    2    1    2    0    0  0.00000000000E+00  0.00000000000E+00  0.83983441895E+03  0.11584072826E+04  0.79786313441E+03 0.  0.
        1    1    3    3  502    0  0.19426050925E+02  0.19308487433E+03 -0.86138396553E+02  0.21231807162E+03  0.50400001928E-02 0. -1.
       -1    1    3    3    0  502 -0.19426050925E+02 -0.19308487433E+03  0.92597281550E+03  0.94608921102E+03  0.50400001928E-02 0.  1.
</event>
<event>
 5   0  0.7133039E-04  0.7974974E+03  0.7818609E-02  0.9563647E-01
       -2   -1    0    0    0  501  0.00000000000E+00  0.00000000000E+00  0.35751213583E+03  0.35751213583E+03  0.25500000920E-02 0.  1.
        2   -1    0    0  501    0  0.00000000000E+00  0.00000000000E+00 -0.44474161016E+03  0.44474161017E+03  0.25500000920E-02 0. -1.
    10030    2    1    2    0    0  0.00000000000E+00  0.00000000000E+00 -0.87229474339E+02  0.80225374601E+03  0.79749739297E+03 0.  0.
        2    1    3    3  502    0  0.20828396728E+03  0.33735708326E+03 -0.83452107533E+00  0.39647535747E+03  0.25500000920E-02 0.  1.
       -2    1    3    3    0  502 -0.20828396728E+03 -0.33735708326E+03 -0.86394953263E+02  0.40577838854E+03  0.25500000920E-02 0. -1.
</event>
<event>
 5   0  0.4087283E-04  0.8003831E+03  0.7818609E-02  0.9559463E-01
       -1   -1    0    0    0  501  0.00000000000E+00  0.00000000000E+00  0.37432541200E+03  0.37432541203E+03  0.50400001928E-02 0. -1.
        1   -1    0    0  501    0  0.00000000000E+00  0.00000000000E+00 -0.42784505203E+03  0.42784505206E+03  0.50400001928E-02 0.  1.
    10030    2    1    2    0    0  0.00000000000E+00  0.00000000000E+00 -0.53519640026E+02  0.80217046409E+03  0.80038309677E+03 0.  0.
        1    1    3    3  502    0 -0.26011669014E+02  0.47488334027E+02 -0.42415698396E+03  0.42759898955E+03  0.50400001928E-02 0.  1.
       -1    1    3    3    0  502  0.26011669014E+02 -0.47488334027E+02  0.37063734394E+03  0.37457147454E+03  0.50400001928E-02 0. -1.
</event>
<event>
 5   0  0.6593118E-04  0.8000470E+03  0.7818609E-02  0.9559949E-01
       -2   -1    0    0    0  501  0.00000000000E+00  0.00000000000E+00  0.69967168744E+02  0.69967168790E+02  0.25500000920E-02 0. -1.
        2   -1    0    0  501    0  0.00000000000E+00  0.00000000000E+00 -0.22870553634E+04  0.22870553634E+04  0.25500000920E-02 0.  1.
    10030    2    1    2    0    0  0.00000000000E+00  0.00000000000E+00 -0.22170881946E+04  0.23570225322E+04  0.80004697010E+03 0.  0.
        1    1    3    3  502    0  0.29311668196E+03  0.24432760866E+03 -0.14621432343E+04  0.15111175359E+04  0.50400001928E-02 0.  1.
       -1    1    3    3    0  502 -0.29311668196E+03 -0.24432760866E+03 -0.75494496031E+03  0.84590499627E+03  0.50400001928E-02 0. -1.
</event>
<event>
 5   0  0.4086111E-04  0.8018979E+03  0.7818609E-02  0.9557274E-01
        1   -1    0    0  501    0  0.00000000000E+00  0.00000000000E+00  0.81148376091E+03  0.81148376093E+03  0.50400001928E-02 0. -1.
       -1   -1    0    0    0  501  0.00000000000E+00  0.00000000000E+00 -0.19810632956E+03  0.19810632962E+03  0.50400001928E-02 0.  1.
    10030    2    1    2    0    0  0.00000000000E+00  0.00000000000E+00  0.61337743135E+03  0.10095900905E+04  0.80189792221E+03 0.  0.
        3    1    3    3  502    0 -0.15211916568E+03  0.11916108453E+03 -0.13561395513E+03  0.23607363186E+03  0.10100000352E+00 0.  1.
       -3    1    3    3    0  502  0.15211916568E+03 -0.11916108453E+03  0.74899138648E+03  0.77351645868E+03  0.10100000352E+00 0. -1.
</event>
<event>
 5   0  0.6672462E-04  0.7998026E+03  0.7818609E-02  0.9560303E-01
       -2   -1    0    0    0  501  0.00000000000E+00  0.00000000000E+00  0.30447935013E+03  0.30447935014E+03  0.25500000920E-02 0. -1.
        2   -1    0    0  501    0  0.00000000000E+00  0.00000000000E+00 -0.52522791947E+03  0.52522791948E+03  0.25500000920E-02 0.  1.
    10030    2    1    2    0    0  0.00000000000E+00  0.00000000000E+00 -0.22074856934E+03  0.82970726962E+03  0.79980261464E+03 0.  0.
        5    1    3    3  502    0 -0.53694675212E+02 -0.35466870283E+03  0.72941543871E+02  0.36608136491E+03  0.46999998093E+01 0. -1.
       -5    1    3    3    0  502  0.53694675212E+02  0.35466870283E+03 -0.29369011322E+03  0.46362590471E+03  0.46999998093E+01 0.  1.
</event>
<event>
 5   0  0.6593118E-04  0.7999395E+03  0.7818609E-02  0.9560105E-01
        2   -1    0    0  501    0  0.00000000000E+00  0.00000000000E+00  0.16815880974E+04  0.16815880974E+04  0.25500000920E-02 0. -1.
       -2   -1    0    0    0  501  0.00000000000E+00  0.00000000000E+00 -0.95133765105E+02  0.95133765139E+02  0.25500000920E-02 0.  1.
    10030    2    1    2    0    0  0.00000000000E+00  0.00000000000E+00  0.15864543322E+04  0.17767218625E+04  0.79993951543E+03 0.  0.
        1    1    3    3  502    0 -0.12010687647E+03 -0.29819176212E+03  0.26466929005E+03  0.41640583797E+03  0.50400001928E-02 0.  1.
       -1    1    3    3    0  502  0.12010687647E+03  0.29819176212E+03  0.13217850422E+04  0.13603160245E+04  0.50400001928E-02 0. -1.
</event>
<event>
 5   0  0.4104786E-04  0.8000581E+03  0.7818609E-02  0.9559933E-01
       -1   -1    0    0    0  501  0.00000000000E+00  0.00000000000E+00  0.17178922973E+03  0.17178922981E+03  0.50400001928E-02 0.  1.
        1   -1    0    0  501    0  0.00000000000E+00  0.00000000000E+00 -0.93150923009E+03  0.93150923010E+03  0.50400001928E-02 0. -1.
    10030    2    1    2    0    0  0.00000000000E+00  0.00000000000E+00 -0.75972000036E+03  0.11032984599E+04  0.80005813083E+03 0.  0.
        2    1    3    3  502    0  0.27820195836E+03  0.43223844757E+01 -0.77621391749E+03  0.82457447108E+03  0.25500000920E-02 0. -1.
       -2    1    3    3    0  502 -0.27820195836E+03 -0.43223844757E+01  0.16493917138E+02  0.27872398883E+03  0.25500000920E-02 0.  1.
</event>
<event>
 5   0  0.7133039E-04  0.8006727E+03  0.7818609E-02  0.9559044E-01
       -2   -1    0    0    0  501  0.00000000000E+00  0.00000000000E+00  0.16060603437E+03  0.16060603439E+03  0.25500000920E-02 0. -1.
        2   -1    0    0  501    0  0.00000000000E+00  0.00000000000E+00 -0.99790274173E+03  0.99790274174E+03  0.25500000920E-02 0.  1.
    10030    2    1    2    0    0  0.00000000000E+00  0.00000000000E+00 -0.83729670736E+03  0.11585087761E+04  0.80067272228E+03 0.  0.
        2    1    3    3  502    0  0.29537365026E+03 -0.21435209244E+03 -0.18055740946E+03  0.40717734578E+03  0.25500000920E-02 0. -1.
       -2    1    3    3    0  502 -0.29537365026E+03  0.21435209244E+03 -0.65673929791E+03  0.75133143035E+03  0.25500000920E-02 0.  1.
</event>
<event>
 5   0  0.6593118E-04  0.7996049E+03  0.7818609E-02  0.9560589E-01
        2   -1    0    0  501    0  0.00000000000E+00  0.00000000000E+00  0.18179116984E+04  0.18179116984E+04  0.25500000920E-02 0. -1.
       -2   -1    0    0    0  501  0.00000000000E+00  0.00000000000E+00 -0.87926160275E+02  0.87926160312E+02  0.25500000920E-02 0.  1.
    10030    2    1    2    0    0  0.00000000000E+00  0.00000000000E+00  0.17299855381E+04  0.19058378587E+04  0.79960489091E+03 0.  0.
        1    1    3    3  502    0  0.15886055766E+03  0.21348486216E+03  0.15381601327E+03  0.30736269962E+03  0.50400001928E-02 0.  1.
       -1    1    3    3    0  502 -0.15886055766E+03 -0.21348486216E+03  0.15761695248E+04  0.15984751590E+04  0.50400001928E-02 0. -1.
</event>
<event>
 5   0  0.4104786E-04  0.7999002E+03  0.7818609E-02  0.9560162E-01
       -1   -1    0    0    0  501  0.00000000000E+00  0.00000000000E+00  0.61723710701E+03  0.61723710703E+03  0.50400001928E-02 0.  1.
        1   -1    0    0  501    0  0.00000000000E+00  0.00000000000E+00 -0.25915503045E+03  0.25915503050E+03  0.50400001928E-02 0. -1.
    10030    2    1    2    0    0  0.00000000000E+00  0.00000000000E+00  0.35808207656E+03  0.87639213753E+03  0.79990024701E+03 0.  0.
        2    1    3    3  502    0  0.54081872098E+02  0.85938719836E+02  0.60287982324E+03  0.61137091339E+03  0.25500000920E-02 0.  1.
       -2    1    3    3    0  502 -0.54081872098E+02 -0.85938719836E+02 -0.24479774668E+03  0.26502122414E+03  0.25500000920E-02 0. -1.
</event>
<event>
 5   0  0.4169155E-04  0.8007505E+03  0.7818609E-02  0.9558931E-01
        1   -1    0    0  501    0  0.00000000000E+00  0.00000000000E+00  0.28313971104E+03  0.28313971108E+03  0.50400001928E-02 0. -1.
       -1   -1    0    0    0  501  0.00000000000E+00  0.00000000000E+00 -0.56615274495E+03  0.56615274498E+03  0.50400001928E-02 0.  1.
    10030    2    1    2    0    0  0.00000000000E+00  0.00000000000E+00 -0.28301303392E+03  0.84929245606E+03  0.80075045960E+03 0.  0.
        4    1    3    3  502    0  0.38005830864E+03 -0.62144450291E+02 -0.25357850334E+02  0.38594155534E+03  0.12699999809E+01 0.  1.
       -4    1    3    3    0  502 -0.38005830864E+03  0.62144450291E+02 -0.25765518358E+03  0.46335090072E+03  0.12699999809E+01 0. -1.
</event>
<event>
 5   0  0.6672462E-04  0.8003386E+03  0.7818609E-02  0.9559527E-01
        2   -1    0    0  501    0  0.00000000000E+00  0.00000000000E+00  0.95308222469E+03  0.95308222469E+03  0.25500000920E-02 0. -1.
       -2   -1    0    0    0  501  0.00000000000E+00  0.00000000000E+00 -0.16801852352E+03  0.16801852354E+03  0.25500000920E-02 0.  1.
    10030    2    1    2    0    0  0.00000000000E+00  0.00000000000E+00  0.78506370117E+03  0.11211007482E+04  0.80033859884E+03 0.  0.
        5    1    3    3  502    0 -0.35210264983E+03  0.16343234193E+03  0.52853751100E+03  0.65578990304E+03  0.46999998093E+01 0.  1.
       -5    1    3    3    0  502  0.35210264983E+03 -0.16343234193E+03  0.25652619017E+03  0.46531084519E+03  0.46999998093E+01 0. -1.
</event>
<event>
 5   0  0.4086111E-04  0.7997665E+03  0.7818609E-02  0.9560355E-01
       -1   -1    0    0    0  501  0.00000000000E+00  0.00000000000E+00  0.31085163326E+03  0.31085163330E+03  0.50400001928E-02 0. -1.
        1   -1    0    0  501    0  0.00000000000E+00  0.00000000000E+00 -0.51441463259E+03  0.51441463261E+03  0.50400001928E-02 0.  1.
    10030    2    1    2    0    0  0.00000000000E+00  0.00000000000E+00 -0.20356299933E+03  0.82526626592E+03  0.79976653779E+03 0.  0.
        3    1    3    3  502    0 -0.25043696759E+03  0.11386973292E+03  0.19768116109E+03  0.33876664898E+03  0.10100000352E+00 0. -1.
       -3    1    3    3    0  502  0.25043696759E+03 -0.11386973292E+03 -0.40124416042E+03  0.48649961694E+03  0.10100000352E+00 0.  1.
</event>
<event>
 5   0  0.4087283E-04  0.8001817E+03  0.7818609E-02  0.9559754E-01
        1   -1    0    0  501    0  0.00000000000E+00  0.00000000000E+00  0.72004301138E+03  0.72004301140E+03  0.50400001928E-02 0.  1.
       -1   -1    0    0    0  501  0.00000000000E+00  0.00000000000E+00 -0.22230989019E+03  0.22230989025E+03  0.50400001928E-02 0. -1.
    10030    2    1    2    0    0  0.00000000000E+00  0.00000000000E+00  0.49773312119E+03  0.94235290165E+03  0.80018168644E+03 0.  0.
        1    1    3    3  502    0 -0.20832473134E+03 -0.34050317254E+03  0.28070904919E+03  0.48799505583E+03  0.50400001928E-02 0. -1.
       -1    1    3    3    0  502  0.20832473134E+03  0.34050317254E+03  0.21702407200E+03  0.45435784581E+03  0.50400001928E-02 0.  1.
</event>
<event>
 5   0  0.6970013E-04  0.7989765E+03  0.7818609E-02  0.9561500E-01
       -2   -1    0    0    0  501  0.00000000000E+00  0.00000000000E+00  0.64156670418E+03  0.64156670418E+03  0.25500000920E-02 0. -1.
        2   -1    0    0  501    0  0.00000000000E+00  0.00000000000E+00 -0.24875180093E+03  0.24875180094E+03  0.25500000920E-02 0.  1.
    10030    2    1    2    0    0  0.00000000000E+00  0.00000000000E+00  0.39281490325E+03  0.89031850512E+03  0.79897652803E+03 0.  0.
        3    1    3    3  502    0 -0.27833292849E+03 -0.26020393107E+03  0.33019851607E+03  0.50418882876E+03  0.10100000352E+00 0. -1.
       -3    1    3    3    0  502  0.27833292849E+03  0.26020393107E+03  0.62616387179E+02  0.38612967637E+03  0.10100000352E+00 0.  1.
</event>
<event>
 5   0  0.6672462E-04  0.7999364E+03  0.7818609E-02  0.9560109E-01
       -2   -1    0    0    0  501  0.00000000000E+00  0.00000000000E+00  0.44867911952E+03  0.44867911952E+03  0.25500000920E-02 0.  1.
        2   -1    0    0  501    0  0.00000000000E+00  0.00000000000E+00 -0.35654557324E+03  0.35654557325E+03  0.25500000920E-02 0. -1.
    10030    2    1    2    0    0  0.00000000000E+00  0.00000000000E+00  0.92133546274E+02  0.80522469278E+03  0.79993638216E+03 0.  0.
        5    1    3    3  502    0  0.11393294717E+02  0.85759710827E+02  0.43911956466E+03  0.44758531838E+03  0.46999998093E+01 0.  1.
       -5    1    3    3    0  502 -0.11393294717E+02 -0.85759710827E+02 -0.34698601838E+03  0.35763937440E+03  0.46999998093E+01 0. -1.
</event>
<event>
 5   0  0.4392552E-04  0.8001695E+03  0.7818609E-02  0.9559772E-01
       -1   -1    0    0    0  501  0.00000000000E+00  0.00000000000E+00  0.23196520908E+03  0.23196520913E+03  0.50400001928E-02 0.  1.
        1   -1    0    0  501    0  0.00000000000E+00  0.00000000000E+00 -0.69005096408E+03  0.69005096410E+03  0.50400001928E-02 0. -1.
    10030    2    1    2    0    0  0.00000000000E+00  0.00000000000E+00 -0.45808575500E+03  0.92201617323E+03  0.80016952252E+03 0.  0.
        5    1    3    3  502    0 -0.25865353099E+03  0.14814211270E+03  0.78418384072E+02  0.30825195475E+03  0.46999998093E+01 0.  1.
       -5    1    3    3    0  502  0.25865353099E+03 -0.14814211270E+03 -0.53650413908E+03  0.61376421848E+03  0.46999998093E+01 0. -1.
</event>
<event>
 5   0  0.4104786E-04  0.7997709E+03  0.7818609E-02  0.9560349E-01
        1   -1    0    0  501    0  0.00000000000E+00  0.00000000000E+00  0.11625924409E+04  0.11625924409E+04  0.50400001928E-02 0. -1.
       -1   -1    0    0    0  501  0.00000000000E+00  0.00000000000E+00 -0.13754463520E+03  0.13754463529E+03  0.50400001928E-02 0.  1.
    10030    2    1    2    0    0  0.00000000000E+00  0.00000000000E+00  0.10250478057E+04  0.13001370762E+04  0.79977085026E+03 0.  0.
        2    1    3    3  502    0  0.99692658268E+02  0.85696799031E+02 -0.10141138599E+03  0.16603263743E+03  0.25500000920E-02 0.  1.
       -2    1    3    3    0  502 -0.99692658268E+02 -0.85696799031E+02  0.11264591917E+04  0.11341044388E+04  0.25500000920E-02 0. -1.
</event>
<event>
 5   0  0.6801147E-04  0.8010248E+03  0.7818609E-02  0.9558535E-01
       -2   -1    0    0    0  501  0.00000000000E+00  0.00000000000E+00  0.14185706198E+03  0.14185706201E+03  0.25500000920E-02 0.  1.
        2   -1    0    0  501    0  0.00000000000E+00  0.00000000000E+00 -0.11307875006E+04  0.11307875006E+04  0.25500000920E-02 0. -1.
    10030    2    1    2    0    0  0.00000000000E+00  0.00000000000E+00 -0.98893043864E+03  0.12726445626E+04  0.80102482504E+03 0.  0.
        4    1    3    3  502    0 -0.29354393406E+02 -0.33693444893E+03 -0.83530027379E+03  0.90117404733E+03  0.12699999809E+01 0. -1.
       -4    1    3    3    0  502  0.29354393406E+02  0.33693444893E+03 -0.15363016485E+03  0.37147051531E+03  0.12699999809E+01 0.  1.
</event>
<event>
 5   0  0.6672462E-04  0.7998330E+03  0.7818609E-02  0.9560259E-01
        2   -1    0    0  501    0  0.00000000000E+00  0.00000000000E+00  0.51262742913E+03  0.51262742914E+03  0.25500000920E-02 0.  1.
       -2   -1    0    0    0  501  0.00000000000E+00  0.00000000000E+00 -0.31198725817E+03  0.31198725818E+03  0.25500000920E-02 0. -1.
    10030    2    1    2    0    0  0.00000000000E+00  0.00000000000E+00  0.20064017096E+03  0.82461468732E+03  0.79983304779E+03 0.  0.
        5    1    3    3  502    0  0.32999220237E+03 -0.63841030988E+02 -0.12305054176E+03  0.35795817729E+03  0.46999998093E+01 0. -1.
       -5    1    3    3    0  502 -0.32999220237E+03  0.63841030988E+02  0.32369071272E+03  0.46665651004E+03  0.46999998093E+01 0.  1.
</event>
<event>
 5   0  0.4169155E-04  0.7994724E+03  0.7818609E-02  0.9560781E-01
       -1   -1    0    0    0  501  0.00000000000E+00  0.00000000000E+00  0.34853654688E+03  0.34853654692E+03  0.50400001928E-02 0. -1.
        1   -1    0    0  501    0  0.00000000000E+00  0.00000000000E+00 -0.45845701782E+03  0.45845701785E+03  0.50400001928E-02 0.  1.
    10030    2    1    2    0    0  0.00000000000E+00  0.00000000000E+00 -0.10992047094E+03  0.80699356477E+03  0.79947239080E+03 0.  0.
        4    1    3    3  502    0  0.15013735294E+03 -0.34697210263E+03  0.76093959003E+02  0.38564591045E+03  0.12699999809E+01 0. -1.
       -4    1    3    3    0  502 -0.15013735294E+03  0.34697210263E+03 -0.18601442995E+03  0.42134765432E+03  0.12699999809E+01 0.  1.
</event>
<event>
 5   0  0.7133039E-04  0.7999819E+03  0.7818609E-02  0.9560043E-01
       -2   -1    0    0    0  501  0.00000000000E+00  0.00000000000E+00  0.26627994911E+03  0.26627994912E+03  0.25500000920E-02 0. -1.
        2   -1    0    0  501    0  0.00000000000E+00  0.00000000000E+00 -0.60084425711E+03  0.60084425711E+03  0.25500000920E-02 0.  1.
    10030    2    1    2    0    0  0.00000000000E+00  0.00000000000E+00 -0.33456430800E+03  0.86712420623E+03  0.79998194533E+03 0.  0.
        2    1    3    3  502    0 -0.24587933126E+03  0.85792693585E+02  0.16180388311E+03  0.30659016359E+03  0.25500000920E-02 0. -1.
       -2    1    3    3    0  502  0.24587933126E+03 -0.85792693585E+02 -0.49636819111E+03  0.56053404264E+03  0.25500000920E-02 0.  1.
</event>
<event>
 5   0  0.2736375E-04  0.8002501E+03  0.7818609E-02  0.9559655E-01
        3   -1    0    0  501    0  0.00000000000E+00  0.00000000000E+00  0.43304859717E+03  0.43304860895E+03  0.10100000352E+00 0.  1.
       -3   -1    0    0    0  501  0.00000000000E+00  0.00000000000E+00 -0.36970456867E+03  0.36970458246E+03  0.10100000352E+00 0. -1.
    10030    2    1    2    0    0  0.00000000000E+00  0.00000000000E+00  0.63344028501E+02  0.80275319141E+03  0.80025009864E+03 0.  0.
        3    1    3    3  502    0 -0.31127418237E+03  0.21399468706E+03  0.16404956164E+03  0.41182230582E+03  0.10100000352E+00 0.  1.
       -3    1    3    3    0  502  0.31127418237E+03 -0.21399468706E+03 -0.10070553314E+03  0.39093088559E+03  0.10100000352E+00 0. -1.
</event>
<event>
 5   0  0.4104786E-04  0.7999493E+03  0.7818609E-02  0.9560090E-01
        1   -1    0    0  501    0  0.00000000000E+00  0.00000000000E+00  0.18326465352E+04  0.18326465352E+04  0.50400001928E-02 0.  1.
       -1   -1    0    0    0  501  0.00000000000E+00  0.00000000000E+00 -0.87294368209E+02  0.87294368355E+02  0.50400001928E-02 0. -1.
    10030    2    1    2    0    0  0.00000000000E+00  0.00000000000E+00  0.17453521670E+04  0.19199409036E+04  0.79994930237E+03 0.  0.
        2    1    3    3  502    0  0.61198999968E+02  0.21923284043E+03  0.83304381279E+02  0.24237981737E+03  0.25500000920E-02 0. -1.
       -2    1    3    3    0  502 -0.61198999968E+02 -0.21923284043E+03  0.16620477857E+04  0.16775610862E+04  0.25500000920E-02 0.  1.
</event>
<event>
 5   0  0.6593118E-04  0.7997893E+03  0.7818609E-02  0.9560322E-01
        2   -1    0    0  501    0  0.00000000000E+00  0.00000000000E+00  0.12061783598E+04  0.12061783598E+04  0.25500000920E-02 0.  1.
       -2   -1    0    0    0  501  0.00000000000E+00  0.00000000000E+00 -0.13258049260E+03  0.13258049263E+03  0.25500000920E-02 0. -1.
    10030    2    1    2    0    0  0.00000000000E+00  0.00000000000E+00  0.10735978672E+04  0.13387588524E+04  0.79978927506E+03 0.  0.
        1    1    3    3  502    0 -0.30506976037E+03 -0.25698916795E+03  0.58428343311E+03  0.70745891850E+03  0.50400001928E-02 0. -1.
       -1    1    3    3    0  502  0.30506976037E+03  0.25698916795E+03  0.48931443409E+03  0.63129993392E+03  0.50400001928E-02 0.  1.
</event>
<event>
 5   0  0.4087283E-04  0.7982205E+03  0.7818609E-02  0.9562596E-01
       -1   -1    0    0    0  501  0.00000000000E+00  0.00000000000E+00  0.13777553996E+03  0.13777554005E+03  0.50400001928E-02 0. -1.
        1   -1    0    0  501    0  0.00000000000E+00  0.00000000000E+00 -0.11561486024E+04  0.11561486025E+04  0.50400001928E-02 0.  1.
    10030    2    1    2    0    0  0.00000000000E+00  0.00000000000E+00 -0.10183730625E+04  0.12939241425E+04  0.79822051600E+03 0.  0.
        1    1    3    3  502    0 -0.52016125595E+02 -0.27096827193E+03 -0.97664378955E+03  0.10148707176E+04  0.50400001928E-02 0.  1.
       -1    1    3    3    0  502  0.52016125595E+02  0.27096827193E+03 -0.41729272934E+02  0.27905342492E+03  0.50400001928E-02 0. -1.
</event>
<event>
 5   0  0.4086111E-04  0.7998884E+03  0.7818609E-02  0.9560179E-01
       -1   -1    0    0    0  501  0.00000000000E+00  0.00000000000E+00  0.14015167569E+03  0.14015167578E+03  0.50400001928E-02 0. -1.
        1   -1    0    0  501    0  0.00000000000E+00  0.00000000000E+00 -0.11413019151E+04  0.11413019151E+04  0.50400001928E-02 0.  1.
    10030    2    1    2    0    0  0.00000000000E+00  0.00000000000E+00 -0.10011502394E+04  0.12814535909E+04  0.79988843205E+03 0.  0.
        3    1    3    3  502    0  0.39707239179E+03  0.42566485846E+02 -0.46558692053E+03  0.61339186562E+03  0.10100000352E+00 0.  1.
       -3    1    3    3    0  502 -0.39707239179E+03 -0.42566485846E+02 -0.53556331887E+03  0.66806172526E+03  0.10100000352E+00 0. -1.
</event>
<event>
 5   0  0.6801147E-04  0.8002932E+03  0.7818609E-02  0.9559593E-01
        2   -1    0    0  501    0  0.00000000000E+00  0.00000000000E+00  0.19435909315E+04  0.19435909315E+04  0.25500000920E-02 0.  1.
       -2   -1    0    0    0  501  0.00000000000E+00  0.00000000000E+00 -0.82382202379E+02  0.82382202419E+02  0.25500000920E-02 0. -1.
    10030    2    1    2    0    0  0.00000000000E+00  0.00000000000E+00  0.18612087291E+04  0.20259731339E+04  0.80029320003E+03 0.  0.
        4    1    3    3  502    0 -0.17480493644E+03 -0.27352297664E+03  0.15229200470E+04  0.15571315510E+04  0.12699999809E+01 0. -1.
       -4    1    3    3    0  502  0.17480493644E+03  0.27352297664E+03  0.33828868210E+03  0.46884158294E+03  0.12699999809E+01 0.  1.
</event>
<event>
 5   0  0.6593118E-04  0.8000056E+03  0.7818609E-02  0.9560009E-01
        2   -1    0    0  501    0  0.00000000000E+00  0.00000000000E+00  0.16400573638E+03  0.16400573640E+03  0.25500000920E-02 0.  1.
       -2   -1    0    0    0  501  0.00000000000E+00  0.00000000000E+00 -0.97558939091E+03  0.97558939092E+03  0.25500000920E-02 0. -1.
    10030    2    1    2    0    0  0.00000000000E+00  0.00000000000E+00 -0.81158365453E+03  0.11395951273E+04  0.80000564118E+03 0.  0.
        1    1    3    3  502    0  0.31490879575E+03  0.24387955879E+03 -0.45827526486E+03  0.60717461018E+03  0.50400001928E-02 0.  1.
       -1    1    3    3    0  502 -0.31490879575E+03 -0.24387955879E+03 -0.35330838967E+03  0.53242051714E+03  0.50400001928E-02 0. -1.
</event>
<event>
 5   0  0.6672462E-04  0.7996991E+03  0.7818609E-02  0.9560453E-01
       -2   -1    0    0    0  501  0.00000000000E+00  0.00000000000E+00  0.28352296207E+03  0.28352296208E+03  0.25500000920E-02 0. -1.
        2   -1    0    0  501    0  0.00000000000E+00  0.00000000000E+00 -0.56390378302E+03  0.56390378302E+03  0.25500000920E-02 0.  1.
    10030    2    1    2    0    0  0.00000000000E+00  0.00000000000E+00 -0.28038082095E+03  0.84742674510E+03  0.79969912065E+03 0.  0.
        5    1    3    3  502    0 -0.23376832735E+03  0.16923099506E+03  0.15303877760E+03  0.32669514537E+03  0.46999998093E+01 0. -1.
       -5    1    3    3    0  502  0.23376832735E+03 -0.16923099506E+03 -0.43341959855E+03  0.52073159973E+03  0.46999998093E+01 0.  1.
</event>
<event>
 5   0  0.4169155E-04  0.8001133E+03  0.7818609E-02  0.9559853E-01
        1   -1    0    0  501    0  0.00000000000E+00  0.00000000000E+00  0.11803662462E+04  0.11803662462E+04  0.50400001928E-02 0. -1.
       -1   -1    0    0    0  501  0.00000000000E+00  0.00000000000E+00 -0.13558954335E+03  0.13558954344E+03  0.50400001928E-02 0.  1.
    10030    2    1    2    0    0  0.00000000000E+00  0.00000000000E+00  0.10447767028E+04  0.13159557896E+04  0.80011329291E+03 0.  0.
        4    1    3    3  502    0 -0.18829713162E+03 -0.34980679943E+03  0.44484056815E+03  0.59641038780E+03  0.12699999809E+01 0. -1.
       -4    1    3    3    0  502  0.18829713162E+03  0.34980679943E+03  0.59993613469E+03  0.71954540184E+03  0.12699999809E+01 0.  1.
</event>
<event>
 5   0  0.4392552E-04  0.7996977E+03  0.7818609E-02  0.9560455E-01
       -1   -1    0    0    0  501  0.00000000000E+00  0.00000000000E+00  0.32734727760E+03  0.32734727764E+03  0.50400001928E-02 0. -1.
        1   -1    0    0  501    0  0.00000000000E+00  0.00000000000E+00 -0.48840818786E+03  0.48840818789E+03  0.50400001928E-02 0.  1.
    10030    2    1    2    0    0  0.00000000000E+00  0.00000000000E+00 -0.16106091027E+03  0.81575546552E+03  0.79969766957E+03 0.  0.
        5    1    3    3  502    0 -0.15588853305E+03  0.40805213153E+02 -0.45378866486E+03  0.48157298773E+03  0.46999998093E+01 0.  1.
       -5    1    3    3    0  502  0.15588853305E+03 -0.40805213153E+02  0.29272775460E+03  0.33418247779E+03  0.46999998093E+01 0. -1.
</event>
<event>
 5   0  0.7133039E-04  0.7999149E+03  0.7818609E-02  0.9560140E-01
       -2   -1    0    0    0  501  0.00000000000E+00  0.00000000000E+00  0.45539507080E+03  0.45539507081E+03  0.25500000920E-02 0.  1.
        2   -1    0    0  501    0  0.00000000000E+00  0.00000000000E+00 -0.35126854949E+03  0.35126854950E+03  0.25500000920E-02 0. -1.
    10030    2    1    2    0    0  0.00000000000E+00  0.00000000000E+00  0.10412652132E+03  0.80666362031E+03  0.79991491040E+03 0.  0.
        2    1    3    3  502    0  0.21265239862E+03 -0.32300125596E+03 -0.50852206765E+02  0.39004717782E+03  0.25500000920E-02 0.  1.
       -2    1    3    3    0  502 -0.21265239862E+03  0.32300125596E+03  0.15497872808E+03  0.41661644249E+03  0.25500000920E-02 0. -1.
</event>
<event>
 5   0  0.4169155E-04  0.8005025E+03  0.7818609E-02  0.9559290E-01
       -1   -1    0    0    0  501  0.00000000000E+00  0.00000000000E+00  0.28901079359E+03  0.28901079363E+03  0.50400001928E-02 0. -1.
        1   -1    0    0  501    0  0.00000000000E+00  0.00000000000E+00 -0.55430827288E+03  0.55430827291E+03  0.50400001928E-02 0.  1.
    10030    2    1    2    0    0  0.00000000000E+00  0.00000000000E+00 -0.26529747929E+03  0.84331906654E+03  0.80050252684E+03 0.  0.
        4    1    3    3  502    0  0.37445158441E+03  0.20834452641E+02 -0.27995395211E+03  0.46799988428E+03  0.12699999809E+01 0.  1.
       -4    1    3    3    0  502 -0.37445158441E+03 -0.20834452641E+02  0.14656472814E+02  0.37531918227E+03  0.12699999809E+01 0. -1.
</event>
<event>
 5   0  0.6672462E-04  0.7981129E+03  0.7818609E-02  0.9562753E-01
       -2   -1    0    0    0  501  0.00000000000E+00  0.00000000000E+00  0.23217622722E+04  0.23217622722E+04  0.25500000920E-02 0. -1.
        2   -1    0    0  501    0  0.00000000000E+00  0.00000000000E+00 -0.68588434606E+02  0.68588434654E+02  0.25500000920E-02 0.  1.
    10030    2    1    2    0    0  0.00000000000E+00  0.00000000000E+00  0.22531738376E+04  0.23903507069E+04  0.79811287382E+03 0.  0.
        5    1    3    3  502    0  0.69776529322E+02 -0.38919017695E+03  0.96568548482E+03  0.10435076921E+04  0.46999998093E+01 0.  1.
       -5    1    3    3    0  502 -0.69776529322E+02  0.38919017695E+03  0.12874883528E+04  0.13468430148E+04  0.46999998093E+01 0. -1.
</event>
<event>
 5   0  0.4392552E-04  0.7998479E+03  0.7818609E-02  0.9560237E-01
        1   -1    0    0  501    0  0.00000000000E+00  0.00000000000E+00  0.98120866937E+03  0.98120866938E+03  0.50400001928E-02 0. -1.
       -1   -1    0    0    0  501  0.00000000000E+00  0.00000000000E+00 -0.16300218481E+03  0.16300218489E+03  0.50400001928E-02 0.  1.
    10030    2    1    2    0    0  0.00000000000E+00  0.00000000000E+00  0.81820648455E+03  0.11442108543E+04  0.79984787783E+03 0.  0.
        5    1    3    3  502    0 -0.10078132845E+02  0.29966042532E+03  0.78763909032E+03  0.84279022648E+03  0.46999998093E+01 0. -1.
       -5    1    3    3    0  502  0.10078132845E+02 -0.29966042532E+03  0.30567394236E+02  0.30142062778E+03  0.46999998093E+01 0.  1.
</event>
<event>
 5   0  0.4169155E-04  0.7990393E+03  0.7818609E-02  0.9561409E-01
       -1   -1    0    0    0  501  0.00000000000E+00  0.00000000000E+00  0.25048966809E+03  0.25048966814E+03  0.50400001928E-02 0. -1.
        1   -1    0    0  501    0  0.00000000000E+00  0.00000000000E+00 -0.63721568246E+03  0.63721568248E+03  0.50400001928E-02 0.  1.
    10030    2    1    2    0    0  0.00000000000E+00  0.00000000000E+00 -0.38672601437E+03  0.88770535062E+03  0.79903928523E+03 0.  0.
        4    1    3    3  502    0  0.24913681382E+03 -0.16151339576E+03  0.10361751461E+03  0.31447405496E+03  0.12699999809E+01 0. -1.
       -4    1    3    3    0  502 -0.24913681382E+03  0.16151339576E+03 -0.49034352898E+03  0.57323129566E+03  0.12699999809E+01 0.  1.
</event>
<event>
 5   0  0.7133039E-04  0.8005578E+03  0.7818609E-02  0.9559210E-01
       -2   -1    0    0    0  501  0.00000000000E+00  0.00000000000E+00  0.22128612201E+03  0.22128612203E+03  0.25500000920E-02 0.  1.
        2   -1    0    0  501    0  0.00000000000E+00  0.00000000000E+00 -0.72405435523E+03  0.72405435524E+03  0.25500000920E-02 0. -1.
    10030    2    1    2    0    0  0.00000000000E+00  0.00000000000E+00 -0.50276823322E+03  0.94534047726E+03  0.80055775658E+03 0.  0.
        2    1    3    3  502    0 -0.34830661208E+03 -0.10602269146E+03 -0.54975775933E+02  0.36821276875E+03  0.25500000920E-02 0.  1.
       -2    1    3    3    0  502  0.34830661208E+03  0.10602269146E+03 -0.44779245729E+03  0.57712770851E+03  0.25500000920E-02 0. -1.
</event>
<event>
 5   0  0.4392552E-04  0.8004579E+03  0.7818609E-02  0.9559355E-01
        1   -1    0    0  501    0  0.00000000000E+00  0.00000000000E+00  0.54786779050E+03  0.54786779052E+03  0.50400001928E-02 0.  1.
       -1   -1    0    0    0  501  0.00000000000E+00  0.00000000000E+00 -0.29237567548E+03  0.29237567552E+03  0.50400001928E-02 0. -1.
    10030    2    1    2    0    0  0.00000000000E+00  0.00000000000E+00  0.25549211502E+03  0.84024346605E+03  0.80045790732E+03 0.  0.
        5    1    3    3  502    0 -0.10690739950E+03 -0.24591299874E+03  0.43959586663E+03  0.51494563886E+03  0.46999998093E+01 0.  1.
       -5    1    3    3    0  502  0.10690739950E+03  0.24591299874E+03 -0.18410375162E+03  0.32529782719E+03  0.46999998093E+01 0. -1.
</event>
<event>
 5   0  0.6593118E-04  0.8000493E+03  0.7818609E-02  0.9559946E-01
        2   -1    0    0  501    0  0.00000000000E+00  0.00000000000E+00  0.43553235500E+03  0.43553235501E+03  0.25500000920E-02 0. -1.
       -2   -1    0    0    0  501  0.00000000000E+00  0.00000000000E+00 -0.36741174140E+03  0.36741174141E+03  0.25500000920E-02 0.  1.
    10030    2    1    2    0    0  0.00000000000E+00  0.00000000000E+00  0.68120613600E+02  0.80294409642E+03  0.80004925097E+03 0.  0.
        1    1    3    3  502    0 -0.22471578666E+03  0.14822373447E+02  0.36586632340E+03  0.42962198984E+03  0.50400001928E-02 0. -1.
       -1    1    3    3    0  502  0.22471578666E+03 -0.14822373447E+02 -0.29774570980E+03  0.37332210658E+03  0.50400001928E-02 0.  1.
</event>
<event>
 5   0  0.4087283E-04  0.8000262E+03  0.7818609E-02  0.9559979E-01
       -1   -1    0    0    0  501  0.00000000000E+00  0.00000000000E+00  0.57853129689E+03  0.57853129691E+03  0.50400001928E-02 0. -1.
        1   -1    0    0  501    0  0.00000000000E+00  0.00000000000E+00 -0.27658048082E+03  0.27658048086E+03  0.50400001928E-02 0.  1.
    10030    2    1    2    0    0  0.00000000000E+00  0.00000000000E+00  0.30195081607E+03  0.85511177777E+03  0.80002616030E+03 0.  0.
        1    1    3    3  502    0 -0.21708827733E+03  0.61180176613E+02  0.50408615324E+03  0.55224377233E+03  0.50400001928E-02 0. -1.
       -1    1    3    3    0  502  0.21708827733E+03 -0.61180176613E+02 -0.20213533716E+03  0.30286800544E+03  0.50400001928E-02 0.  1.
</event>
<event>
 5   0  0.4104786E-04  0.8001559E+03  0.7818609E-02  0.9559791E-01
       -1   -1    0    0    0  501  0.00000000000E+00  0.00000000000E+00  0.36122243052E+03  0.36122243055E+03  0.50400001928E-02 0.  1.
        1   -1    0    0  501    0  0.00000000000E+00  0.00000000000E+00 -0.44311306110E+03  0.44311306113E+03  0.50400001928E-02 0. -1.
    10030    2    1    2    0    0  0.00000000000E+00  0.00000000000E+00 -0.81890630584E+02  0.80433549169E+03  0.80015592719E+03 0.  0.
        2    1    3    3  502    0 -0.27882934827E+03 -0.90349423392E+02 -0.31467921767E+03  0.43003701446E+03  0.25500000920E-02 0. -1.
       -2    1    3    3    0  502  0.27882934827E+03  0.90349423392E+02  0.23278858709E+03  0.37429847722E+03  0.25500000920E-02 0.  1.
</event>
<event>
 5   0  0.6801147E-04  0.7987943E+03  0.7818609E-02  0.9561764E-01
       -2   -1    0    0    0  501  0.00000000000E+00  0.00000000000E+00  0.15772889172E+03  0.15772889174E+03  0.25500000920E-02 0.  1.
        2   -1    0    0  501    0  0.00000000000E+00  0.00000000000E+00 -0.10113433364E+04  0.10113433364E+04  0.25500000920E-02 0. -1.
    10030    2    1    2    0    0  0.00000000000E+00  0.00000000000E+00 -0.85361444464E+03  0.11690722281E+04  0.79879425037E+03 0.  0.
        4    1    3    3  502    0  0.22493680862E+03  0.22913166988E+03 -0.79177089117E+02  0.33070910836E+03  0.12699999809E+01 0.  1.
       -4    1    3    3    0  502 -0.22493680862E+03 -0.22913166988E+03 -0.77443735552E+03  0.83836311974E+03  0.12699999809E+01 0. -1.
</event>
<event>
 5   0  0.7133039E-04  0.8000866E+03  0.7818609E-02  0.9559892E-01
       -2   -1    0    0    0  501  0.00000000000E+00  0.00000000000E+00  0.14505518283E+03  0.14505518285E+03  0.25500000920E-02 0.  1.
        2   -1    0    0  501    0  0.00000000000E+00  0.00000000000E+00 -0.11032674475E+04  0.11032674475E+04  0.25500000920E-02 0. -1.
    10030    2    1    2    0    0  0.00000000000E+00  0.00000000000E+00 -0.95821226464E+03  0.12483226303E+04  0.80008664860E+03 0.  0.
        2    1    3    3  502    0 -0.22649033629E+02 -0.34126989865E+03 -0.15535642952E+03  0.37565109164E+03  0.25500000920E-02 0.  1.
       -2    1    3    3    0  502  0.22649033629E+02  0.34126989865E+03 -0.80285583512E+03  0.87267153869E+03  0.25500000920E-02 0. -1.
</event>
<event>
 5   0  0.6801147E-04  0.7999593E+03  0.7818609E-02  0.9560076E-01
        2   -1    0    0  501    0  0.00000000000E+00  0.00000000000E+00  0.10690366470E+04  0.10690366470E+04  0.25500000920E-02 0. -1.
       -2   -1    0    0    0  501  0.00000000000E+00  0.00000000000E+00 -0.14965222627E+03  0.14965222629E+03  0.25500000920E-02 0.  1.
    10030    2    1    2    0    0  0.00000000000E+00  0.00000000000E+00  0.91938442071E+03  0.12186888733E+04  0.79995928447E+03 0.  0.
        4    1    3    3  502    0 -0.29985711130E+03  0.23330736389E+03  0.65018593954E+03  0.75305377107E+03  0.12699999809E+01 0.  1.
       -4    1    3    3    0  502  0.29985711130E+03 -0.23330736389E+03  0.26919848117E+03  0.46563510221E+03  0.12699999809E+01 0. -1.
</event>
<event>
 5   0  0.2736375E-04  0.7995826E+03  0.7818609E-02  0.9560621E-01
        4   -1    0    0  501    0  0.00000000000E+00  0.00000000000E+00  0.43491018573E+03  0.43491204002E+03  0.12699999809E+01 0. -1.
       -4   -1    0    0    0  501  0.00000000000E+00  0.00000000000E+00 -0.36750452892E+03  0.36750672331E+03  0.12699999809E+01 0.  1.
    10030    2    1    2    0    0  0.00000000000E+00  0.00000000000E+00  0.67405656814E+02  0.80241876333E+03  0.79958260935E+03 0.  0.
        5    1    3    3  502    0  0.21962901592E+03 -0.25678999537E+03 -0.18067368486E+03  0.38320109180E+03  0.46999998093E+01 0.  1.
       -5    1    3    3    0  502 -0.21962901592E+03  0.25678999537E+03  0.24807934168E+03  0.41921767153E+03  0.46999998093E+01 0. -1.
</event>
<event>
 5   0  0.6593118E-04  0.7998043E+03  0.7818609E-02  0.9560300E-01
        2   -1    0    0  501    0  0.00000000000E+00  0.00000000000E+00  0.12960199658E+04  0.12960199658E+04  0.25500000920E-02 0.  1.
       -2   -1    0    0    0  501  0.00000000000E+00  0.00000000000E+00 -0.12339449753E+03  0.12339449755E+03  0.25500000920E-02 0. -1.
    10030    2    1    2    0    0  0.00000000000E+00  0.00000000000E+00  0.11726254682E+04  0.14194144633E+04  0.79980430727E+03 0.  0.
        1    1    3    3  502    0 -0.29461520134E+03  0.37474030947E+02  0.11103929223E+03  0.31706804364E+03  0.50400001928E-02 0. -1.
       -1    1    3    3    0  502  0.29461520134E+03 -0.37474030947E+02  0.10615861760E+04  0.11023464197E+04  0.50400001928E-02 0.  1.
</event>
<event>
 5   0  0.4169155E-04  0.7995865E+03  0.7818609E-02  0.9560616E-01
       -1   -1    0    0    0  501  0.00000000000E+00  0.00000000000E+00  0.24999834549E+03  0.24999834554E+03  0.50400001928E-02 0.  1.
        1   -1    0    0  501    0  0.00000000000E+00  0.00000000000E+00 -0.63934283770E+03  0.63934283772E+03  0.50400001928E-02 0. -1.
    10030    2    1    2    0    0  0.00000000000E+00  0.00000000000E+00 -0.38934449221E+03  0.88934118326E+03  0.79958652229E+03 0.  0.
        4    1    3    3  502    0  0.14028277576E+03 -0.14457543033E+03  0.18941976709E+03  0.27651902882E+03  0.12699999809E+01 0.  1.
       -4    1    3    3    0  502 -0.14028277576E+03  0.14457543033E+03 -0.57876425931E+03  0.61282215445E+03  0.12699999809E+01 0. -1.
</event>
<event>
 5   0  0.4104786E-04  0.7997087E+03  0.7818609E-02  0.9560439E-01
        1   -1    0    0  501    0  0.00000000000E+00  0.00000000000E+00  0.23298008329E+03  0.23298008335E+03  0.50400001928E-02 0.  1.
       -1   -1    0    0    0  501  0.00000000000E+00  0.00000000000E+00 -0.68625395851E+03  0.68625395852E+03  0.50400001928E-02 0. -1.
    10030    2    1    2    0    0  0.00000000000E+00  0.00000000000E+00 -0.45327387521E+03  0.91923404187E+03  0.79970870808E+03 0.  0.
        2    1    3    3  502    0 -0.16996673693E+03  0.35028792065E+03 -0.12195904713E+03  0.40800040220E+03  0.25500000920E-02 0.  1.
       -2    1    3    3    0  502  0.16996673693E+03 -0.35028792065E+03 -0.33131482808E+03  0.51123363967E+03  0.25500000920E-02 0. -1.
</event>
<event>
 5   0  0.4169155E-04  0.8053959E+03  0.7818609E-02  0.9552239E-01
       -1   -1    0    0    0  501  0.00000000000E+00  0.00000000000E+00  0.17306185645E+03  0.17306185652E+03  0.50400001928E-02 0. -1.
        1   -1    0    0  501    0  0.00000000000E+00  0.00000000000E+00 -0.93703856528E+03  0.93703856530E+03  0.50400001928E-02 0.  1.
    10030    2    1    2    0    0  0.00000000000E+00  0.00000000000E+00 -0.76397670883E+03  0.11101004218E+04  0.80539588706E+03 0.  0.
        4    1    3    3  502    0 -0.34703098832E+03 -0.17435573428E+03 -0.52872434402E+03  0.65603465898E+03  0.12699999809E+01 0.  1.
       -4    1    3    3    0  502  0.34703098832E+03  0.17435573428E+03 -0.23525236482E+03  0.45406576284E+03  0.12699999809E+01 0. -1.
</event>
<event>
 5   0  0.6593118E-04  0.7995772E+03  0.7818609E-02  0.9560629E-01
       -2   -1    0    0    0  501  0.00000000000E+00  0.00000000000E+00  0.14961692269E+03  0.14961692272E+03  0.25500000920E-02 0. -1.
        2   -1    0    0  501    0  0.00000000000E+00  0.00000000000E+00 -0.10682676341E+04  0.10682676341E+04  0.25500000920E-02 0.  1.
    10030    2    1    2    0    0  0.00000000000E+00  0.00000000000E+00 -0.91865071140E+03  0.12178845568E+04  0.79957717837E+03 0.  0.
        1    1    3    3  502    0  0.13738081817E+03 -0.80223584706E+02  0.99327149887E+02  0.18755051446E+03  0.50400001928E-02 0. -1.
       -1    1    3    3    0  502 -0.13738081817E+03  0.80223584706E+02 -0.10179778613E+04  0.10303340424E+04  0.50400001928E-02 0.  1.
</event>
<event>
 5   0  0.4087283E-04  0.8002618E+03  0.7818609E-02  0.9559638E-01
       -1   -1    0    0    0  501  0.00000000000E+00  0.00000000000E+00  0.38942405488E+03  0.38942405492E+03  0.50400001928E-02 0.  1.
        1   -1    0    0  501    0  0.00000000000E+00  0.00000000000E+00 -0.41113214830E+03  0.41113214833E+03  0.50400001928E-02 0. -1.
    10030    2    1    2    0    0  0.00000000000E+00  0.00000000000E+00 -0.21708093414E+02  0.80055620325E+03  0.80026182793E+03 0.  0.
        1    1    3    3  502    0  0.22129632905E+03  0.28130999452E+03  0.16808984040E+03  0.39542581193E+03  0.50400001928E-02 0.  1.
       -1    1    3    3    0  502 -0.22129632905E+03 -0.28130999452E+03 -0.18979793382E+03  0.40513039132E+03  0.50400001928E-02 0. -1.
</event>
<event>
 5   0  0.4392552E-04  0.8002057E+03  0.7818609E-02  0.9559719E-01
       -1   -1    0    0    0  501  0.00000000000E+00  0.00000000000E+00  0.67414649556E+03  0.67414649558E+03  0.50400001928E-02 0. -1.
        1   -1    0    0  501    0  0.00000000000E+00  0.00000000000E+00 -0.23745919591E+03  0.23745919597E+03  0.50400001928E-02 0.  1.
    10030    2    1    2    0    0  0.00000000000E+00  0.00000000000E+00  0.43668729964E+03  0.91160569154E+03  0.80020568555E+03 0.  0.
        5    1    3    3  502    0 -0.29094650485E+03 -0.27060233609E+03  0.27159142666E+03  0.48131017651E+03  0.46999998093E+01 0. -1.
       -5    1    3    3    0  502  0.29094650485E+03  0.27060233609E+03  0.16509587298E+03  0.43029551503E+03  0.46999998093E+01 0.  1.
</event>
<event>
 5   0  0.4086111E-04  0.8001113E+03  0.7818609E-02  0.9559856E-01
       -1   -1    0    0    0  501  0.00000000000E+00  0.00000000000E+00  0.20187032340E+03  0.20187032346E+03  0.50400001928E-02 0. -1.
        1   -1    0    0  501    0  0.00000000000E+00  0.00000000000E+00 -0.79280866143E+03  0.79280866144E+03  0.50400001928E-02 0.  1.
    10030    2    1    2    0    0  0.00000000000E+00  0.00000000000E+00 -0.59093833802E+03  0.99467898491E+03  0.80011134454E+03 0.  0.
        3    1    3    3  502    0 -0.32001437401E+02 -0.17907193119E+03 -0.73841963729E+03  0.76049616664E+03  0.10100000352E+00 0.  1.
       -3    1    3    3    0  502  0.32001437401E+02  0.17907193119E+03  0.14748129927E+03  0.23418281827E+03  0.10100000352E+00 0. -1.
</event>
<event>
 5   0  0.7133039E-04  0.8001483E+03  0.7818609E-02  0.9559802E-01
       -2   -1    0    0    0  501  0.00000000000E+00  0.00000000000E+00  0.42465791754E+03  0.42465791755E+03  0.25500000920E-02 0. -1.
        2   -1    0    0  501    0  0.00000000000E+00  0.00000000000E+00 -0.37691354442E+03  0.37691354443E+03  0.25500000920E-02 0.  1.
    10030    2    1    2    0    0  0.00000000000E+00  0.00000000000E+00  0.47744373115E+02  0.80157146198E+03  0.80014828844E+03 0.  0.
        2    1    3    3  502    0 -0.18598003016E+03  0.32195126836E+03 -0.12410014919E+03  0.39197198606E+03  0.25500000920E-02 0.  1.
       -2    1    3    3    0  502  0.18598003016E+03 -0.32195126836E+03  0.17184452231E+03  0.40959947592E+03  0.25500000920E-02 0. -1.
</event>
<event>
 5   0  0.7133039E-04  0.7993889E+03  0.7818609E-02  0.9560902E-01
       -2   -1    0    0    0  501  0.00000000000E+00  0.00000000000E+00  0.55890617057E+03  0.55890617057E+03  0.25500000920E-02 0.  1.
        2   -1    0    0  501    0  0.00000000000E+00  0.00000000000E+00 -0.28583625805E+03  0.28583625806E+03  0.25500000920E-02 0. -1.
    10030    2    1    2    0    0  0.00000000000E+00  0.00000000000E+00  0.27306991252E+03  0.84474242863E+03  0.79938888760E+03 0.  0.
        2    1    3    3  502    0 -0.18507985197E+03  0.33015608143E+03  0.27226707338E+03  0.46624773347E+03  0.25500000920E-02 0.  1.
       -2    1    3    3    0  502  0.18507985197E+03 -0.33015608143E+03  0.80283913525E+00  0.37849469517E+03  0.25500000920E-02 0. -1.
</event>
<event>
 5   0  0.2736375E-04  0.8000256E+03  0.7818609E-02  0.9559980E-01
        3   -1    0    0  501    0  0.00000000000E+00  0.00000000000E+00  0.12708286302E+04  0.12708286342E+04  0.10100000352E+00 0.  1.
       -3   -1    0    0    0  501  0.00000000000E+00  0.00000000000E+00 -0.12591014780E+03  0.12591018831E+03  0.10100000352E+00 0. -1.
    10030    2    1    2    0    0  0.00000000000E+00  0.00000000000E+00  0.11449184824E+04  0.13967388225E+04  0.80002562895E+03 0.  0.
        5    1    3    3  502    0  0.15750828756E+03  0.10995397203E+03 -0.40062736882E+02  0.19628002828E+03  0.46999998093E+01 0. -1.
       -5    1    3    3    0  502 -0.15750828756E+03 -0.10995397203E+03  0.11849812193E+04  0.12004587942E+04  0.46999998093E+01 0.  1.
</event>
<event>
 5   0  0.6801147E-04  0.8002464E+03  0.7818609E-02  0.9559661E-01
        2   -1    0    0  501    0  0.00000000000E+00  0.00000000000E+00  0.65586777737E+03  0.65586777738E+03  0.25500000920E-02 0. -1.
       -2   -1    0    0    0  501  0.00000000000E+00  0.00000000000E+00 -0.24410191045E+03  0.24410191046E+03  0.25500000920E-02 0.  1.
    10030    2    1    2    0    0  0.00000000000E+00  0.00000000000E+00  0.41176586693E+03  0.89996968784E+03  0.80024640572E+03 0.  0.
        4    1    3    3  502    0 -0.26733774396E+03 -0.29263528271E+03  0.26739937775E+03  0.47813064966E+03  0.12699999809E+01 0. -1.
       -4    1    3    3    0  502  0.26733774396E+03  0.29263528271E+03  0.14436648918E+03  0.42183903817E+03  0.12699999809E+01 0.  1.
</event>
<event>
 5   0  0.2736375E-04  0.7999971E+03  0.7818609E-02  0.9560021E-01
       -3   -1    0    0    0  501  0.00000000000E+00  0.00000000000E+00  0.15574320277E+04  0.15574320310E+04  0.10100000352E+00 0.  1.
        3   -1    0    0  501    0  0.00000000000E+00  0.00000000000E+00 -0.10273244912E+03  0.10273249877E+03  0.10100000352E+00 0. -1.
    10030    2    1    2    0    0  0.00000000000E+00  0.00000000000E+00  0.14546995786E+04  0.16601645298E+04  0.79999712619E+03 0.  0.
        5    1    3    3  502    0  0.18923664408E+03  0.31804916094E+03  0.41255299484E+03  0.55424528847E+03  0.46999998093E+01 0. -1.
       -5    1    3    3    0  502 -0.18923664408E+03 -0.31804916094E+03  0.10421465838E+04  0.11059192413E+04  0.46999998093E+01 0.  1.
</event>
<event>
 5   0  0.4392552E-04  0.7994187E+03  0.7818609E-02  0.9560859E-01
       -1   -1    0    0    0  501  0.00000000000E+00  0.00000000000E+00  0.15091628672E+04  0.15091628672E+04  0.50400001928E-02 0. -1.
        1   -1    0    0  501    0  0.00000000000E+00  0.00000000000E+00 -0.10586501290E+03  0.10586501302E+03  0.50400001928E-02 0.  1.
    10030    2    1    2    0    0  0.00000000000E+00  0.00000000000E+00  0.14032978543E+04  0.16150278802E+04  0.79941865504E+03 0.  0.
        5    1    3    3  502    0 -0.26435974240E+03  0.20517977838E+03  0.26013864542E+03  0.42388562101E+03  0.46999998093E+01 0.  1.
       -5    1    3    3    0  502  0.26435974240E+03 -0.20517977838E+03  0.11431592088E+04  0.11911422592E+04  0.46999998093E+01 0. -1.
</event>
<event>
 5   0  0.4087283E-04  0.8007871E+03  0.7818609E-02  0.9558878E-01
        1   -1    0    0  501    0  0.00000000000E+00  0.00000000000E+00  0.29048252913E+03  0.29048252917E+03  0.50400001928E-02 0. -1.
       -1   -1    0    0    0  501  0.00000000000E+00  0.00000000000E+00 -0.55189205741E+03  0.55189205743E+03  0.50400001928E-02 0.  1.
    10030    2    1    2    0    0  0.00000000000E+00  0.00000000000E+00 -0.26140952828E+03  0.84237458660E+03  0.80078711446E+03 0.  0.
        1    1    3    3  502    0  0.37077267548E+03  0.35597805603E+02 -0.28521875483E+03  0.46913678046E+03  0.50400001928E-02 0.  1.
       -1    1    3    3    0  502 -0.37077267548E+03 -0.35597805603E+02  0.23809226545E+02  0.37323780615E+03  0.50400001928E-02 0. -1.
</event>
<event>
 5   0  0.4104786E-04  0.8000659E+03  0.7818609E-02  0.9559922E-01
       -1   -1    0    0    0  501  0.00000000000E+00  0.00000000000E+00  0.15001221455E+03  0.15001221463E+03  0.50400001928E-02 0. -1.
        1   -1    0    0  501    0  0.00000000000E+00  0.00000000000E+00 -0.10667554385E+04  0.10667554385E+04  0.50400001928E-02 0.  1.
    10030    2    1    2    0    0  0.00000000000E+00  0.00000000000E+00 -0.91674322396E+03  0.12167676531E+04  0.80006586171E+03 0.  0.
        2    1    3    3  502    0  0.16963201603E+03  0.27319984120E+03 -0.82023167892E+03  0.88101826383E+03  0.25500000920E-02 0.  1.
       -2    1    3    3    0  502 -0.16963201603E+03 -0.27319984120E+03 -0.96511545032E+02  0.33574938931E+03  0.25500000920E-02 0. -1.
</event>
<event>
 5   0  0.6672462E-04  0.8003809E+03  0.7818609E-02  0.9559466E-01
       -2   -1    0    0    0  501  0.00000000000E+00  0.00000000000E+00  0.81287877089E+02  0.81287877129E+02  0.25500000920E-02 0. -1.
        2   -1    0    0  501    0  0.00000000000E+00  0.00000000000E+00 -0.19701879256E+04  0.19701879256E+04  0.25500000920E-02 0.  1.
    10030    2    1    2    0    0  0.00000000000E+00  0.00000000000E+00 -0.18889000485E+04  0.20514758028E+04  0.80038089429E+03 0.  0.
        5    1    3    3  502    0 -0.31461567533E+02 -0.24664686105E+02  0.76085974882E+02  0.86077537977E+02  0.46999998093E+01 0. -1.
       -5    1    3    3    0  502  0.31461567533E+02  0.24664686105E+02 -0.19649860234E+04  0.19653982648E+04  0.46999998093E+01 0.  1.
</event>
<event>
 5   0  0.4086111E-04  0.8004771E+03  0.7818609E-02  0.9559327E-01
       -1   -1    0    0    0  501  0.00000000000E+00  0.00000000000E+00  0.46170249971E+03  0.46170249974E+03  0.50400001928E-02 0.  1.
        1   -1    0    0  501    0  0.00000000000E+00  0.00000000000E+00 -0.34695694388E+03  0.34695694392E+03  0.50400001928E-02 0. -1.
    10030    2    1    2    0    0  0.00000000000E+00  0.00000000000E+00  0.11474555583E+03  0.80865944365E+03  0.80047707852E+03 0.  0.
        3    1    3    3  502    0 -0.38785974862E+03 -0.48571888738E+02 -0.29509033952E+02  0.39200153859E+03  0.10100000352E+00 0. -1.
       -3    1    3    3    0  502  0.38785974862E+03  0.48571888738E+02  0.14425458978E+03  0.41665790506E+03  0.10100000352E+00 0.  1.
</event>
<event>
 5   0  0.4104786E-04  0.8000381E+03  0.7818609E-02  0.9559962E-01
       -1   -1    0    0    0  501  0.00000000000E+00  0.00000000000E+00  0.44183764662E+03  0.44183764665E+03  0.50400001928E-02 0.  1.
        1   -1    0    0  501    0  0.00000000000E+00  0.00000000000E+00 -0.36215849612E+03  0.36215849615E+03  0.50400001928E-02 0. -1.
    10030    2    1    2    0    0  0.00000000000E+00  0.00000000000E+00  0.79679150506E+02  0.80399614281E+03  0.80003814323E+03 0.  0.
        2    1    3    3  502    0  0.23394381541E+03  0.15594949944E+03 -0.24611216464E+03  0.37365913977E+03  0.25500000920E-02 0. -1.
       -2    1    3    3    0  502 -0.23394381541E+03 -0.15594949944E+03  0.32579131515E+03  0.43033700303E+03  0.25500000920E-02 0.  1.
</event>
<event>
 5   0  0.6970013E-04  0.7993538E+03  0.7818609E-02  0.9560953E-01
       -2   -1    0    0    0  501  0.00000000000E+00  0.00000000000E+00  0.12626014132E+03  0.12626014134E+03  0.25500000920E-02 0. -1.
        2   -1    0    0  501    0  0.00000000000E+00  0.00000000000E+00 -0.12651786276E+04  0.12651786276E+04  0.25500000920E-02 0.  1.
    10030    2    1    2    0    0  0.00000000000E+00  0.00000000000E+00 -0.11389184863E+04  0.13914387689E+04  0.79935381985E+03 0.  0.
        3    1    3    3  502    0 -0.12382943159E+03 -0.37526049874E+03 -0.46519915218E+03  0.61038056279E+03  0.10100000352E+00 0. -1.
       -3    1    3    3    0  502  0.12382943159E+03  0.37526049874E+03 -0.67371933408E+03  0.78105820613E+03  0.10100000352E+00 0.  1.
</event>
<event>
 5   0  0.4086111E-04  0.7999388E+03  0.7818609E-02  0.9560106E-01
        1   -1    0    0  501    0  0.00000000000E+00  0.00000000000E+00  0.92426374264E+03  0.92426374266E+03  0.50400001928E-02 0.  1.
       -1   -1    0    0    0  501  0.00000000000E+00  0.00000000000E+00 -0.17308428987E+03  0.17308428994E+03  0.50400001928E-02 0. -1.
    10030    2    1    2    0    0  0.00000000000E+00  0.00000000000E+00  0.75117945277E+03  0.10973480326E+04  0.79993883165E+03 0.  0.
        3    1    3    3  502    0 -0.17513324023E+03 -0.11209092625E+03 -0.93111960554E+02  0.22782860878E+03  0.10100000352E+00 0. -1.
       -3    1    3    3    0  502  0.17513324023E+03  0.11209092625E+03  0.84429141333E+03  0.86951942382E+03  0.10100000352E+00 0.  1.
</event>
<event>
 5   0  0.4086111E-04  0.7999943E+03  0.7818609E-02  0.9560025E-01
        1   -1    0    0  501    0  0.00000000000E+00  0.00000000000E+00  0.45234790554E+03  0.45234790556E+03  0.50400001928E-02 0. -1.
       -1   -1    0    0    0  501  0.00000000000E+00  0.00000000000E+00 -0.35370502369E+03  0.35370502373E+03  0.50400001928E-02 0.  1.
    10030    2    1    2    0    0  0.00000000000E+00  0.00000000000E+00  0.98642881846E+02  0.80605292929E+03  0.79999431665E+03 0.  0.
        3    1    3    3  502    0 -0.20188202905E+03  0.34448258452E+03  0.73442497425E+02  0.40597834341E+03  0.10100000352E+00 0.  1.
       -3    1    3    3    0  502  0.20188202905E+03 -0.34448258452E+03  0.25200384421E+02  0.40007458588E+03  0.10100000352E+00 0. -1.
</event>
<event>
 5   0  0.4087283E-04  0.8000579E+03  0.7818609E-02  0.9559933E-01
       -1   -1    0    0    0  501  0.00000000000E+00  0.00000000000E+00  0.12912598226E+04  0.12912598226E+04  0.50400001928E-02 0.  1.
        1   -1    0    0  501    0  0.00000000000E+00  0.00000000000E+00 -0.12392793347E+03  0.12392793358E+03  0.50400001928E-02 0. -1.
    10030    2    1    2    0    0  0.00000000000E+00  0.00000000000E+00  0.11673318891E+04  0.14151877562E+04  0.80005790158E+03 0.  0.
        1    1    3    3  502    0 -0.11482256967E+03  0.18972641680E+03 -0.52406778259E+01  0.22182831304E+03  0.50400001928E-02 0. -1.
       -1    1    3    3    0  502  0.11482256967E+03 -0.18972641680E+03  0.11725725669E+04  0.11933594431E+04  0.50400001928E-02 0.  1.
</event>
<event>
 5   0  0.6672462E-04  0.7998949E+03  0.7818609E-02  0.9560169E-01
       -2   -1    0    0    0  501  0.00000000000E+00  0.00000000000E+00  0.98038765529E+02  0.98038765563E+02  0.25500000920E-02 0. -1.
        2   -1    0    0  501    0  0.00000000000E+00  0.00000000000E+00 -0.16315788902E+04  0.16315788902E+04  0.25500000920E-02 0.  1.
    10030    2    1    2    0    0  0.00000000000E+00  0.00000000000E+00 -0.15335401246E+04  0.17296176557E+04  0.79989494382E+03 0.  0.
        5    1    3    3  502    0  0.30863186935E+03 -0.12841556234E+03 -0.29208748201E+03  0.44393848062E+03  0.46999998093E+01 0. -1.
       -5    1    3    3    0  502 -0.30863186935E+03  0.12841556234E+03 -0.12414526426E+04  0.12856791751E+04  0.46999998093E+01 0.  1.
</event>
<event>
 5   0  0.4169155E-04  0.8004984E+03  0.7818609E-02  0.9559296E-01
        1   -1    0    0  501    0  0.00000000000E+00  0.00000000000E+00  0.10592454460E+04  0.10592454460E+04  0.50400001928E-02 0.  1.
       -1   -1    0    0    0  501  0.00000000000E+00  0.00000000000E+00 -0.15123919204E+03  0.15123919213E+03  0.50400001928E-02 0. -1.
    10030    2    1    2    0    0  0.00000000000E+00  0.00000000000E+00  0.90800625393E+03  0.12104846381E+04  0.80049840845E+03 0.  0.
        4    1    3    3  502    0  0.32612994337E+03  0.10140095920E+03  0.76958889542E+03  0.84196886840E+03  0.12699999809E+01 0.  1.
       -4    1    3    3    0  502 -0.32612994337E+03 -0.10140095920E+03  0.13841735851E+03  0.36851576972E+03  0.12699999809E+01 0. -1.
</event>
<event>
 5   0  0.4104786E-04  0.7998014E+03  0.7818609E-02  0.9560305E-01
        1   -1    0    0  501    0  0.00000000000E+00  0.00000000000E+00  0.20318687714E+03  0.20318687720E+03  0.50400001928E-02 0.  1.
       -1   -1    0    0    0  501  0.00000000000E+00  0.00000000000E+00 -0.78706155825E+03  0.78706155827E+03  0.50400001928E-02 0. -1.
    10030    2    1    2    0    0  0.00000000000E+00  0.00000000000E+00 -0.58387468112E+03  0.99024843547E+03  0.79980142579E+03 0.  0.
        2    1    3    3  502    0 -0.59732612702E+02  0.10337273540E+03 -0.76448116414E+03  0.77374760599E+03  0.25500000920E-02 0. -1.
       -2    1    3    3    0  502  0.59732612702E+02 -0.10337273540E+03  0.18060648303E+03  0.21650082947E+03  0.25500000920E-02 0.  1.
</event>
<event>
 5   0  0.6970013E-04  0.8001346E+03  0.7818609E-02  0.9559822E-01
       -2   -1    0    0    0  501  0.00000000000E+00  0.00000000000E+00  0.38639386100E+03  0.38639386101E+03  0.25500000920E-02 0.  1.
        2   -1    0    0  501    0  0.00000000000E+00  0.00000000000E+00 -0.41422464356E+03  0.41422464357E+03  0.25500000920E-02 0. -1.
    10030    2    1    2    0    0  0.00000000000E+00  0.00000000000E+00 -0.27830782566E+02  0.80061850458E+03  0.80013463705E+03 0.  0.
        3    1    3    3  502    0 -0.40100463591E+02 -0.14779249524E+03 -0.38373757434E+03  0.41316486418E+03  0.10100000352E+00 0. -1.
       -3    1    3    3    0  502  0.40100463591E+02  0.14779249524E+03  0.35590679177E+03  0.38745364040E+03  0.10100000352E+00 0.  1.
</event>
<event>
 5   0  0.6801147E-04  0.8003549E+03  0.7818609E-02  0.9559504E-01
        2   -1    0    0  501    0  0.00000000000E+00  0.00000000000E+00  0.35994026494E+03  0.35994026495E+03  0.25500000920E-02 0.  1.
       -2   -1    0    0    0  501  0.00000000000E+00  0.00000000000E+00 -0.44491267510E+03  0.44491267511E+03  0.25500000920E-02 0. -1.
    10030    2    1    2    0    0  0.00000000000E+00  0.00000000000E+00 -0.84972410162E+02  0.80485294006E+03  0.80035488668E+03 0.  0.
        4    1    3    3  502    0  0.27153384977E+02 -0.12316520158E+03 -0.42440132701E+03  0.44274718798E+03  0.12699999809E+01 0. -1.
       -4    1    3    3    0  502 -0.27153384977E+02  0.12316520158E+03  0.33942891685E+03  0.36210575208E+03  0.12699999809E+01 0.  1.
</event>
<event>
 5   0  0.6801147E-04  0.8002111E+03  0.7818609E-02  0.9559712E-01
       -2   -1    0    0    0  501  0.00000000000E+00  0.00000000000E+00  0.15569616667E+03  0.15569616669E+03  0.25500000920E-02 0.  1.
        2   -1    0    0  501    0  0.00000000000E+00  0.00000000000E+00 -0.10281850118E+04  0.10281850118E+04  0.25500000920E-02 0. -1.
    10030    2    1    2    0    0  0.00000000000E+00  0.00000000000E+00 -0.87248884514E+03  0.11838811785E+04  0.80021113458E+03 0.  0.
        4    1    3    3  502    0  0.51708485304E+02  0.22282466683E+03  0.49411619222E+02  0.23402504271E+03  0.12699999809E+01 0.  1.
       -4    1    3    3    0  502 -0.51708485304E+02 -0.22282466683E+03 -0.92190046437E+03  0.94985613579E+03  0.12699999809E+01 0. -1.
</event>
<event>
 5   0  0.4392552E-04  0.8002616E+03  0.7818609E-02  0.9559638E-01
        1   -1    0    0  501    0  0.00000000000E+00  0.00000000000E+00  0.77610581925E+03  0.77610581926E+03  0.50400001928E-02 0. -1.
       -1   -1    0    0    0  501  0.00000000000E+00  0.00000000000E+00 -0.20629232419E+03  0.20629232425E+03  0.50400001928E-02 0.  1.
    10030    2    1    2    0    0  0.00000000000E+00  0.00000000000E+00  0.56981349506E+03  0.98239814351E+03  0.80026164048E+03 0.  0.
        5    1    3    3  502    0  0.14874626838E+03 -0.28387561576E+03 -0.91320521559E+01  0.32064981203E+03  0.46999998093E+01 0.  1.
       -5    1    3    3    0  502 -0.14874626838E+03  0.28387561576E+03  0.57894554722E+03  0.66174833148E+03  0.46999998093E+01 0. -1.
</event>
<event>
 5   0  0.4086111E-04  0.8005295E+03  0.7818609E-02  0.9559251E-01
       -1   -1    0    0    0  501  0.00000000000E+00  0.00000000000E+00  0.83127257427E+03  0.83127257428E+03  0.50400001928E-02 0. -1.
        1   -1    0    0  501    0  0.00000000000E+00  0.00000000000E+00 -0.19273086766E+03  0.19273086772E+03  0.50400001928E-02 0.  1.
    10030    2    1    2    0    0  0.00000000000E+00  0.00000000000E+00  0.63854170661E+03  0.10240034420E+04  0.80052953609E+03 0.  0.
        3    1    3    3  502    0  0.47911011177E+02 -0.34412935461E+03  0.65070995734E+02  0.35348935257E+03  0.10100000352E+00 0.  1.
       -3    1    3    3    0  502 -0.47911011177E+02  0.34412935461E+03  0.57347071088E+03  0.67051408944E+03  0.10100000352E+00 0. -1.
</event>
<event>
 5   0  0.6801147E-04  0.7999372E+03  0.7818609E-02  0.9560108E-01
       -2   -1    0    0    0  501  0.00000000000E+00  0.00000000000E+00  0.55591505014E+03  0.55591505015E+03  0.25500000920E-02 0.  1.
        2   -1    0    0  501    0  0.00000000000E+00  0.00000000000E+00 -0.28776856831E+03  0.28776856832E+03  0.25500000920E-02 0. -1.
    10030    2    1    2    0    0  0.00000000000E+00  0.00000000000E+00  0.26814648184E+03  0.84368361846E+03  0.79993719275E+03 0.  0.
        4    1    3    3  502    0 -0.20812800390E+03 -0.25716936623E+02  0.49327849845E+03  0.53600738500E+03  0.12699999809E+01 0.  1.
       -4    1    3    3    0  502  0.20812800390E+03  0.25716936623E+02 -0.22513201662E+03  0.30767623347E+03  0.12699999809E+01 0. -1.
</event>
<event>
 5   0  0.2736375E-04  0.8007144E+03  0.7818609E-02  0.9558984E-01
        3   -1    0    0  501    0  0.00000000000E+00  0.00000000000E+00  0.12487147351E+04  0.12487147392E+04  0.10100000352E+00 0. -1.
       -3   -1    0    0    0  501  0.00000000000E+00  0.00000000000E+00 -0.12836067438E+03  0.12836071412E+03  0.10100000352E+00 0.  1.
    10030    2    1    2    0    0  0.00000000000E+00  0.00000000000E+00  0.11203540608E+04  0.13770754533E+04  0.80071442022E+03 0.  0.
        5    1    3    3  502    0 -0.18481057730E+03  0.27010707199E+03  0.16368367580E+03  0.36596067486E+03  0.46999998093E+01 0.  1.
       -5    1    3    3    0  502  0.18481057730E+03 -0.27010707199E+03  0.95667038496E+03  0.10111147785E+04  0.46999998093E+01 0. -1.
</event>
<event>
 5   0  0.6672462E-04  0.7996584E+03  0.7818609E-02  0.9560512E-01
       -2   -1    0    0    0  501  0.00000000000E+00  0.00000000000E+00  0.35914595464E+03  0.35914595465E+03  0.25500000920E-02 0. -1.
        2   -1    0    0  501    0  0.00000000000E+00  0.00000000000E+00 -0.44512094089E+03  0.44512094090E+03  0.25500000920E-02 0.  1.
    10030    2    1    2    0    0  0.00000000000E+00  0.00000000000E+00 -0.85974986251E+02  0.80426689555E+03  0.79965839020E+03 0.  0.
        5    1    3    3  502    0  0.10315832878E+03  0.38314353688E+03 -0.92266647707E+02  0.40740131925E+03  0.46999998093E+01 0. -1.
       -5    1    3    3    0  502 -0.10315832878E+03 -0.38314353688E+03  0.62916614561E+01  0.39686557630E+03  0.46999998093E+01 0.  1.
</event>
<event>
 5   0  0.4392552E-04  0.8000639E+03  0.7818609E-02  0.9559925E-01
        1   -1    0    0  501    0  0.00000000000E+00  0.00000000000E+00  0.14430975626E+04  0.14430975626E+04  0.50400001928E-02 0.  1.
       -1   -1    0    0    0  501  0.00000000000E+00  0.00000000000E+00 -0.11089031759E+03  0.11089031771E+03  0.50400001928E-02 0. -1.
    10030    2    1    2    0    0  0.00000000000E+00  0.00000000000E+00  0.13322072450E+04  0.15539878803E+04  0.80006386527E+03 0.  0.
        5    1    3    3  502    0 -0.34777765177E+03 -0.16066699536E+03  0.44260670683E+03  0.58539385494E+03  0.46999998093E+01 0.  1.
       -5    1    3    3    0  502  0.34777765177E+03  0.16066699536E+03  0.88960053820E+03  0.96859402539E+03  0.46999998093E+01 0. -1.
</event>
<event>
 5   0  0.4086111E-04  0.7999136E+03  0.7818609E-02  0.9560142E-01
       -1   -1    0    0    0  501  0.00000000000E+00  0.00000000000E+00  0.41459537060E+03  0.41459537063E+03  0.50400001928E-02 0. -1.
        1   -1    0    0  501    0  0.00000000000E+00  0.00000000000E+00 -0.38583505179E+03  0.38583505182E+03  0.50400001928E-02 0.  1.
    10030    2    1    2    0    0  0.00000000000E+00  0.00000000000E+00  0.28760318809E+02  0.80043042245E+03  0.79991356111E+03 0.  0.
        3    1    3    3  502    0 -0.10875726170E+03  0.33939516101E+03  0.19601383277E+03  0.40674150284E+03  0.10100000352E+00 0. -1.
       -3    1    3    3    0  502  0.10875726170E+03 -0.33939516101E+03 -0.16725351396E+03  0.39368891961E+03  0.10100000352E+00 0.  1.
</event>
<event>
 5   0  0.7133039E-04  0.8004932E+03  0.7818609E-02  0.9559303E-01
        2   -1    0    0  501    0  0.00000000000E+00  0.00000000000E+00  0.10860858014E+04  0.10860858014E+04  0.25500000920E-02 0.  1.
       -2   -1    0    0    0  501  0.00000000000E+00  0.00000000000E+00 -0.14749972476E+03  0.14749972478E+03  0.25500000920E-02 0. -1.
    10030    2    1    2    0    0  0.00000000000E+00  0.00000000000E+00  0.93858607667E+03  0.12335855262E+04  0.80049323993E+03 0.  0.
        2    1    3    3  502    0 -0.18812675995E+03  0.66984535806E+02  0.10038306314E+04  0.10235011199E+04  0.25500000920E-02 0.  1.
       -2    1    3    3    0  502  0.18812675995E+03 -0.66984535806E+02 -0.65244554750E+02  0.21008440632E+03  0.25500000920E-02 0. -1.
</event>
<event>
 5   0  0.6672462E-04  0.7994218E+03  0.7818609E-02  0.9560854E-01
        2   -1    0    0  501    0  0.00000000000E+00  0.00000000000E+00  0.12509068782E+04  0.12509068782E+04  0.25500000920E-02 0. -1.
       -2   -1    0    0    0  501  0.00000000000E+00  0.00000000000E+00 -0.12772237231E+03  0.12772237233E+03  0.25500000920E-02 0.  1.
    10030    2    1    2    0    0  0.00000000000E+00  0.00000000000E+00  0.11231845059E+04  0.13786292505E+04  0.79942177612E+03 0.  0.
        5    1    3    3  502    0 -0.37609934067E+03  0.68081267406E+02  0.36002885844E+03  0.52509869732E+03  0.46999998093E+01 0.  1.
       -5    1    3    3    0  502  0.37609934067E+03 -0.68081267406E+02  0.76315564743E+03  0.85353055319E+03  0.46999998093E+01 0. -1.
</event>
<event>
 5   0  0.6593118E-04  0.8002033E+03  0.7818609E-02  0.9559723E-01
        2   -1    0    0  501    0  0.00000000000E+00  0.00000000000E+00  0.78586722850E+03  0.78586722850E+03  0.25500000920E-02 0.  1.
       -2   -1    0    0    0  501  0.00000000000E+00  0.00000000000E+00 -0.20370023930E+03  0.20370023931E+03  0.25500000920E-02 0. -1.
    10030    2    1    2    0    0  0.00000000000E+00  0.00000000000E+00  0.58216698920E+03  0.98956746781E+03  0.80020333043E+03 0.  0.
        1    1    3    3  502    0  0.20673237383E+03 -0.33960723753E+03  0.34652592410E+03  0.52740076438E+03  0.50400001928E-02 0.  1.
       -1    1    3    3    0  502 -0.20673237383E+03  0.33960723753E+03  0.23564106510E+03  0.46216670343E+03  0.50400001928E-02 0. -1.
</event>
<event>
 5   0  0.6801147E-04  0.7999235E+03  0.7818609E-02  0.9560128E-01
       -2   -1    0    0    0  501  0.00000000000E+00  0.00000000000E+00  0.34503628375E+03  0.34503628376E+03  0.25500000920E-02 0. -1.
        2   -1    0    0  501    0  0.00000000000E+00  0.00000000000E+00 -0.46363066445E+03  0.46363066446E+03  0.25500000920E-02 0.  1.
    10030    2    1    2    0    0  0.00000000000E+00  0.00000000000E+00 -0.11859438070E+03  0.80866694822E+03  0.79992350010E+03 0.  0.
        4    1    3    3  502    0  0.31673819095E+03 -0.23731876830E+02 -0.30502087121E+03  0.44036987676E+03  0.12699999809E+01 0.  1.
       -4    1    3    3    0  502 -0.31673819095E+03  0.23731876830E+02  0.18642649050E+03  0.36829707146E+03  0.12699999809E+01 0. -1.
</event>
<event>
 5   0  0.6672462E-04  0.7991135E+03  0.7818609E-02  0.9561301E-01
        2   -1    0    0  501    0  0.00000000000E+00  0.00000000000E+00  0.62415277306E+03  0.62415277306E+03  0.25500000920E-02 0.  1.
       -2   -1    0    0    0  501  0.00000000000E+00  0.00000000000E+00 -0.25577965186E+03  0.25577965187E+03  0.25500000920E-02 0. -1.
    10030    2    1    2    0    0  0.00000000000E+00  0.00000000000E+00  0.36837312120E+03  0.87993242493E+03  0.79911345629E+03 0.  0.
        5    1    3    3  502    0  0.17076908879E+03  0.34597381402E+03  0.69946562619E+02  0.39214101200E+03  0.46999998093E+01 0. -1.
       -5    1    3    3    0  502 -0.17076908879E+03 -0.34597381402E+03  0.29842655858E+03  0.48779141294E+03  0.46999998093E+01 0.  1.
</event>
<event>
 5   0  0.6970013E-04  0.8005512E+03  0.7818609E-02  0.9559220E-01
        2   -1    0    0  501    0  0.00000000000E+00  0.00000000000E+00  0.70567953281E+03  0.70567953282E+03  0.25500000920E-02 0. -1.
       -2   -1    0    0    0  501  0.00000000000E+00  0.00000000000E+00 -0.22704434375E+03  0.22704434377E+03  0.25500000920E-02 0.  1.
    10030    2    1    2    0    0  0.00000000000E+00  0.00000000000E+00  0.47863518906E+03  0.93272387658E+03  0.80055117622E+03 0.  0.
        3    1    3    3  502    0  0.79370824963E+02  0.39158337620E+03  0.26745590512E+03  0.48080135166E+03  0.10100000352E+00 0. -1.
       -3    1    3    3    0  502 -0.79370824963E+02 -0.39158337620E+03  0.21117928394E+03  0.45192252493E+03  0.10100000352E+00 0.  1.
</event>
<event>
 5   0  0.4104786E-04  0.7998999E+03  0.7818609E-02  0.9560162E-01
        1   -1    0    0  501    0  0.00000000000E+00  0.00000000000E+00  0.11866670584E+04  0.11866670584E+04  0.50400001928E-02 0. -1.
       -1   -1    0    0    0  501  0.00000000000E+00  0.00000000000E+00 -0.13479769036E+03  0.13479769046E+03  0.50400001928E-02 0.  1.
    10030    2    1    2    0    0  0.00000000000E+00  0.00000000000E+00  0.10518693681E+04  0.13214647489E+04  0.79989994068E+03 0.  0.
        2    1    3    3  502    0 -0.18937886223E+03 -0.20434593902E+03  0.51888089738E+02  0.28339723025E+03  0.25500000920E-02 0.  1.
       -2    1    3    3    0  502  0.18937886223E+03  0.20434593902E+03  0.99998127833E+03  0.10380675186E+04  0.25500000920E-02 0. -1.
</event>
<event>
 5   0  0.6672462E-04  0.8001751E+03  0.7818609E-02  0.9559764E-01
       -2   -1    0    0    0  501  0.00000000000E+00  0.00000000000E+00  0.81477831754E+03  0.81477831755E+03  0.25500000920E-02 0. -1.
        2   -1    0    0  501    0  0.00000000000E+00  0.00000000000E+00 -0.19645840911E+03  0.19645840912E+03  0.25500000920E-02 0.  1.
    10030    2    1    2    0    0  0.00000000000E+00  0.00000000000E+00  0.61831990844E+03  0.10112367267E+04  0.80017511096E+03 0.  0.
        5    1    3    3  502    0 -0.17149485041E+03 -0.78011216854E+01 -0.14750796974E+03  0.22638911713E+03  0.46999998093E+01 0.  1.
       -5    1    3    3    0  502  0.17149485041E+03  0.78011216854E+01  0.76582787818E+03  0.78484760955E+03  0.46999998093E+01 0. -1.
</event>
<event>
 5   0  0.4392552E-04  0.8001207E+03  0.7818609E-02  0.9559842E-01
        1   -1    0    0  501    0  0.00000000000E+00  0.00000000000E+00  0.11405669716E+04  0.11405669716E+04  0.50400001928E-02 0.  1.
       -1   -1    0    0    0  501  0.00000000000E+00  0.00000000000E+00 -0.14032343428E+03  0.14032343437E+03  0.50400001928E-02 0. -1.
    10030    2    1    2    0    0  0.00000000000E+00  0.00000000000E+00  0.10002435373E+04  0.12808904060E+04  0.80012067726E+03 0.  0.
        5    1    3    3  502    0  0.94581891519E+02  0.32089176765E+03  0.85125287086E+03  0.91464244429E+03  0.46999998093E+01 0.  1.
       -5    1    3    3    0  502 -0.94581891519E+02 -0.32089176765E+03  0.14899066645E+03  0.36624796168E+03  0.46999998093E+01 0. -1.
</event>
<event>
 5   0  0.4086111E-04  0.8036830E+03  0.7818609E-02  0.9554701E-01
        1   -1    0    0  501    0  0.00000000000E+00  0.00000000000E+00  0.65415642663E+03  0.65415642665E+03  0.50400001928E-02 0. -1.
       -1   -1    0    0    0  501  0.00000000000E+00  0.00000000000E+00 -0.24684708920E+03  0.24684708925E+03  0.50400001928E-02 0.  1.
    10030    2    1    2    0    0  0.00000000000E+00  0.00000000000E+00  0.40730933743E+03  0.90100351590E+03  0.80368304654E+03 0.  0.
        3    1    3    3  502    0  0.39567210301E+03 -0.21267540211E+02  0.27859098562E+03  0.48437760976E+03  0.10100000352E+00 0.  1.
       -3    1    3    3    0  502 -0.39567210301E+03  0.21267540211E+02  0.12871835182E+03  0.41662590614E+03  0.10100000352E+00 0. -1.
</event>
<event>
 5   0  0.4392552E-04  0.7998517E+03  0.7818609E-02  0.9560232E-01
       -1   -1    0    0    0  501  0.00000000000E+00  0.00000000000E+00  0.47630594780E+03  0.47630594783E+03  0.50400001928E-02 0.  1.
        1   -1    0    0  501    0  0.00000000000E+00  0.00000000000E+00 -0.33579397131E+03  0.33579397135E+03  0.50400001928E-02 0. -1.
    10030    2    1    2    0    0  0.00000000000E+00  0.00000000000E+00  0.14051197649E+03  0.81209991917E+03  0.79985165074E+03 0.  0.
        5    1    3    3  502    0  0.29406217863E+03 -0.21507963828E+03 -0.97152991361E+02  0.37708435320E+03  0.46999998093E+01 0. -1.
       -5    1    3    3    0  502 -0.29406217863E+03  0.21507963828E+03  0.23766496785E+03  0.43501556598E+03  0.46999998093E+01 0.  1.
</event>
<event>
 5   0  0.4169155E-04  0.7996580E+03  0.7818609E-02  0.9560512E-01
        1   -1    0    0  501    0  0.00000000000E+00  0.00000000000E+00  0.10975926643E+04  0.10975926643E+04  0.50400001928E-02 0.  1.
       -1   -1    0    0    0  501  0.00000000000E+00  0.00000000000E+00 -0.14564894283E+03  0.14564894292E+03  0.50400001928E-02 0. -1.
    10030    2    1    2    0    0  0.00000000000E+00  0.00000000000E+00  0.95194372146E+03  0.12432416072E+04  0.79965795505E+03 0.  0.
        4    1    3    3  502    0  0.22226996318E+03  0.25570607389E+03  0.80604106413E+03  0.87435309957E+03  0.12699999809E+01 0.  1.
       -4    1    3    3    0  502 -0.22226996318E+03 -0.25570607389E+03  0.14590265732E+03  0.36888850764E+03  0.12699999809E+01 0. -1.
</event>
<event>
 5   0  0.6970013E-04  0.8000323E+03  0.7818609E-02  0.9559970E-01
       -2   -1    0    0    0  501  0.00000000000E+00  0.00000000000E+00  0.21356945406E+03  0.21356945407E+03  0.25500000920E-02 0.  1.
        2   -1    0    0  501    0  0.00000000000E+00  0.00000000000E+00 -0.74923125262E+03  0.74923125262E+03  0.25500000920E-02 0. -1.
    10030    2    1    2    0    0  0.00000000000E+00  0.00000000000E+00 -0.53566179856E+03  0.96280070669E+03  0.80003227333E+03 0.  0.
        3    1    3    3  502    0  0.50110324780E+02 -0.21328848091E+03  0.13493904686E+03  0.25731610387E+03  0.10100000352E+00 0.  1.
       -3    1    3    3    0  502 -0.50110324780E+02  0.21328848091E+03 -0.67060084542E+03  0.70548460283E+03  0.10100000352E+00 0. -1.
</event>
<event>
 5   0  0.6672462E-04  0.8001257E+03  0.7818609E-02  0.9559835E-01
       -2   -1    0    0    0  501  0.00000000000E+00  0.00000000000E+00  0.26895327131E+03  0.26895327132E+03  0.25500000920E-02 0.  1.
        2   -1    0    0  501    0  0.00000000000E+00  0.00000000000E+00 -0.59508578806E+03  0.59508578807E+03  0.25500000920E-02 0. -1.
    10030    2    1    2    0    0  0.00000000000E+00  0.00000000000E+00 -0.32613251676E+03  0.86403905939E+03  0.80012566367E+03 0.  0.
        5    1    3    3  502    0 -0.30838763589E+03  0.92566746484E+02 -0.41942476464E+03  0.52878233680E+03  0.46999998093E+01 0. -1.
       -5    1    3    3    0  502  0.30838763589E+03 -0.92566746484E+02  0.93292247883E+02  0.33525672258E+03  0.46999998093E+01 0.  1.
</event>
<event>
 5   0  0.4169155E-04  0.8000443E+03  0.7818609E-02  0.9559953E-01
        1   -1    0    0  501    0  0.00000000000E+00  0.00000000000E+00  0.70841124160E+03  0.70841124162E+03  0.50400001928E-02 0. -1.
       -1   -1    0    0    0  501  0.00000000000E+00  0.00000000000E+00 -0.22588253544E+03  0.22588253550E+03  0.50400001928E-02 0.  1.
    10030    2    1    2    0    0  0.00000000000E+00  0.00000000000E+00  0.48252870616E+03  0.93429377712E+03  0.80004431733E+03 0.  0.
        4    1    3    3  502    0 -0.34389438331E+03  0.98904890609E+02  0.45007120161E+03  0.57498802047E+03  0.12699999809E+01 0. -1.
       -4    1    3    3    0  502  0.34389438331E+03 -0.98904890609E+02  0.32457504549E+02  0.35930575665E+03  0.12699999809E+01 0.  1.
</event>
<event>
 5   0  0.6801147E-04  0.8001594E+03  0.7818609E-02  0.9559786E-01
        2   -1    0    0  501    0  0.00000000000E+00  0.00000000000E+00  0.64553411048E+03  0.64553411048E+03  0.25500000920E-02 0. -1.
       -2   -1    0    0    0  501  0.00000000000E+00  0.00000000000E+00 -0.24795553992E+03  0.24795553994E+03  0.25500000920E-02 0.  1.
    10030    2    1    2    0    0  0.00000000000E+00  0.00000000000E+00  0.39757857055E+03  0.89348965042E+03  0.80015938140E+03 0.  0.
        4    1    3    3  502    0 -0.28381405421E+03 -0.20451753339E+03  0.41555634785E+03  0.54320026690E+03  0.12699999809E+01 0. -1.
       -4    1    3    3    0  502  0.28381405421E+03  0.20451753339E+03 -0.17977777291E+02  0.35028938352E+03  0.12699999809E+01 0.  1.
</event>
<event>
 5   0  0.7133039E-04  0.7999509E+03  0.7818609E-02  0.9560088E-01
        2   -1    0    0  501    0  0.00000000000E+00  0.00000000000E+00  0.15353540488E+04  0.15353540488E+04  0.25500000920E-02 0.  1.
       -2   -1    0    0    0  501  0.00000000000E+00  0.00000000000E+00 -0.10419769436E+03  0.10419769439E+03  0.25500000920E-02 0. -1.
    10030    2    1    2    0    0  0.00000000000E+00  0.00000000000E+00  0.14311563544E+04  0.16395517432E+04  0.79995087832E+03 0.  0.
        2    1    3    3  502    0  0.42861498038E+02  0.26567953615E+03  0.10910890500E+03  0.29039193704E+03  0.25500000920E-02 0. -1.
       -2    1    3    3    0  502 -0.42861498038E+02 -0.26567953615E+03  0.13220474494E+04  0.13491598061E+04  0.25500000920E-02 0.  1.
</event>
<event>
 5   0  0.4169155E-04  0.7999826E+03  0.7818609E-02  0.9560042E-01
       -1   -1    0    0    0  501  0.00000000000E+00  0.00000000000E+00  0.45464188860E+03  0.45464188863E+03  0.50400001928E-02 0.  1.
        1   -1    0    0  501    0  0.00000000000E+00  0.00000000000E+00 -0.35190999564E+03  0.35190999567E+03  0.50400001928E-02 0. -1.
    10030    2    1    2    0    0  0.00000000000E+00  0.00000000000E+00  0.10273189296E+03  0.80655188431E+03  0.79998256246E+03 0.  0.
        4    1    3    3  502    0 -0.11657275316E+03  0.31591054593E+03 -0.16628345627E+03  0.37555356547E+03  0.12699999809E+01 0. -1.
       -4    1    3    3    0  502  0.11657275316E+03 -0.31591054593E+03  0.26901534924E+03  0.43099831883E+03  0.12699999809E+01 0.  1.
</event>
<event>
 5   0  0.6672462E-04  0.8000119E+03  0.7818609E-02  0.9560000E-01
       -2   -1    0    0    0  501  0.00000000000E+00  0.00000000000E+00  0.33847784274E+03  0.33847784275E+03  0.25500000920E-02 0. -1.
        2   -1    0    0  501    0  0.00000000000E+00  0.00000000000E+00 -0.47271851059E+03  0.47271851059E+03  0.25500000920E-02 0.  1.
    10030    2    1    2    0    0  0.00000000000E+00  0.00000000000E+00 -0.13424066785E+03  0.81119635334E+03  0.80001185414E+03 0.  0.
        5    1    3    3  502    0 -0.37948123839E+03  0.33949654614E+02  0.56335945347E+02  0.38516803875E+03  0.46999998093E+01 0. -1.
       -5    1    3    3    0  502  0.37948123839E+03 -0.33949654614E+02 -0.19057661319E+03  0.42602831459E+03  0.46999998093E+01 0.  1.
</event>
<event>
 5   0  0.4086111E-04  0.7997581E+03  0.7818609E-02  0.9560367E-01
        1   -1    0    0  501    0  0.00000000000E+00  0.00000000000E+00  0.17175657095E+03  0.17175657102E+03  0.50400001928E-02 0.  1.
       -1   -1    0    0    0  501  0.00000000000E+00  0.00000000000E+00 -0.93098766294E+03  0.93098766295E+03  0.50400001928E-02 0. -1.
    10030    2    1    2    0    0  0.00000000000E+00  0.00000000000E+00 -0.75923109199E+03  0.11027442340E+04  0.79975808500E+03 0.  0.
        3    1    3    3  502    0 -0.19272982800E+03  0.18931459302E+03 -0.78612636610E+03  0.83125175212E+03  0.10100000352E+00 0. -1.
       -3    1    3    3    0  502  0.19272982800E+03 -0.18931459302E+03  0.26895274107E+02  0.27149248185E+03  0.10100000352E+00 0.  1.
</event>
<event>
 5   0  0.6801147E-04  0.7997717E+03  0.7818609E-02  0.9560348E-01
        2   -1    0    0  501    0  0.00000000000E+00  0.00000000000E+00  0.91751575417E+02  0.91751575452E+02  0.25500000920E-02 0. -1.
       -2   -1    0    0    0  501  0.00000000000E+00  0.00000000000E+00 -0.17428442577E+04  0.17428442577E+04  0.25500000920E-02 0.  1.
    10030    2    1    2    0    0  0.00000000000E+00  0.00000000000E+00 -0.16510926823E+04  0.18345958331E+04  0.79977173339E+03 0.  0.
        4    1    3    3  502    0  0.14427291903E+03  0.92298690027E+02 -0.16544454236E+04  0.16632874063E+04  0.12699999809E+01 0.  1.
       -4    1    3    3    0  502 -0.14427291903E+03 -0.92298690027E+02  0.33527413014E+01  0.17130842688E+03  0.12699999809E+01 0. -1.
</event>
<event>
 5   0  0.2736375E-04  0.8008046E+03  0.7818609E-02  0.9558853E-01
       -3   -1    0    0    0  501  0.00000000000E+00  0.00000000000E+00  0.11475371654E+03  0.11475376098E+03  0.10100000352E+00 0. -1.
        3   -1    0    0  501    0  0.00000000000E+00  0.00000000000E+00 -0.13970961493E+04  0.13970961530E+04  0.10100000352E+00 0.  1.
    10030    2    1    2    0    0  0.00000000000E+00  0.00000000000E+00 -0.12823424328E+04  0.15118499139E+04  0.80080462499E+03 0.  0.
        2    1    3    3  502    0 -0.73516633851E+02 -0.38089012963E+03 -0.45389603788E+03  0.59707922381E+03  0.25500000920E-02 0. -1.
       -2    1    3    3    0  502  0.73516633851E+02  0.38089012963E+03 -0.82844639489E+03  0.91477069013E+03  0.25500000920E-02 0.  1.
</event>
<event>
 5   0  0.6672462E-04  0.8000337E+03  0.7818609E-02  0.9559968E-01
        2   -1    0    0  501    0  0.00000000000E+00  0.00000000000E+00  0.19161331431E+04  0.19161331431E+04  0.25500000920E-02 0.  1.
       -2   -1    0    0    0  501  0.00000000000E+00  0.00000000000E+00 -0.83508544177E+02  0.83508544216E+02  0.25500000920E-02 0. -1.
    10030    2    1    2    0    0  0.00000000000E+00  0.00000000000E+00  0.18326245989E+04  0.19996416873E+04  0.80003372246E+03 0.  0.
        5    1    3    3  502    0 -0.11598923993E+03  0.38265266763E+03  0.88952836905E+03  0.97527400108E+03  0.46999998093E+01 0. -1.
       -5    1    3    3    0  502  0.11598923993E+03 -0.38265266763E+03  0.94309622984E+03  0.10243676862E+04  0.46999998093E+01 0.  1.
</event>
<event>
 5   0  0.4087283E-04  0.7999423E+03  0.7818609E-02  0.9560101E-01
        1   -1    0    0  501    0  0.00000000000E+00  0.00000000000E+00  0.47235372806E+03  0.47235372808E+03  0.50400001928E-02 0.  1.
       -1   -1    0    0    0  501  0.00000000000E+00  0.00000000000E+00 -0.33868031813E+03  0.33868031816E+03  0.50400001928E-02 0. -1.
    10030    2    1    2    0    0  0.00000000000E+00  0.00000000000E+00  0.13367340993E+03  0.81103404625E+03  0.79994227520E+03 0.  0.
        1    1    3    3  502    0  0.66982280447E+02  0.38135229598E+03 -0.34857166507E+02  0.38875599240E+03  0.50400001928E-02 0.  1.
       -1    1    3    3    0  502 -0.66982280447E+02 -0.38135229598E+03  0.16853057644E+03  0.42227805385E+03  0.50400001928E-02 0. -1.
</event>
<event>
 5   0  0.4087283E-04  0.7997195E+03  0.7818609E-02  0.9560423E-01
        1   -1    0    0  501    0  0.00000000000E+00  0.00000000000E+00  0.12271404052E+04  0.12271404052E+04  0.50400001928E-02 0. -1.
       -1   -1    0    0    0  501  0.00000000000E+00  0.00000000000E+00 -0.13029300599E+03  0.13029300609E+03  0.50400001928E-02 0.  1.
    10030    2    1    2    0    0  0.00000000000E+00  0.00000000000E+00  0.10968473992E+04  0.13574334113E+04  0.79971948143E+03 0.  0.
        1    1    3    3  502    0  0.37418623584E+03  0.69352701461E+02  0.75674415921E+03  0.84704596027E+03  0.50400001928E-02 0. -1.
       -1    1    3    3    0  502 -0.37418623584E+03 -0.69352701461E+02  0.34010324002E+03  0.51038745105E+03  0.50400001928E-02 0.  1.
</event>
<event>
 5   0  0.4086111E-04  0.7996322E+03  0.7818609E-02  0.9560550E-01
        1   -1    0    0  501    0  0.00000000000E+00  0.00000000000E+00  0.85874017524E+03  0.85874017525E+03  0.50400001928E-02 0. -1.
       -1   -1    0    0    0  501  0.00000000000E+00  0.00000000000E+00 -0.18614816106E+03  0.18614816113E+03  0.50400001928E-02 0.  1.
    10030    2    1    2    0    0  0.00000000000E+00  0.00000000000E+00  0.67259201418E+03  0.10448883364E+04  0.79963217667E+03 0.  0.
        3    1    3    3  502    0 -0.81754221995E+02  0.38348502726E+03  0.43842345456E+03  0.58818335122E+03  0.10100000352E+00 0.  1.
       -3    1    3    3    0  502  0.81754221995E+02 -0.38348502726E+03  0.23416855962E+03  0.45670498515E+03  0.10100000352E+00 0. -1.
</event>
<event>
 5   0  0.6801147E-04  0.8024168E+03  0.7818609E-02  0.9556525E-01
        2   -1    0    0  501    0  0.00000000000E+00  0.00000000000E+00  0.99542292468E+03  0.99542292468E+03  0.25500000920E-02 0.  1.
       -2   -1    0    0    0  501  0.00000000000E+00  0.00000000000E+00 -0.16170834517E+03  0.16170834519E+03  0.25500000920E-02 0. -1.
    10030    2    1    2    0    0  0.00000000000E+00  0.00000000000E+00  0.83371457951E+03  0.11571312699E+04  0.80241683409E+03 0.  0.
        4    1    3    3  502    0 -0.94007079656E+02 -0.38311054499E+03  0.52238950521E+03  0.65460173293E+03  0.12699999809E+01 0.  1.
       -4    1    3    3    0  502  0.94007079656E+02  0.38311054499E+03  0.31132507430E+03  0.50252953694E+03  0.12699999809E+01 0. -1.
</event>
<event>
 5   0  0.6593118E-04  0.7996650E+03  0.7818609E-02  0.9560502E-01
        2   -1    0    0  501    0  0.00000000000E+00  0.00000000000E+00  0.62868902141E+03  0.62868902142E+03  0.25500000920E-02 0.  1.
       -2   -1    0    0    0  501  0.00000000000E+00  0.00000000000E+00 -0.25428473872E+03  0.25428473873E+03  0.25500000920E-02 0. -1.
    10030    2    1    2    0    0  0.00000000000E+00  0.00000000000E+00  0.37440428269E+03  0.88297376015E+03  0.79966498874E+03 0.  0.
        1    1    3    3  502    0 -0.26849547335E+03  0.29397523624E+03  0.14656045999E+03  0.42425372974E+03  0.50400001928E-02 0. -1.
       -1    1    3    3    0  502  0.26849547335E+03 -0.29397523624E+03  0.22784382270E+03  0.45872003042E+03  0.50400001928E-02 0.  1.
</event>
<event>
 5   0  0.6672462E-04  0.8000726E+03  0.7818609E-02  0.9559912E-01
       -2   -1    0    0    0  501  0.00000000000E+00  0.00000000000E+00  0.10154233786E+04  0.10154233786E+04  0.25500000920E-02 0.  1.
        2   -1    0    0  501    0  0.00000000000E+00  0.00000000000E+00 -0.15759835875E+03  0.15759835877E+03  0.25500000920E-02 0. -1.
    10030    2    1    2    0    0  0.00000000000E+00  0.00000000000E+00  0.85782501983E+03  0.11730217374E+04  0.80007264148E+03 0.  0.
        5    1    3    3  502    0  0.25263440679E+01 -0.35593467356E+03  0.16132176660E+03  0.39082307587E+03  0.46999998093E+01 0. -1.
       -5    1    3    3    0  502 -0.25263440679E+01  0.35593467356E+03  0.69650325323E+03  0.78219866148E+03  0.46999998093E+01 0.  1.
</event>
<event>
 5   0  0.2736375E-04  0.7995353E+03  0.7818609E-02  0.9560690E-01
        4   -1    0    0  501    0  0.00000000000E+00  0.00000000000E+00  0.37836810261E+03  0.37837023399E+03  0.12699999809E+01 0.  1.
       -4   -1    0    0    0  501  0.00000000000E+00  0.00000000000E+00 -0.42237319407E+03  0.42237510339E+03  0.12699999809E+01 0. -1.
    10030    2    1    2    0    0  0.00000000000E+00  0.00000000000E+00 -0.44005091457E+02  0.80074533739E+03  0.79953526956E+03 0.  0.
        5    1    3    3  502    0  0.39584189695E+03 -0.52471505393E+01  0.33522609411E+02  0.39732127468E+03  0.46999998093E+01 0.  1.
       -5    1    3    3    0  502 -0.39584189695E+03  0.52471505393E+01 -0.77527700868E+02  0.40342406271E+03  0.46999998093E+01 0. -1.
</event>
<event>
 5   0  0.2736375E-04  0.7994655E+03  0.7818609E-02  0.9560791E-01
        3   -1    0    0  501    0  0.00000000000E+00  0.00000000000E+00  0.45067694619E+03  0.45067695750E+03  0.10100000352E+00 0.  1.
       -3   -1    0    0    0  501  0.00000000000E+00  0.00000000000E+00 -0.35454725388E+03  0.35454726826E+03  0.10100000352E+00 0. -1.
    10030    2    1    2    0    0  0.00000000000E+00  0.00000000000E+00  0.96129692311E+02  0.80522422577E+03  0.79946553147E+03 0.  0.
        5    1    3    3  502    0  0.69854170058E+02 -0.27944225257E+03  0.32718303044E+03  0.43593394339E+03  0.46999998093E+01 0.  1.
       -5    1    3    3    0  502 -0.69854170058E+02  0.27944225257E+03 -0.23105333813E+03  0.36929028237E+03  0.46999998093E+01 0. -1.
</event>
<event>
 5   0  0.4392552E-04  0.7997279E+03  0.7818609E-02  0.9560411E-01
       -1   -1    0    0    0  501  0.00000000000E+00  0.00000000000E+00  0.24605870166E+03  0.24605870171E+03  0.50400001928E-02 0. -1.
        1   -1    0    0  501    0  0.00000000000E+00  0.00000000000E+00 -0.64980904007E+03  0.64980904009E+03  0.50400001928E-02 0.  1.
    10030    2    1    2    0    0  0.00000000000E+00  0.00000000000E+00 -0.40375033842E+03  0.89586774181E+03  0.79972787562E+03 0.  0.
        5    1    3    3  502    0 -0.35236639512E+03 -0.54680623990E+02  0.74777060399E+00  0.35661561409E+03  0.46999998093E+01 0. -1.
       -5    1    3    3    0  502  0.35236639512E+03  0.54680623990E+02 -0.40449810902E+03  0.53925212772E+03  0.46999998093E+01 0.  1.
</event>
<event>
 5   0  0.6801147E-04  0.8001352E+03  0.7818609E-02  0.9559821E-01
       -2   -1    0    0    0  501  0.00000000000E+00  0.00000000000E+00  0.16718187457E+03  0.16718187459E+03  0.25500000920E-02 0.  1.
        2   -1    0    0  501    0  0.00000000000E+00  0.00000000000E+00 -0.95736506386E+03  0.95736506386E+03  0.25500000920E-02 0. -1.
    10030    2    1    2    0    0  0.00000000000E+00  0.00000000000E+00 -0.79018318929E+03  0.11245469385E+04  0.80013520367E+03 0.  0.
        4    1    3    3  502    0 -0.39837823266E+02 -0.39615144567E+03 -0.34012709407E+03  0.52365167152E+03  0.12699999809E+01 0.  1.
       -4    1    3    3    0  502  0.39837823266E+02  0.39615144567E+03 -0.45005609522E+03  0.60089526693E+03  0.12699999809E+01 0. -1.
</event>
<event>
 5   0  0.4086111E-04  0.7995437E+03  0.7818609E-02  0.9560678E-01
       -1   -1    0    0    0  501  0.00000000000E+00  0.00000000000E+00  0.25766064799E+03  0.25766064804E+03  0.50400001928E-02 0. -1.
        1   -1    0    0  501    0  0.00000000000E+00  0.00000000000E+00 -0.62026363500E+03  0.62026363502E+03  0.50400001928E-02 0.  1.
    10030    2    1    2    0    0  0.00000000000E+00  0.00000000000E+00 -0.36260298701E+03  0.87792428306E+03  0.79954369524E+03 0.  0.
        3    1    3    3  502    0  0.23349940453E+02  0.22552199591E+03 -0.54283936460E+03  0.58828562478E+03  0.10100000352E+00 0.  1.
       -3    1    3    3    0  502 -0.23349940453E+02 -0.22552199591E+03  0.18023637759E+03  0.28963865828E+03  0.10100000352E+00 0. -1.
</event>
<event>
 5   0  0.6801147E-04  0.8006285E+03  0.7818609E-02  0.9559108E-01
       -2   -1    0    0    0  501  0.00000000000E+00  0.00000000000E+00  0.36027310003E+03  0.36027310004E+03  0.25500000920E-02 0. -1.
        2   -1    0    0  501    0  0.00000000000E+00  0.00000000000E+00 -0.44480561963E+03  0.44480561964E+03  0.25500000920E-02 0.  1.
    10030    2    1    2    0    0  0.00000000000E+00  0.00000000000E+00 -0.84532519599E+02  0.80507871968E+03  0.80062850187E+03 0.  0.
        4    1    3    3  502    0 -0.20101431840E+03 -0.12594542929E+03 -0.36651928999E+03  0.43658562756E+03  0.12699999809E+01 0.  1.
       -4    1    3    3    0  502  0.20101431840E+03  0.12594542929E+03  0.28198677039E+03  0.36849309211E+03  0.12699999809E+01 0. -1.
</event>
<event>
 5   0  0.4087283E-04  0.8003273E+03  0.7818609E-02  0.9559544E-01
       -1   -1    0    0    0  501  0.00000000000E+00  0.00000000000E+00  0.81932211368E+03  0.81932211370E+03  0.50400001928E-02 0.  1.
        1   -1    0    0  501    0  0.00000000000E+00  0.00000000000E+00 -0.19544319361E+03  0.19544319367E+03  0.50400001928E-02 0. -1.
    10030    2    1    2    0    0  0.00000000000E+00  0.00000000000E+00  0.62387892008E+03  0.10147653074E+04  0.80032725939E+03 0.  0.
        1    1    3    3  502    0 -0.24438943809E+02 -0.10083771506E+03  0.80196987849E+03  0.80865393882E+03  0.50400001928E-02 0.  1.
       -1    1    3    3    0  502  0.24438943809E+02  0.10083771506E+03 -0.17809095841E+03  0.20611136855E+03  0.50400001928E-02 0. -1.
</event>
<event>
 5   0  0.4087283E-04  0.8001189E+03  0.7818609E-02  0.9559845E-01
       -1   -1    0    0    0  501  0.00000000000E+00  0.00000000000E+00  0.61769928792E+03  0.61769928794E+03  0.50400001928E-02 0. -1.
        1   -1    0    0  501    0  0.00000000000E+00  0.00000000000E+00 -0.25910274400E+03  0.25910274405E+03  0.50400001928E-02 0.  1.
    10030    2    1    2    0    0  0.00000000000E+00  0.00000000000E+00  0.35859654392E+03  0.87680203199E+03  0.80011894240E+03 0.  0.
        1    1    3    3  502    0 -0.69221950126E+02 -0.13516040501E+03  0.58488858281E+03  0.60428028909E+03  0.50400001928E-02 0. -1.
       -1    1    3    3    0  502  0.69221950126E+02  0.13516040501E+03 -0.22629203889E+03  0.27252174290E+03  0.50400001928E-02 0.  1.
</event>
<event>
 5   0  0.6801147E-04  0.8000445E+03  0.7818609E-02  0.9559953E-01
        2   -1    0    0  501    0  0.00000000000E+00  0.00000000000E+00  0.79184530568E+03  0.79184530568E+03  0.25500000920E-02 0. -1.
       -2   -1    0    0    0  501  0.00000000000E+00  0.00000000000E+00 -0.20208214045E+03  0.20208214047E+03  0.25500000920E-02 0.  1.
    10030    2    1    2    0    0  0.00000000000E+00  0.00000000000E+00  0.58976316522E+03  0.99392744615E+03  0.80004448448E+03 0.  0.
        4    1    3    3  502    0 -0.20188220270E+03 -0.30888096807E+03  0.10301217861E+03  0.38311486272E+03  0.12699999809E+01 0.  1.
       -4    1    3    3    0  502  0.20188220270E+03  0.30888096807E+03  0.48675098662E+03  0.61081258343E+03  0.12699999809E+01 0. -1.
</event>
<event>
 5   0  0.6593118E-04  0.8000956E+03  0.7818609E-02  0.9559879E-01
       -2   -1    0    0    0  501  0.00000000000E+00  0.00000000000E+00  0.11795679884E+03  0.11795679887E+03  0.25500000920E-02 0.  1.
        2   -1    0    0  501    0  0.00000000000E+00  0.00000000000E+00 -0.13567529476E+04  0.13567529476E+04  0.25500000920E-02 0. -1.
    10030    2    1    2    0    0  0.00000000000E+00  0.00000000000E+00 -0.12387961487E+04  0.14747097464E+04  0.80009558062E+03 0.  0.
        1    1    3    3  502    0 -0.21273719497E+03 -0.65278894950E+02 -0.66461312355E+01  0.22262663662E+03  0.50400001928E-02 0.  1.
       -1    1    3    3    0  502  0.21273719497E+03  0.65278894950E+02 -0.12321500175E+04  0.12520831098E+04  0.50400001928E-02 0. -1.
</event>
<event>
 5   0  0.6801147E-04  0.7999822E+03  0.7818609E-02  0.9560043E-01
       -2   -1    0    0    0  501  0.00000000000E+00  0.00000000000E+00  0.37511968802E+03  0.37511968803E+03  0.25500000920E-02 0. -1.
        2   -1    0    0  501    0  0.00000000000E+00  0.00000000000E+00 -0.42651159563E+03  0.42651159564E+03  0.25500000920E-02 0.  1.
    10030    2    1    2    0    0  0.00000000000E+00  0.00000000000E+00 -0.51391907609E+02  0.80163128366E+03  0.79998224154E+03 0.  0.
        4    1    3    3  502    0  0.11053750234E+03 -0.16847161460E+03  0.32054496777E+03  0.37861842746E+03  0.12699999809E+01 0. -1.
       -4    1    3    3    0  502 -0.11053750234E+03  0.16847161460E+03 -0.37193687538E+03  0.42301285621E+03  0.12699999809E+01 0.  1.
</event>
<event>
 5   0  0.6801147E-04  0.7996198E+03  0.7818609E-02  0.9560568E-01
       -2   -1    0    0    0  501  0.00000000000E+00  0.00000000000E+00  0.10453317245E+03  0.10453317248E+03  0.25500000920E-02 0. -1.
        2   -1    0    0  501    0  0.00000000000E+00  0.00000000000E+00 -0.15291600281E+04  0.15291600281E+04  0.25500000920E-02 0.  1.
    10030    2    1    2    0    0  0.00000000000E+00  0.00000000000E+00 -0.14246268557E+04  0.16336932006E+04  0.79961978200E+03 0.  0.
        4    1    3    3  502    0 -0.18461609107E+03 -0.15942239773E+03 -0.13595167783E+04  0.13812262977E+04  0.12699999809E+01 0.  1.
       -4    1    3    3    0  502  0.18461609107E+03  0.15942239773E+03 -0.65110077320E+02  0.25246690288E+03  0.12699999809E+01 0. -1.
</event>
<event>
 5   0  0.4087283E-04  0.7998694E+03  0.7818609E-02  0.9560206E-01
       -1   -1    0    0    0  501  0.00000000000E+00  0.00000000000E+00  0.22657190318E+03  0.22657190324E+03  0.50400001928E-02 0. -1.
        1   -1    0    0  501    0  0.00000000000E+00  0.00000000000E+00 -0.70594704248E+03  0.70594704250E+03  0.50400001928E-02 0.  1.
    10030    2    1    2    0    0  0.00000000000E+00  0.00000000000E+00 -0.47937513930E+03  0.93251894573E+03  0.79986940182E+03 0.  0.
        1    1    3    3  502    0 -0.34736823792E+03 -0.16493435851E+03 -0.11155274248E+03  0.40038987214E+03  0.50400001928E-02 0. -1.
       -1    1    3    3    0  502  0.34736823792E+03  0.16493435851E+03 -0.36782239682E+03  0.53212907359E+03  0.50400001928E-02 0.  1.
</event>
<event>
 5   0  0.4086111E-04  0.8004831E+03  0.7818609E-02  0.9559318E-01
       -1   -1    0    0    0  501  0.00000000000E+00  0.00000000000E+00  0.23663434995E+03  0.23663435001E+03  0.50400001928E-02 0.  1.
        1   -1    0    0  501    0  0.00000000000E+00  0.00000000000E+00 -0.67696555179E+03  0.67696555180E+03  0.50400001928E-02 0. -1.
    10030    2    1    2    0    0  0.00000000000E+00  0.00000000000E+00 -0.44033120183E+03  0.91359990181E+03  0.80048311243E+03 0.  0.
        3    1    3    3  502    0 -0.35079127138E+03  0.13849850249E+03 -0.37310523903E+03  0.53051284703E+03  0.10100000352E+00 0. -1.
       -3    1    3    3    0  502  0.35079127138E+03 -0.13849850249E+03 -0.67225962803E+02  0.38308705479E+03  0.10100000352E+00 0.  1.
</event>
<event>
 5   0  0.7133039E-04  0.8003015E+03  0.7818609E-02  0.9559581E-01
       -2   -1    0    0    0  501  0.00000000000E+00  0.00000000000E+00  0.19112013957E+03  0.19112013959E+03  0.25500000920E-02 0. -1.
        2   -1    0    0  501    0  0.00000000000E+00  0.00000000000E+00 -0.83780080735E+03  0.83780080736E+03  0.25500000920E-02 0.  1.
    10030    2    1    2    0    0  0.00000000000E+00  0.00000000000E+00 -0.64668066778E+03  0.10289209469E+04  0.80030146131E+03 0.  0.
        2    1    3    3  502    0  0.30364448412E+03  0.23596996365E+03 -0.18110810735E+03  0.42506698653E+03  0.25500000920E-02 0.  1.
       -2    1    3    3    0  502 -0.30364448412E+03 -0.23596996365E+03 -0.46557256043E+03  0.60385396042E+03  0.25500000920E-02 0. -1.
</event>
<event>
 5   0  0.2736375E-04  0.7998622E+03  0.7818609E-02  0.9560217E-01
       -3   -1    0    0    0  501  0.00000000000E+00  0.00000000000E+00  0.56229648665E+03  0.56229649572E+03  0.10100000352E+00 0. -1.
        3   -1    0    0  501    0  0.00000000000E+00  0.00000000000E+00 -0.28444933345E+03  0.28444935138E+03  0.10100000352E+00 0.  1.
    10030    2    1    2    0    0  0.00000000000E+00  0.00000000000E+00  0.27784715321E+03  0.84674584710E+03  0.79986216878E+03 0.  0.
        1    1    3    3  502    0 -0.15261556956E+03  0.33629173969E+03 -0.23570248198E+02  0.37005297307E+03  0.50400001928E-02 0. -1.
       -1    1    3    3    0  502  0.15261556956E+03 -0.33629173969E+03  0.30141740141E+03  0.47669287403E+03  0.50400001928E-02 0.  1.
</event>
<event>
 5   0  0.4104786E-04  0.7999983E+03  0.7818609E-02  0.9560020E-01
       -1   -1    0    0    0  501  0.00000000000E+00  0.00000000000E+00  0.14569796380E+03  0.14569796389E+03  0.50400001928E-02 0.  1.
        1   -1    0    0  501    0  0.00000000000E+00  0.00000000000E+00 -0.10981575805E+04  0.10981575805E+04  0.50400001928E-02 0. -1.
    10030    2    1    2    0    0  0.00000000000E+00  0.00000000000E+00 -0.95245961667E+03  0.12438555444E+04  0.79999830868E+03 0.  0.
        2    1    3    3  502    0 -0.31756823247E+03  0.24119904631E+03 -0.42773625487E+03  0.58479472121E+03  0.25500000920E-02 0.  1.
       -2    1    3    3    0  502  0.31756823247E+03 -0.24119904631E+03 -0.52472336180E+03  0.65906082317E+03  0.25500000920E-02 0. -1.
</event>
<event>
 5   0  0.4104786E-04  0.8019288E+03  0.7818609E-02  0.9557229E-01
       -1   -1    0    0    0  501  0.00000000000E+00  0.00000000000E+00  0.23402168436E+03  0.23402168442E+03  0.50400001928E-02 0.  1.
        1   -1    0    0  501    0  0.00000000000E+00  0.00000000000E+00 -0.68699808851E+03  0.68699808853E+03  0.50400001928E-02 0. -1.
    10030    2    1    2    0    0  0.00000000000E+00  0.00000000000E+00 -0.45297640415E+03  0.92101977295E+03  0.80192879949E+03 0.  0.
        2    1    3    3  502    0  0.18751870743E+03  0.34928547519E+03 -0.29548310690E+03  0.49444299498E+03  0.25500000920E-02 0. -1.
       -2    1    3    3    0  502 -0.18751870743E+03 -0.34928547519E+03 -0.15749329725E+03  0.42657677797E+03  0.25500000920E-02 0.  1.
</event>
<event>
 5   0  0.4169155E-04  0.7981038E+03  0.7818609E-02  0.9562766E-01
       -1   -1    0    0    0  501  0.00000000000E+00  0.00000000000E+00  0.54396191738E+03  0.54396191740E+03  0.50400001928E-02 0. -1.
        1   -1    0    0  501    0  0.00000000000E+00  0.00000000000E+00 -0.29274556138E+03  0.29274556142E+03  0.50400001928E-02 0.  1.
    10030    2    1    2    0    0  0.00000000000E+00  0.00000000000E+00  0.25121635600E+03  0.83670747882E+03  0.79810384512E+03 0.  0.
        4    1    3    3  502    0 -0.24822237240E+03 -0.70498789757E+02 -0.19351030251E+03  0.32254034724E+03  0.12699999809E+01 0.  1.
       -4    1    3    3    0  502  0.24822237240E+03  0.70498789757E+02  0.44472665851E+03  0.51416713159E+03  0.12699999809E+01 0. -1.
</event>
<event>
 5   0  0.7133039E-04  0.8021733E+03  0.7818609E-02  0.9556877E-01
       -2   -1    0    0    0  501  0.00000000000E+00  0.00000000000E+00  0.25868724268E+03  0.25868724269E+03  0.25500000920E-02 0. -1.
        2   -1    0    0  501    0  0.00000000000E+00  0.00000000000E+00 -0.62187254816E+03  0.62187254816E+03  0.25500000920E-02 0.  1.
    10030    2    1    2    0    0  0.00000000000E+00  0.00000000000E+00 -0.36318530548E+03  0.88055979085E+03  0.80217328499E+03 0.  0.
        2    1    3    3  502    0 -0.63386601753E+02 -0.35494629623E+03  0.11261566798E+02  0.36073751867E+03  0.25500000920E-02 0. -1.
       -2    1    3    3    0  502  0.63386601753E+02  0.35494629623E+03 -0.37444687228E+03  0.51982227218E+03  0.25500000920E-02 0.  1.
</event>
<event>
 5   0  0.4087283E-04  0.7997275E+03  0.7818609E-02  0.9560412E-01
       -1   -1    0    0    0  501  0.00000000000E+00  0.00000000000E+00  0.10546476299E+03  0.10546476311E+03  0.50400001928E-02 0. -1.
        1   -1    0    0  501    0  0.00000000000E+00  0.00000000000E+00 -0.15160608552E+04  0.15160608552E+04  0.50400001928E-02 0.  1.
    10030    2    1    2    0    0  0.00000000000E+00  0.00000000000E+00 -0.14105960922E+04  0.16215256183E+04  0.79972745076E+03 0.  0.
        1    1    3    3  502    0 -0.98920068118E+02  0.73242938580E+02 -0.14766951993E+04  0.14818159196E+04  0.50400001928E-02 0.  1.
       -1    1    3    3    0  502  0.98920068118E+02 -0.73242938580E+02  0.66099107099E+02  0.13970969871E+03  0.50400001928E-02 0. -1.
</event>
<event>
 5   0  0.7133039E-04  0.8005669E+03  0.7818609E-02  0.9559197E-01
       -2   -1    0    0    0  501  0.00000000000E+00  0.00000000000E+00  0.90932528105E+02  0.90932528141E+02  0.25500000920E-02 0. -1.
        2   -1    0    0  501    0  0.00000000000E+00  0.00000000000E+00 -0.17620410312E+04  0.17620410312E+04  0.25500000920E-02 0.  1.
    10030    2    1    2    0    0  0.00000000000E+00  0.00000000000E+00 -0.16711085031E+04  0.18529735593E+04  0.80056691319E+03 0.  0.
        2    1    3    3  502    0 -0.81017824462E+02 -0.31663160799E+03 -0.30065470185E+03  0.44408637990E+03  0.25500000920E-02 0. -1.
       -2    1    3    3    0  502  0.81017824462E+02  0.31663160799E+03 -0.13704538012E+04  0.14088871794E+04  0.25500000920E-02 0.  1.
</event>
<event>
 5   0  0.7133039E-04  0.7999745E+03  0.7818609E-02  0.9560054E-01
        2   -1    0    0  501    0  0.00000000000E+00  0.00000000000E+00  0.73298888880E+03  0.73298888881E+03  0.25500000920E-02 0.  1.
       -2   -1    0    0    0  501  0.00000000000E+00  0.00000000000E+00 -0.21827041868E+03  0.21827041869E+03  0.25500000920E-02 0. -1.
    10030    2    1    2    0    0  0.00000000000E+00  0.00000000000E+00  0.51471847013E+03  0.95125930750E+03  0.79997447873E+03 0.  0.
        2    1    3    3  502    0  0.13678714110E+03  0.36775745539E+03  0.34972441870E+03  0.52560768355E+03  0.25500000920E-02 0.  1.
       -2    1    3    3    0  502 -0.13678714110E+03 -0.36775745539E+03  0.16499405143E+03  0.42565162396E+03  0.25500000920E-02 0. -1.
</event>
<event>
 5   0  0.7133039E-04  0.7996545E+03  0.7818609E-02  0.9560517E-01
        2   -1    0    0  501    0  0.00000000000E+00  0.00000000000E+00  0.67832034080E+03  0.67832034081E+03  0.25500000920E-02 0. -1.
       -2   -1    0    0    0  501  0.00000000000E+00  0.00000000000E+00 -0.23567307841E+03  0.23567307843E+03  0.25500000920E-02 0.  1.
    10030    2    1    2    0    0  0.00000000000E+00  0.00000000000E+00  0.44264726239E+03  0.91399341923E+03  0.79965453260E+03 0.  0.
        2    1    3    3  502    0  0.24311365767E+03 -0.94960778654E+02 -0.12487084562E+03  0.28933463001E+03  0.25500000920E-02 0.  1.
       -2    1    3    3    0  502 -0.24311365767E+03  0.94960778654E+02  0.56751810801E+03  0.62465878922E+03  0.25500000920E-02 0. -1.
</event>
<event>
 5   0  0.6593118E-04  0.8008693E+03  0.7818609E-02  0.9558760E-01
        2   -1    0    0  501    0  0.00000000000E+00  0.00000000000E+00  0.25027585389E+04  0.25027585389E+04  0.25500000920E-02 0.  1.
       -2   -1    0    0    0  501  0.00000000000E+00  0.00000000000E+00 -0.64068465997E+02  0.64068466048E+02  0.25500000920E-02 0. -1.
    10030    2    1    2    0    0  0.00000000000E+00  0.00000000000E+00  0.24386900729E+04  0.25668270049E+04  0.80086927875E+03 0.  0.
        1    1    3    3  502    0  0.50677050056E-01  0.25885199171E+03  0.21985578969E+04  0.22137437029E+04  0.50400001928E-02 0. -1.
       -1    1    3    3    0  502 -0.50677050056E-01 -0.25885199171E+03  0.24013217595E+03  0.35308330198E+03  0.50400001928E-02 0.  1.
</event>
<event>
 5   0  0.4104786E-04  0.8026104E+03  0.7818609E-02  0.9556246E-01
       -1   -1    0    0    0  501  0.00000000000E+00  0.00000000000E+00  0.88302849361E+02  0.88302849504E+02  0.50400001928E-02 0. -1.
        1   -1    0    0  501    0  0.00000000000E+00  0.00000000000E+00 -0.18237899081E+04  0.18237899081E+04  0.50400001928E-02 0.  1.
    10030    2    1    2    0    0  0.00000000000E+00  0.00000000000E+00 -0.17354870588E+04  0.19120927577E+04  0.80261035545E+03 0.  0.
        2    1    3    3  502    0 -0.85220805695E+02  0.33006054967E+03 -0.36325308044E+03  0.49815193729E+03  0.25500000920E-02 0. -1.
       -2    1    3    3    0  502  0.85220805695E+02 -0.33006054967E+03 -0.13722339783E+04  0.14139408204E+04  0.25500000920E-02 0.  1.
</event>
<event>
 5   0  0.6801147E-04  0.7998135E+03  0.7818609E-02  0.9560287E-01
        2   -1    0    0  501    0  0.00000000000E+00  0.00000000000E+00  0.80895357748E+03  0.80895357749E+03  0.25500000920E-02 0. -1.
       -2   -1    0    0    0  501  0.00000000000E+00  0.00000000000E+00 -0.19769416441E+03  0.19769416443E+03  0.25500000920E-02 0.  1.
    10030    2    1    2    0    0  0.00000000000E+00  0.00000000000E+00  0.61125941307E+03  0.10066477419E+04  0.79981348216E+03 0.  0.
        4    1    3    3  502    0  0.31892729368E+03 -0.19576931030E+03  0.48310411399E+03  0.61109036923E+03  0.12699999809E+01 0.  1.
       -4    1    3    3    0  502 -0.31892729368E+03  0.19576931030E+03  0.12815529908E+03  0.39555737269E+03  0.12699999809E+01 0. -1.
</event>
<event>
 5   0  0.6672462E-04  0.7997568E+03  0.7818609E-02  0.9560369E-01
       -2   -1    0    0    0  501  0.00000000000E+00  0.00000000000E+00  0.10618105724E+03  0.10618105727E+03  0.25500000920E-02 0.  1.
        2   -1    0    0  501    0  0.00000000000E+00  0.00000000000E+00 -0.15059440630E+04  0.15059440630E+04  0.25500000920E-02 0. -1.
    10030    2    1    2    0    0  0.00000000000E+00  0.00000000000E+00 -0.13997630057E+04  0.16121251203E+04  0.79975679498E+03 0.  0.
        5    1    3    3  502    0 -0.12649059010E+03  0.24035061509E+03 -0.12914070969E+04  0.13196676353E+04  0.46999998093E+01 0. -1.
       -5    1    3    3    0  502  0.12649059010E+03 -0.24035061509E+03 -0.10835590883E+03  0.29245748501E+03  0.46999998093E+01 0.  1.
</event>
<event>
 5   0  0.4086111E-04  0.7997539E+03  0.7818609E-02  0.9560373E-01
       -1   -1    0    0    0  501  0.00000000000E+00  0.00000000000E+00  0.48178777689E+03  0.48178777692E+03  0.50400001928E-02 0. -1.
        1   -1    0    0  501    0  0.00000000000E+00  0.00000000000E+00 -0.33189216504E+03  0.33189216508E+03  0.50400001928E-02 0.  1.
    10030    2    1    2    0    0  0.00000000000E+00  0.00000000000E+00  0.14989561185E+03  0.81367994200E+03  0.79975393314E+03 0.  0.
        3    1    3    3  502    0 -0.34683146645E+03 -0.15198101349E+03 -0.55785921684E+02  0.38275628517E+03  0.10100000352E+00 0.  1.
       -3    1    3    3    0  502  0.34683146645E+03  0.15198101349E+03  0.20568153353E+03  0.43092365683E+03  0.10100000352E+00 0. -1.
</event>
<event>
 5   0  0.6672462E-04  0.7999019E+03  0.7818609E-02  0.9560159E-01
       -2   -1    0    0    0  501  0.00000000000E+00  0.00000000000E+00  0.90122443916E+02  0.90122443952E+02  0.25500000920E-02 0. -1.
        2   -1    0    0  501    0  0.00000000000E+00  0.00000000000E+00 -0.17749268809E+04  0.17749268809E+04  0.25500000920E-02 0.  1.
    10030    2    1    2    0    0  0.00000000000E+00  0.00000000000E+00 -0.16848044370E+04  0.18650493249E+04  0.79990186477E+03 0.  0.
        5    1    3    3  502    0  0.13157561295E+03  0.31168661518E+03 -0.34517585229E+03  0.48335199080E+03  0.46999998093E+01 0. -1.
       -5    1    3    3    0  502 -0.13157561295E+03 -0.31168661518E+03 -0.13396285847E+04  0.13816973341E+04  0.46999998093E+01 0.  1.
</event>
<event>
 5   0  0.4086111E-04  0.7997163E+03  0.7818609E-02  0.9560428E-01
        1   -1    0    0  501    0  0.00000000000E+00  0.00000000000E+00  0.14423939218E+04  0.14423939218E+04  0.50400001928E-02 0. -1.
       -1   -1    0    0    0  501  0.00000000000E+00  0.00000000000E+00 -0.11084803211E+03  0.11084803223E+03  0.50400001928E-02 0.  1.
    10030    2    1    2    0    0  0.00000000000E+00  0.00000000000E+00  0.13315458896E+04  0.15532419540E+04  0.79971626932E+03 0.  0.
        3    1    3    3  502    0 -0.28050181792E+02  0.38235485759E+03  0.44513854233E+03  0.58747798418E+03  0.10100000352E+00 0.  1.
       -3    1    3    3    0  502  0.28050181792E+02 -0.38235485759E+03  0.88640734731E+03  0.96576396981E+03  0.10100000352E+00 0. -1.
</event>
<event>
 5   0  0.6672462E-04  0.8005954E+03  0.7818609E-02  0.9559156E-01
       -2   -1    0    0    0  501  0.00000000000E+00  0.00000000000E+00  0.25809059496E+03  0.25809059497E+03  0.25500000920E-02 0. -1.
        2   -1    0    0  501    0  0.00000000000E+00  0.00000000000E+00 -0.62086048301E+03  0.62086048302E+03  0.25500000920E-02 0.  1.
    10030    2    1    2    0    0  0.00000000000E+00  0.00000000000E+00 -0.36276988806E+03  0.87895107799E+03  0.80059540706E+03 0.  0.
        5    1    3    3  502    0 -0.34544627318E+02 -0.86304813281E+02 -0.60881436062E+03  0.61588868131E+03  0.46999998093E+01 0.  1.
       -5    1    3    3    0  502  0.34544627318E+02  0.86304813281E+02  0.24604447256E+03  0.26306239668E+03  0.46999998093E+01 0. -1.
</event>
<event>
 5   0  0.7133039E-04  0.8000129E+03  0.7818609E-02  0.9559998E-01
       -2   -1    0    0    0  501  0.00000000000E+00  0.00000000000E+00  0.22960814648E+03  0.22960814649E+03  0.25500000920E-02 0. -1.
        2   -1    0    0  501    0  0.00000000000E+00  0.00000000000E+00 -0.69686189810E+03  0.69686189810E+03  0.25500000920E-02 0.  1.
    10030    2    1    2    0    0  0.00000000000E+00  0.00000000000E+00 -0.46725375162E+03  0.92647004460E+03  0.80001292185E+03 0.  0.
        2    1    3    3  502    0 -0.10982826814E+03  0.27588858817E+03 -0.54399884964E+03  0.61976730310E+03  0.25500000920E-02 0.  1.
       -2    1    3    3    0  502  0.10982826814E+03 -0.27588858817E+03  0.76745098021E+02  0.30670274150E+03  0.25500000920E-02 0. -1.
</event>
<event>
 5   0  0.4087283E-04  0.7996777E+03  0.7818609E-02  0.9560484E-01
       -1   -1    0    0    0  501  0.00000000000E+00  0.00000000000E+00  0.18252813382E+03  0.18252813389E+03  0.50400001928E-02 0.  1.
        1   -1    0    0  501    0  0.00000000000E+00  0.00000000000E+00 -0.87587102671E+03  0.87587102673E+03  0.50400001928E-02 0. -1.
    10030    2    1    2    0    0  0.00000000000E+00  0.00000000000E+00 -0.69334289289E+03  0.10583991606E+04  0.79967769513E+03 0.  0.
        1    1    3    3  502    0  0.74940541818E+02  0.60499122219E+02  0.16694580305E+03  0.19273590682E+03  0.50400001928E-02 0.  1.
       -1    1    3    3    0  502 -0.74940541818E+02 -0.60499122219E+02 -0.86028869594E+03  0.86566325380E+03  0.50400001928E-02 0. -1.
</event>
<event>
 5   0  0.4087283E-04  0.8000343E+03  0.7818609E-02  0.9559967E-01
       -1   -1    0    0    0  501  0.00000000000E+00  0.00000000000E+00  0.49294397236E+03  0.49294397239E+03  0.50400001928E-02 0.  1.
        1   -1    0    0  501    0  0.00000000000E+00  0.00000000000E+00 -0.32460836891E+03  0.32460836895E+03  0.50400001928E-02 0. -1.
    10030    2    1    2    0    0  0.00000000000E+00  0.00000000000E+00  0.16833560346E+03  0.81755234133E+03  0.80003434641E+03 0.  0.
        1    1    3    3  502    0  0.31564130047E+03 -0.16408029712E+03 -0.10276376703E+03  0.37028660022E+03  0.50400001928E-02 0. -1.
       -1    1    3    3    0  502 -0.31564130047E+03  0.16408029712E+03  0.27109937049E+03  0.44726574111E+03  0.50400001928E-02 0.  1.
</event>
<event>
 5   0  0.6801147E-04  0.8012183E+03  0.7818609E-02  0.9558255E-01
       -2   -1    0    0    0  501  0.00000000000E+00  0.00000000000E+00  0.11162013995E+03  0.11162013998E+03  0.25500000920E-02 0.  1.
        2   -1    0    0  501    0  0.00000000000E+00  0.00000000000E+00 -0.14378024041E+04  0.14378024041E+04  0.25500000920E-02 0. -1.
    10030    2    1    2    0    0  0.00000000000E+00  0.00000000000E+00 -0.13261822642E+04  0.15494225441E+04  0.80121833626E+03 0.  0.
        4    1    3    3  502    0  0.34695495887E+03 -0.74754413274E+02 -0.30379281529E+03  0.46718053610E+03  0.12699999809E+01 0.  1.
       -4    1    3    3    0  502 -0.34695495887E+03  0.74754413274E+02 -0.10223894489E+04  0.10822420080E+04  0.12699999809E+01 0. -1.
</event>
<event>
 5   0  0.6801147E-04  0.8003649E+03  0.7818609E-02  0.9559489E-01
        2   -1    0    0  501    0  0.00000000000E+00  0.00000000000E+00  0.16896455638E+03  0.16896455640E+03  0.25500000920E-02 0.  1.
       -2   -1    0    0    0  501  0.00000000000E+00  0.00000000000E+00 -0.94780812769E+03  0.94780812770E+03  0.25500000920E-02 0. -1.
    10030    2    1    2    0    0  0.00000000000E+00  0.00000000000E+00 -0.77884357131E+03  0.11167726841E+04  0.80036486640E+03 0.  0.
        4    1    3    3  502    0  0.19383257616E+03  0.97844840049E+02  0.79624159723E+02  0.23127105313E+03  0.12699999809E+01 0.  1.
       -4    1    3    3    0  502 -0.19383257616E+03 -0.97844840049E+02 -0.85846773104E+03  0.88550163096E+03  0.12699999809E+01 0. -1.
</event>
<event>
 5   0  0.6593118E-04  0.7997507E+03  0.7818609E-02  0.9560378E-01
       -2   -1    0    0    0  501  0.00000000000E+00  0.00000000000E+00  0.11287679415E+03  0.11287679418E+03  0.25500000920E-02 0. -1.
        2   -1    0    0  501    0  0.00000000000E+00  0.00000000000E+00 -0.14165914769E+04  0.14165914769E+04  0.25500000920E-02 0.  1.
    10030    2    1    2    0    0  0.00000000000E+00  0.00000000000E+00 -0.13037146827E+04  0.15294682710E+04  0.79975072253E+03 0.  0.
        1    1    3    3  502    0  0.40468669691E+02 -0.34007973285E+03 -0.25709722011E+03  0.42824165904E+03  0.50400001928E-02 0. -1.
       -1    1    3    3    0  502 -0.40468669691E+02  0.34007973285E+03 -0.10466174626E+04  0.11012266120E+04  0.50400001928E-02 0.  1.
</event>
<event>
 5   0  0.6672462E-04  0.7999948E+03  0.7818609E-02  0.9560025E-01
        2   -1    0    0  501    0  0.00000000000E+00  0.00000000000E+00  0.33086453984E+03  0.33086453985E+03  0.25500000920E-02 0.  1.
       -2   -1    0    0    0  501  0.00000000000E+00  0.00000000000E+00 -0.48357531732E+03  0.48357531732E+03  0.25500000920E-02 0. -1.
    10030    2    1    2    0    0  0.00000000000E+00  0.00000000000E+00 -0.15271077747E+03  0.81443985717E+03  0.79999481211E+03 0.  0.
        5    1    3    3  502    0 -0.62215215931E+02 -0.34355033587E+03  0.12230461727E+03  0.36997037148E+03  0.46999998093E+01 0.  1.
       -5    1    3    3    0  502  0.62215215931E+02  0.34355033587E+03 -0.27501539475E+03  0.44446948569E+03  0.46999998093E+01 0. -1.
</event>
<event>
 5   0  0.4086111E-04  0.7996486E+03  0.7818609E-02  0.9560526E-01
       -1   -1    0    0    0  501  0.00000000000E+00  0.00000000000E+00  0.23028657748E+03  0.23028657753E+03  0.50400001928E-02 0. -1.
        1   -1    0    0  501    0  0.00000000000E+00  0.00000000000E+00 -0.69417627037E+03  0.69417627039E+03  0.50400001928E-02 0.  1.
    10030    2    1    2    0    0  0.00000000000E+00  0.00000000000E+00 -0.46388969290E+03  0.92446284792E+03  0.79964861659E+03 0.  0.
        3    1    3    3  502    0  0.20314725279E+03 -0.31276755905E+03 -0.39854613502E+03  0.54583091178E+03  0.10100000352E+00 0.  1.
       -3    1    3    3    0  502 -0.20314725279E+03  0.31276755905E+03 -0.65343557880E+02  0.37863193615E+03  0.10100000352E+00 0. -1.
</event>
<event>
 5   0  0.4087283E-04  0.7995735E+03  0.7818609E-02  0.9560635E-01
        1   -1    0    0  501    0  0.00000000000E+00  0.00000000000E+00  0.34557409348E+03  0.34557409351E+03  0.50400001928E-02 0.  1.
       -1   -1    0    0    0  501  0.00000000000E+00  0.00000000000E+00 -0.46250416453E+03  0.46250416456E+03  0.50400001928E-02 0. -1.
    10030    2    1    2    0    0  0.00000000000E+00  0.00000000000E+00 -0.11693007105E+03  0.80807825807E+03  0.79957352986E+03 0.  0.
        1    1    3    3  502    0  0.10125663202E+02 -0.37838459877E+03 -0.18848814983E+03  0.42285365825E+03  0.50400001928E-02 0. -1.
       -1    1    3    3    0  502 -0.10125663202E+02  0.37838459877E+03  0.71558078782E+02  0.38522459982E+03  0.50400001928E-02 0.  1.
</event>
<event>
 5   0  0.7133039E-04  0.7999752E+03  0.7818609E-02  0.9560053E-01
       -2   -1    0    0    0  501  0.00000000000E+00  0.00000000000E+00  0.16437182615E+03  0.16437182617E+03  0.25500000920E-02 0.  1.
        2   -1    0    0  501    0  0.00000000000E+00  0.00000000000E+00 -0.97334251472E+03  0.97334251472E+03  0.25500000920E-02 0. -1.
    10030    2    1    2    0    0  0.00000000000E+00  0.00000000000E+00 -0.80897068857E+03  0.11377143409E+04  0.79997521619E+03 0.  0.
        2    1    3    3  502    0 -0.25403565232E+03 -0.22801956890E+03 -0.10799073574E+03  0.35803496403E+03  0.25500000920E-02 0.  1.
       -2    1    3    3    0  502  0.25403565232E+03  0.22801956890E+03 -0.70097995282E+03  0.77967937687E+03  0.25500000920E-02 0. -1.
</event>
<event>
 5   0  0.4392552E-04  0.7999654E+03  0.7818609E-02  0.9560067E-01
       -1   -1    0    0    0  501  0.00000000000E+00  0.00000000000E+00  0.15139013104E+03  0.15139013113E+03  0.50400001928E-02 0. -1.
        1   -1    0    0  501    0  0.00000000000E+00  0.00000000000E+00 -0.10567805455E+04  0.10567805455E+04  0.50400001928E-02 0.  1.
    10030    2    1    2    0    0  0.00000000000E+00  0.00000000000E+00 -0.90539041445E+03  0.12081706766E+04  0.79996536256E+03 0.  0.
        5    1    3    3  502    0 -0.17934627226E+03 -0.27925053955E+03 -0.78978896813E+03  0.85669986191E+03  0.46999998093E+01 0.  1.
       -5    1    3    3    0  502  0.17934627226E+03  0.27925053955E+03 -0.11560144632E+03  0.35147081473E+03  0.46999998093E+01 0. -1.
</event>
<event>
 5   0  0.4087283E-04  0.8003774E+03  0.7818609E-02  0.9559471E-01
        1   -1    0    0  501    0  0.00000000000E+00  0.00000000000E+00  0.30661690280E+03  0.30661690285E+03  0.50400001928E-02 0.  1.
       -1   -1    0    0    0  501  0.00000000000E+00  0.00000000000E+00 -0.52231625968E+03  0.52231625971E+03  0.50400001928E-02 0. -1.
    10030    2    1    2    0    0  0.00000000000E+00  0.00000000000E+00 -0.21569935688E+03  0.82893316255E+03  0.80037739562E+03 0.  0.
        1    1    3    3  502    0 -0.28896782774E+03  0.27573801971E+03 -0.82121204253E+02  0.40777169249E+03  0.50400001928E-02 0. -1.
       -1    1    3    3    0  502  0.28896782774E+03 -0.27573801971E+03 -0.13357815262E+03  0.42116147006E+03  0.50400001928E-02 0.  1.
</event>
<event>
 5   0  0.4104786E-04  0.7998731E+03  0.7818609E-02  0.9560201E-01
       -1   -1    0    0    0  501  0.00000000000E+00  0.00000000000E+00  0.40111027945E+03  0.40111027948E+03  0.50400001928E-02 0.  1.
        1   -1    0    0  501    0  0.00000000000E+00  0.00000000000E+00 -0.39876626544E+03  0.39876626547E+03  0.50400001928E-02 0. -1.
    10030    2    1    2    0    0  0.00000000000E+00  0.00000000000E+00  0.23440140061E+01  0.79987654495E+03  0.79987311041E+03 0.  0.
        2    1    3    3  502    0 -0.70348265696E+02  0.36480941989E+03 -0.14686395164E+03  0.39950445758E+03  0.25500000920E-02 0. -1.
       -2    1    3    3    0  502  0.70348265696E+02 -0.36480941989E+03  0.14920796565E+03  0.40037208737E+03  0.25500000920E-02 0.  1.
</event>
<event>
 5   0  0.7133039E-04  0.7999966E+03  0.7818609E-02  0.9560022E-01
        2   -1    0    0  501    0  0.00000000000E+00  0.00000000000E+00  0.93714172608E+03  0.93714172608E+03  0.25500000920E-02 0. -1.
       -2   -1    0    0    0  501  0.00000000000E+00  0.00000000000E+00 -0.17073047535E+03  0.17073047536E+03  0.25500000920E-02 0.  1.
    10030    2    1    2    0    0  0.00000000000E+00  0.00000000000E+00  0.76641125073E+03  0.11078722014E+04  0.79999663092E+03 0.  0.
        2    1    3    3  502    0 -0.61773029153E+02 -0.38272696801E+03  0.24679432712E+03  0.45956857930E+03  0.25500000920E-02 0.  1.
       -2    1    3    3    0  502  0.61773029153E+02  0.38272696801E+03  0.51961692361E+03  0.64830362215E+03  0.25500000920E-02 0. -1.
</event>
<event>
 5   0  0.6970013E-04  0.8002015E+03  0.7818609E-02  0.9559725E-01
        2   -1    0    0  501    0  0.00000000000E+00  0.00000000000E+00  0.71766520617E+03  0.71766520617E+03  0.25500000920E-02 0.  1.
       -2   -1    0    0    0  501  0.00000000000E+00  0.00000000000E+00 -0.22305750962E+03  0.22305750963E+03  0.25500000920E-02 0. -1.
    10030    2    1    2    0    0  0.00000000000E+00  0.00000000000E+00  0.49460769655E+03  0.94072271581E+03  0.80020150871E+03 0.  0.
        3    1    3    3  502    0  0.31421935383E+03 -0.21244897904E+03  0.39699070748E+03  0.54906284070E+03  0.10100000352E+00 0.  1.
       -3    1    3    3    0  502 -0.31421935383E+03  0.21244897904E+03  0.97616989071E+02  0.39165987511E+03  0.10100000352E+00 0. -1.
</event>
<event>
 5   0  0.4392552E-04  0.8014141E+03  0.7818609E-02  0.9557972E-01
       -1   -1    0    0    0  501  0.00000000000E+00  0.00000000000E+00  0.39744796752E+03  0.39744796755E+03  0.50400001928E-02 0.  1.
        1   -1    0    0  501    0  0.00000000000E+00  0.00000000000E+00 -0.40399288884E+03  0.40399288887E+03  0.50400001928E-02 0. -1.
    10030    2    1    2    0    0  0.00000000000E+00  0.00000000000E+00 -0.65449213215E+01  0.80144085643E+03  0.80141413162E+03 0.  0.
        5    1    3    3  502    0  0.29358476371E+03 -0.24018758849E+03  0.12581310289E+03  0.39966625828E+03  0.46999998093E+01 0. -1.
       -5    1    3    3    0  502 -0.29358476371E+03  0.24018758849E+03 -0.13235802421E+03  0.40177459815E+03  0.46999998093E+01 0.  1.
</event>
<event>
 5   0  0.4087283E-04  0.8002719E+03  0.7818609E-02  0.9559624E-01
       -1   -1    0    0    0  501  0.00000000000E+00  0.00000000000E+00  0.37074476590E+03  0.37074476594E+03  0.50400001928E-02 0. -1.
        1   -1    0    0  501    0  0.00000000000E+00  0.00000000000E+00 -0.43185718697E+03  0.43185718700E+03  0.50400001928E-02 0.  1.
    10030    2    1    2    0    0  0.00000000000E+00  0.00000000000E+00 -0.61112421071E+02  0.80260195294E+03  0.80027193307E+03 0.  0.
        1    1    3    3  502    0  0.11620690509E+02  0.17010939896E+03 -0.39359985728E+03  0.42894416389E+03  0.50400001928E-02 0.  1.
       -1    1    3    3    0  502 -0.11620690509E+02 -0.17010939896E+03  0.33248743621E+03  0.37365778905E+03  0.50400001928E-02 0. -1.
</event>
<event>
 5   0  0.4086111E-04  0.7997177E+03  0.7818609E-02  0.9560426E-01
        1   -1    0    0  501    0  0.00000000000E+00  0.00000000000E+00  0.12859748456E+04  0.12859748456E+04  0.50400001928E-02 0. -1.
       -1   -1    0    0    0  501  0.00000000000E+00  0.00000000000E+00 -0.12433142407E+03  0.12433142417E+03  0.50400001928E-02 0.  1.
    10030    2    1    2    0    0  0.00000000000E+00  0.00000000000E+00  0.11616434216E+04  0.14103062698E+04  0.79971766006E+03 0.  0.
        3    1    3    3  502    0  0.36557902056E+03 -0.11723192367E+03  0.77795390621E+03  0.86752731057E+03  0.10100000352E+00 0. -1.
       -3    1    3    3    0  502 -0.36557902056E+03  0.11723192367E+03  0.38368951536E+03  0.54277895925E+03  0.10100000352E+00 0.  1.
</event>
<event>
 5   0  0.6672462E-04  0.7990552E+03  0.7818609E-02  0.9561386E-01
        2   -1    0    0  501    0  0.00000000000E+00  0.00000000000E+00  0.13914286109E+04  0.13914286109E+04  0.25500000920E-02 0.  1.
       -2   -1    0    0    0  501  0.00000000000E+00  0.00000000000E+00 -0.11471829334E+03  0.11471829337E+03  0.25500000920E-02 0. -1.
    10030    2    1    2    0    0  0.00000000000E+00  0.00000000000E+00  0.12767103175E+04  0.15061469043E+04  0.79905523106E+03 0.  0.
        5    1    3    3  502    0 -0.15982706667E+03  0.18682796694E+03  0.44830530603E+02  0.24996249107E+03  0.46999998093E+01 0. -1.
       -5    1    3    3    0  502  0.15982706667E+03 -0.18682796694E+03  0.12318797869E+04  0.12561844132E+04  0.46999998093E+01 0.  1.
</event>
<event>
 5   0  0.4392552E-04  0.7999657E+03  0.7818609E-02  0.9560067E-01
       -1   -1    0    0    0  501  0.00000000000E+00  0.00000000000E+00  0.41411531001E+03  0.41411531005E+03  0.50400001928E-02 0.  1.
        1   -1    0    0  501    0  0.00000000000E+00  0.00000000000E+00 -0.38633269748E+03  0.38633269751E+03  0.50400001928E-02 0. -1.
    10030    2    1    2    0    0  0.00000000000E+00  0.00000000000E+00  0.27782612539E+02  0.80044800755E+03  0.79996571129E+03 0.  0.
        5    1    3    3  502    0 -0.71115748024E+02 -0.18160087001E+03  0.36328354032E+03  0.41235099887E+03  0.46999998093E+01 0.  1.
       -5    1    3    3    0  502  0.71115748024E+02  0.18160087001E+03 -0.33550092778E+03  0.38809700868E+03  0.46999998093E+01 0. -1.
</event>
<event>
 5   0  0.7133039E-04  0.7998219E+03  0.7818609E-02  0.9560275E-01
       -2   -1    0    0    0  501  0.00000000000E+00  0.00000000000E+00  0.87516156695E+03  0.87516156695E+03  0.25500000920E-02 0. -1.
        2   -1    0    0  501    0  0.00000000000E+00  0.00000000000E+00 -0.18274199574E+03  0.18274199576E+03  0.25500000920E-02 0.  1.
    10030    2    1    2    0    0  0.00000000000E+00  0.00000000000E+00  0.69241957121E+03  0.10579035627E+04  0.79982190856E+03 0.  0.
        2    1    3    3  502    0 -0.14484745131E+03  0.37272509539E+03  0.33973132077E+03  0.52471149330E+03  0.25500000920E-02 0.  1.
       -2    1    3    3    0  502  0.14484745131E+03 -0.37272509539E+03  0.35268825044E+03  0.53319206941E+03  0.25500000920E-02 0. -1.
</event>
<event>
 5   0  0.7133039E-04  0.8000130E+03  0.7818609E-02  0.9559998E-01
        2   -1    0    0  501    0  0.00000000000E+00  0.00000000000E+00  0.33218214538E+03  0.33218214539E+03  0.25500000920E-02 0.  1.
       -2   -1    0    0    0  501  0.00000000000E+00  0.00000000000E+00 -0.48167904989E+03  0.48167904990E+03  0.25500000920E-02 0. -1.
    10030    2    1    2    0    0  0.00000000000E+00  0.00000000000E+00 -0.14949690451E+03  0.81386119530E+03  0.80001295036E+03 0.  0.
        2    1    3    3  502    0  0.16367674823E+03  0.45199115725E+02 -0.44319469339E+03  0.47460991796E+03  0.25500000920E-02 0. -1.
       -2    1    3    3    0  502 -0.16367674823E+03 -0.45199115725E+02  0.29369778888E+03  0.33925127733E+03  0.25500000920E-02 0.  1.
</event>
<event>
 5   0  0.6672462E-04  0.7999024E+03  0.7818609E-02  0.9560158E-01
        2   -1    0    0  501    0  0.00000000000E+00  0.00000000000E+00  0.21835450004E+04  0.21835450004E+04  0.25500000920E-02 0. -1.
       -2   -1    0    0    0  501  0.00000000000E+00  0.00000000000E+00 -0.73257455050E+02  0.73257455095E+02  0.25500000920E-02 0.  1.
    10030    2    1    2    0    0  0.00000000000E+00  0.00000000000E+00  0.21102875453E+04  0.22568024555E+04  0.79990236846E+03 0.  0.
        5    1    3    3  502    0  0.14312821571E+03 -0.33030159255E+03  0.56359710767E+03  0.66876648985E+03  0.46999998093E+01 0.  1.
       -5    1    3    3    0  502 -0.14312821571E+03  0.33030159255E+03  0.15466904377E+04  0.15880359656E+04  0.46999998093E+01 0. -1.
</event>
<event>
 5   0  0.6593118E-04  0.7998767E+03  0.7818609E-02  0.9560196E-01
       -2   -1    0    0    0  501  0.00000000000E+00  0.00000000000E+00  0.17824897480E+03  0.17824897482E+03  0.25500000920E-02 0.  1.
        2   -1    0    0  501    0  0.00000000000E+00  0.00000000000E+00 -0.89734425527E+03  0.89734425527E+03  0.25500000920E-02 0. -1.
    10030    2    1    2    0    0  0.00000000000E+00  0.00000000000E+00 -0.71909528047E+03  0.10755932301E+04  0.79987672440E+03 0.  0.
        1    1    3    3  502    0  0.36450017941E+03  0.11903210473E+03 -0.20669099048E+03  0.43560324645E+03  0.50400001928E-02 0. -1.
       -1    1    3    3    0  502 -0.36450017941E+03 -0.11903210473E+03 -0.51240428999E+03  0.63998998365E+03  0.50400001928E-02 0.  1.
</event>
<event>
 5   0  0.7133039E-04  0.8003842E+03  0.7818609E-02  0.9559461E-01
        2   -1    0    0  501    0  0.00000000000E+00  0.00000000000E+00  0.32207990853E+03  0.32207990854E+03  0.25500000920E-02 0.  1.
       -2   -1    0    0    0  501  0.00000000000E+00  0.00000000000E+00 -0.49724840136E+03  0.49724840137E+03  0.25500000920E-02 0. -1.
    10030    2    1    2    0    0  0.00000000000E+00  0.00000000000E+00 -0.17516849284E+03  0.81932830991E+03  0.80038420682E+03 0.  0.
        2    1    3    3  502    0  0.20414590956E+02 -0.33254094888E+03 -0.31453759357E+03  0.45818570033E+03  0.25500000920E-02 0. -1.
       -2    1    3    3    0  502 -0.20414590956E+02  0.33254094888E+03  0.13936910073E+03  0.36114260958E+03  0.25500000920E-02 0.  1.
</event>
<event>
 5   0  0.6593118E-04  0.8001689E+03  0.7818609E-02  0.9559773E-01
        2   -1    0    0  501    0  0.00000000000E+00  0.00000000000E+00  0.13968238069E+04  0.13968238069E+04  0.25500000920E-02 0.  1.
       -2   -1    0    0    0  501  0.00000000000E+00  0.00000000000E+00 -0.11459394345E+03  0.11459394348E+03  0.25500000920E-02 0. -1.
    10030    2    1    2    0    0  0.00000000000E+00  0.00000000000E+00  0.12822298634E+04  0.15114177504E+04  0.80016885310E+03 0.  0.
        1    1    3    3  502    0 -0.28100854174E+03 -0.28470392403E+03  0.65384535754E+03  0.76650888873E+03  0.50400001928E-02 0.  1.
       -1    1    3    3    0  502  0.28100854174E+03  0.28470392403E+03  0.62838450589E+03  0.74490886165E+03  0.50400001928E-02 0. -1.
</event>
<event>
 5   0  0.4104786E-04  0.7995176E+03  0.7818609E-02  0.9560716E-01
       -1   -1    0    0    0  501  0.00000000000E+00  0.00000000000E+00  0.27461058782E+03  0.27461058786E+03  0.50400001928E-02 0. -1.
        1   -1    0    0  501    0  0.00000000000E+00  0.00000000000E+00 -0.58194081197E+03  0.58194081199E+03  0.50400001928E-02 0.  1.
    10030    2    1    2    0    0  0.00000000000E+00  0.00000000000E+00 -0.30733022415E+03  0.85655139986E+03  0.79951762577E+03 0.  0.
        2    1    3    3  502    0  0.20902706868E+03 -0.97223569248E+02  0.19622446280E+03  0.30273549126E+03  0.25500000920E-02 0. -1.
       -2    1    3    3    0  502 -0.20902706868E+03  0.97223569248E+02 -0.50355468696E+03  0.55381590860E+03  0.25500000920E-02 0.  1.
</event>
<event>
 5   0  0.4169155E-04  0.7999285E+03  0.7818609E-02  0.9560121E-01
        1   -1    0    0  501    0  0.00000000000E+00  0.00000000000E+00  0.63653547703E+03  0.63653547705E+03  0.50400001928E-02 0.  1.
       -1   -1    0    0    0  501  0.00000000000E+00  0.00000000000E+00 -0.25131578558E+03  0.25131578563E+03  0.50400001928E-02 0. -1.
    10030    2    1    2    0    0  0.00000000000E+00  0.00000000000E+00  0.38521969145E+03  0.88785126268E+03  0.79992853053E+03 0.  0.
        4    1    3    3  502    0 -0.20312379862E+03  0.29318678424E+03 -0.82569531586E+01  0.35677381938E+03  0.12699999809E+01 0. -1.
       -4    1    3    3    0  502  0.20312379862E+03 -0.29318678424E+03  0.39347664461E+03  0.53107744329E+03  0.12699999809E+01 0.  1.
</event>
<event>
 5   0  0.4169155E-04  0.7997308E+03  0.7818609E-02  0.9560407E-01
        1   -1    0    0  501    0  0.00000000000E+00  0.00000000000E+00  0.84944031880E+03  0.84944031882E+03  0.50400001928E-02 0.  1.
       -1   -1    0    0    0  501  0.00000000000E+00  0.00000000000E+00 -0.18823257060E+03  0.18823257066E+03  0.50400001928E-02 0. -1.
    10030    2    1    2    0    0  0.00000000000E+00  0.00000000000E+00  0.66120774821E+03  0.10376728895E+04  0.79973079175E+03 0.  0.
        4    1    3    3  502    0 -0.83788722859E+02 -0.31214694108E+03  0.63610059946E+03  0.71349971860E+03  0.12699999809E+01 0.  1.
       -4    1    3    3    0  502  0.83788722859E+02  0.31214694108E+03  0.25107148748E+02  0.32417317089E+03  0.12699999809E+01 0. -1.
</event>
<event>
 5   0  0.6801147E-04  0.8005429E+03  0.7818609E-02  0.9559232E-01
       -2   -1    0    0    0  501  0.00000000000E+00  0.00000000000E+00  0.67368764581E+03  0.67368764581E+03  0.25500000920E-02 0. -1.
        2   -1    0    0  501    0  0.00000000000E+00  0.00000000000E+00 -0.23782125442E+03  0.23782125443E+03  0.25500000920E-02 0.  1.
    10030    2    1    2    0    0  0.00000000000E+00  0.00000000000E+00  0.43586639139E+03  0.91150890024E+03  0.80054291832E+03 0.  0.
        4    1    3    3  502    0 -0.14271617188E+03  0.25144208846E+02  0.64276798698E+03  0.65890244721E+03  0.12699999809E+01 0. -1.
       -4    1    3    3    0  502  0.14271617188E+03 -0.25144208846E+02 -0.20690159559E+03  0.25260645303E+03  0.12699999809E+01 0.  1.
</event>
<event>
 5   0  0.4392552E-04  0.7995088E+03  0.7818609E-02  0.9560728E-01
       -1   -1    0    0    0  501  0.00000000000E+00  0.00000000000E+00  0.49852704282E+02  0.49852704537E+02  0.50400001928E-02 0. -1.
        1   -1    0    0  501    0  0.00000000000E+00  0.00000000000E+00 -0.32055143782E+04  0.32055143782E+04  0.50400001928E-02 0.  1.
    10030    2    1    2    0    0  0.00000000000E+00  0.00000000000E+00 -0.31556616740E+04  0.32553670828E+04  0.79950875115E+03 0.  0.
        5    1    3    3  502    0  0.35072167480E+03  0.70424521980E+02 -0.23041051036E+04  0.23317134740E+04  0.46999998093E+01 0.  1.
       -5    1    3    3    0  502 -0.35072167480E+03 -0.70424521980E+02 -0.85155657034E+03  0.92365360875E+03  0.46999998093E+01 0. -1.
</event>
<event>
 5   0  0.4104786E-04  0.8001196E+03  0.7818609E-02  0.9559844E-01
        1   -1    0    0  501    0  0.00000000000E+00  0.00000000000E+00  0.64654655471E+03  0.64654655472E+03  0.50400001928E-02 0.  1.
       -1   -1    0    0    0  501  0.00000000000E+00  0.00000000000E+00 -0.24754263342E+03  0.24754263347E+03  0.50400001928E-02 0. -1.
    10030    2    1    2    0    0  0.00000000000E+00  0.00000000000E+00  0.39900392128E+03  0.89408918820E+03  0.80011958310E+03 0.  0.
        2    1    3    3  502    0  0.34284452557E+03  0.11056449416E+03  0.39395322358E+03  0.53382208502E+03  0.25500000920E-02 0.  1.
       -2    1    3    3    0  502 -0.34284452557E+03 -0.11056449416E+03  0.50506977081E+01  0.36026710318E+03  0.25500000920E-02 0. -1.
</event>
<event>
 5   0  0.4169155E-04  0.8000230E+03  0.7818609E-02  0.9559984E-01
        1   -1    0    0  501    0  0.00000000000E+00  0.00000000000E+00  0.85395962825E+03  0.85395962827E+03  0.50400001928E-02 0. -1.
       -1   -1    0    0    0  501  0.00000000000E+00  0.00000000000E+00 -0.18737326437E+03  0.18737326443E+03  0.50400001928E-02 0.  1.
    10030    2    1    2    0    0  0.00000000000E+00  0.00000000000E+00  0.66658636389E+03  0.10413328927E+04  0.80002300773E+03 0.  0.
        4    1    3    3  502    0  0.18852071515E+03 -0.25335773707E+03  0.13724420270E+02  0.31610152734E+03  0.12699999809E+01 0.  1.
       -4    1    3    3    0  502 -0.18852071515E+03  0.25335773707E+03  0.65286194362E+03  0.72523136536E+03  0.12699999809E+01 0. -1.
</event>
<event>
 5   0  0.4169155E-04  0.7999744E+03  0.7818609E-02  0.9560054E-01
       -1   -1    0    0    0  501  0.00000000000E+00  0.00000000000E+00  0.51117420073E+03  0.51117420075E+03  0.50400001928E-02 0. -1.
        1   -1    0    0  501    0  0.00000000000E+00  0.00000000000E+00 -0.31298483078E+03  0.31298483082E+03  0.50400001928E-02 0.  1.
    10030    2    1    2    0    0  0.00000000000E+00  0.00000000000E+00  0.19818936994E+03  0.82415903157E+03  0.79997442645E+03 0.  0.
        4    1    3    3  502    0  0.16072653238E+02  0.37328102886E+03  0.24620910977E+03  0.44745680833E+03  0.12699999809E+01 0.  1.
       -4    1    3    3    0  502 -0.16072653238E+02 -0.37328102886E+03 -0.48019739824E+02  0.37670222325E+03  0.12699999809E+01 0. -1.
</event>
<event>
 5   0  0.6970013E-04  0.7998945E+03  0.7818609E-02  0.9560170E-01
       -2   -1    0    0    0  501  0.00000000000E+00  0.00000000000E+00  0.29430040773E+03  0.29430040774E+03  0.25500000920E-02 0. -1.
        2   -1    0    0  501    0  0.00000000000E+00  0.00000000000E+00 -0.54351874062E+03  0.54351874062E+03  0.25500000920E-02 0.  1.
    10030    2    1    2    0    0  0.00000000000E+00  0.00000000000E+00 -0.24921833289E+03  0.83781914836E+03  0.79989446049E+03 0.  0.
        3    1    3    3  502    0 -0.38059512078E+03 -0.56970253706E+02 -0.10544491509E+02  0.38497980762E+03  0.10100000352E+00 0.  1.
       -3    1    3    3    0  502  0.38059512078E+03  0.56970253706E+02 -0.23867384138E+03  0.45283934075E+03  0.10100000352E+00 0. -1.
</event>
<event>
 5   0  0.4104786E-04  0.8001125E+03  0.7818609E-02  0.9559854E-01
       -1   -1    0    0    0  501  0.00000000000E+00  0.00000000000E+00  0.18523717981E+03  0.18523717987E+03  0.50400001928E-02 0. -1.
        1   -1    0    0  501    0  0.00000000000E+00  0.00000000000E+00 -0.86400053659E+03  0.86400053660E+03  0.50400001928E-02 0.  1.
    10030    2    1    2    0    0  0.00000000000E+00  0.00000000000E+00 -0.67876335678E+03  0.10492377165E+04  0.80011254906E+03 0.  0.
        2    1    3    3  502    0 -0.48593816822E+02  0.11548006443E+03  0.15884642942E+03  0.20230964500E+03  0.25500000920E-02 0. -1.
       -2    1    3    3    0  502  0.48593816822E+02 -0.11548006443E+03 -0.83760978620E+03  0.84692807148E+03  0.25500000920E-02 0.  1.
</event>
<event>
 5   0  0.6970013E-04  0.8000998E+03  0.7818609E-02  0.9559873E-01
        2   -1    0    0  501    0  0.00000000000E+00  0.00000000000E+00  0.49380636012E+03  0.49380636013E+03  0.25500000920E-02 0.  1.
       -2   -1    0    0    0  501  0.00000000000E+00  0.00000000000E+00 -0.32409451481E+03  0.32409451482E+03  0.25500000920E-02 0. -1.
    10030    2    1    2    0    0  0.00000000000E+00  0.00000000000E+00  0.16971184530E+03  0.81790087495E+03  0.80009982553E+03 0.  0.
        3    1    3    3  502    0 -0.74206159754E+02 -0.33401836135E+03 -0.12703601084E+03  0.36498353129E+03  0.10100000352E+00 0. -1.
       -3    1    3    3    0  502  0.74206159754E+02  0.33401836135E+03  0.29674785615E+03  0.45291734366E+03  0.10100000352E+00 0.  1.
</event>
<event>
 5   0  0.4392552E-04  0.7999473E+03  0.7818609E-02  0.9560093E-01
       -1   -1    0    0    0  501  0.00000000000E+00  0.00000000000E+00  0.11480464266E+03  0.11480464278E+03  0.50400001928E-02 0.  1.
        1   -1    0    0  501    0  0.00000000000E+00  0.00000000000E+00 -0.13934880759E+04  0.13934880759E+04  0.50400001928E-02 0. -1.
    10030    2    1    2    0    0  0.00000000000E+00  0.00000000000E+00 -0.12786834332E+04  0.15082927187E+04  0.79994725001E+03 0.  0.
        5    1    3    3  502    0 -0.61541405461E+01 -0.39770690726E+03 -0.71817580057E+03  0.82097943218E+03  0.46999998093E+01 0. -1.
       -5    1    3    3    0  502  0.61541405461E+01  0.39770690726E+03 -0.56050763264E+03  0.68731328649E+03  0.46999998093E+01 0.  1.
</event>
<event>
 5   0  0.6970013E-04  0.7976190E+03  0.7818609E-02  0.9563470E-01
        2   -1    0    0  501    0  0.00000000000E+00  0.00000000000E+00  0.11199583292E+04  0.11199583292E+04  0.25500000920E-02 0. -1.
       -2   -1    0    0    0  501  0.00000000000E+00  0.00000000000E+00 -0.14201334587E+03  0.14201334589E+03  0.25500000920E-02 0.  1.
    10030    2    1    2    0    0  0.00000000000E+00  0.00000000000E+00  0.97794498330E+03  0.12619716751E+04  0.79761903080E+03 0.  0.
        3    1    3    3  502    0  0.24728878048E+03  0.15568760143E+03  0.91837638208E+03  0.96374558860E+03  0.10100000352E+00 0. -1.
       -3    1    3    3    0  502 -0.24728878048E+03 -0.15568760143E+03  0.59568601219E+02  0.29822608646E+03  0.10100000352E+00 0.  1.
</event>
<event>
 5   0  0.4087283E-04  0.8000037E+03  0.7818609E-02  0.9560012E-01
       -1   -1    0    0    0  501  0.00000000000E+00  0.00000000000E+00  0.50327727963E+03  0.50327727965E+03  0.50400001928E-02 0. -1.
        1   -1    0    0  501    0  0.00000000000E+00  0.00000000000E+00 -0.31791910901E+03  0.31791910905E+03  0.50400001928E-02 0.  1.
    10030    2    1    2    0    0  0.00000000000E+00  0.00000000000E+00  0.18535817061E+03  0.82119638871E+03  0.80000366087E+03 0.  0.
        1    1    3    3  502    0  0.38880649902E+03  0.36531264423E+02  0.18155467901E+03  0.43065894680E+03  0.50400001928E-02 0. -1.
       -1    1    3    3    0  502 -0.38880649902E+03 -0.36531264423E+02  0.38034916027E+01  0.39053744191E+03  0.50400001928E-02 0.  1.
</event>
<event>
 5   0  0.4392552E-04  0.8000998E+03  0.7818609E-02  0.9559873E-01
       -1   -1    0    0    0  501  0.00000000000E+00  0.00000000000E+00  0.35841735819E+03  0.35841735822E+03  0.50400001928E-02 0. -1.
        1   -1    0    0  501    0  0.00000000000E+00  0.00000000000E+00 -0.44651837861E+03  0.44651837864E+03  0.50400001928E-02 0.  1.
    10030    2    1    2    0    0  0.00000000000E+00  0.00000000000E+00 -0.88101020419E+02  0.80493573686E+03  0.80009983794E+03 0.  0.
        5    1    3    3  502    0 -0.24294587826E+03  0.30760482095E+03  0.36272029829E+02  0.39367648619E+03  0.46999998093E+01 0. -1.
       -5    1    3    3    0  502  0.24294587826E+03 -0.30760482095E+03 -0.12437305025E+03  0.41125925067E+03  0.46999998093E+01 0.  1.
</event>
<event>
 5   0  0.6672462E-04  0.8001428E+03  0.7818609E-02  0.9559810E-01
        2   -1    0    0  501    0  0.00000000000E+00  0.00000000000E+00  0.22565755288E+03  0.22565755290E+03  0.25500000920E-02 0.  1.
       -2   -1    0    0    0  501  0.00000000000E+00  0.00000000000E+00 -0.70929211170E+03  0.70929211170E+03  0.25500000920E-02 0. -1.
    10030    2    1    2    0    0  0.00000000000E+00  0.00000000000E+00 -0.48363455882E+03  0.93494966460E+03  0.80014279279E+03 0.  0.
        5    1    3    3  502    0  0.91833370512E+02 -0.38818588022E+03 -0.20650318548E+03  0.44920741440E+03  0.46999998093E+01 0.  1.
       -5    1    3    3    0  502 -0.91833370512E+02  0.38818588022E+03 -0.27713137333E+03  0.48574225020E+03  0.46999998093E+01 0. -1.
</event>
<event>
 5   0  0.4087283E-04  0.8003855E+03  0.7818609E-02  0.9559459E-01
       -1   -1    0    0    0  501  0.00000000000E+00  0.00000000000E+00  0.66310382588E+03  0.66310382590E+03  0.50400001928E-02 0.  1.
        1   -1    0    0  501    0  0.00000000000E+00  0.00000000000E+00 -0.24152213035E+03  0.24152213041E+03  0.50400001928E-02 0. -1.
    10030    2    1    2    0    0  0.00000000000E+00  0.00000000000E+00  0.42158169553E+03  0.90462595631E+03  0.80038552887E+03 0.  0.
        1    1    3    3  502    0 -0.28499361398E+03 -0.19958314506E+03  0.43427934703E+03  0.55646504210E+03  0.50400001928E-02 0.  1.
       -1    1    3    3    0  502  0.28499361398E+03  0.19958314506E+03 -0.12697651503E+02  0.34816091420E+03  0.50400001928E-02 0. -1.
</event>
<event>
 5   0  0.4104786E-04  0.8000456E+03  0.7818609E-02  0.9559951E-01
       -1   -1    0    0    0  501  0.00000000000E+00  0.00000000000E+00  0.22846877627E+03  0.22846877632E+03  0.50400001928E-02 0.  1.
        1   -1    0    0  501    0  0.00000000000E+00  0.00000000000E+00 -0.70039439925E+03  0.70039439927E+03  0.50400001928E-02 0. -1.
    10030    2    1    2    0    0  0.00000000000E+00  0.00000000000E+00 -0.47192562299E+03  0.92886317560E+03  0.80004562704E+03 0.  0.
        2    1    3    3  502    0  0.36919412724E+03 -0.13658168189E+02 -0.57879190220E+02  0.37395300482E+03  0.25500000920E-02 0. -1.
       -2    1    3    3    0  502 -0.36919412724E+03  0.13658168189E+02 -0.41404643277E+03  0.55491017078E+03  0.25500000920E-02 0.  1.
</event>
<event>
 5   0  0.7133039E-04  0.8024355E+03  0.7818609E-02  0.9556498E-01
       -2   -1    0    0    0  501  0.00000000000E+00  0.00000000000E+00  0.14121752067E+03  0.14121752070E+03  0.25500000920E-02 0. -1.
        2   -1    0    0  501    0  0.00000000000E+00  0.00000000000E+00 -0.11399130855E+04  0.11399130855E+04  0.25500000920E-02 0.  1.
    10030    2    1    2    0    0  0.00000000000E+00  0.00000000000E+00 -0.99869556486E+03  0.12811306062E+04  0.80243554194E+03 0.  0.
        2    1    3    3  502    0  0.74300593931E+02 -0.82851455598E+02  0.11608290655E+03  0.16081101689E+03  0.25500000920E-02 0. -1.
       -2    1    3    3    0  502 -0.74300593931E+02  0.82851455598E+02 -0.11147784714E+04  0.11203195894E+04  0.25500000920E-02 0.  1.
</event>
<event>
 5   0  0.7133039E-04  0.7989605E+03  0.7818609E-02  0.9561523E-01
        2   -1    0    0  501    0  0.00000000000E+00  0.00000000000E+00  0.13319228162E+04  0.13319228162E+04  0.25500000920E-02 0. -1.
       -2   -1    0    0    0  501  0.00000000000E+00  0.00000000000E+00 -0.11981508934E+03  0.11981508937E+03  0.25500000920E-02 0.  1.
    10030    2    1    2    0    0  0.00000000000E+00  0.00000000000E+00  0.12121077268E+04  0.14517379056E+04  0.79896045269E+03 0.  0.
        2    1    3    3  502    0 -0.23161820665E+03  0.23657771094E+03  0.10122266737E+04  0.10649971107E+04  0.25500000920E-02 0. -1.
       -2    1    3    3    0  502  0.23161820665E+03 -0.23657771094E+03  0.19988105318E+03  0.38674079484E+03  0.25500000920E-02 0.  1.
</event>
<event>
 5   0  0.6801147E-04  0.7999022E+03  0.7818609E-02  0.9560159E-01
       -2   -1    0    0    0  501  0.00000000000E+00  0.00000000000E+00  0.13180879064E+03  0.13180879067E+03  0.25500000920E-02 0.  1.
        2   -1    0    0  501    0  0.00000000000E+00  0.00000000000E+00 -0.12135826979E+04  0.12135826979E+04  0.25500000920E-02 0. -1.
    10030    2    1    2    0    0  0.00000000000E+00  0.00000000000E+00 -0.10817739073E+04  0.13453914886E+04  0.79990216345E+03 0.  0.
        4    1    3    3  502    0  0.16897337810E+03 -0.26794039346E+03 -0.13021948661E+03  0.34249494091E+03  0.12699999809E+01 0.  1.
       -4    1    3    3    0  502 -0.16897337810E+03  0.26794039346E+03 -0.95155442064E+03  0.10028965477E+04  0.12699999809E+01 0. -1.
</event>
<event>
 5   0  0.6593118E-04  0.7996952E+03  0.7818609E-02  0.9560458E-01
       -2   -1    0    0    0  501  0.00000000000E+00  0.00000000000E+00  0.11413245570E+03  0.11413245573E+03  0.25500000920E-02 0.  1.
        2   -1    0    0  501    0  0.00000000000E+00  0.00000000000E+00 -0.14008119093E+04  0.14008119093E+04  0.25500000920E-02 0. -1.
    10030    2    1    2    0    0  0.00000000000E+00  0.00000000000E+00 -0.12866794536E+04  0.15149443650E+04  0.79969519995E+03 0.  0.
        1    1    3    3  502    0  0.30284946206E+03 -0.20611180111E+03 -0.33977259059E+03  0.49964515866E+03  0.50400001928E-02 0.  1.
       -1    1    3    3    0  502 -0.30284946206E+03  0.20611180111E+03 -0.94690686298E+03  0.10152992063E+04  0.50400001928E-02 0. -1.
</event>
<event>
 5   0  0.6672462E-04  0.8002646E+03  0.7818609E-02  0.9559634E-01
       -2   -1    0    0    0  501  0.00000000000E+00  0.00000000000E+00  0.11276635193E+03  0.11276635196E+03  0.25500000920E-02 0. -1.
        2   -1    0    0  501    0  0.00000000000E+00  0.00000000000E+00 -0.14198015641E+04  0.14198015641E+04  0.25500000920E-02 0.  1.
    10030    2    1    2    0    0  0.00000000000E+00  0.00000000000E+00 -0.13070352122E+04  0.15325679161E+04  0.80026456343E+03 0.  0.
        5    1    3    3  502    0  0.26036920967E+03  0.58837505307E+02 -0.82741971688E+02  0.27950366948E+03  0.46999998093E+01 0. -1.
       -5    1    3    3    0  502 -0.26036920967E+03 -0.58837505307E+02 -0.12242932405E+04  0.12530642466E+04  0.46999998093E+01 0.  1.
</event>
<event>
 5   0  0.6801147E-04  0.7994586E+03  0.7818609E-02  0.9560801E-01
       -2   -1    0    0    0  501  0.00000000000E+00  0.00000000000E+00  0.34558624620E+03  0.34558624621E+03  0.25500000920E-02 0.  1.
        2   -1    0    0  501    0  0.00000000000E+00  0.00000000000E+00 -0.46235497120E+03  0.46235497121E+03  0.25500000920E-02 0. -1.
    10030    2    1    2    0    0  0.00000000000E+00  0.00000000000E+00 -0.11676872499E+03  0.80794121742E+03  0.79945861410E+03 0.  0.
        4    1    3    3  502    0  0.54003504525E+02  0.26745547209E+02  0.34096689372E+03  0.34625386397E+03  0.12699999809E+01 0.  1.
       -4    1    3    3    0  502 -0.54003504525E+02 -0.26745547209E+02 -0.45773561872E+03  0.46168735345E+03  0.12699999809E+01 0. -1.
</event>
<event>
 5   0  0.6593118E-04  0.8016632E+03  0.7818609E-02  0.9557613E-01
        2   -1    0    0  501    0  0.00000000000E+00  0.00000000000E+00  0.13887614325E+03  0.13887614328E+03  0.25500000920E-02 0.  1.
       -2   -1    0    0    0  501  0.00000000000E+00  0.00000000000E+00 -0.11569010407E+04  0.11569010407E+04  0.25500000920E-02 0. -1.
    10030    2    1    2    0    0  0.00000000000E+00  0.00000000000E+00 -0.10180248974E+04  0.12957771839E+04  0.80166315786E+03 0.  0.
        1    1    3    3  502    0 -0.38812829694E+02  0.39604127206E+03 -0.43131220592E+03  0.58684354297E+03  0.50400001928E-02 0.  1.
       -1    1    3    3    0  502  0.38812829694E+02 -0.39604127206E+03 -0.58671269148E+03  0.70893364096E+03  0.50400001928E-02 0. -1.
</event>
<event>
 5   0  0.4392552E-04  0.8000247E+03  0.7818609E-02  0.9559981E-01
       -1   -1    0    0    0  501  0.00000000000E+00  0.00000000000E+00  0.76119200169E+02  0.76119200336E+02  0.50400001928E-02 0. -1.
        1   -1    0    0  501    0  0.00000000000E+00  0.00000000000E+00 -0.21020963261E+04  0.21020963261E+04  0.50400001928E-02 0.  1.
    10030    2    1    2    0    0  0.00000000000E+00  0.00000000000E+00 -0.20259771260E+04  0.21782155265E+04  0.80002472765E+03 0.  0.
        5    1    3    3  502    0 -0.22184904463E+03 -0.33275014266E+03 -0.99409674239E+03  0.10715363173E+04  0.46999998093E+01 0.  1.
       -5    1    3    3    0  502  0.22184904463E+03  0.33275014266E+03 -0.10318803836E+04  0.11066792092E+04  0.46999998093E+01 0. -1.
</event>
<event>
 5   0  0.4392552E-04  0.7984946E+03  0.7818609E-02  0.9562199E-01
       -1   -1    0    0    0  501  0.00000000000E+00  0.00000000000E+00  0.88424273708E+03  0.88424273710E+03  0.50400001928E-02 0. -1.
        1   -1    0    0  501    0  0.00000000000E+00  0.00000000000E+00 -0.18026543754E+03  0.18026543761E+03  0.50400001928E-02 0.  1.
    10030    2    1    2    0    0  0.00000000000E+00  0.00000000000E+00  0.70397729955E+03  0.10645081747E+04  0.79849459343E+03 0.  0.
        5    1    3    3  502    0  0.13034489833E+03 -0.26487773010E+02 -0.14982079898E+03  0.20039899312E+03  0.46999998093E+01 0.  1.
       -5    1    3    3    0  502 -0.13034489833E+03  0.26487773010E+02  0.85379809853E+03  0.86410918158E+03  0.46999998093E+01 0. -1.
</event>
<event>
 5   0  0.4086111E-04  0.8001127E+03  0.7818609E-02  0.9559854E-01
       -1   -1    0    0    0  501  0.00000000000E+00  0.00000000000E+00  0.86810924918E+03  0.86810924919E+03  0.50400001928E-02 0. -1.
        1   -1    0    0  501    0  0.00000000000E+00  0.00000000000E+00 -0.18436052288E+03  0.18436052295E+03  0.50400001928E-02 0.  1.
    10030    2    1    2    0    0  0.00000000000E+00  0.00000000000E+00  0.68374872630E+03  0.10524697721E+04  0.80011267991E+03 0.  0.
        3    1    3    3  502    0 -0.15959665552E+03  0.33134169510E+03  0.54896832038E+03  0.66077578523E+03  0.10100000352E+00 0. -1.
       -3    1    3    3    0  502  0.15959665552E+03 -0.33134169510E+03  0.13478040592E+03  0.39169398691E+03  0.10100000352E+00 0.  1.
</event>
<event>
 5   0  0.6672462E-04  0.8015953E+03  0.7818609E-02  0.9557711E-01
       -2   -1    0    0    0  501  0.00000000000E+00  0.00000000000E+00  0.25185726850E+03  0.25185726851E+03  0.25500000920E-02 0. -1.
        2   -1    0    0  501    0  0.00000000000E+00  0.00000000000E+00 -0.63781659309E+03  0.63781659310E+03  0.25500000920E-02 0.  1.
    10030    2    1    2    0    0  0.00000000000E+00  0.00000000000E+00 -0.38595932459E+03  0.88967386161E+03  0.80159527181E+03 0.  0.
        5    1    3    3  502    0  0.35534832697E+02 -0.18200116446E+03 -0.58730631030E+03  0.61590416487E+03  0.46999998093E+01 0.  1.
       -5    1    3    3    0  502 -0.35534832697E+02  0.18200116446E+03  0.20134698570E+03  0.27376969673E+03  0.46999998093E+01 0. -1.
</event>
<event>
 5   0  0.4169155E-04  0.8007350E+03  0.7818609E-02  0.9558954E-01
       -1   -1    0    0    0  501  0.00000000000E+00  0.00000000000E+00  0.15936920504E+03  0.15936920512E+03  0.50400001928E-02 0.  1.
        1   -1    0    0  501    0  0.00000000000E+00  0.00000000000E+00 -0.10058036866E+04  0.10058036866E+04  0.50400001928E-02 0. -1.
    10030    2    1    2    0    0  0.00000000000E+00  0.00000000000E+00 -0.84643448151E+03  0.11651728917E+04  0.80073499738E+03 0.  0.
        4    1    3    3  502    0 -0.79024593681E+01 -0.57301988452E+02 -0.99968822723E+03  0.10013611393E+04  0.12699999809E+01 0. -1.
       -4    1    3    3    0  502  0.79024593681E+01  0.57301988452E+02  0.15325374572E+03  0.16381175239E+03  0.12699999809E+01 0.  1.
</event>
<event>
 5   0  0.6593118E-04  0.7995467E+03  0.7818609E-02  0.9560673E-01
        2   -1    0    0  501    0  0.00000000000E+00  0.00000000000E+00  0.45097973874E+03  0.45097973875E+03  0.25500000920E-02 0.  1.
       -2   -1    0    0    0  501  0.00000000000E+00  0.00000000000E+00 -0.35438122122E+03  0.35438122123E+03  0.25500000920E-02 0. -1.
    10030    2    1    2    0    0  0.00000000000E+00  0.00000000000E+00  0.96598517521E+02  0.80536095997E+03  0.79954674801E+03 0.  0.
        1    1    3    3  502    0 -0.11753609096E+03 -0.14119049683E+02 -0.33632124260E+03  0.35654741409E+03  0.50400001928E-02 0. -1.
       -1    1    3    3    0  502  0.11753609096E+03  0.14119049683E+02  0.43291976012E+03  0.44881354589E+03  0.50400001928E-02 0.  1.
</event>
<event>
 5   0  0.2736375E-04  0.7981970E+03  0.7818609E-02  0.9562631E-01
       -3   -1    0    0    0  501  0.00000000000E+00  0.00000000000E+00  0.43368780457E+03  0.43368781633E+03  0.10100000352E+00 0.  1.
        3   -1    0    0  501    0  0.00000000000E+00  0.00000000000E+00 -0.36726790960E+03  0.36726792349E+03  0.10100000352E+00 0. -1.
    10030    2    1    2    0    0  0.00000000000E+00  0.00000000000E+00  0.66419894969E+02  0.80095573982E+03  0.79819702749E+03 0.  0.
        4    1    3    3  502    0  0.87112112210E+02  0.32411337972E+03 -0.18349943714E+03  0.38250707096E+03  0.12699999809E+01 0. -1.
       -4    1    3    3    0  502 -0.87112112210E+02 -0.32411337972E+03  0.24991933211E+03  0.41844866885E+03  0.12699999809E+01 0.  1.
</event>
<event>
 5   0  0.7133039E-04  0.8003464E+03  0.7818609E-02  0.9559516E-01
        2   -1    0    0  501    0  0.00000000000E+00  0.00000000000E+00  0.97967736463E+03  0.97967736464E+03  0.25500000920E-02 0. -1.
       -2   -1    0    0    0  501  0.00000000000E+00  0.00000000000E+00 -0.16346053227E+03  0.16346053229E+03  0.25500000920E-02 0.  1.
    10030    2    1    2    0    0  0.00000000000E+00  0.00000000000E+00  0.81621683236E+03  0.11431378969E+04  0.80034638373E+03 0.  0.
        2    1    3    3  502    0 -0.17748819891E+03 -0.21181912875E+02  0.91948880162E+03  0.93670186852E+03  0.25500000920E-02 0. -1.
       -2    1    3    3    0  502  0.17748819891E+03  0.21181912875E+02 -0.10327196925E+03  0.20643602841E+03  0.25500000920E-02 0.  1.
</event>
<event>
 5   0  0.4392552E-04  0.8001878E+03  0.7818609E-02  0.9559745E-01
        1   -1    0    0  501    0  0.00000000000E+00  0.00000000000E+00  0.13505222819E+04  0.13505222819E+04  0.50400001928E-02 0.  1.
       -1   -1    0    0    0  501  0.00000000000E+00  0.00000000000E+00 -0.11852829892E+03  0.11852829903E+03  0.50400001928E-02 0. -1.
    10030    2    1    2    0    0  0.00000000000E+00  0.00000000000E+00  0.12319939830E+04  0.14690505810E+04  0.80018775002E+03 0.  0.
        5    1    3    3  502    0 -0.30147885100E+03 -0.55307232340E+01  0.13328583122E+03  0.32970788480E+03  0.46999998093E+01 0. -1.
       -5    1    3    3    0  502  0.30147885100E+03  0.55307232340E+01  0.10987081518E+04  0.11393426962E+04  0.46999998093E+01 0.  1.
</event>
<event>
 5   0  0.6801147E-04  0.8000125E+03  0.7818609E-02  0.9559999E-01
       -2   -1    0    0    0  501  0.00000000000E+00  0.00000000000E+00  0.53820249370E+03  0.53820249371E+03  0.25500000920E-02 0.  1.
        2   -1    0    0  501    0  0.00000000000E+00  0.00000000000E+00 -0.29729517490E+03  0.29729517491E+03  0.25500000920E-02 0. -1.
    10030    2    1    2    0    0  0.00000000000E+00  0.00000000000E+00  0.24090731880E+03  0.83549766862E+03  0.80001251116E+03 0.  0.
        4    1    3    3  502    0  0.12534292927E+03 -0.34224566127E+03  0.29256795205E+03  0.46737625318E+03  0.12699999809E+01 0.  1.
       -4    1    3    3    0  502 -0.12534292927E+03  0.34224566127E+03 -0.51660633249E+02  0.36812141543E+03  0.12699999809E+01 0. -1.
</event>
<event>
 5   0  0.6672462E-04  0.7995203E+03  0.7818609E-02  0.9560712E-01
       -2   -1    0    0    0  501  0.00000000000E+00  0.00000000000E+00  0.15623300494E+03  0.15623300496E+03  0.25500000920E-02 0.  1.
        2   -1    0    0  501    0  0.00000000000E+00  0.00000000000E+00 -0.10228835351E+04  0.10228835351E+04  0.25500000920E-02 0. -1.
    10030    2    1    2    0    0  0.00000000000E+00  0.00000000000E+00 -0.86665053021E+03  0.11791165401E+04  0.79952027720E+03 0.  0.
        5    1    3    3  502    0 -0.44148903081E+02  0.10512869713E+03  0.13170011222E+03  0.17426467847E+03  0.46999998093E+01 0.  1.
       -5    1    3    3    0  502  0.44148903081E+02 -0.10512869713E+03 -0.99835064243E+03  0.10048518616E+04  0.46999998093E+01 0. -1.
</event>
<event>
 5   0  0.4169155E-04  0.8037989E+03  0.7818609E-02  0.9554535E-01
        1   -1    0    0  501    0  0.00000000000E+00  0.00000000000E+00  0.78065425844E+03  0.78065425846E+03  0.50400001928E-02 0. -1.
       -1   -1    0    0    0  501  0.00000000000E+00  0.00000000000E+00 -0.20690743046E+03  0.20690743053E+03  0.50400001928E-02 0.  1.
    10030    2    1    2    0    0  0.00000000000E+00  0.00000000000E+00  0.57374682798E+03  0.98756168899E+03  0.80379889707E+03 0.  0.
        4    1    3    3  502    0 -0.75887693921E+02 -0.11379948068E+03 -0.17742758630E+03  0.22403442854E+03  0.12699999809E+01 0.  1.
       -4    1    3    3    0  502  0.75887693921E+02  0.11379948068E+03  0.75117441427E+03  0.76352726045E+03  0.12699999809E+01 0. -1.
</event>
<event>
 5   0  0.6593118E-04  0.7994116E+03  0.7818609E-02  0.9560869E-01
       -2   -1    0    0    0  501  0.00000000000E+00  0.00000000000E+00  0.12511288660E+03  0.12511288663E+03  0.25500000920E-02 0.  1.
        2   -1    0    0  501    0  0.00000000000E+00  0.00000000000E+00 -0.12769645994E+04  0.12769645994E+04  0.25500000920E-02 0. -1.
    10030    2    1    2    0    0  0.00000000000E+00  0.00000000000E+00 -0.11518517128E+04  0.14020774860E+04  0.79941160145E+03 0.  0.
        1    1    3    3  502    0  0.25566406349E+03  0.23610784094E+02 -0.38643170988E+02  0.25964375050E+03  0.50400001928E-02 0.  1.
       -1    1    3    3    0  502 -0.25566406349E+03 -0.23610784094E+02 -0.11132085418E+04  0.11424337355E+04  0.50400001928E-02 0. -1.
</event>
<event>
 5   0  0.4392552E-04  0.7997730E+03  0.7818609E-02  0.9560346E-01
        1   -1    0    0  501    0  0.00000000000E+00  0.00000000000E+00  0.54511455252E+03  0.54511455254E+03  0.50400001928E-02 0. -1.
       -1   -1    0    0    0  501  0.00000000000E+00  0.00000000000E+00 -0.29334972559E+03  0.29334972563E+03  0.50400001928E-02 0.  1.
    10030    2    1    2    0    0  0.00000000000E+00  0.00000000000E+00  0.25176482693E+03  0.83846427817E+03  0.79977297884E+03 0.  0.
        5    1    3    3  502    0 -0.27632629509E+03 -0.23165819389E+03  0.30705889384E+03  0.47363381894E+03  0.46999998093E+01 0. -1.
       -5    1    3    3    0  502  0.27632629509E+03  0.23165819389E+03 -0.55294066913E+02  0.36483045924E+03  0.46999998093E+01 0.  1.
</event>
<event>
 5   0  0.4087283E-04  0.8000985E+03  0.7818609E-02  0.9559874E-01
        1   -1    0    0  501    0  0.00000000000E+00  0.00000000000E+00  0.41484229858E+03  0.41484229861E+03  0.50400001928E-02 0. -1.
       -1   -1    0    0    0  501  0.00000000000E+00  0.00000000000E+00 -0.38578375818E+03  0.38578375822E+03  0.50400001928E-02 0.  1.
    10030    2    1    2    0    0  0.00000000000E+00  0.00000000000E+00  0.29058540394E+02  0.80062605682E+03  0.80009854649E+03 0.  0.
        1    1    3    3  502    0  0.15835255864E+03  0.34313865368E+03  0.14583984175E+03  0.40507891570E+03  0.50400001928E-02 0. -1.
       -1    1    3    3    0  502 -0.15835255864E+03 -0.34313865368E+03 -0.11678130135E+03  0.39554714112E+03  0.50400001928E-02 0.  1.
</event>
<event>
 5   0  0.4086111E-04  0.7995674E+03  0.7818609E-02  0.9560644E-01
       -1   -1    0    0    0  501  0.00000000000E+00  0.00000000000E+00  0.22960448618E+03  0.22960448623E+03  0.50400001928E-02 0. -1.
        1   -1    0    0  501    0  0.00000000000E+00  0.00000000000E+00 -0.69609703756E+03  0.69609703758E+03  0.50400001928E-02 0.  1.
    10030    2    1    2    0    0  0.00000000000E+00  0.00000000000E+00 -0.46649255139E+03  0.92570152382E+03  0.79956738972E+03 0.  0.
        3    1    3    3  502    0 -0.36577420612E+03 -0.21348074575E+02 -0.41841612364E+03  0.55616416000E+03  0.10100000352E+00 0.  1.
       -3    1    3    3    0  502  0.36577420612E+03  0.21348074575E+02 -0.48076427750E+02  0.36953736382E+03  0.10100000352E+00 0. -1.
</event>
<event>
 5   0  0.4169155E-04  0.7999875E+03  0.7818609E-02  0.9560035E-01
        1   -1    0    0  501    0  0.00000000000E+00  0.00000000000E+00  0.17008218946E+03  0.17008218953E+03  0.50400001928E-02 0. -1.
       -1   -1    0    0    0  501  0.00000000000E+00  0.00000000000E+00 -0.94069230979E+03  0.94069230980E+03  0.50400001928E-02 0.  1.
    10030    2    1    2    0    0  0.00000000000E+00  0.00000000000E+00 -0.77061012033E+03  0.11107744993E+04  0.79998751916E+03 0.  0.
        4    1    3    3  502    0  0.63517340145E+02  0.29788302859E+03 -0.25301377406E+02  0.30563135280E+03  0.12699999809E+01 0. -1.
       -4    1    3    3    0  502 -0.63517340145E+02 -0.29788302859E+03 -0.74530874292E+03  0.80514314653E+03  0.12699999809E+01 0.  1.
</event>
<event>
 5   0  0.6970013E-04  0.7999917E+03  0.7818609E-02  0.9560029E-01
        2   -1    0    0  501    0  0.00000000000E+00  0.00000000000E+00  0.43251867008E+03  0.43251867009E+03  0.25500000920E-02 0.  1.
       -2   -1    0    0    0  501  0.00000000000E+00  0.00000000000E+00 -0.36991854088E+03  0.36991854088E+03  0.25500000920E-02 0. -1.
    10030    2    1    2    0    0  0.00000000000E+00  0.00000000000E+00  0.62600129202E+02  0.80243721097E+03  0.79999168832E+03 0.  0.
        3    1    3    3  502    0  0.11309856951E+03 -0.86760212541E+02  0.40617780859E+03  0.43046375375E+03  0.10100000352E+00 0.  1.
       -3    1    3    3    0  502 -0.11309856951E+03  0.86760212541E+02 -0.34357767938E+03  0.37197345722E+03  0.10100000352E+00 0. -1.
</event>
<event>
 5   0  0.4392552E-04  0.7992809E+03  0.7818609E-02  0.9561059E-01
       -1   -1    0    0    0  501  0.00000000000E+00  0.00000000000E+00  0.25111611058E+03  0.25111611063E+03  0.50400001928E-02 0. -1.
        1   -1    0    0  501    0  0.00000000000E+00  0.00000000000E+00 -0.63601053260E+03  0.63601053262E+03  0.50400001928E-02 0.  1.
    10030    2    1    2    0    0  0.00000000000E+00  0.00000000000E+00 -0.38489442202E+03  0.88712664325E+03  0.79928090498E+03 0.  0.
        5    1    3    3  502    0 -0.21610975747E+03  0.11424275532E+03 -0.54331720151E+03  0.59579401295E+03  0.46999998093E+01 0.  1.
       -5    1    3    3    0  502  0.21610975747E+03 -0.11424275532E+03  0.15842277949E+03  0.29133263030E+03  0.46999998093E+01 0. -1.
</event>
<event>
 5   0  0.6970013E-04  0.8005083E+03  0.7818609E-02  0.9559282E-01
       -2   -1    0    0    0  501  0.00000000000E+00  0.00000000000E+00  0.48367561183E+03  0.48367561184E+03  0.25500000920E-02 0. -1.
        2   -1    0    0  501    0  0.00000000000E+00  0.00000000000E+00 -0.33122074982E+03  0.33122074983E+03  0.25500000920E-02 0.  1.
    10030    2    1    2    0    0  0.00000000000E+00  0.00000000000E+00  0.15245486201E+03  0.81489636167E+03  0.80050833556E+03 0.  0.
        3    1    3    3  502    0 -0.18427818898E+03 -0.61099220827E+01  0.43786978343E+03  0.47510602977E+03  0.10100000352E+00 0. -1.
       -3    1    3    3    0  502  0.18427818898E+03  0.61099220827E+01 -0.28541492142E+03  0.33979033190E+03  0.10100000352E+00 0.  1.
</event>
<event>
 5   0  0.6672462E-04  0.7995534E+03  0.7818609E-02  0.9560664E-01
       -2   -1    0    0    0  501  0.00000000000E+00  0.00000000000E+00  0.34762837284E+03  0.34762837285E+03  0.25500000920E-02 0. -1.
        2   -1    0    0  501    0  0.00000000000E+00  0.00000000000E+00 -0.45974793599E+03  0.45974793600E+03  0.25500000920E-02 0.  1.
    10030    2    1    2    0    0  0.00000000000E+00  0.00000000000E+00 -0.11211956315E+03  0.80737630884E+03  0.79955344264E+03 0.  0.
        5    1    3    3  502    0 -0.93806702313E+02 -0.29653239843E+03  0.19753110390E+03  0.36847223467E+03  0.46999998093E+01 0. -1.
       -5    1    3    3    0  502  0.93806702313E+02  0.29653239843E+03 -0.30965066705E+03  0.43890407417E+03  0.46999998093E+01 0.  1.
</event>
<event>
 5   0  0.4104786E-04  0.7983956E+03  0.7818609E-02  0.9562342E-01
        1   -1    0    0  501    0  0.00000000000E+00  0.00000000000E+00  0.17863170531E+04  0.17863170531E+04  0.50400001928E-02 0.  1.
       -1   -1    0    0    0  501  0.00000000000E+00  0.00000000000E+00 -0.89210853267E+02  0.89210853410E+02  0.50400001928E-02 0. -1.
    10030    2    1    2    0    0  0.00000000000E+00  0.00000000000E+00  0.16971061999E+04  0.18755279065E+04  0.79839556275E+03 0.  0.
        2    1    3    3  502    0 -0.45616488795E+02 -0.35163221350E+03  0.12793641859E+04  0.13275913519E+04  0.25500000920E-02 0. -1.
       -2    1    3    3    0  502  0.45616488795E+02  0.35163221350E+03  0.41774201398E+03  0.54793655460E+03  0.25500000920E-02 0.  1.
</event>
<event>
 5   0  0.4169155E-04  0.8003486E+03  0.7818609E-02  0.9559513E-01
        1   -1    0    0  501    0  0.00000000000E+00  0.00000000000E+00  0.38631198131E+03  0.38631198135E+03  0.50400001928E-02 0. -1.
       -1   -1    0    0    0  501  0.00000000000E+00  0.00000000000E+00 -0.41453404230E+03  0.41453404233E+03  0.50400001928E-02 0.  1.
    10030    2    1    2    0    0  0.00000000000E+00  0.00000000000E+00 -0.28222060989E+02  0.80084602368E+03  0.80034859212E+03 0.  0.
        4    1    3    3  502    0  0.26077160236E+03  0.19576630818E+02 -0.31720650856E+03  0.41110419001E+03  0.12699999809E+01 0.  1.
       -4    1    3    3    0  502 -0.26077160236E+03 -0.19576630818E+02  0.28898444757E+03  0.38974183367E+03  0.12699999809E+01 0. -1.
</event>
<event>
 5   0  0.7133039E-04  0.7999425E+03  0.7818609E-02  0.9560100E-01
       -2   -1    0    0    0  501  0.00000000000E+00  0.00000000000E+00  0.60298543519E+02  0.60298543573E+02  0.25500000920E-02 0. -1.
        2   -1    0    0  501    0  0.00000000000E+00  0.00000000000E+00 -0.26530823215E+04  0.26530823215E+04  0.25500000920E-02 0.  1.
    10030    2    1    2    0    0  0.00000000000E+00  0.00000000000E+00 -0.25927837780E+04  0.27133808651E+04  0.79994249768E+03 0.  0.
        2    1    3    3  502    0  0.79880303718E+02 -0.13443601847E+03 -0.25450934143E+04  0.25498930161E+04  0.25500000920E-02 0.  1.
       -2    1    3    3    0  502 -0.79880303718E+02  0.13443601847E+03 -0.47690363741E+02  0.16348784904E+03  0.25500000920E-02 0. -1.
</event>
<event>
 5   0  0.6970013E-04  0.8002303E+03  0.7818609E-02  0.9559684E-01
        2   -1    0    0  501    0  0.00000000000E+00  0.00000000000E+00  0.85495149383E+03  0.85495149383E+03  0.25500000920E-02 0.  1.
       -2   -1    0    0    0  501  0.00000000000E+00  0.00000000000E+00 -0.18725290447E+03  0.18725290449E+03  0.25500000920E-02 0. -1.
    10030    2    1    2    0    0  0.00000000000E+00  0.00000000000E+00  0.66769858935E+03  0.10422043983E+04  0.80023034288E+03 0.  0.
        3    1    3    3  502    0  0.29670691669E+02  0.16696843259E+03  0.80583122215E+03  0.82348210437E+03  0.10100000352E+00 0.  1.
       -3    1    3    3    0  502 -0.29670691669E+02 -0.16696843259E+03 -0.13813263280E+03  0.21872229395E+03  0.10100000352E+00 0. -1.
</event>
<event>
 5   0  0.4087283E-04  0.7997422E+03  0.7818609E-02  0.9560390E-01
        1   -1    0    0  501    0  0.00000000000E+00  0.00000000000E+00  0.20957038542E+03  0.20957038548E+03  0.50400001928E-02 0.  1.
       -1   -1    0    0    0  501  0.00000000000E+00  0.00000000000E+00 -0.76297469957E+03  0.76297469959E+03  0.50400001928E-02 0. -1.
    10030    2    1    2    0    0  0.00000000000E+00  0.00000000000E+00 -0.55340431415E+03  0.97254508507E+03  0.79974221320E+03 0.  0.
        1    1    3    3  502    0 -0.38442674621E+02 -0.23291269704E+03 -0.66919577022E+03  0.70961196620E+03  0.50400001928E-02 0. -1.
       -1    1    3    3    0  502  0.38442674621E+02  0.23291269704E+03  0.11579145607E+03  0.26293311887E+03  0.50400001928E-02 0.  1.
</event>
<event>
 5   0  0.6672462E-04  0.8001026E+03  0.7818609E-02  0.9559869E-01
        2   -1    0    0  501    0  0.00000000000E+00  0.00000000000E+00  0.48471270450E+03  0.48471270451E+03  0.25500000920E-02 0. -1.
       -2   -1    0    0    0  501  0.00000000000E+00  0.00000000000E+00 -0.33017712562E+03  0.33017712563E+03  0.25500000920E-02 0.  1.
    10030    2    1    2    0    0  0.00000000000E+00  0.00000000000E+00  0.15453557888E+03  0.81488983013E+03  0.80010261224E+03 0.  0.
        5    1    3    3  502    0  0.14495038345E+03 -0.37190495043E+03  0.10411887009E+03  0.41253694977E+03  0.46999998093E+01 0. -1.
       -5    1    3    3    0  502 -0.14495038345E+03  0.37190495043E+03  0.50416708791E+02  0.40235288037E+03  0.46999998093E+01 0.  1.
</event>
<event>
 5   0  0.4169155E-04  0.8000424E+03  0.7818609E-02  0.9559956E-01
       -1   -1    0    0    0  501  0.00000000000E+00  0.00000000000E+00  0.19108674500E+03  0.19108674507E+03  0.50400001928E-02 0. -1.
        1   -1    0    0  501    0  0.00000000000E+00  0.00000000000E+00 -0.83740476775E+03  0.83740476776E+03  0.50400001928E-02 0.  1.
    10030    2    1    2    0    0  0.00000000000E+00  0.00000000000E+00 -0.64631802274E+03  0.10284915128E+04  0.80004237728E+03 0.  0.
        4    1    3    3  502    0 -0.14020273938E+02  0.16112973262E+03  0.14717524246E+03  0.21868132912E+03  0.12699999809E+01 0. -1.
       -4    1    3    3    0  502  0.14020273938E+02 -0.16112973262E+03 -0.79349326520E+03  0.80981018371E+03  0.12699999809E+01 0.  1.
</event>
<event>
 5   0  0.4392552E-04  0.7999569E+03  0.7818609E-02  0.9560079E-01
       -1   -1    0    0    0  501  0.00000000000E+00  0.00000000000E+00  0.10470882664E+04  0.10470882664E+04  0.50400001928E-02 0.  1.
        1   -1    0    0  501    0  0.00000000000E+00  0.00000000000E+00 -0.15278823465E+03  0.15278823474E+03  0.50400001928E-02 0. -1.
    10030    2    1    2    0    0  0.00000000000E+00  0.00000000000E+00  0.89430003178E+03  0.11998765012E+04  0.79995691837E+03 0.  0.
        5    1    3    3  502    0  0.30271636703E+03  0.10145066102E+03  0.85822626458E+02  0.33063128814E+03  0.46999998093E+01 0. -1.
       -5    1    3    3    0  502 -0.30271636703E+03 -0.10145066102E+03  0.80847740532E+03  0.86924521304E+03  0.46999998093E+01 0.  1.
</event>
<event>
 5   0  0.7133039E-04  0.7998370E+03  0.7818609E-02  0.9560253E-01
       -2   -1    0    0    0  501  0.00000000000E+00  0.00000000000E+00  0.73429182366E+03  0.73429182366E+03  0.25500000920E-02 0.  1.
        2   -1    0    0  501    0  0.00000000000E+00  0.00000000000E+00 -0.21780821754E+03  0.21780821756E+03  0.25500000920E-02 0. -1.
    10030    2    1    2    0    0  0.00000000000E+00  0.00000000000E+00  0.51648360612E+03  0.95210004122E+03  0.79983696658E+03 0.  0.
        2    1    3    3  502    0 -0.18468719312E+03 -0.33528074666E+03  0.12038379129E+03  0.40126648950E+03  0.25500000920E-02 0. -1.
       -2    1    3    3    0  502  0.18468719312E+03  0.33528074666E+03  0.39609981483E+03  0.55083355172E+03  0.25500000920E-02 0.  1.
</event>
<event>
 5   0  0.4087283E-04  0.8010628E+03  0.7818609E-02  0.9558480E-01
        1   -1    0    0  501    0  0.00000000000E+00  0.00000000000E+00  0.34922963968E+03  0.34922963971E+03  0.50400001928E-02 0. -1.
       -1   -1    0    0    0  501  0.00000000000E+00  0.00000000000E+00 -0.45936934423E+03  0.45936934426E+03  0.50400001928E-02 0.  1.
    10030    2    1    2    0    0  0.00000000000E+00  0.00000000000E+00 -0.11013970456E+03  0.80859898398E+03  0.80106277055E+03 0.  0.
        1    1    3    3  502    0 -0.82750396216E+02 -0.34190616662E+03 -0.24838642432E+03  0.43063124673E+03  0.50400001928E-02 0.  1.
       -1    1    3    3    0  502  0.82750396216E+02  0.34190616662E+03  0.13824671976E+03  0.37796773725E+03  0.50400001928E-02 0. -1.
</event>
<event>
 5   0  0.4104786E-04  0.8007071E+03  0.7818609E-02  0.9558994E-01
       -1   -1    0    0    0  501  0.00000000000E+00  0.00000000000E+00  0.16558465761E+03  0.16558465768E+03  0.50400001928E-02 0. -1.
        1   -1    0    0  501    0  0.00000000000E+00  0.00000000000E+00 -0.96798205022E+03  0.96798205023E+03  0.50400001928E-02 0.  1.
    10030    2    1    2    0    0  0.00000000000E+00  0.00000000000E+00 -0.80239739261E+03  0.11335667079E+04  0.80070712849E+03 0.  0.
        2    1    3    3  502    0 -0.28704207336E+03  0.27900184840E+03 -0.39141155160E+03  0.55985550460E+03  0.25500000920E-02 0. -1.
       -2    1    3    3    0  502  0.28704207336E+03 -0.27900184840E+03 -0.41098584101E+03  0.57371120332E+03  0.25500000920E-02 0.  1.
</event>
<event>
 5   0  0.6672462E-04  0.8003690E+03  0.7818609E-02  0.9559483E-01
       -2   -1    0    0    0  501  0.00000000000E+00  0.00000000000E+00  0.18562087056E+03  0.18562087058E+03  0.25500000920E-02 0.  1.
        2   -1    0    0  501    0  0.00000000000E+00  0.00000000000E+00 -0.86276741477E+03  0.86276741477E+03  0.25500000920E-02 0. -1.
    10030    2    1    2    0    0  0.00000000000E+00  0.00000000000E+00 -0.67714654420E+03  0.10483882854E+04  0.80036901148E+03 0.  0.
        5    1    3    3  502    0  0.41457872555E+02  0.23279326604E+03  0.84285273563E+02  0.25107281265E+03  0.46999998093E+01 0.  1.
       -5    1    3    3    0  502 -0.41457872555E+02 -0.23279326604E+03 -0.76143181777E+03  0.79731547271E+03  0.46999998093E+01 0. -1.
</event>
<event>
 5   0  0.6801147E-04  0.7997746E+03  0.7818609E-02  0.9560343E-01
        2   -1    0    0  501    0  0.00000000000E+00  0.00000000000E+00  0.51782121398E+03  0.51782121399E+03  0.25500000920E-02 0.  1.
       -2   -1    0    0    0  501  0.00000000000E+00  0.00000000000E+00 -0.30881284372E+03  0.30881284373E+03  0.25500000920E-02 0. -1.
    10030    2    1    2    0    0  0.00000000000E+00  0.00000000000E+00  0.20900837026E+03  0.82663405772E+03  0.79977457233E+03 0.  0.
        4    1    3    3  502    0 -0.29306657513E+03  0.25634553507E+03  0.19870886076E+03  0.43713599148E+03  0.12699999809E+01 0.  1.
       -4    1    3    3    0  502  0.29306657513E+03 -0.25634553507E+03  0.10299509505E+02  0.38949806624E+03  0.12699999809E+01 0. -1.
</event>
<event>
 5   0  0.4104786E-04  0.8002356E+03  0.7818609E-02  0.9559676E-01
       -1   -1    0    0    0  501  0.00000000000E+00  0.00000000000E+00  0.14247595706E+03  0.14247595714E+03  0.50400001928E-02 0.  1.
        1   -1    0    0  501    0  0.00000000000E+00  0.00000000000E+00 -0.11236580561E+04  0.11236580561E+04  0.50400001928E-02 0. -1.
    10030    2    1    2    0    0  0.00000000000E+00  0.00000000000E+00 -0.98118209900E+03  0.12661340132E+04  0.80023560782E+03 0.  0.
        2    1    3    3  502    0 -0.22393622306E+03 -0.20466950325E+03 -0.90335228560E+03  0.95293357033E+03  0.25500000920E-02 0. -1.
       -2    1    3    3    0  502  0.22393622306E+03  0.20466950325E+03 -0.77829813404E+02  0.31320044288E+03  0.25500000920E-02 0.  1.
</event>
<event>
 5   0  0.4086111E-04  0.8002170E+03  0.7818609E-02  0.9559703E-01
        1   -1    0    0  501    0  0.00000000000E+00  0.00000000000E+00  0.47951429328E+03  0.47951429331E+03  0.50400001928E-02 0.  1.
       -1   -1    0    0    0  501  0.00000000000E+00  0.00000000000E+00 -0.33385198955E+03  0.33385198959E+03  0.50400001928E-02 0. -1.
    10030    2    1    2    0    0  0.00000000000E+00  0.00000000000E+00  0.14566230373E+03  0.81336628290E+03  0.80021697272E+03 0.  0.
        3    1    3    3  502    0  0.37798863169E+03 -0.11836630408E+03  0.15325850827E+02  0.39638476199E+03  0.10100000352E+00 0. -1.
       -3    1    3    3    0  502 -0.37798863169E+03  0.11836630408E+03  0.13033645290E+03  0.41698152092E+03  0.10100000352E+00 0.  1.
</event>
<event>
 5   0  0.4104786E-04  0.7978729E+03  0.7818609E-02  0.9563101E-01
       -1   -1    0    0    0  501  0.00000000000E+00  0.00000000000E+00  0.61077085466E+03  0.61077085468E+03  0.50400001928E-02 0.  1.
        1   -1    0    0  501    0  0.00000000000E+00  0.00000000000E+00 -0.26057281279E+03  0.26057281284E+03  0.50400001928E-02 0. -1.
    10030    2    1    2    0    0  0.00000000000E+00  0.00000000000E+00  0.35019804187E+03  0.87134366752E+03  0.79787287108E+03 0.  0.
        2    1    3    3  502    0 -0.35806352685E+03  0.97039315112E+01  0.36690387811E+03  0.51275931131E+03  0.25500000920E-02 0.  1.
       -2    1    3    3    0  502  0.35806352685E+03 -0.97039315112E+01 -0.16705836246E+02  0.35858435621E+03  0.25500000920E-02 0. -1.
</event>
<event>
 5   0  0.6970013E-04  0.8003022E+03  0.7818609E-02  0.9559580E-01
        2   -1    0    0  501    0  0.00000000000E+00  0.00000000000E+00  0.70611233732E+03  0.70611233732E+03  0.25500000920E-02 0. -1.
       -2   -1    0    0    0  501  0.00000000000E+00  0.00000000000E+00 -0.22676406147E+03  0.22676406148E+03  0.25500000920E-02 0.  1.
    10030    2    1    2    0    0  0.00000000000E+00  0.00000000000E+00  0.47934827585E+03  0.93287639881E+03  0.80030219660E+03 0.  0.
        3    1    3    3  502    0 -0.25859233950E+03  0.30501378561E+03  0.25686444228E+03  0.47527124820E+03  0.10100000352E+00 0.  1.
       -3    1    3    3    0  502  0.25859233950E+03 -0.30501378561E+03  0.22248383357E+03  0.45760515060E+03  0.10100000352E+00 0. -1.
</event>
<event>
 5   0  0.4392552E-04  0.7998510E+03  0.7818609E-02  0.9560233E-01
        1   -1    0    0  501    0  0.00000000000E+00  0.00000000000E+00  0.36704412588E+03  0.36704412591E+03  0.50400001928E-02 0.  1.
       -1   -1    0    0    0  501  0.00000000000E+00  0.00000000000E+00 -0.43575257588E+03  0.43575257591E+03  0.50400001928E-02 0. -1.
    10030    2    1    2    0    0  0.00000000000E+00  0.00000000000E+00 -0.68708450007E+02  0.80279670182E+03  0.79985104448E+03 0.  0.
        5    1    3    3  502    0  0.31647492288E+03 -0.22216695735E+03  0.68020430231E+02  0.39263647650E+03  0.46999998093E+01 0.  1.
       -5    1    3    3    0  502 -0.31647492288E+03  0.22216695735E+03 -0.13672888024E+03  0.41016022533E+03  0.46999998093E+01 0. -1.
</event>
<event>
 5   0  0.4169155E-04  0.7992379E+03  0.7818609E-02  0.9561121E-01
       -1   -1    0    0    0  501  0.00000000000E+00  0.00000000000E+00  0.49439566643E+03  0.49439566645E+03  0.50400001928E-02 0.  1.
        1   -1    0    0  501    0  0.00000000000E+00  0.00000000000E+00 -0.32301111811E+03  0.32301111815E+03  0.50400001928E-02 0. -1.
    10030    2    1    2    0    0  0.00000000000E+00  0.00000000000E+00  0.17138454832E+03  0.81740678460E+03  0.79923787955E+03 0.  0.
        4    1    3    3  502    0 -0.18878579663E+03  0.26904512311E+03  0.31816627332E+03  0.45744589370E+03  0.12699999809E+01 0.  1.
       -4    1    3    3    0  502  0.18878579663E+03 -0.26904512311E+03 -0.14678172500E+03  0.35996089090E+03  0.12699999809E+01 0. -1.
</event>
<event>
 5   0  0.4087283E-04  0.7991686E+03  0.7818609E-02  0.9561221E-01
       -1   -1    0    0    0  501  0.00000000000E+00  0.00000000000E+00  0.13430441628E+03  0.13430441637E+03  0.50400001928E-02 0. -1.
        1   -1    0    0  501    0  0.00000000000E+00  0.00000000000E+00 -0.11888487116E+04  0.11888487116E+04  0.50400001928E-02 0.  1.
    10030    2    1    2    0    0  0.00000000000E+00  0.00000000000E+00 -0.10545442953E+04  0.13231531280E+04  0.79916864885E+03 0.  0.
        1    1    3    3  502    0  0.16215683802E+03 -0.26501330132E+03 -0.11124036361E+03  0.33000198259E+03  0.50400001928E-02 0. -1.
       -1    1    3    3    0  502 -0.16215683802E+03  0.26501330132E+03 -0.94330393169E+03  0.99315114538E+03  0.50400001928E-02 0.  1.
</event>
<event>
 5   0  0.6593118E-04  0.7998996E+03  0.7818609E-02  0.9560162E-01
       -2   -1    0    0    0  501  0.00000000000E+00  0.00000000000E+00  0.13648382577E+03  0.13648382579E+03  0.25500000920E-02 0.  1.
        2   -1    0    0  501    0  0.00000000000E+00  0.00000000000E+00 -0.11720059225E+04  0.11720059225E+04  0.25500000920E-02 0. -1.
    10030    2    1    2    0    0  0.00000000000E+00  0.00000000000E+00 -0.10355220967E+04  0.13084897482E+04  0.79989962405E+03 0.  0.
        1    1    3    3  502    0 -0.98716112701E+02  0.28303985557E+03 -0.95087725893E+03  0.99700751869E+03  0.50400001928E-02 0. -1.
       -1    1    3    3    0  502  0.98716112701E+02 -0.28303985557E+03 -0.84644837757E+02  0.31148222956E+03  0.50400001928E-02 0.  1.
</event>
<event>
 5   0  0.4087283E-04  0.7989713E+03  0.7818609E-02  0.9561507E-01
        1   -1    0    0  501    0  0.00000000000E+00  0.00000000000E+00  0.17337699918E+03  0.17337699925E+03  0.50400001928E-02 0. -1.
       -1   -1    0    0    0  501  0.00000000000E+00  0.00000000000E+00 -0.92047254113E+03  0.92047254114E+03  0.50400001928E-02 0.  1.
    10030    2    1    2    0    0  0.00000000000E+00  0.00000000000E+00 -0.74709554195E+03  0.10938495404E+04  0.79897125619E+03 0.  0.
        1    1    3    3  502    0  0.29503131169E+03 -0.14843677703E+03 -0.68124453001E+03  0.75708061746E+03  0.50400001928E-02 0.  1.
       -1    1    3    3    0  502 -0.29503131169E+03  0.14843677703E+03 -0.65851011942E+02  0.33676892293E+03  0.50400001928E-02 0. -1.
</event>
<event>
 5   0  0.6970013E-04  0.7993360E+03  0.7818609E-02  0.9560979E-01
       -2   -1    0    0    0  501  0.00000000000E+00  0.00000000000E+00  0.23885069145E+03  0.23885069147E+03  0.25500000920E-02 0.  1.
        2   -1    0    0  501    0  0.00000000000E+00  0.00000000000E+00 -0.66876299469E+03  0.66876299470E+03  0.25500000920E-02 0. -1.
    10030    2    1    2    0    0  0.00000000000E+00  0.00000000000E+00 -0.42991230324E+03  0.90761368617E+03  0.79933598370E+03 0.  0.
        3    1    3    3  502    0  0.82018734319E+02  0.20313947906E+03 -0.59451528873E+03  0.63359384425E+03  0.10100000352E+00 0. -1.
       -3    1    3    3    0  502 -0.82018734319E+02 -0.20313947906E+03  0.16460298549E+03  0.27401984192E+03  0.10100000352E+00 0.  1.
</event>
<event>
 5   0  0.6970013E-04  0.8001386E+03  0.7818609E-02  0.9559816E-01
       -2   -1    0    0    0  501  0.00000000000E+00  0.00000000000E+00  0.17434201355E+03  0.17434201357E+03  0.25500000920E-02 0. -1.
        2   -1    0    0  501    0  0.00000000000E+00  0.00000000000E+00 -0.91805442294E+03  0.91805442294E+03  0.25500000920E-02 0.  1.
    10030    2    1    2    0    0  0.00000000000E+00  0.00000000000E+00 -0.74371240939E+03  0.10923964365E+04  0.80013862964E+03 0.  0.
        3    1    3    3  502    0 -0.30749252014E+03  0.21021514514E+03 -0.17254060292E+03  0.41050252989E+03  0.10100000352E+00 0. -1.
       -3    1    3    3    0  502  0.30749252014E+03 -0.21021514514E+03 -0.57117180646E+03  0.68189390662E+03  0.10100000352E+00 0.  1.
</event>
<event>
 5   0  0.6801147E-04  0.7971011E+03  0.7818609E-02  0.9564223E-01
       -2   -1    0    0    0  501  0.00000000000E+00  0.00000000000E+00  0.24049020486E+03  0.24049020487E+03  0.25500000920E-02 0. -1.
        2   -1    0    0  501    0  0.00000000000E+00  0.00000000000E+00 -0.66049483252E+03  0.66049483253E+03  0.25500000920E-02 0.  1.
    10030    2    1    2    0    0  0.00000000000E+00  0.00000000000E+00 -0.42000462767E+03  0.90098503739E+03  0.79710109167E+03 0.  0.
        4    1    3    3  502    0  0.46457336312E+02  0.11212694435E+03  0.21909077397E+03  0.25046579784E+03  0.12699999809E+01 0. -1.
       -4    1    3    3    0  502 -0.46457336312E+02 -0.11212694435E+03 -0.63909540163E+03  0.65051923956E+03  0.12699999809E+01 0.  1.
</event>
<event>
 5   0  0.4086111E-04  0.8001414E+03  0.7818609E-02  0.9559812E-01
        1   -1    0    0  501    0  0.00000000000E+00  0.00000000000E+00  0.34976659918E+03  0.34976659921E+03  0.50400001928E-02 0. -1.
       -1   -1    0    0    0  501  0.00000000000E+00  0.00000000000E+00 -0.45760960502E+03  0.45760960504E+03  0.50400001928E-02 0.  1.
    10030    2    1    2    0    0  0.00000000000E+00  0.00000000000E+00 -0.10784300584E+03  0.80737620426E+03  0.80014137581E+03 0.  0.
        3    1    3    3  502    0 -0.36528725770E+03 -0.11748605465E+03  0.60322327949E+02  0.38842830372E+03  0.10100000352E+00 0. -1.
       -3    1    3    3    0  502  0.36528725770E+03  0.11748605465E+03 -0.16816533379E+03  0.41894790054E+03  0.10100000352E+00 0.  1.
</event>
<event>
 5   0  0.6801147E-04  0.8000468E+03  0.7818609E-02  0.9559949E-01
       -2   -1    0    0    0  501  0.00000000000E+00  0.00000000000E+00  0.11348701252E+03  0.11348701254E+03  0.25500000920E-02 0. -1.
        2   -1    0    0  501    0  0.00000000000E+00  0.00000000000E+00 -0.14100179432E+04  0.14100179432E+04  0.25500000920E-02 0.  1.
    10030    2    1    2    0    0  0.00000000000E+00  0.00000000000E+00 -0.12965309307E+04  0.15235049557E+04  0.80004680860E+03 0.  0.
        4    1    3    3  502    0 -0.36735680029E+03  0.84285934532E+02 -0.39305087369E+03  0.54456013413E+03  0.12699999809E+01 0. -1.
       -4    1    3    3    0  502  0.36735680029E+03 -0.84285934532E+02 -0.90348005697E+03  0.97894482159E+03  0.12699999809E+01 0.  1.
</event>
<event>
 5   0  0.4392552E-04  0.8000550E+03  0.7818609E-02  0.9559938E-01
        1   -1    0    0  501    0  0.00000000000E+00  0.00000000000E+00  0.40807877816E+03  0.40807877819E+03  0.50400001928E-02 0. -1.
       -1   -1    0    0    0  501  0.00000000000E+00  0.00000000000E+00 -0.39213505422E+03  0.39213505426E+03  0.50400001928E-02 0.  1.
    10030    2    1    2    0    0  0.00000000000E+00  0.00000000000E+00  0.15943723932E+02  0.80021383244E+03  0.80005498267E+03 0.  0.
        5    1    3    3  502    0  0.21650111611E+02  0.34015937545E+03  0.21735232765E+03  0.40427868157E+03  0.46999998093E+01 0. -1.
       -5    1    3    3    0  502 -0.21650111611E+02 -0.34015937545E+03 -0.20140860372E+03  0.39593515087E+03  0.46999998093E+01 0.  1.
</event>
<event>
 5   0  0.6593118E-04  0.8002777E+03  0.7818609E-02  0.9559615E-01
       -2   -1    0    0    0  501  0.00000000000E+00  0.00000000000E+00  0.15623356546E+03  0.15623356548E+03  0.25500000920E-02 0.  1.
        2   -1    0    0  501    0  0.00000000000E+00  0.00000000000E+00 -0.10248189287E+04  0.10248189287E+04  0.25500000920E-02 0. -1.
    10030    2    1    2    0    0  0.00000000000E+00  0.00000000000E+00 -0.86858536320E+03  0.11810524941E+04  0.80027773976E+03 0.  0.
        1    1    3    3  502    0  0.22208427199E+01 -0.35987335404E+03 -0.69244164538E+03  0.78037759794E+03  0.50400001928E-02 0. -1.
       -1    1    3    3    0  502 -0.22208427199E+01  0.35987335404E+03 -0.17614371782E+03  0.40067489620E+03  0.50400001928E-02 0.  1.
</event>
<event>
 5   0  0.4104786E-04  0.7969133E+03  0.7818609E-02  0.9564496E-01
        1   -1    0    0  501    0  0.00000000000E+00  0.00000000000E+00  0.62752261194E+03  0.62752261196E+03  0.50400001928E-02 0.  1.
       -1   -1    0    0    0  501  0.00000000000E+00  0.00000000000E+00 -0.25300712481E+03  0.25300712486E+03  0.50400001928E-02 0. -1.
    10030    2    1    2    0    0  0.00000000000E+00  0.00000000000E+00  0.37451548713E+03  0.88052973682E+03  0.79691327465E+03 0.  0.
        2    1    3    3  502    0  0.65819431799E+01 -0.30429495984E+02 -0.25166115967E+03  0.25357960387E+03  0.25500000920E-02 0. -1.
       -2    1    3    3    0  502 -0.65819431799E+01  0.30429495984E+02  0.62617664680E+03  0.62695013295E+03  0.25500000920E-02 0.  1.
</event>
<event>
 5   0  0.6672462E-04  0.7999843E+03  0.7818609E-02  0.9560040E-01
       -2   -1    0    0    0  501  0.00000000000E+00  0.00000000000E+00  0.37581401381E+03  0.37581401382E+03  0.25500000920E-02 0.  1.
        2   -1    0    0  501    0  0.00000000000E+00  0.00000000000E+00 -0.42572580863E+03  0.42572580864E+03  0.25500000920E-02 0. -1.
    10030    2    1    2    0    0  0.00000000000E+00  0.00000000000E+00 -0.49911794814E+02  0.80153982246E+03  0.79998431217E+03 0.  0.
        5    1    3    3  502    0 -0.17154370218E+03 -0.12284627441E+03 -0.36540061082E+03  0.42196936534E+03  0.46999998093E+01 0. -1.
       -5    1    3    3    0  502  0.17154370218E+03  0.12284627441E+03  0.31548881601E+03  0.37957045712E+03  0.46999998093E+01 0.  1.
</event>
<event>
 5   0  0.4086111E-04  0.7995109E+03  0.7818609E-02  0.9560725E-01
       -1   -1    0    0    0  501  0.00000000000E+00  0.00000000000E+00  0.21329437447E+03  0.21329437453E+03  0.50400001928E-02 0.  1.
        1   -1    0    0  501    0  0.00000000000E+00  0.00000000000E+00 -0.74921996053E+03  0.74921996055E+03  0.50400001928E-02 0. -1.
    10030    2    1    2    0    0  0.00000000000E+00  0.00000000000E+00 -0.53592558606E+03  0.96251433507E+03  0.79951085760E+03 0.  0.
        3    1    3    3  502    0  0.18000765410E+03 -0.35326413793E+03 -0.20650496474E+03  0.44703760171E+03  0.10100000352E+00 0.  1.
       -3    1    3    3    0  502 -0.18000765410E+03  0.35326413793E+03 -0.32942062132E+03  0.51547673336E+03  0.10100000352E+00 0. -1.
</event>
<event>
 5   0  0.4087283E-04  0.8001504E+03  0.7818609E-02  0.9559799E-01
       -1   -1    0    0    0  501  0.00000000000E+00  0.00000000000E+00  0.12167151436E+03  0.12167151446E+03  0.50400001928E-02 0.  1.
        1   -1    0    0  501    0  0.00000000000E+00  0.00000000000E+00 -0.13155104734E+04  0.13155104734E+04  0.50400001928E-02 0. -1.
    10030    2    1    2    0    0  0.00000000000E+00  0.00000000000E+00 -0.11938389591E+04  0.14371819879E+04  0.80015036471E+03 0.  0.
        1    1    3    3  502    0  0.28427156427E+03  0.57329606331E+02 -0.10187795674E+03  0.30736968639E+03  0.50400001928E-02 0.  1.
       -1    1    3    3    0  502 -0.28427156427E+03 -0.57329606331E+02 -0.10919610023E+04  0.11298123015E+04  0.50400001928E-02 0. -1.
</event>
<event>
 5   0  0.4392552E-04  0.8001332E+03  0.7818609E-02  0.9559824E-01
        1   -1    0    0  501    0  0.00000000000E+00  0.00000000000E+00  0.90731025354E+03  0.90731025355E+03  0.50400001928E-02 0. -1.
       -1   -1    0    0    0  501  0.00000000000E+00  0.00000000000E+00 -0.17640412211E+03  0.17640412218E+03  0.50400001928E-02 0.  1.
    10030    2    1    2    0    0  0.00000000000E+00  0.00000000000E+00  0.73090613143E+03  0.10837143757E+04  0.80013316092E+03 0.  0.
        5    1    3    3  502    0 -0.32108777444E+03  0.38930199424E+02  0.46608510183E+02  0.32681395708E+03  0.46999998093E+01 0.  1.
       -5    1    3    3    0  502  0.32108777444E+03 -0.38930199424E+02  0.68429762125E+03  0.75690041866E+03  0.46999998093E+01 0. -1.
</event>
<event>
 5   0  0.4087283E-04  0.7999200E+03  0.7818609E-02  0.9560133E-01
        1   -1    0    0  501    0  0.00000000000E+00  0.00000000000E+00  0.58657077130E+03  0.58657077132E+03  0.50400001928E-02 0. -1.
       -1   -1    0    0    0  501  0.00000000000E+00  0.00000000000E+00 -0.27271732244E+03  0.27271732249E+03  0.50400001928E-02 0.  1.
    10030    2    1    2    0    0  0.00000000000E+00  0.00000000000E+00  0.31385344886E+03  0.85928809381E+03  0.79992002150E+03 0.  0.
        1    1    3    3  502    0 -0.12087204816E+03  0.38117902452E+03  0.14857062315E+03  0.42659199577E+03  0.50400001928E-02 0.  1.
       -1    1    3    3    0  502  0.12087204816E+03 -0.38117902452E+03  0.16528282571E+03  0.43269609804E+03  0.50400001928E-02 0. -1.
</event>
<event>
 5   0  0.4104786E-04  0.7998328E+03  0.7818609E-02  0.9560259E-01
        1   -1    0    0  501    0  0.00000000000E+00  0.00000000000E+00  0.70331341192E+03  0.70331341194E+03  0.50400001928E-02 0.  1.
       -1   -1    0    0    0  501  0.00000000000E+00  0.00000000000E+00 -0.22739950310E+03  0.22739950316E+03  0.50400001928E-02 0. -1.
    10030    2    1    2    0    0  0.00000000000E+00  0.00000000000E+00  0.47591390882E+03  0.93071291510E+03  0.79983278360E+03 0.  0.
        2    1    3    3  502    0 -0.52077668763E+02 -0.35700336854E+03  0.37184896628E+02  0.36269299038E+03  0.25500000920E-02 0. -1.
       -2    1    3    3    0  502  0.52077668763E+02  0.35700336854E+03  0.43872901219E+03  0.56801992472E+03  0.25500000920E-02 0.  1.
</event>
<event>
 5   0  0.4086111E-04  0.7997783E+03  0.7818609E-02  0.9560338E-01
        1   -1    0    0  501    0  0.00000000000E+00  0.00000000000E+00  0.25945317997E+03  0.25945318001E+03  0.50400001928E-02 0.  1.
       -1   -1    0    0    0  501  0.00000000000E+00  0.00000000000E+00 -0.61633989054E+03  0.61633989056E+03  0.50400001928E-02 0. -1.
    10030    2    1    2    0    0  0.00000000000E+00  0.00000000000E+00 -0.35688671057E+03  0.87579307057E+03  0.79977833071E+03 0.  0.
        3    1    3    3  502    0  0.26459089269E+03  0.15296181438E+03 -0.46084110493E+03  0.55297395178E+03  0.10100000352E+00 0. -1.
       -3    1    3    3    0  502 -0.26459089269E+03 -0.15296181438E+03  0.10395439436E+03  0.32281911879E+03  0.10100000352E+00 0.  1.
</event>
<event>
 5   0  0.6672462E-04  0.8005008E+03  0.7818609E-02  0.9559292E-01
       -2   -1    0    0    0  501  0.00000000000E+00  0.00000000000E+00  0.17533359202E+03  0.17533359204E+03  0.25500000920E-02 0.  1.
        2   -1    0    0  501    0  0.00000000000E+00  0.00000000000E+00 -0.91368913226E+03  0.91368913226E+03  0.25500000920E-02 0. -1.
    10030    2    1    2    0    0  0.00000000000E+00  0.00000000000E+00 -0.73835554023E+03  0.10890227243E+04  0.80050083713E+03 0.  0.
        5    1    3    3  502    0 -0.27458654420E+03 -0.74180753362E+02  0.13868129953E+02  0.28480689853E+03  0.46999998093E+01 0.  1.
       -5    1    3    3    0  502  0.27458654420E+03  0.74180753362E+02 -0.75222367019E+03  0.80421582577E+03  0.46999998093E+01 0. -1.
</event>
<event>
 5   0  0.4392552E-04  0.8038791E+03  0.7818609E-02  0.9554419E-01
        1   -1    0    0  501    0  0.00000000000E+00  0.00000000000E+00  0.20457996433E+04  0.20457996433E+04  0.50400001928E-02 0. -1.
       -1   -1    0    0    0  501  0.00000000000E+00  0.00000000000E+00 -0.78969313853E+02  0.78969314014E+02  0.50400001928E-02 0.  1.
    10030    2    1    2    0    0  0.00000000000E+00  0.00000000000E+00  0.19668303295E+04  0.21247689574E+04  0.80387908119E+03 0.  0.
        5    1    3    3  502    0 -0.19963513215E+03 -0.33298091399E+03  0.12581348249E+04  0.13166836380E+04  0.46999998093E+01 0. -1.
       -5    1    3    3    0  502  0.19963513215E+03  0.33298091399E+03  0.70869550460E+03  0.80808531932E+03  0.46999998093E+01 0.  1.
</event>
<event>
 5   0  0.6593118E-04  0.7999436E+03  0.7818609E-02  0.9560099E-01
       -2   -1    0    0    0  501  0.00000000000E+00  0.00000000000E+00  0.10632988288E+03  0.10632988291E+03  0.25500000920E-02 0. -1.
        2   -1    0    0  501    0  0.00000000000E+00  0.00000000000E+00 -0.15045387472E+04  0.15045387472E+04  0.25500000920E-02 0.  1.
    10030    2    1    2    0    0  0.00000000000E+00  0.00000000000E+00 -0.13982088643E+04  0.16108686301E+04  0.79994357004E+03 0.  0.
        1    1    3    3  502    0  0.86385015339E+02 -0.91499866841E+02  0.65430437555E+02  0.14182996401E+03  0.50400001928E-02 0. -1.
       -1    1    3    3    0  502 -0.86385015339E+02  0.91499866841E+02 -0.14636393019E+04  0.14690386661E+04  0.50400001928E-02 0.  1.
</event>
<event>
 5   0  0.4087283E-04  0.7998768E+03  0.7818609E-02  0.9560195E-01
       -1   -1    0    0    0  501  0.00000000000E+00  0.00000000000E+00  0.11940887122E+03  0.11940887133E+03  0.50400001928E-02 0.  1.
        1   -1    0    0  501    0  0.00000000000E+00  0.00000000000E+00 -0.13395212289E+04  0.13395212289E+04  0.50400001928E-02 0. -1.
    10030    2    1    2    0    0  0.00000000000E+00  0.00000000000E+00 -0.12201123576E+04  0.14589301002E+04  0.79987678551E+03 0.  0.
        1    1    3    3  502    0 -0.35318827773E+03 -0.14674653631E+03 -0.82334227960E+03  0.90783754871E+03  0.50400001928E-02 0.  1.
       -1    1    3    3    0  502  0.35318827773E+03  0.14674653631E+03 -0.39677007803E+03  0.55109255148E+03  0.50400001928E-02 0. -1.
</event>
<event>
 5   0  0.6801147E-04  0.7978980E+03  0.7818609E-02  0.9563065E-01
       -2   -1    0    0    0  501  0.00000000000E+00  0.00000000000E+00  0.43330672342E+03  0.43330672343E+03  0.25500000920E-02 0. -1.
        2   -1    0    0  501    0  0.00000000000E+00  0.00000000000E+00 -0.36731553567E+03  0.36731553568E+03  0.25500000920E-02 0.  1.
    10030    2    1    2    0    0  0.00000000000E+00  0.00000000000E+00  0.65991187753E+02  0.80062225911E+03  0.79789796648E+03 0.  0.
        4    1    3    3  502    0  0.31727469792E+03  0.23347722535E+03  0.96328684360E+02  0.40553135147E+03  0.12699999809E+01 0.  1.
       -4    1    3    3    0  502 -0.31727469792E+03 -0.23347722535E+03 -0.30337496607E+02  0.39509090763E+03  0.12699999809E+01 0. -1.
</event>
<event>
 5   0  0.6970013E-04  0.8001808E+03  0.7818609E-02  0.9559755E-01
       -2   -1    0    0    0  501  0.00000000000E+00  0.00000000000E+00  0.20253816874E+03  0.20253816875E+03  0.25500000920E-02 0.  1.
        2   -1    0    0  501    0  0.00000000000E+00  0.00000000000E+00 -0.79033167065E+03  0.79033167065E+03  0.25500000920E-02 0. -1.
    10030    2    1    2    0    0  0.00000000000E+00  0.00000000000E+00 -0.58779350191E+03  0.99286983941E+03  0.80018080276E+03 0.  0.
        3    1    3    3  502    0  0.26937542172E+03  0.12666141078E+03  0.37809912593E+02  0.30005971156E+03  0.10100000352E+00 0.  1.
       -3    1    3    3    0  502 -0.26937542172E+03 -0.12666141078E+03 -0.62560341451E+03  0.69281012785E+03  0.10100000352E+00 0. -1.
</event>
<event>
 5   0  0.4087283E-04  0.8002256E+03  0.7818609E-02  0.9559691E-01
       -1   -1    0    0    0  501  0.00000000000E+00  0.00000000000E+00  0.55650186910E+03  0.55650186912E+03  0.50400001928E-02 0. -1.
        1   -1    0    0  501    0  0.00000000000E+00  0.00000000000E+00 -0.28767242933E+03  0.28767242937E+03  0.50400001928E-02 0.  1.
    10030    2    1    2    0    0  0.00000000000E+00  0.00000000000E+00  0.26882943977E+03  0.84417429850E+03  0.80022557979E+03 0.  0.
        1    1    3    3  502    0 -0.31600437604E+02 -0.43981959366E+02  0.55261748324E+03  0.55526487662E+03  0.50400001928E-02 0. -1.
       -1    1    3    3    0  502  0.31600437604E+02  0.43981959366E+02 -0.28378804347E+03  0.28890942187E+03  0.50400001928E-02 0.  1.
</event>
<event>
 5   0  0.4392552E-04  0.7998908E+03  0.7818609E-02  0.9560175E-01
        1   -1    0    0  501    0  0.00000000000E+00  0.00000000000E+00  0.16843233310E+03  0.16843233317E+03  0.50400001928E-02 0.  1.
       -1   -1    0    0    0  501  0.00000000000E+00  0.00000000000E+00 -0.94967702448E+03  0.94967702449E+03  0.50400001928E-02 0. -1.
    10030    2    1    2    0    0  0.00000000000E+00  0.00000000000E+00 -0.78124469138E+03  0.11181093577E+04  0.79989078497E+03 0.  0.
        5    1    3    3  502    0  0.33692602220E+03  0.16716361977E+03 -0.58060046091E+03  0.69179607213E+03  0.46999998093E+01 0.  1.
       -5    1    3    3    0  502 -0.33692602220E+03 -0.16716361977E+03 -0.20064423047E+03  0.42631328554E+03  0.46999998093E+01 0. -1.
</event>
<event>
 5   0  0.2736375E-04  0.8012068E+03  0.7818609E-02  0.9558272E-01
       -3   -1    0    0    0  501  0.00000000000E+00  0.00000000000E+00  0.46897342369E+03  0.46897343457E+03  0.10100000352E+00 0.  1.
        3   -1    0    0  501    0  0.00000000000E+00  0.00000000000E+00 -0.34220076182E+03  0.34220077673E+03  0.10100000352E+00 0. -1.
    10030    2    1    2    0    0  0.00000000000E+00  0.00000000000E+00  0.12677266187E+03  0.81117421130E+03  0.80120677311E+03 0.  0.
        2    1    3    3  502    0  0.16055465505E+03 -0.22011246269E+03 -0.23396071355E+03  0.35911684586E+03  0.25500000920E-02 0. -1.
       -2    1    3    3    0  502 -0.16055465505E+03  0.22011246269E+03  0.36073337543E+03  0.45205736543E+03  0.25500000920E-02 0.  1.
</event>
<event>
 5   0  0.4104786E-04  0.8001072E+03  0.7818609E-02  0.9559862E-01
        1   -1    0    0  501    0  0.00000000000E+00  0.00000000000E+00  0.58101797885E+03  0.58101797887E+03  0.50400001928E-02 0. -1.
       -1   -1    0    0    0  501  0.00000000000E+00  0.00000000000E+00 -0.27545254392E+03  0.27545254397E+03  0.50400001928E-02 0.  1.
    10030    2    1    2    0    0  0.00000000000E+00  0.00000000000E+00  0.30556543492E+03  0.85647052284E+03  0.80010719374E+03 0.  0.
        2    1    3    3  502    0  0.52189418135E+02  0.23070196619E+03 -0.19258420447E+03  0.30501771815E+03  0.25500000920E-02 0.  1.
       -2    1    3    3    0  502 -0.52189418135E+02 -0.23070196619E+03  0.49814963939E+03  0.55145280469E+03  0.25500000920E-02 0. -1.
</event>
<event>
 5   0  0.6970013E-04  0.7999762E+03  0.7818609E-02  0.9560051E-01
       -2   -1    0    0    0  501  0.00000000000E+00  0.00000000000E+00  0.17502805743E+03  0.17502805745E+03  0.25500000920E-02 0.  1.
        2   -1    0    0  501    0  0.00000000000E+00  0.00000000000E+00 -0.91408487080E+03  0.91408487080E+03  0.25500000920E-02 0. -1.
    10030    2    1    2    0    0  0.00000000000E+00  0.00000000000E+00 -0.73905681337E+03  0.10891129283E+04  0.79997624784E+03 0.  0.
        3    1    3    3  502    0 -0.21207786585E+03 -0.30959989931E+03 -0.18107278285E+03  0.41667311135E+03  0.10100000352E+00 0.  1.
       -3    1    3    3    0  502  0.21207786585E+03  0.30959989931E+03 -0.55798403052E+03  0.67243981690E+03  0.10100000352E+00 0. -1.
</event>
<event>
 5   0  0.7133039E-04  0.7998996E+03  0.7818609E-02  0.9560162E-01
        2   -1    0    0  501    0  0.00000000000E+00  0.00000000000E+00  0.87549783360E+03  0.87549783361E+03  0.25500000920E-02 0.  1.
       -2   -1    0    0    0  501  0.00000000000E+00  0.00000000000E+00 -0.18270729808E+03  0.18270729810E+03  0.25500000920E-02 0. -1.
    10030    2    1    2    0    0  0.00000000000E+00  0.00000000000E+00  0.69279053552E+03  0.10582051317E+04  0.79989960287E+03 0.  0.
        2    1    3    3  502    0 -0.33664486078E+03  0.88461963052E+02  0.60699608758E+03  0.69971389263E+03  0.25500000920E-02 0.  1.
       -2    1    3    3    0  502  0.33664486078E+03 -0.88461963052E+02  0.85794447941E+02  0.35849123908E+03  0.25500000920E-02 0. -1.
</event>
<event>
 5   0  0.6970013E-04  0.8000225E+03  0.7818609E-02  0.9559985E-01
       -2   -1    0    0    0  501  0.00000000000E+00  0.00000000000E+00  0.16929900543E+03  0.16929900545E+03  0.25500000920E-02 0. -1.
        2   -1    0    0  501    0  0.00000000000E+00  0.00000000000E+00 -0.94512654529E+03  0.94512654529E+03  0.25500000920E-02 0.  1.
    10030    2    1    2    0    0  0.00000000000E+00  0.00000000000E+00 -0.77582753986E+03  0.11144255507E+04  0.80002246003E+03 0.  0.
        3    1    3    3  502    0 -0.16619822656E+03  0.24789471190E+03 -0.16908401543E+02  0.29893066578E+03  0.10100000352E+00 0. -1.
       -3    1    3    3    0  502  0.16619822656E+03 -0.24789471190E+03 -0.75891913831E+03  0.81549488496E+03  0.10100000352E+00 0.  1.
</event>
<event>
 5   0  0.7133039E-04  0.7997885E+03  0.7818609E-02  0.9560323E-01
       -2   -1    0    0    0  501  0.00000000000E+00  0.00000000000E+00  0.71752060174E+03  0.71752060175E+03  0.25500000920E-02 0.  1.
        2   -1    0    0  501    0  0.00000000000E+00  0.00000000000E+00 -0.22287223396E+03  0.22287223398E+03  0.25500000920E-02 0. -1.
    10030    2    1    2    0    0  0.00000000000E+00  0.00000000000E+00  0.49464836778E+03  0.94039283573E+03  0.79978852063E+03 0.  0.
        2    1    3    3  502    0  0.28046633467E+03 -0.16573613533E+03  0.52001286148E+03  0.61363116573E+03  0.25500000920E-02 0.  1.
       -2    1    3    3    0  502 -0.28046633467E+03  0.16573613533E+03 -0.25364493703E+02  0.32676167000E+03  0.25500000920E-02 0. -1.
</event>
<event>
 5   0  0.6970013E-04  0.7974890E+03  0.7818609E-02  0.9563659E-01
       -2   -1    0    0    0  501  0.00000000000E+00  0.00000000000E+00  0.87046570921E+02  0.87046570958E+02  0.25500000920E-02 0.  1.
        2   -1    0    0  501    0  0.00000000000E+00  0.00000000000E+00 -0.18265757966E+04  0.18265757966E+04  0.25500000920E-02 0. -1.
    10030    2    1    2    0    0  0.00000000000E+00  0.00000000000E+00 -0.17395292256E+04  0.19136223675E+04  0.79748895830E+03 0.  0.
        3    1    3    3  502    0  0.16753728625E+01  0.45072879058E+02 -0.18204348517E+04  0.18209935285E+04  0.10100000352E+00 0. -1.
       -3    1    3    3    0  502 -0.16753728625E+01 -0.45072879058E+02  0.80905626034E+02  0.92628839061E+02  0.10100000352E+00 0.  1.
</event>
<event>
 5   0  0.6672462E-04  0.7999850E+03  0.7818609E-02  0.9560039E-01
        2   -1    0    0  501    0  0.00000000000E+00  0.00000000000E+00  0.79145372207E+03  0.79145372208E+03  0.25500000920E-02 0. -1.
       -2   -1    0    0    0  501  0.00000000000E+00  0.00000000000E+00 -0.20215204890E+03  0.20215204891E+03  0.25500000920E-02 0.  1.
    10030    2    1    2    0    0  0.00000000000E+00  0.00000000000E+00  0.58930167318E+03  0.99360577099E+03  0.79998497869E+03 0.  0.
        5    1    3    3  502    0  0.55542289324E+02  0.11134585784E+03 -0.17746628337E+03  0.21679302962E+03  0.46999998093E+01 0.  1.
       -5    1    3    3    0  502 -0.55542289324E+02 -0.11134585784E+03  0.76676795655E+03  0.77681274137E+03  0.46999998093E+01 0. -1.
</event>
<event>
 5   0  0.6801147E-04  0.7974825E+03  0.7818609E-02  0.9563668E-01
        2   -1    0    0  501    0  0.00000000000E+00  0.00000000000E+00  0.74801113744E+03  0.74801113744E+03  0.25500000920E-02 0.  1.
       -2   -1    0    0    0  501  0.00000000000E+00  0.00000000000E+00 -0.21255646577E+03  0.21255646578E+03  0.25500000920E-02 0. -1.
    10030    2    1    2    0    0  0.00000000000E+00  0.00000000000E+00  0.53545467167E+03  0.96056760322E+03  0.79748254836E+03 0.  0.
        4    1    3    3  502    0 -0.59131770160E+02 -0.37487214257E+03  0.41508695761E+03  0.56242731512E+03  0.12699999809E+01 0.  1.
       -4    1    3    3    0  502  0.59131770160E+02  0.37487214257E+03  0.12036771406E+03  0.39814028810E+03  0.12699999809E+01 0. -1.
</event>
<event>
 5   0  0.6801147E-04  0.7966886E+03  0.7818609E-02  0.9564823E-01
       -2   -1    0    0    0  501  0.00000000000E+00  0.00000000000E+00  0.19500384727E+03  0.19500384728E+03  0.25500000920E-02 0.  1.
        2   -1    0    0  501    0  0.00000000000E+00  0.00000000000E+00 -0.81371825652E+03  0.81371825652E+03  0.25500000920E-02 0. -1.
    10030    2    1    2    0    0  0.00000000000E+00  0.00000000000E+00 -0.61871440925E+03  0.10087221038E+04  0.79668862329E+03 0.  0.
        4    1    3    3  502    0  0.11116397977E+01 -0.97778804313E+02 -0.79828313963E+03  0.80425090254E+03  0.12699999809E+01 0. -1.
       -4    1    3    3    0  502 -0.11116397977E+01  0.97778804313E+02  0.17956873038E+03  0.20447120126E+03  0.12699999809E+01 0.  1.
</event>
<event>
 5   0  0.4087283E-04  0.8029138E+03  0.7818609E-02  0.9555809E-01
       -1   -1    0    0    0  501  0.00000000000E+00  0.00000000000E+00  0.13143451728E+03  0.13143451737E+03  0.50400001928E-02 0. -1.
        1   -1    0    0  501    0  0.00000000000E+00  0.00000000000E+00 -0.12262200880E+04  0.12262200881E+04  0.50400001928E-02 0.  1.
    10030    2    1    2    0    0  0.00000000000E+00  0.00000000000E+00 -0.10947855708E+04  0.13576546054E+04  0.80291380713E+03 0.  0.
        1    1    3    3  502    0 -0.11077119130E+02  0.21493036020E+03 -0.11204337242E+04  0.11409160761E+04  0.50400001928E-02 0.  1.
       -1    1    3    3    0  502  0.11077119130E+02 -0.21493036020E+03  0.25648153437E+02  0.21673852935E+03  0.50400001928E-02 0. -1.
</event>
<event>
 5   0  0.7133039E-04  0.8006464E+03  0.7818609E-02  0.9559082E-01
       -2   -1    0    0    0  501  0.00000000000E+00  0.00000000000E+00  0.14019798847E+03  0.14019798849E+03  0.25500000920E-02 0.  1.
        2   -1    0    0  501    0  0.00000000000E+00  0.00000000000E+00 -0.11430880786E+04  0.11430880786E+04  0.25500000920E-02 0. -1.
    10030    2    1    2    0    0  0.00000000000E+00  0.00000000000E+00 -0.10028900902E+04  0.12832860671E+04  0.80064636208E+03 0.  0.
        2    1    3    3  502    0  0.20101882536E+03  0.27689446711E+03 -0.16838562156E+03  0.38135656756E+03  0.25500000920E-02 0. -1.
       -2    1    3    3    0  502 -0.20101882536E+03 -0.27689446711E+03 -0.83450446859E+03  0.90192949956E+03  0.25500000920E-02 0.  1.
</event>
<event>
 5   0  0.4392552E-04  0.8001921E+03  0.7818609E-02  0.9559739E-01
        1   -1    0    0  501    0  0.00000000000E+00  0.00000000000E+00  0.73201941475E+03  0.73201941477E+03  0.50400001928E-02 0. -1.
       -1   -1    0    0    0  501  0.00000000000E+00  0.00000000000E+00 -0.21867840264E+03  0.21867840270E+03  0.50400001928E-02 0.  1.
    10030    2    1    2    0    0  0.00000000000E+00  0.00000000000E+00  0.51334101211E+03  0.95069781747E+03  0.80019206783E+03 0.  0.
        5    1    3    3  502    0 -0.37607481261E+03  0.94377614457E+02  0.37377604198E+03  0.53858148719E+03  0.46999998093E+01 0.  1.
       -5    1    3    3    0  502  0.37607481261E+03 -0.94377614457E+02  0.13956497013E+03  0.41211633027E+03  0.46999998093E+01 0. -1.
</event>
<event>
 5   0  0.4169155E-04  0.7957197E+03  0.7818609E-02  0.9566233E-01
       -1   -1    0    0    0  501  0.00000000000E+00  0.00000000000E+00  0.26108287191E+03  0.26108287196E+03  0.50400001928E-02 0.  1.
        1   -1    0    0  501    0  0.00000000000E+00  0.00000000000E+00 -0.60629204544E+03  0.60629204546E+03  0.50400001928E-02 0. -1.
    10030    2    1    2    0    0  0.00000000000E+00  0.00000000000E+00 -0.34520917353E+03  0.86737491742E+03  0.79571972068E+03 0.  0.
        4    1    3    3  502    0  0.60749343047E+02 -0.31241226866E+03 -0.43284824488E+03  0.53726262134E+03  0.12699999809E+01 0. -1.
       -4    1    3    3    0  502 -0.60749343047E+02  0.31241226866E+03  0.87639071354E+02  0.33011229608E+03  0.12699999809E+01 0.  1.
</event>
<event>
 5   0  0.4392552E-04  0.8003028E+03  0.7818609E-02  0.9559579E-01
        1   -1    0    0  501    0  0.00000000000E+00  0.00000000000E+00  0.10413066681E+04  0.10413066682E+04  0.50400001928E-02 0.  1.
       -1   -1    0    0    0  501  0.00000000000E+00  0.00000000000E+00 -0.15376944841E+03  0.15376944850E+03  0.50400001928E-02 0. -1.
    10030    2    1    2    0    0  0.00000000000E+00  0.00000000000E+00  0.88753721974E+03  0.11950761167E+04  0.80030282281E+03 0.  0.
        5    1    3    3  502    0 -0.10930367626E+03  0.34917022590E+03  0.20191294029E+03  0.41792112384E+03  0.46999998093E+01 0. -1.
       -5    1    3    3    0  502  0.10930367626E+03 -0.34917022590E+03  0.68562427944E+03  0.77715499281E+03  0.46999998093E+01 0.  1.
</event>
<event>
 5   0  0.6593118E-04  0.8005579E+03  0.7818609E-02  0.9559210E-01
        2   -1    0    0  501    0  0.00000000000E+00  0.00000000000E+00  0.11232072815E+04  0.11232072815E+04  0.25500000920E-02 0.  1.
       -2   -1    0    0    0  501  0.00000000000E+00  0.00000000000E+00 -0.14264795992E+03  0.14264795995E+03  0.25500000920E-02 0. -1.
    10030    2    1    2    0    0  0.00000000000E+00  0.00000000000E+00  0.98055932155E+03  0.12658552414E+04  0.80055787371E+03 0.  0.
        1    1    3    3  502    0 -0.31188254692E+02 -0.35134316495E+00  0.11212828760E+04  0.11217165947E+04  0.50400001928E-02 0.  1.
       -1    1    3    3    0  502  0.31188254692E+02  0.35134316495E+00 -0.14072355448E+03  0.14413864674E+03  0.50400001928E-02 0. -1.
</event>
<event>
 5   0  0.6970013E-04  0.8007531E+03  0.7818609E-02  0.9558928E-01
       -2   -1    0    0    0  501  0.00000000000E+00  0.00000000000E+00  0.14634331910E+03  0.14634331913E+03  0.25500000920E-02 0. -1.
        2   -1    0    0  501    0  0.00000000000E+00  0.00000000000E+00 -0.10953789478E+04  0.10953789478E+04  0.25500000920E-02 0.  1.
    10030    2    1    2    0    0  0.00000000000E+00  0.00000000000E+00 -0.94903562867E+03  0.12417222669E+04  0.80075312278E+03 0.  0.
        3    1    3    3  502    0  0.17564240271E+03  0.35977942747E+03 -0.46964097686E+03  0.61713381645E+03  0.10100000352E+00 0. -1.
       -3    1    3    3    0  502 -0.17564240271E+03 -0.35977942747E+03 -0.47939465181E+03  0.62458845046E+03  0.10100000352E+00 0.  1.
</event>
<event>
 5   0  0.6672462E-04  0.8001513E+03  0.7818609E-02  0.9559798E-01
        2   -1    0    0  501    0  0.00000000000E+00  0.00000000000E+00  0.11900143999E+04  0.11900143999E+04  0.25500000920E-02 0.  1.
       -2   -1    0    0    0  501  0.00000000000E+00  0.00000000000E+00 -0.13450300935E+03  0.13450300937E+03  0.25500000920E-02 0. -1.
    10030    2    1    2    0    0  0.00000000000E+00  0.00000000000E+00  0.10555113905E+04  0.13245174093E+04  0.80015128063E+03 0.  0.
        5    1    3    3  502    0 -0.23428556925E+03 -0.18423772664E+03  0.96946983321E+03  0.10142618574E+04  0.46999998093E+01 0.  1.
       -5    1    3    3    0  502  0.23428556925E+03  0.18423772664E+03  0.86041557341E+02  0.31025555187E+03  0.46999998093E+01 0. -1.
</event>
<event>
 5   0  0.4392552E-04  0.7999468E+03  0.7818609E-02  0.9560094E-01
        1   -1    0    0  501    0  0.00000000000E+00  0.00000000000E+00  0.10201039091E+04  0.10201039091E+04  0.50400001928E-02 0. -1.
       -1   -1    0    0    0  501  0.00000000000E+00  0.00000000000E+00 -0.15682591798E+03  0.15682591806E+03  0.50400001928E-02 0.  1.
    10030    2    1    2    0    0  0.00000000000E+00  0.00000000000E+00  0.86327799108E+03  0.11769298271E+04  0.79994682829E+03 0.  0.
        5    1    3    3  502    0 -0.14049557398E+03 -0.39565438771E+02  0.97947787389E+03  0.99030471356E+03  0.46999998093E+01 0. -1.
       -5    1    3    3    0  502  0.14049557398E+03  0.39565438771E+02 -0.11619988281E+03  0.18662511357E+03  0.46999998093E+01 0.  1.
</event>
<event>
 5   0  0.6970013E-04  0.8002337E+03  0.7818609E-02  0.9559679E-01
       -2   -1    0    0    0  501  0.00000000000E+00  0.00000000000E+00  0.23329576460E+03  0.23329576461E+03  0.25500000920E-02 0. -1.
        2   -1    0    0  501    0  0.00000000000E+00  0.00000000000E+00 -0.68622550229E+03  0.68622550229E+03  0.25500000920E-02 0.  1.
    10030    2    1    2    0    0  0.00000000000E+00  0.00000000000E+00 -0.45292973769E+03  0.91952126691E+03  0.80023372399E+03 0.  0.
        3    1    3    3  502    0 -0.89503184339E+02 -0.12596260315E+03  0.19762621550E+03  0.25086555892E+03  0.10100000352E+00 0. -1.
       -3    1    3    3    0  502  0.89503184339E+02  0.12596260315E+03 -0.65055595319E+03  0.66865570799E+03  0.10100000352E+00 0.  1.
</event>
<event>
 5   0  0.6801147E-04  0.8002006E+03  0.7818609E-02  0.9559727E-01
       -2   -1    0    0    0  501  0.00000000000E+00  0.00000000000E+00  0.62038365281E+03  0.62038365282E+03  0.25500000920E-02 0.  1.
        2   -1    0    0  501    0  0.00000000000E+00  0.00000000000E+00 -0.25803429911E+03  0.25803429912E+03  0.25500000920E-02 0. -1.
    10030    2    1    2    0    0  0.00000000000E+00  0.00000000000E+00  0.36234935371E+03  0.87841795194E+03  0.80020062744E+03 0.  0.
        4    1    3    3  502    0 -0.39512343525E+03 -0.53265808282E+02  0.21789383014E+03  0.45435570815E+03  0.12699999809E+01 0.  1.
       -4    1    3    3    0  502  0.39512343525E+03  0.53265808282E+02  0.14445552357E+03  0.42406224379E+03  0.12699999809E+01 0. -1.
</event>
<event>
 5   0  0.6672462E-04  0.8007767E+03  0.7818609E-02  0.9558894E-01
        2   -1    0    0  501    0  0.00000000000E+00  0.00000000000E+00  0.74082759675E+03  0.74082759675E+03  0.25500000920E-02 0. -1.
       -2   -1    0    0    0  501  0.00000000000E+00  0.00000000000E+00 -0.21639425247E+03  0.21639425249E+03  0.25500000920E-02 0.  1.
    10030    2    1    2    0    0  0.00000000000E+00  0.00000000000E+00  0.52443334428E+03  0.95722184924E+03  0.80077670800E+03 0.  0.
        5    1    3    3  502    0 -0.36894477684E+01  0.13333003630E+02  0.74050882980E+03  0.74065295384E+03  0.46999998093E+01 0. -1.
       -5    1    3    3    0  502  0.36894477684E+01 -0.13333003630E+02 -0.21607548553E+03  0.21656889540E+03  0.46999998093E+01 0.  1.
</event>
<event>
 5   0  0.4392552E-04  0.7997685E+03  0.7818609E-02  0.9560352E-01
       -1   -1    0    0    0  501  0.00000000000E+00  0.00000000000E+00  0.10882590533E+03  0.10882590545E+03  0.50400001928E-02 0.  1.
        1   -1    0    0  501    0  0.00000000000E+00  0.00000000000E+00 -0.14693872689E+04  0.14693872690E+04  0.50400001928E-02 0. -1.
    10030    2    1    2    0    0  0.00000000000E+00  0.00000000000E+00 -0.13605613636E+04  0.15782131744E+04  0.79976846630E+03 0.  0.
        5    1    3    3  502    0  0.13789934595E+03 -0.36967845052E+03 -0.55228842504E+03  0.67876577759E+03  0.46999998093E+01 0.  1.
       -5    1    3    3    0  502 -0.13789934595E+03  0.36967845052E+03 -0.80827293858E+03  0.89944739682E+03  0.46999998093E+01 0. -1.
</event>
<event>
 5   0  0.6970013E-04  0.7982219E+03  0.7818609E-02  0.9562594E-01
        2   -1    0    0  501    0  0.00000000000E+00  0.00000000000E+00  0.14049237882E+04  0.14049237882E+04  0.25500000920E-02 0.  1.
       -2   -1    0    0    0  501  0.00000000000E+00  0.00000000000E+00 -0.11337949159E+03  0.11337949162E+03  0.25500000920E-02 0. -1.
    10030    2    1    2    0    0  0.00000000000E+00  0.00000000000E+00  0.12915442966E+04  0.15183032798E+04  0.79822188609E+03 0.  0.
        3    1    3    3  502    0 -0.96288814319E+02 -0.25483983936E+03  0.90974006796E+02  0.28721274275E+03  0.10100000352E+00 0. -1.
       -3    1    3    3    0  502  0.96288814319E+02  0.25483983936E+03  0.12005702898E+04  0.12310905371E+04  0.10100000352E+00 0.  1.
</event>
<event>
 5   0  0.6593118E-04  0.8001690E+03  0.7818609E-02  0.9559773E-01
       -2   -1    0    0    0  501  0.00000000000E+00  0.00000000000E+00  0.29216479759E+03  0.29216479760E+03  0.25500000920E-02 0.  1.
        2   -1    0    0  501    0  0.00000000000E+00  0.00000000000E+00 -0.54786752896E+03  0.54786752897E+03  0.25500000920E-02 0. -1.
    10030    2    1    2    0    0  0.00000000000E+00  0.00000000000E+00 -0.25570273138E+03  0.84003232657E+03  0.80016899643E+03 0.  0.
        1    1    3    3  502    0  0.26819471350E+03  0.70764819550E+02  0.17483802301E+03  0.32787863357E+03  0.50400001928E-02 0.  1.
       -1    1    3    3    0  502 -0.26819471350E+03 -0.70764819550E+02 -0.43054075439E+03  0.51215369300E+03  0.50400001928E-02 0. -1.
</event>
<event>
 5   0  0.6801147E-04  0.7995627E+03  0.7818609E-02  0.9560650E-01
        2   -1    0    0  501    0  0.00000000000E+00  0.00000000000E+00  0.14154025831E+04  0.14154025831E+04  0.25500000920E-02 0. -1.
       -2   -1    0    0    0  501  0.00000000000E+00  0.00000000000E+00 -0.11291849305E+03  0.11291849308E+03  0.25500000920E-02 0.  1.
    10030    2    1    2    0    0  0.00000000000E+00  0.00000000000E+00  0.13024840900E+04  0.15283210762E+04  0.79956269738E+03 0.  0.
        4    1    3    3  502    0 -0.97667620160E+02 -0.12802181653E+03  0.13506719542E+04  0.13602370713E+04  0.12699999809E+01 0. -1.
       -4    1    3    3    0  502  0.97667620160E+02  0.12802181653E+03 -0.48187864128E+02  0.16808400484E+03  0.12699999809E+01 0.  1.
</event>
<event>
 5   0  0.6593118E-04  0.7995706E+03  0.7818609E-02  0.9560639E-01
        2   -1    0    0  501    0  0.00000000000E+00  0.00000000000E+00  0.14312860727E+04  0.14312860727E+04  0.25500000920E-02 0. -1.
       -2   -1    0    0    0  501  0.00000000000E+00  0.00000000000E+00 -0.11166759038E+03  0.11166759040E+03  0.25500000920E-02 0.  1.
    10030    2    1    2    0    0  0.00000000000E+00  0.00000000000E+00  0.13196184823E+04  0.15429536631E+04  0.79957055199E+03 0.  0.
        1    1    3    3  502    0 -0.16894315845E+03 -0.40955424755E+02 -0.34917297909E+02  0.17730864424E+03  0.50400001928E-02 0.  1.
       -1    1    3    3    0  502  0.16894315845E+03  0.40955424755E+02  0.13545357802E+04  0.13656450189E+04  0.50400001928E-02 0. -1.
</event>
<event>
 5   0  0.6970013E-04  0.7999873E+03  0.7818609E-02  0.9560036E-01
        2   -1    0    0  501    0  0.00000000000E+00  0.00000000000E+00  0.20911130490E+04  0.20911130490E+04  0.25500000920E-02 0.  1.
       -2   -1    0    0    0  501  0.00000000000E+00  0.00000000000E+00 -0.76511842012E+02  0.76511842054E+02  0.25500000920E-02 0. -1.
    10030    2    1    2    0    0  0.00000000000E+00  0.00000000000E+00  0.20146012070E+04  0.21676248911E+04  0.79998727811E+03 0.  0.
        3    1    3    3  502    0 -0.26906363890E+03 -0.18644827843E+03  0.38447151673E+03  0.50495203702E+03  0.10100000352E+00 0. -1.
       -3    1    3    3    0  502  0.26906363890E+03  0.18644827843E+03  0.16301296903E+04  0.16626728541E+04  0.10100000352E+00 0.  1.
</event>
<event>
 5   0  0.7133039E-04  0.7995118E+03  0.7818609E-02  0.9560724E-01
       -2   -1    0    0    0  501  0.00000000000E+00  0.00000000000E+00  0.28662583066E+03  0.28662583067E+03  0.25500000920E-02 0.  1.
        2   -1    0    0  501    0  0.00000000000E+00  0.00000000000E+00 -0.55753801222E+03  0.55753801223E+03  0.25500000920E-02 0. -1.
    10030    2    1    2    0    0  0.00000000000E+00  0.00000000000E+00 -0.27091218156E+03  0.84416384290E+03  0.79951184078E+03 0.  0.
        2    1    3    3  502    0 -0.16091820583E+03  0.21621129074E+03  0.17626590253E+03  0.32204294684E+03  0.25500000920E-02 0.  1.
       -2    1    3    3    0  502  0.16091820583E+03 -0.21621129074E+03 -0.44717808409E+03  0.52212089606E+03  0.25500000920E-02 0. -1.
</event>
<event>
 5   0  0.6593118E-04  0.8001493E+03  0.7818609E-02  0.9559801E-01
       -2   -1    0    0    0  501  0.00000000000E+00  0.00000000000E+00  0.14321749797E+03  0.14321749799E+03  0.25500000920E-02 0. -1.
        2   -1    0    0  501    0  0.00000000000E+00  0.00000000000E+00 -0.11175988332E+04  0.11175988332E+04  0.25500000920E-02 0.  1.
    10030    2    1    2    0    0  0.00000000000E+00  0.00000000000E+00 -0.97438133521E+03  0.12608163312E+04  0.80014925766E+03 0.  0.
        1    1    3    3  502    0 -0.15233909512E+03 -0.52060270457E+01  0.95669251386E+02  0.17996363051E+03  0.50400001928E-02 0. -1.
       -1    1    3    3    0  502  0.15233909512E+03  0.52060270457E+01 -0.10700505866E+04  0.10808527007E+04  0.50400001928E-02 0.  1.
</event>
<event>
 5   0  0.7133039E-04  0.7987994E+03  0.7818609E-02  0.9561757E-01
       -2   -1    0    0    0  501  0.00000000000E+00  0.00000000000E+00  0.29192506975E+03  0.29192506976E+03  0.25500000920E-02 0. -1.
        2   -1    0    0  501    0  0.00000000000E+00  0.00000000000E+00 -0.54644202764E+03  0.54644202764E+03  0.25500000920E-02 0.  1.
    10030    2    1    2    0    0  0.00000000000E+00  0.00000000000E+00 -0.25451695789E+03  0.83836709740E+03  0.79879941672E+03 0.  0.
        2    1    3    3  502    0  0.19650937989E+03  0.34091203297E+03 -0.19908200891E+03  0.44098820493E+03  0.25500000920E-02 0.  1.
       -2    1    3    3    0  502 -0.19650937989E+03 -0.34091203297E+03 -0.55434948979E+02  0.39737889247E+03  0.25500000920E-02 0. -1.
</event>
<event>
 5   0  0.4087283E-04  0.7997243E+03  0.7818609E-02  0.9560416E-01
       -1   -1    0    0    0  501  0.00000000000E+00  0.00000000000E+00  0.15035068169E+03  0.15035068177E+03  0.50400001928E-02 0.  1.
        1   -1    0    0  501    0  0.00000000000E+00  0.00000000000E+00 -0.10634454364E+04  0.10634454365E+04  0.50400001928E-02 0. -1.
    10030    2    1    2    0    0  0.00000000000E+00  0.00000000000E+00 -0.91309475475E+03  0.12137961182E+04  0.79972431841E+03 0.  0.
        1    1    3    3  502    0  0.90575111838E+02  0.38839410288E+02 -0.10447239551E+04  0.10493619457E+04  0.50400001928E-02 0. -1.
       -1    1    3    3    0  502 -0.90575111838E+02 -0.38839410288E+02  0.13162920037E+03  0.16443417251E+03  0.50400001928E-02 0.  1.
</event>
<event>
 5   0  0.4104786E-04  0.8002025E+03  0.7818609E-02  0.9559724E-01
        1   -1    0    0  501    0  0.00000000000E+00  0.00000000000E+00  0.12907750498E+04  0.12907750499E+04  0.50400001928E-02 0.  1.
       -1   -1    0    0    0  501  0.00000000000E+00  0.00000000000E+00 -0.12401928846E+03  0.12401928857E+03  0.50400001928E-02 0. -1.
    10030    2    1    2    0    0  0.00000000000E+00  0.00000000000E+00  0.11667557614E+04  0.14147943384E+04  0.80020248270E+03 0.  0.
        2    1    3    3  502    0  0.10335089115E+03 -0.12670777820E+03 -0.62248631364E+02  0.17496045231E+03  0.25500000920E-02 0. -1.
       -2    1    3    3    0  502 -0.10335089115E+03  0.12670777820E+03  0.12290043927E+04  0.12398338861E+04  0.25500000920E-02 0.  1.
</event>
<event>
 5   0  0.4169155E-04  0.7999829E+03  0.7818609E-02  0.9560042E-01
        1   -1    0    0  501    0  0.00000000000E+00  0.00000000000E+00  0.68705240819E+03  0.68705240820E+03  0.50400001928E-02 0.  1.
       -1   -1    0    0    0  501  0.00000000000E+00  0.00000000000E+00 -0.23286891552E+03  0.23286891558E+03  0.50400001928E-02 0. -1.
    10030    2    1    2    0    0  0.00000000000E+00  0.00000000000E+00  0.45418349266E+03  0.91992132378E+03  0.79998287290E+03 0.  0.
        4    1    3    3  502    0 -0.31691245817E+03  0.41714437043E+02 -0.49412171048E+02  0.32344516683E+03  0.12699999809E+01 0. -1.
       -4    1    3    3    0  502  0.31691245817E+03 -0.41714437043E+02  0.50359566371E+03  0.59647615695E+03  0.12699999809E+01 0.  1.
</event>
<event>
 5   0  0.4392552E-04  0.7984599E+03  0.7818609E-02  0.9562249E-01
        1   -1    0    0  501    0  0.00000000000E+00  0.00000000000E+00  0.26865815489E+03  0.26865815494E+03  0.50400001928E-02 0.  1.
       -1   -1    0    0    0  501  0.00000000000E+00  0.00000000000E+00 -0.59326159934E+03  0.59326159936E+03  0.50400001928E-02 0. -1.
    10030    2    1    2    0    0  0.00000000000E+00  0.00000000000E+00 -0.32460344445E+03  0.86191975430E+03  0.79845993431E+03 0.  0.
        5    1    3    3  502    0 -0.56413841976E+02  0.92973081347E+02  0.25233011976E+03  0.27480737755E+03  0.46999998093E+01 0.  1.
       -5    1    3    3    0  502  0.56413841976E+02 -0.92973081347E+02 -0.57693356421E+03  0.58711237675E+03  0.46999998093E+01 0. -1.
</event>
<event>
 5   0  0.6970013E-04  0.8008647E+03  0.7818609E-02  0.9558766E-01
       -2   -1    0    0    0  501  0.00000000000E+00  0.00000000000E+00  0.26585053525E+03  0.26585053527E+03  0.25500000920E-02 0.  1.
        2   -1    0    0  501    0  0.00000000000E+00  0.00000000000E+00 -0.60314369721E+03  0.60314369721E+03  0.25500000920E-02 0. -1.
    10030    2    1    2    0    0  0.00000000000E+00  0.00000000000E+00 -0.33729316195E+03  0.86899423248E+03  0.80086471953E+03 0.  0.
        3    1    3    3  502    0  0.37451024191E+02  0.17479273482E+03  0.22015229222E+03  0.28358794285E+03  0.10100000352E+00 0.  1.
       -3    1    3    3    0  502 -0.37451024191E+02 -0.17479273482E+03 -0.55744545417E+03  0.58540628963E+03  0.10100000352E+00 0. -1.
</event>
<event>
 5   0  0.2736375E-04  0.8000548E+03  0.7818609E-02  0.9559938E-01
       -3   -1    0    0    0  501  0.00000000000E+00  0.00000000000E+00  0.28659553246E+03  0.28659555025E+03  0.10100000352E+00 0.  1.
        3   -1    0    0  501    0  0.00000000000E+00  0.00000000000E+00 -0.55835457599E+03  0.55835458513E+03  0.10100000352E+00 0. -1.
    10030    2    1    2    0    0  0.00000000000E+00  0.00000000000E+00 -0.27175904353E+03  0.84495013538E+03  0.80005484408E+03 0.  0.
        2    1    3    3  502    0 -0.26182807879E+03  0.29119095094E+03 -0.22217018620E+03  0.45022850242E+03  0.25500000920E-02 0. -1.
       -2    1    3    3    0  502  0.26182807879E+03 -0.29119095094E+03 -0.49588857334E+02  0.39472163296E+03  0.25500000920E-02 0.  1.
</event>
<event>
 5   0  0.6970013E-04  0.8001868E+03  0.7818609E-02  0.9559747E-01
       -2   -1    0    0    0  501  0.00000000000E+00  0.00000000000E+00  0.34586748408E+03  0.34586748409E+03  0.25500000920E-02 0.  1.
        2   -1    0    0  501    0  0.00000000000E+00  0.00000000000E+00 -0.46282095338E+03  0.46282095338E+03  0.25500000920E-02 0. -1.
    10030    2    1    2    0    0  0.00000000000E+00  0.00000000000E+00 -0.11695346930E+03  0.80868843747E+03  0.80018677502E+03 0.  0.
        3    1    3    3  502    0 -0.28794643513E+03 -0.77017753470E+02  0.21124801707E+03  0.36533630913E+03  0.10100000352E+00 0. -1.
       -3    1    3    3    0  502  0.28794643513E+03  0.77017753470E+02 -0.32820148636E+03  0.44335212834E+03  0.10100000352E+00 0.  1.
</event>
<event>
 5   0  0.4086111E-04  0.8002777E+03  0.7818609E-02  0.9559615E-01
        1   -1    0    0  501    0  0.00000000000E+00  0.00000000000E+00  0.85125158736E+03  0.85125158737E+03  0.50400001928E-02 0.  1.
       -1   -1    0    0    0  501  0.00000000000E+00  0.00000000000E+00 -0.18808903657E+03  0.18808903664E+03  0.50400001928E-02 0. -1.
    10030    2    1    2    0    0  0.00000000000E+00  0.00000000000E+00  0.66316255078E+03  0.10393406240E+04  0.80027767928E+03 0.  0.
        3    1    3    3  502    0 -0.35546784148E+03 -0.18074881378E+03  0.37433203513E+03  0.54694789764E+03  0.10100000352E+00 0.  1.
       -3    1    3    3    0  502  0.35546784148E+03  0.18074881378E+03  0.28883051566E+03  0.49239272637E+03  0.10100000352E+00 0. -1.
</event>
<event>
 5   0  0.4104786E-04  0.8002157E+03  0.7818609E-02  0.9559705E-01
        1   -1    0    0  501    0  0.00000000000E+00  0.00000000000E+00  0.92761803277E+03  0.92761803278E+03  0.50400001928E-02 0.  1.
       -1   -1    0    0    0  501  0.00000000000E+00  0.00000000000E+00 -0.17257780100E+03  0.17257780107E+03  0.50400001928E-02 0. -1.
    10030    2    1    2    0    0  0.00000000000E+00  0.00000000000E+00  0.75504023177E+03  0.11001958339E+04  0.80021567170E+03 0.  0.
        2    1    3    3  502    0  0.44009166343E+02  0.42596900526E+02  0.92113460238E+03  0.92316859693E+03  0.25500000920E-02 0.  1.
       -2    1    3    3    0  502 -0.44009166343E+02 -0.42596900526E+02 -0.16609437061E+03  0.17702723692E+03  0.25500000920E-02 0. -1.
</event>
<event>
 5   0  0.4392552E-04  0.7999397E+03  0.7818609E-02  0.9560104E-01
        1   -1    0    0  501    0  0.00000000000E+00  0.00000000000E+00  0.17594080869E+04  0.17594080869E+04  0.50400001928E-02 0.  1.
       -1   -1    0    0    0  501  0.00000000000E+00  0.00000000000E+00 -0.90925974877E+02  0.90925975016E+02  0.50400001928E-02 0. -1.
    10030    2    1    2    0    0  0.00000000000E+00  0.00000000000E+00  0.16684821121E+04  0.18503340620E+04  0.79993973685E+03 0.  0.
        5    1    3    3  502    0  0.39212776137E+01 -0.31237423170E+03  0.25661257012E+03  0.40430822177E+03  0.46999998093E+01 0. -1.
       -5    1    3    3    0  502 -0.39212776137E+01  0.31237423170E+03  0.14118695419E+04  0.14460258402E+04  0.46999998093E+01 0.  1.
</event>
<event>
 5   0  0.6801147E-04  0.7996857E+03  0.7818609E-02  0.9560472E-01
        2   -1    0    0  501    0  0.00000000000E+00  0.00000000000E+00  0.37335618672E+03  0.37335618673E+03  0.25500000920E-02 0. -1.
       -2   -1    0    0    0  501  0.00000000000E+00  0.00000000000E+00 -0.42820855144E+03  0.42820855145E+03  0.25500000920E-02 0.  1.
    10030    2    1    2    0    0  0.00000000000E+00  0.00000000000E+00 -0.54852364721E+02  0.80156473818E+03  0.79968571800E+03 0.  0.
        4    1    3    3  502    0  0.11096030281E+03 -0.37040783506E+03 -0.12944226947E+03  0.40776349407E+03  0.12699999809E+01 0.  1.
       -4    1    3    3    0  502 -0.11096030281E+03  0.37040783506E+03  0.74589904746E+02  0.39380124411E+03  0.12699999809E+01 0. -1.
</event>
<event>
 5   0  0.6801147E-04  0.8012513E+03  0.7818609E-02  0.9558208E-01
       -2   -1    0    0    0  501  0.00000000000E+00  0.00000000000E+00  0.78312518346E+03  0.78312518346E+03  0.25500000920E-02 0. -1.
        2   -1    0    0  501    0  0.00000000000E+00  0.00000000000E+00 -0.20494925777E+03  0.20494925779E+03  0.25500000920E-02 0.  1.
    10030    2    1    2    0    0  0.00000000000E+00  0.00000000000E+00  0.57817592569E+03  0.98807444125E+03  0.80125133411E+03 0.  0.
        4    1    3    3  502    0 -0.47647132784E+01  0.31934292575E+03 -0.91662614804E+01  0.31951250362E+03  0.12699999809E+01 0.  1.
       -4    1    3    3    0  502  0.47647132784E+01 -0.31934292575E+03  0.58734218717E+03  0.66856193763E+03  0.12699999809E+01 0. -1.
</event>
<event>
 5   0  0.6970013E-04  0.7994951E+03  0.7818609E-02  0.9560748E-01
       -2   -1    0    0    0  501  0.00000000000E+00  0.00000000000E+00  0.18835217050E+03  0.18835217051E+03  0.25500000920E-02 0. -1.
        2   -1    0    0  501    0  0.00000000000E+00  0.00000000000E+00 -0.84840066218E+03  0.84840066219E+03  0.25500000920E-02 0.  1.
    10030    2    1    2    0    0  0.00000000000E+00  0.00000000000E+00 -0.66004849169E+03  0.10367528327E+04  0.79949510614E+03 0.  0.
        3    1    3    3  502    0 -0.56415775863E+02 -0.38254474212E+03 -0.46147035218E+03  0.60206155468E+03  0.10100000352E+00 0.  1.
       -3    1    3    3    0  502  0.56415775863E+02  0.38254474212E+03 -0.19857813951E+03  0.43469127802E+03  0.10100000352E+00 0. -1.
</event>
<event>
 5   0  0.4169155E-04  0.7999829E+03  0.7818609E-02  0.9560042E-01
       -1   -1    0    0    0  501  0.00000000000E+00  0.00000000000E+00  0.32050932421E+03  0.32050932425E+03  0.50400001928E-02 0. -1.
        1   -1    0    0  501    0  0.00000000000E+00  0.00000000000E+00 -0.49918409402E+03  0.49918409405E+03  0.50400001928E-02 0.  1.
    10030    2    1    2    0    0  0.00000000000E+00  0.00000000000E+00 -0.17867476981E+03  0.81969341830E+03  0.79998289146E+03 0.  0.
        4    1    3    3  502    0  0.25049747737E+03 -0.27053940509E+03 -0.24824225533E+03  0.44448440479E+03  0.12699999809E+01 0.  1.
       -4    1    3    3    0  502 -0.25049747737E+03  0.27053940509E+03  0.69567485519E+02  0.37520901350E+03  0.12699999809E+01 0. -1.
</event>
<event>
 5   0  0.6801147E-04  0.7999552E+03  0.7818609E-02  0.9560082E-01
       -2   -1    0    0    0  501  0.00000000000E+00  0.00000000000E+00  0.13808643817E+03  0.13808643819E+03  0.25500000920E-02 0. -1.
        2   -1    0    0  501    0  0.00000000000E+00  0.00000000000E+00 -0.11585648921E+04  0.11585648921E+04  0.25500000920E-02 0.  1.
    10030    2    1    2    0    0  0.00000000000E+00  0.00000000000E+00 -0.10204784539E+04  0.12966513303E+04  0.79995524714E+03 0.  0.
        4    1    3    3  502    0 -0.11485938087E+03 -0.20442697472E+02 -0.11303701874E+04  0.11363753582E+04  0.12699999809E+01 0.  1.
       -4    1    3    3    0  502  0.11485938087E+03  0.20442697472E+02  0.10989173346E+03  0.16027597211E+03  0.12699999809E+01 0. -1.
</event>
<event>
 5   0  0.4169155E-04  0.7997797E+03  0.7818609E-02  0.9560336E-01
       -1   -1    0    0    0  501  0.00000000000E+00  0.00000000000E+00  0.24435928090E+03  0.24435928095E+03  0.50400001928E-02 0. -1.
        1   -1    0    0  501    0  0.00000000000E+00  0.00000000000E+00 -0.65441304980E+03  0.65441304982E+03  0.50400001928E-02 0.  1.
    10030    2    1    2    0    0  0.00000000000E+00  0.00000000000E+00 -0.41005376890E+03  0.89877233077E+03  0.79977972541E+03 0.  0.
        4    1    3    3  502    0 -0.36282237757E+03  0.11360944672E+03 -0.34431652180E+03  0.51293534109E+03  0.12699999809E+01 0.  1.
       -4    1    3    3    0  502  0.36282237757E+03 -0.11360944672E+03 -0.65737247099E+02  0.38583698968E+03  0.12699999809E+01 0. -1.
</event>
<event>
 5   0  0.6593118E-04  0.7999735E+03  0.7818609E-02  0.9560056E-01
       -2   -1    0    0    0  501  0.00000000000E+00  0.00000000000E+00  0.11920181586E+03  0.11920181589E+03  0.25500000920E-02 0.  1.
        2   -1    0    0  501    0  0.00000000000E+00  0.00000000000E+00 -0.13421724049E+04  0.13421724049E+04  0.25500000920E-02 0. -1.
    10030    2    1    2    0    0  0.00000000000E+00  0.00000000000E+00 -0.12229705890E+04  0.14613742208E+04  0.79997346926E+03 0.  0.
        1    1    3    3  502    0  0.36309297017E+03  0.15587069916E+03 -0.49803062164E+03  0.63574104788E+03  0.50400001928E-02 0.  1.
       -1    1    3    3    0  502 -0.36309297017E+03 -0.15587069916E+03 -0.72493996738E+03  0.82563317289E+03  0.50400001928E-02 0. -1.
</event>
<event>
 5   0  0.6672462E-04  0.7997516E+03  0.7818609E-02  0.9560377E-01
        2   -1    0    0  501    0  0.00000000000E+00  0.00000000000E+00  0.85966020534E+03  0.85966020535E+03  0.25500000920E-02 0. -1.
       -2   -1    0    0    0  501  0.00000000000E+00  0.00000000000E+00 -0.18600447526E+03  0.18600447527E+03  0.25500000920E-02 0.  1.
    10030    2    1    2    0    0  0.00000000000E+00  0.00000000000E+00  0.67365573009E+03  0.10456646806E+04  0.79975157494E+03 0.  0.
        5    1    3    3  502    0 -0.12356334753E+03  0.11483030333E+03  0.81082504687E+03  0.82819879621E+03  0.46999998093E+01 0. -1.
       -5    1    3    3    0  502  0.12356334753E+03 -0.11483030333E+03 -0.13716931678E+03  0.21746588441E+03  0.46999998093E+01 0.  1.
</event>
<event>
 5   0  0.4169155E-04  0.8008975E+03  0.7818609E-02  0.9558719E-01
       -1   -1    0    0    0  501  0.00000000000E+00  0.00000000000E+00  0.88440444652E+02  0.88440444796E+02  0.50400001928E-02 0. -1.
        1   -1    0    0  501    0  0.00000000000E+00  0.00000000000E+00 -0.18131883959E+04  0.18131883959E+04  0.50400001928E-02 0.  1.
    10030    2    1    2    0    0  0.00000000000E+00  0.00000000000E+00 -0.17247479513E+04  0.19016288407E+04  0.80089746689E+03 0.  0.
        4    1    3    3  502    0  0.27757517530E+03 -0.27345526702E+03 -0.64305837264E+03  0.75189856000E+03  0.12699999809E+01 0. -1.
       -4    1    3    3    0  502 -0.27757517530E+03  0.27345526702E+03 -0.10816895786E+04  0.11497302807E+04  0.12699999809E+01 0.  1.
</event>
<event>
 5   0  0.4169155E-04  0.8001241E+03  0.7818609E-02  0.9559838E-01
        1   -1    0    0  501    0  0.00000000000E+00  0.00000000000E+00  0.13426847346E+04  0.13426847346E+04  0.50400001928E-02 0.  1.
       -1   -1    0    0    0  501  0.00000000000E+00  0.00000000000E+00 -0.11920120442E+03  0.11920120453E+03  0.50400001928E-02 0. -1.
    10030    2    1    2    0    0  0.00000000000E+00  0.00000000000E+00  0.12234835302E+04  0.14618859391E+04  0.80012408439E+03 0.  0.
        4    1    3    3  502    0 -0.82883746742E+02 -0.10961544337E+03 -0.74719793597E+02  0.15642864621E+03  0.12699999809E+01 0. -1.
       -4    1    3    3    0  502  0.82883746742E+02  0.10961544337E+03  0.12982033238E+04  0.13054572929E+04  0.12699999809E+01 0.  1.
</event>
<event>
 5   0  0.4169155E-04  0.7999236E+03  0.7818609E-02  0.9560128E-01
       -1   -1    0    0    0  501  0.00000000000E+00  0.00000000000E+00  0.14770460294E+03  0.14770460302E+03  0.50400001928E-02 0.  1.
        1   -1    0    0  501    0  0.00000000000E+00  0.00000000000E+00 -0.10830363674E+04  0.10830363674E+04  0.50400001928E-02 0. -1.
    10030    2    1    2    0    0  0.00000000000E+00  0.00000000000E+00 -0.93533176444E+03  0.12307409704E+04  0.79992363803E+03 0.  0.
        4    1    3    3  502    0  0.13685333711E+03  0.13192081448E+03  0.73763002936E+02  0.20389833416E+03  0.12699999809E+01 0.  1.
       -4    1    3    3    0  502 -0.13685333711E+03 -0.13192081448E+03 -0.10090947674E+04  0.10268426362E+04  0.12699999809E+01 0. -1.
</event>
<event>
 5   0  0.6801147E-04  0.7998740E+03  0.7818609E-02  0.9560200E-01
       -2   -1    0    0    0  501  0.00000000000E+00  0.00000000000E+00  0.20046472886E+03  0.20046472887E+03  0.25500000920E-02 0. -1.
        2   -1    0    0  501    0  0.00000000000E+00  0.00000000000E+00 -0.79789391587E+03  0.79789391588E+03  0.25500000920E-02 0.  1.
    10030    2    1    2    0    0  0.00000000000E+00  0.00000000000E+00 -0.59742918702E+03  0.99835864475E+03  0.79987395885E+03 0.  0.
        4    1    3    3  502    0 -0.26034901330E+03 -0.23560125983E+03 -0.59739934607E+02  0.35617416392E+03  0.12699999809E+01 0. -1.
       -4    1    3    3    0  502  0.26034901330E+03  0.23560125983E+03 -0.53768925241E+03  0.64218448083E+03  0.12699999809E+01 0.  1.
</event>
<event>
 5   0  0.4087283E-04  0.8000823E+03  0.7818609E-02  0.9559898E-01
        1   -1    0    0  501    0  0.00000000000E+00  0.00000000000E+00  0.38193830130E+03  0.38193830133E+03  0.50400001928E-02 0.  1.
       -1   -1    0    0    0  501  0.00000000000E+00  0.00000000000E+00 -0.41900197727E+03  0.41900197730E+03  0.50400001928E-02 0. -1.
    10030    2    1    2    0    0  0.00000000000E+00  0.00000000000E+00 -0.37063675969E+02  0.80094027863E+03  0.80008225444E+03 0.  0.
        1    1    3    3  502    0  0.15294827726E+03  0.19780831945E+03  0.29407151388E+03  0.38600435498E+03  0.50400001928E-02 0.  1.
       -1    1    3    3    0  502 -0.15294827726E+03 -0.19780831945E+03 -0.33113518985E+03  0.41493592366E+03  0.50400001928E-02 0. -1.
</event>
<event>
 5   0  0.6593118E-04  0.7996880E+03  0.7818609E-02  0.9560469E-01
       -2   -1    0    0    0  501  0.00000000000E+00  0.00000000000E+00  0.13383126178E+03  0.13383126181E+03  0.25500000920E-02 0.  1.
        2   -1    0    0  501    0  0.00000000000E+00  0.00000000000E+00 -0.11946031048E+04  0.11946031048E+04  0.25500000920E-02 0. -1.
    10030    2    1    2    0    0  0.00000000000E+00  0.00000000000E+00 -0.10607718430E+04  0.13284343666E+04  0.79968804132E+03 0.  0.
        1    1    3    3  502    0 -0.29906992745E+03  0.17441074409E+03 -0.86267934733E+03  0.92955773650E+03  0.50400001928E-02 0. -1.
       -1    1    3    3    0  502  0.29906992745E+03 -0.17441074409E+03 -0.19809249567E+03  0.39887663008E+03  0.50400001928E-02 0.  1.
</event>
<event>
 5   0  0.4392552E-04  0.8001497E+03  0.7818609E-02  0.9559800E-01
       -1   -1    0    0    0  501  0.00000000000E+00  0.00000000000E+00  0.74301631622E+03  0.74301631624E+03  0.50400001928E-02 0.  1.
        1   -1    0    0  501    0  0.00000000000E+00  0.00000000000E+00 -0.21541908282E+03  0.21541908288E+03  0.50400001928E-02 0. -1.
    10030    2    1    2    0    0  0.00000000000E+00  0.00000000000E+00  0.52759723341E+03  0.95843539912E+03  0.80014971948E+03 0.  0.
        5    1    3    3  502    0 -0.90461626512E+02 -0.27783258108E+03  0.59109855156E+03  0.65938898735E+03  0.46999998093E+01 0.  1.
       -5    1    3    3    0  502  0.90461626512E+02  0.27783258108E+03 -0.63501318157E+02  0.29904641176E+03  0.46999998093E+01 0. -1.
</event>
<event>
 5   0  0.4392552E-04  0.8000469E+03  0.7818609E-02  0.9559949E-01
        1   -1    0    0  501    0  0.00000000000E+00  0.00000000000E+00  0.11231061871E+04  0.11231061871E+04  0.50400001928E-02 0. -1.
       -1   -1    0    0    0  501  0.00000000000E+00  0.00000000000E+00 -0.14247873810E+03  0.14247873819E+03  0.50400001928E-02 0.  1.
    10030    2    1    2    0    0  0.00000000000E+00  0.00000000000E+00  0.98062744903E+03  0.12655849253E+04  0.80004687952E+03 0.  0.
        5    1    3    3  502    0 -0.32947776321E+03 -0.11716936214E+03  0.79751143930E+03  0.87082193454E+03  0.46999998093E+01 0.  1.
       -5    1    3    3    0  502  0.32947776321E+03  0.11716936214E+03  0.18311600973E+03  0.39476299079E+03  0.46999998093E+01 0. -1.
</event>
<event>
 5   0  0.6970013E-04  0.7998881E+03  0.7818609E-02  0.9560179E-01
       -2   -1    0    0    0  501  0.00000000000E+00  0.00000000000E+00  0.96220624805E+02  0.96220624839E+02  0.25500000920E-02 0.  1.
        2   -1    0    0  501    0  0.00000000000E+00  0.00000000000E+00 -0.16623800678E+04  0.16623800678E+04  0.25500000920E-02 0. -1.
    10030    2    1    2    0    0  0.00000000000E+00  0.00000000000E+00 -0.15661594430E+04  0.17586006927E+04  0.79988811423E+03 0.  0.
        3    1    3    3  502    0  0.30614759399E+03 -0.20054989963E+03 -0.42851402996E+03  0.56353428965E+03  0.10100000352E+00 0.  1.
       -3    1    3    3    0  502 -0.30614759399E+03  0.20054989963E+03 -0.11376454131E+04  0.11950664030E+04  0.10100000352E+00 0. -1.
</event>
<event>
 5   0  0.4087283E-04  0.7992270E+03  0.7818609E-02  0.9561137E-01
        1   -1    0    0  501    0  0.00000000000E+00  0.00000000000E+00  0.22063691468E+04  0.22063691468E+04  0.50400001928E-02 0. -1.
       -1   -1    0    0    0  501  0.00000000000E+00  0.00000000000E+00 -0.72377260367E+02  0.72377260542E+02  0.50400001928E-02 0.  1.
    10030    2    1    2    0    0  0.00000000000E+00  0.00000000000E+00  0.21339918865E+04  0.22787464074E+04  0.79922701259E+03 0.  0.
        1    1    3    3  502    0 -0.31065769903E+03 -0.42480721427E+02  0.17733666703E+04  0.18008726121E+04  0.50400001928E-02 0. -1.
       -1    1    3    3    0  502  0.31065769903E+03  0.42480721427E+02  0.36062521618E+03  0.47787379530E+03  0.50400001928E-02 0.  1.
</event>
<event>
 5   0  0.4392552E-04  0.8001600E+03  0.7818609E-02  0.9559785E-01
       -1   -1    0    0    0  501  0.00000000000E+00  0.00000000000E+00  0.27518155185E+03  0.27518155190E+03  0.50400001928E-02 0. -1.
        1   -1    0    0  501    0  0.00000000000E+00  0.00000000000E+00 -0.58166698933E+03  0.58166698935E+03  0.50400001928E-02 0.  1.
    10030    2    1    2    0    0  0.00000000000E+00  0.00000000000E+00 -0.30648543748E+03  0.85684854125E+03  0.80016004603E+03 0.  0.
        5    1    3    3  502    0 -0.14111516088E+03 -0.31754901136E+03 -0.36550563966E+03  0.50434841713E+03  0.46999998093E+01 0.  1.
       -5    1    3    3    0  502  0.14111516088E+03  0.31754901136E+03  0.59020202181E+02  0.35250012412E+03  0.46999998093E+01 0. -1.
</event>
<event>
 5   0  0.2736375E-04  0.8003110E+03  0.7818609E-02  0.9559567E-01
        3   -1    0    0  501    0  0.00000000000E+00  0.00000000000E+00  0.80418265773E+02  0.80418329198E+02  0.10100000352E+00 0. -1.
       -3   -1    0    0    0  501  0.00000000000E+00  0.00000000000E+00 -0.19911440687E+04  0.19911440713E+04  0.10100000352E+00 0.  1.
    10030    2    1    2    0    0  0.00000000000E+00  0.00000000000E+00 -0.19107258029E+04  0.20715624005E+04  0.80031099269E+03 0.  0.
        4    1    3    3  502    0 -0.34839907093E+02 -0.23680210044E+03 -0.17854183100E+04  0.18013909094E+04  0.12699999809E+01 0.  1.
       -4    1    3    3    0  502  0.34839907093E+02  0.23680210044E+03 -0.12530749293E+03  0.27017149106E+03  0.12699999809E+01 0. -1.
</event>
<event>
 5   0  0.6672462E-04  0.7999873E+03  0.7818609E-02  0.9560036E-01
       -2   -1    0    0    0  501  0.00000000000E+00  0.00000000000E+00  0.32094734676E+03  0.32094734677E+03  0.25500000920E-02 0. -1.
        2   -1    0    0  501    0  0.00000000000E+00  0.00000000000E+00 -0.49850828198E+03  0.49850828198E+03  0.25500000920E-02 0.  1.
    10030    2    1    2    0    0  0.00000000000E+00  0.00000000000E+00 -0.17756093521E+03  0.81945562875E+03  0.79998727601E+03 0.  0.
        5    1    3    3  502    0  0.58201889065E+02 -0.22491347720E+03 -0.42227893155E+03  0.48199078637E+03  0.46999998093E+01 0.  1.
       -5    1    3    3    0  502 -0.58201889065E+02  0.22491347720E+03  0.24471799634E+03  0.33746484238E+03  0.46999998093E+01 0. -1.
</event>
<event>
 5   0  0.4087283E-04  0.7997199E+03  0.7818609E-02  0.9560423E-01
       -1   -1    0    0    0  501  0.00000000000E+00  0.00000000000E+00  0.33926003146E+03  0.33926003150E+03  0.50400001928E-02 0. -1.
        1   -1    0    0  501    0  0.00000000000E+00  0.00000000000E+00 -0.47128444273E+03  0.47128444275E+03  0.50400001928E-02 0.  1.
    10030    2    1    2    0    0  0.00000000000E+00  0.00000000000E+00 -0.13202441127E+03  0.81054447425E+03  0.79971988819E+03 0.  0.
        1    1    3    3  502    0 -0.16334522677E+03  0.25179516322E+03  0.20177128435E+03  0.36165469517E+03  0.50400001928E-02 0. -1.
       -1    1    3    3    0  502  0.16334522677E+03 -0.25179516322E+03 -0.33379569562E+03  0.44888977908E+03  0.50400001928E-02 0.  1.
</event>
<event>
 5   0  0.4392552E-04  0.7998019E+03  0.7818609E-02  0.9560304E-01
       -1   -1    0    0    0  501  0.00000000000E+00  0.00000000000E+00  0.23819546909E+03  0.23819546914E+03  0.50400001928E-02 0.  1.
        1   -1    0    0  501    0  0.00000000000E+00  0.00000000000E+00 -0.67138466113E+03  0.67138466115E+03  0.50400001928E-02 0. -1.
    10030    2    1    2    0    0  0.00000000000E+00  0.00000000000E+00 -0.43318919204E+03  0.90958013029E+03  0.79980193631E+03 0.  0.
        5    1    3    3  502    0  0.33724514024E+03  0.19578158115E+03 -0.11593624683E+03  0.40685134320E+03  0.46999998093E+01 0.  1.
       -5    1    3    3    0  502 -0.33724514024E+03 -0.19578158115E+03 -0.31725294521E+03  0.50272878709E+03  0.46999998093E+01 0. -1.
</event>
<event>
 5   0  0.4087283E-04  0.8002642E+03  0.7818609E-02  0.9559635E-01
        1   -1    0    0  501    0  0.00000000000E+00  0.00000000000E+00  0.24506963563E+03  0.24506963568E+03  0.50400001928E-02 0.  1.
       -1   -1    0    0    0  501  0.00000000000E+00  0.00000000000E+00 -0.65330700637E+03  0.65330700639E+03  0.50400001928E-02 0. -1.
    10030    2    1    2    0    0  0.00000000000E+00  0.00000000000E+00 -0.40823737074E+03  0.89837664207E+03  0.80026423146E+03 0.  0.
        1    1    3    3  502    0 -0.33331289652E+03 -0.21658060462E+03 -0.15266165000E+03  0.42580538359E+03  0.50400001928E-02 0. -1.
       -1    1    3    3    0  502  0.33331289652E+03  0.21658060462E+03 -0.25557572074E+03  0.47257125848E+03  0.50400001928E-02 0.  1.
</event>
<event>
 5   0  0.6801147E-04  0.7999166E+03  0.7818609E-02  0.9560138E-01
       -2   -1    0    0    0  501  0.00000000000E+00  0.00000000000E+00  0.11650765752E+03  0.11650765755E+03  0.25500000920E-02 0.  1.
        2   -1    0    0  501    0  0.00000000000E+00  0.00000000000E+00 -0.13730139108E+04  0.13730139108E+04  0.25500000920E-02 0. -1.
    10030    2    1    2    0    0  0.00000000000E+00  0.00000000000E+00 -0.12565062533E+04  0.14895215684E+04  0.79991658194E+03 0.  0.
        4    1    3    3  502    0 -0.12613117576E+03  0.40764198567E+02  0.74411821440E+02  0.15201817474E+03  0.12699999809E+01 0.  1.
       -4    1    3    3    0  502  0.12613117576E+03 -0.40764198567E+02 -0.13309180748E+04  0.13375033936E+04  0.12699999809E+01 0. -1.
</event>
<event>
 5   0  0.4104786E-04  0.8005881E+03  0.7818609E-02  0.9559166E-01
       -1   -1    0    0    0  501  0.00000000000E+00  0.00000000000E+00  0.84094727617E+02  0.84094727768E+02  0.50400001928E-02 0. -1.
        1   -1    0    0  501    0  0.00000000000E+00  0.00000000000E+00 -0.19054148762E+04  0.19054148762E+04  0.50400001928E-02 0.  1.
    10030    2    1    2    0    0  0.00000000000E+00  0.00000000000E+00 -0.18213201486E+04  0.19895096040E+04  0.80058814673E+03 0.  0.
        2    1    3    3  502    0  0.22558608667E+03  0.31270148339E+03 -0.64342603897E+03  0.75011223683E+03  0.25500000920E-02 0.  1.
       -2    1    3    3    0  502 -0.22558608667E+03 -0.31270148339E+03 -0.11778941096E+04  0.12393973672E+04  0.25500000920E-02 0. -1.
</event>
<event>
 5   0  0.4392552E-04  0.7990602E+03  0.7818609E-02  0.9561378E-01
        1   -1    0    0  501    0  0.00000000000E+00  0.00000000000E+00  0.86346875656E+03  0.86346875657E+03  0.50400001928E-02 0.  1.
       -1   -1    0    0    0  501  0.00000000000E+00  0.00000000000E+00 -0.18486401510E+03  0.18486401517E+03  0.50400001928E-02 0. -1.
    10030    2    1    2    0    0  0.00000000000E+00  0.00000000000E+00  0.67860474145E+03  0.10483327717E+04  0.79906020122E+03 0.  0.
        5    1    3    3  502    0 -0.32191801449E+03 -0.22577073125E+03  0.43205858014E+03  0.58420915588E+03  0.46999998093E+01 0. -1.
       -5    1    3    3    0  502  0.32191801449E+03  0.22577073125E+03  0.24654616131E+03  0.46412361586E+03  0.46999998093E+01 0.  1.
</event>
<event>
 5   0  0.6593118E-04  0.8004934E+03  0.7818609E-02  0.9559303E-01
       -2   -1    0    0    0  501  0.00000000000E+00  0.00000000000E+00  0.14621545897E+03  0.14621545899E+03  0.25500000920E-02 0.  1.
        2   -1    0    0  501    0  0.00000000000E+00  0.00000000000E+00 -0.10956257320E+04  0.10956257321E+04  0.25500000920E-02 0. -1.
    10030    2    1    2    0    0  0.00000000000E+00  0.00000000000E+00 -0.94941027308E+03  0.12418411910E+04  0.80049339606E+03 0.  0.
        1    1    3    3  502    0  0.18646307620E+03  0.35261946709E+03 -0.42352364610E+03  0.58179141124E+03  0.50400001928E-02 0.  1.
       -1    1    3    3    0  502 -0.18646307620E+03 -0.35261946709E+03 -0.52588662697E+03  0.66004977980E+03  0.50400001928E-02 0. -1.
</event>
<event>
 5   0  0.6801147E-04  0.8006168E+03  0.7818609E-02  0.9559125E-01
        2   -1    0    0  501    0  0.00000000000E+00  0.00000000000E+00  0.95144036352E+03  0.95144036352E+03  0.25500000920E-02 0.  1.
       -2   -1    0    0    0  501  0.00000000000E+00  0.00000000000E+00 -0.16842550868E+03  0.16842550870E+03  0.25500000920E-02 0. -1.
    10030    2    1    2    0    0  0.00000000000E+00  0.00000000000E+00  0.78301485484E+03  0.11198658722E+04  0.80061683025E+03 0.  0.
        4    1    3    3  502    0  0.80771181259E+02  0.18101915712E+03 -0.94955945760E+02  0.21979573131E+03  0.12699999809E+01 0. -1.
       -4    1    3    3    0  502 -0.80771181259E+02 -0.18101915712E+03  0.87797080060E+03  0.90007014092E+03  0.12699999809E+01 0.  1.
</event>
<event>
 5   0  0.6801147E-04  0.8002886E+03  0.7818609E-02  0.9559600E-01
       -2   -1    0    0    0  501  0.00000000000E+00  0.00000000000E+00  0.15596223219E+03  0.15596223222E+03  0.25500000920E-02 0.  1.
        2   -1    0    0  501    0  0.00000000000E+00  0.00000000000E+00 -0.10266296232E+04  0.10266296232E+04  0.25500000920E-02 0. -1.
    10030    2    1    2    0    0  0.00000000000E+00  0.00000000000E+00 -0.87066739097E+03  0.11825918554E+04  0.80028856716E+03 0.  0.
        4    1    3    3  502    0 -0.16131413239E+03 -0.36211064704E+03 -0.51583094786E+03  0.65056095002E+03  0.12699999809E+01 0. -1.
       -4    1    3    3    0  502  0.16131413239E+03  0.36211064704E+03 -0.35483644310E+03  0.53203090537E+03  0.12699999809E+01 0.  1.
</event>
<event>
 5   0  0.6801147E-04  0.7995232E+03  0.7818609E-02  0.9560707E-01
       -2   -1    0    0    0  501  0.00000000000E+00  0.00000000000E+00  0.70822239253E+02  0.70822239299E+02  0.25500000920E-02 0. -1.
        2   -1    0    0  501    0  0.00000000000E+00  0.00000000000E+00 -0.22564853881E+04  0.22564853881E+04  0.25500000920E-02 0.  1.
    10030    2    1    2    0    0  0.00000000000E+00  0.00000000000E+00 -0.21856631489E+04  0.23273076274E+04  0.79952322815E+03 0.  0.
        4    1    3    3  502    0 -0.24256643923E+03  0.17931796154E+03 -0.18564249267E+04  0.18807733862E+04  0.12699999809E+01 0.  1.
       -4    1    3    3    0  502  0.24256643923E+03 -0.17931796154E+03 -0.32923822217E+03  0.44653424125E+03  0.12699999809E+01 0. -1.
</event>
<event>
 5   0  0.6970013E-04  0.7992412E+03  0.7818609E-02  0.9561116E-01
        2   -1    0    0  501    0  0.00000000000E+00  0.00000000000E+00  0.67511937576E+03  0.67511937577E+03  0.25500000920E-02 0.  1.
       -2   -1    0    0    0  501  0.00000000000E+00  0.00000000000E+00 -0.23654576584E+03  0.23654576585E+03  0.25500000920E-02 0. -1.
    10030    2    1    2    0    0  0.00000000000E+00  0.00000000000E+00  0.43857360992E+03  0.91166514162E+03  0.79924121460E+03 0.  0.
        3    1    3    3  502    0  0.15239737369E+03  0.37023851269E+02 -0.19997624622E+03  0.25413821894E+03  0.10100000352E+00 0. -1.
       -3    1    3    3    0  502 -0.15239737369E+03 -0.37023851269E+02  0.63854985614E+03  0.65752692268E+03  0.10100000352E+00 0.  1.
</event>
<event>
 5   0  0.4086111E-04  0.8006140E+03  0.7818609E-02  0.9559129E-01
       -1   -1    0    0    0  501  0.00000000000E+00  0.00000000000E+00  0.22893611154E+03  0.22893611159E+03  0.50400001928E-02 0.  1.
        1   -1    0    0  501    0  0.00000000000E+00  0.00000000000E+00 -0.69995811356E+03  0.69995811358E+03  0.50400001928E-02 0. -1.
    10030    2    1    2    0    0  0.00000000000E+00  0.00000000000E+00 -0.47102200202E+03  0.92889422518E+03  0.80061398637E+03 0.  0.
        3    1    3    3  502    0  0.22831700886E+03 -0.11690518801E+03 -0.59208077765E+03  0.64525586939E+03  0.10100000352E+00 0. -1.
       -3    1    3    3    0  502 -0.22831700886E+03  0.11690518801E+03  0.12105877563E+03  0.28363835579E+03  0.10100000352E+00 0.  1.
</event>
<event>
 5   0  0.4169155E-04  0.7995373E+03  0.7818609E-02  0.9560687E-01
       -1   -1    0    0    0  501  0.00000000000E+00  0.00000000000E+00  0.16827661926E+03  0.16827661933E+03  0.50400001928E-02 0. -1.
        1   -1    0    0  501    0  0.00000000000E+00  0.00000000000E+00 -0.94971574477E+03  0.94971574478E+03  0.50400001928E-02 0.  1.
    10030    2    1    2    0    0  0.00000000000E+00  0.00000000000E+00 -0.78143912551E+03  0.11179923641E+04  0.79953725326E+03 0.  0.
        4    1    3    3  502    0  0.24621800885E+03  0.18603844546E+03 -0.74606295900E+03  0.80736928525E+03  0.12699999809E+01 0.  1.
       -4    1    3    3    0  502 -0.24621800885E+03 -0.18603844546E+03 -0.35376166511E+02  0.31062307887E+03  0.12699999809E+01 0. -1.
</event>
<event>
 5   0  0.6970013E-04  0.7998841E+03  0.7818609E-02  0.9560185E-01
       -2   -1    0    0    0  501  0.00000000000E+00  0.00000000000E+00  0.16488418035E+03  0.16488418037E+03  0.25500000920E-02 0.  1.
        2   -1    0    0  501    0  0.00000000000E+00  0.00000000000E+00 -0.97009690973E+03  0.97009690973E+03  0.25500000920E-02 0. -1.
    10030    2    1    2    0    0  0.00000000000E+00  0.00000000000E+00 -0.80521272938E+03  0.11349810901E+04  0.79988407618E+03 0.  0.
        3    1    3    3  502    0 -0.17370038352E+03  0.26803746980E+03 -0.74414690171E+03  0.80979659791E+03  0.10100000352E+00 0. -1.
       -3    1    3    3    0  502  0.17370038352E+03 -0.26803746980E+03 -0.61065827668E+02  0.32518449219E+03  0.10100000352E+00 0.  1.
</event>
<event>
 5   0  0.7133039E-04  0.8000214E+03  0.7818609E-02  0.9559986E-01
       -2   -1    0    0    0  501  0.00000000000E+00  0.00000000000E+00  0.14231789949E+03  0.14231789951E+03  0.25500000920E-02 0. -1.
        2   -1    0    0  501    0  0.00000000000E+00  0.00000000000E+00 -0.11243038017E+04  0.11243038017E+04  0.25500000920E-02 0.  1.
    10030    2    1    2    0    0  0.00000000000E+00  0.00000000000E+00 -0.98198590222E+03  0.12666217012E+04  0.80002138837E+03 0.  0.
        2    1    3    3  502    0 -0.49870833268E+02  0.39333818831E+03 -0.57486742115E+03  0.69833701198E+03  0.25500000920E-02 0. -1.
       -2    1    3    3    0  502  0.49870833268E+02 -0.39333818831E+03 -0.40711848107E+03  0.56828468924E+03  0.25500000920E-02 0.  1.
</event>
<event>
 5   0  0.4087283E-04  0.7982108E+03  0.7818609E-02  0.9562610E-01
        1   -1    0    0  501    0  0.00000000000E+00  0.00000000000E+00  0.46287982638E+03  0.46287982641E+03  0.50400001928E-02 0.  1.
       -1   -1    0    0    0  501  0.00000000000E+00  0.00000000000E+00 -0.34411767476E+03  0.34411767480E+03  0.50400001928E-02 0. -1.
    10030    2    1    2    0    0  0.00000000000E+00  0.00000000000E+00  0.11876215162E+03  0.80699750121E+03  0.79821082322E+03 0.  0.
        1    1    3    3  502    0  0.81654075651E+02 -0.16394314087E+03 -0.29912124863E+03  0.35073959417E+03  0.50400001928E-02 0. -1.
       -1    1    3    3    0  502 -0.81654075651E+02  0.16394314087E+03  0.41788340025E+03  0.45625790704E+03  0.50400001928E-02 0.  1.
</event>
<event>
 5   0  0.6593118E-04  0.8000344E+03  0.7818609E-02  0.9559967E-01
        2   -1    0    0  501    0  0.00000000000E+00  0.00000000000E+00  0.81606791565E+03  0.81606791565E+03  0.25500000920E-02 0.  1.
       -2   -1    0    0    0  501  0.00000000000E+00  0.00000000000E+00 -0.19607897789E+03  0.19607897790E+03  0.25500000920E-02 0. -1.
    10030    2    1    2    0    0  0.00000000000E+00  0.00000000000E+00  0.61998893776E+03  0.10121468936E+04  0.80003440625E+03 0.  0.
        1    1    3    3  502    0  0.37921627682E+03 -0.90205737941E+02  0.19633189957E+03  0.43644962433E+03  0.50400001928E-02 0. -1.
       -1    1    3    3    0  502 -0.37921627682E+03  0.90205737941E+02  0.42365703819E+03  0.57569726923E+03  0.50400001928E-02 0.  1.
</event>
<event>
 5   0  0.4104786E-04  0.8002589E+03  0.7818609E-02  0.9559642E-01
        1   -1    0    0  501    0  0.00000000000E+00  0.00000000000E+00  0.16962240442E+03  0.16962240449E+03  0.50400001928E-02 0. -1.
       -1   -1    0    0    0  501  0.00000000000E+00  0.00000000000E+00 -0.94388235482E+03  0.94388235483E+03  0.50400001928E-02 0.  1.
    10030    2    1    2    0    0  0.00000000000E+00  0.00000000000E+00 -0.77425995040E+03  0.11135047593E+04  0.80025894450E+03 0.  0.
        2    1    3    3  502    0  0.23591036424E+03  0.31667895248E+03 -0.47692130518E+03  0.61918752430E+03  0.25500000920E-02 0.  1.
       -2    1    3    3    0  502 -0.23591036424E+03 -0.31667895248E+03 -0.29733864521E+03  0.49431723503E+03  0.25500000920E-02 0. -1.
</event>
<event>
 5   0  0.6672462E-04  0.8005277E+03  0.7818609E-02  0.9559254E-01
       -2   -1    0    0    0  501  0.00000000000E+00  0.00000000000E+00  0.87518077553E+02  0.87518077590E+02  0.25500000920E-02 0. -1.
        2   -1    0    0  501    0  0.00000000000E+00  0.00000000000E+00 -0.18306061594E+04  0.18306061594E+04  0.25500000920E-02 0.  1.
    10030    2    1    2    0    0  0.00000000000E+00  0.00000000000E+00 -0.17430880818E+04  0.19181242370E+04  0.80052765564E+03 0.  0.
        5    1    3    3  502    0  0.10462187149E+03 -0.15400912844E+03 -0.17204598729E+04  0.17305111418E+04  0.46999998093E+01 0.  1.
       -5    1    3    3    0  502 -0.10462187149E+03  0.15400912844E+03 -0.22628208905E+02  0.18761309515E+03  0.46999998093E+01 0. -1.
</event>
<event>
 5   0  0.2736375E-04  0.8000098E+03  0.7818609E-02  0.9560003E-01
        4   -1    0    0  501    0  0.00000000000E+00  0.00000000000E+00  0.87737453639E+03  0.87737545556E+03  0.12699999809E+01 0.  1.
       -4   -1    0    0    0  501  0.00000000000E+00  0.00000000000E+00 -0.18236348824E+03  0.18236791040E+03  0.12699999809E+01 0. -1.
    10030    2    1    2    0    0  0.00000000000E+00  0.00000000000E+00  0.69501104815E+03  0.10597433660E+04  0.80000977784E+03 0.  0.
        5    1    3    3  502    0 -0.12885295531E+03 -0.65526036388E+02 -0.14651577914E+03  0.20587789846E+03  0.46999998093E+01 0. -1.
       -5    1    3    3    0  502  0.12885295531E+03  0.65526036388E+02  0.84152682729E+03  0.85386546750E+03  0.46999998093E+01 0.  1.
</event>
<event>
 5   0  0.4087283E-04  0.8012090E+03  0.7818609E-02  0.9558269E-01
        1   -1    0    0  501    0  0.00000000000E+00  0.00000000000E+00  0.45329674353E+03  0.45329674356E+03  0.50400001928E-02 0.  1.
       -1   -1    0    0    0  501  0.00000000000E+00  0.00000000000E+00 -0.35403731498E+03  0.35403731502E+03  0.50400001928E-02 0. -1.
    10030    2    1    2    0    0  0.00000000000E+00  0.00000000000E+00  0.99259428551E+02  0.80733405858E+03  0.80120899145E+03 0.  0.
        1    1    3    3  502    0  0.71243280144E+02  0.39167925565E+03  0.46147391964E+01  0.39813256601E+03  0.50400001928E-02 0. -1.
       -1    1    3    3    0  502 -0.71243280144E+02 -0.39167925565E+03  0.94644689354E+02  0.40920149257E+03  0.50400001928E-02 0.  1.
</event>
<event>
 5   0  0.4392552E-04  0.7997843E+03  0.7818609E-02  0.9560329E-01
        1   -1    0    0  501    0  0.00000000000E+00  0.00000000000E+00  0.30010146885E+03  0.30010146889E+03  0.50400001928E-02 0. -1.
       -1   -1    0    0    0  501  0.00000000000E+00  0.00000000000E+00 -0.53286555187E+03  0.53286555189E+03  0.50400001928E-02 0.  1.
    10030    2    1    2    0    0  0.00000000000E+00  0.00000000000E+00 -0.23276408302E+03  0.83296702078E+03  0.79978430803E+03 0.  0.
        5    1    3    3  502    0  0.17073759243E+03  0.18713834661E+03  0.20584001987E+03  0.32644186316E+03  0.46999998093E+01 0. -1.
       -5    1    3    3    0  502 -0.17073759243E+03 -0.18713834661E+03 -0.43860410289E+03  0.50652515763E+03  0.46999998093E+01 0.  1.
</event>
<event>
 5   0  0.6593118E-04  0.8001797E+03  0.7818609E-02  0.9559757E-01
        2   -1    0    0  501    0  0.00000000000E+00  0.00000000000E+00  0.18362702375E+04  0.18362702375E+04  0.25500000920E-02 0.  1.
       -2   -1    0    0    0  501  0.00000000000E+00  0.00000000000E+00 -0.87172287434E+02  0.87172287471E+02  0.25500000920E-02 0. -1.
    10030    2    1    2    0    0  0.00000000000E+00  0.00000000000E+00  0.17490979501E+04  0.19234425250E+04  0.80017967230E+03 0.  0.
        1    1    3    3  502    0  0.15583458771E+03  0.11854341734E+03  0.17132347561E+04  0.17243869317E+04  0.50400001928E-02 0.  1.
       -1    1    3    3    0  502 -0.15583458771E+03 -0.11854341734E+03  0.35863193952E+02  0.19905559331E+03  0.50400001928E-02 0. -1.
</event>
<event>
 5   0  0.4086111E-04  0.8023549E+03  0.7818609E-02  0.9556615E-01
        1   -1    0    0  501    0  0.00000000000E+00  0.00000000000E+00  0.39387351427E+03  0.39387351430E+03  0.50400001928E-02 0.  1.
       -1   -1    0    0    0  501  0.00000000000E+00  0.00000000000E+00 -0.40861680267E+03  0.40861680270E+03  0.50400001928E-02 0. -1.
    10030    2    1    2    0    0  0.00000000000E+00  0.00000000000E+00 -0.14743288395E+02  0.80249031700E+03  0.80235487431E+03 0.  0.
        3    1    3    3  502    0 -0.17555029037E+03  0.42028058250E+01 -0.36813706330E+03  0.40787311214E+03  0.10100000352E+00 0. -1.
       -3    1    3    3    0  502  0.17555029037E+03 -0.42028058250E+01  0.35339377491E+03  0.39461720486E+03  0.10100000352E+00 0.  1.
</event>
<event>
 5   0  0.7133039E-04  0.7993273E+03  0.7818609E-02  0.9560991E-01
       -2   -1    0    0    0  501  0.00000000000E+00  0.00000000000E+00  0.38694108458E+03  0.38694108458E+03  0.25500000920E-02 0.  1.
        2   -1    0    0  501    0  0.00000000000E+00  0.00000000000E+00 -0.41280453108E+03  0.41280453109E+03  0.25500000920E-02 0. -1.
    10030    2    1    2    0    0  0.00000000000E+00  0.00000000000E+00 -0.25863446503E+02  0.79974561567E+03  0.79932729962E+03 0.  0.
        2    1    3    3  502    0 -0.17216355468E+03 -0.34194157555E+03 -0.12773802589E+03  0.40358559676E+03  0.25500000920E-02 0. -1.
       -2    1    3    3    0  502  0.17216355468E+03  0.34194157555E+03  0.10187457939E+03  0.39616001891E+03  0.25500000920E-02 0.  1.
</event>
<event>
 5   0  0.4169155E-04  0.7997487E+03  0.7818609E-02  0.9560381E-01
        1   -1    0    0  501    0  0.00000000000E+00  0.00000000000E+00  0.27995801030E+03  0.27995801034E+03  0.50400001928E-02 0.  1.
       -1   -1    0    0    0  501  0.00000000000E+00  0.00000000000E+00 -0.57115531900E+03  0.57115531902E+03  0.50400001928E-02 0. -1.
    10030    2    1    2    0    0  0.00000000000E+00  0.00000000000E+00 -0.29119730870E+03  0.85111332937E+03  0.79974872731E+03 0.  0.
        4    1    3    3  502    0 -0.14012527508E+03  0.62989575761E+02  0.24729406296E+03  0.29113355328E+03  0.12699999809E+01 0.  1.
       -4    1    3    3    0  502  0.14012527508E+03 -0.62989575761E+02 -0.53849137166E+03  0.55997977609E+03  0.12699999809E+01 0. -1.
</event>
<event>
 5   0  0.4392552E-04  0.7994218E+03  0.7818609E-02  0.9560854E-01
       -1   -1    0    0    0  501  0.00000000000E+00  0.00000000000E+00  0.11933265977E+03  0.11933265988E+03  0.50400001928E-02 0. -1.
        1   -1    0    0  501    0  0.00000000000E+00  0.00000000000E+00 -0.13388524324E+04  0.13388524324E+04  0.50400001928E-02 0.  1.
    10030    2    1    2    0    0  0.00000000000E+00  0.00000000000E+00 -0.12195197727E+04  0.14581850923E+04  0.79942184580E+03 0.  0.
        5    1    3    3  502    0 -0.11854915913E+03 -0.10570810234E+03  0.59242786679E+02  0.16958745178E+03  0.46999998093E+01 0. -1.
       -5    1    3    3    0  502  0.11854915913E+03  0.10570810234E+03 -0.12787625593E+04  0.12885976405E+04  0.46999998093E+01 0.  1.
</event>
<event>
 5   0  0.6672462E-04  0.8003309E+03  0.7818609E-02  0.9559538E-01
       -2   -1    0    0    0  501  0.00000000000E+00  0.00000000000E+00  0.16662322260E+03  0.16662322261E+03  0.25500000920E-02 0.  1.
        2   -1    0    0  501    0  0.00000000000E+00  0.00000000000E+00 -0.96104482521E+03  0.96104482522E+03  0.25500000920E-02 0. -1.
    10030    2    1    2    0    0  0.00000000000E+00  0.00000000000E+00 -0.79442160262E+03  0.11276680478E+04  0.80033089619E+03 0.  0.
        5    1    3    3  502    0  0.67618457423E+00  0.32635236011E+03 -0.70991094632E+02  0.33401818167E+03  0.46999998093E+01 0.  1.
       -5    1    3    3    0  502 -0.67618457423E+00 -0.32635236011E+03 -0.72343050799E+03  0.79364986616E+03  0.46999998093E+01 0. -1.
</event>
<event>
 5   0  0.4392552E-04  0.7996574E+03  0.7818609E-02  0.9560513E-01
       -1   -1    0    0    0  501  0.00000000000E+00  0.00000000000E+00  0.19607406717E+03  0.19607406723E+03  0.50400001928E-02 0.  1.
        1   -1    0    0  501    0  0.00000000000E+00  0.00000000000E+00 -0.81531938333E+03  0.81531938334E+03  0.50400001928E-02 0. -1.
    10030    2    1    2    0    0  0.00000000000E+00  0.00000000000E+00 -0.61924531616E+03  0.10113934506E+04  0.79965739557E+03 0.  0.
        5    1    3    3  502    0 -0.52695915958E+02  0.37718871236E+03 -0.46345232463E+03  0.59988193129E+03  0.46999998093E+01 0. -1.
       -5    1    3    3    0  502  0.52695915958E+02 -0.37718871236E+03 -0.15579299153E+03  0.41151151928E+03  0.46999998093E+01 0.  1.
</event>
<event>
 5   0  0.2736375E-04  0.8002012E+03  0.7818609E-02  0.9559726E-01
        4   -1    0    0  501    0  0.00000000000E+00  0.00000000000E+00  0.49576659238E+03  0.49576821905E+03  0.12699999809E+01 0. -1.
       -4   -1    0    0    0  501  0.00000000000E+00  0.00000000000E+00 -0.32289146301E+03  0.32289396059E+03  0.12699999809E+01 0.  1.
    10030    2    1    2    0    0  0.00000000000E+00  0.00000000000E+00  0.17287512937E+03  0.81866217964E+03  0.80020119596E+03 0.  0.
        3    1    3    3  502    0 -0.31337691107E+03 -0.16287483364E+03  0.27878345329E+03  0.44994835687E+03  0.10100000352E+00 0. -1.
       -3    1    3    3    0  502  0.31337691107E+03  0.16287483364E+03 -0.10590832392E+03  0.36871382277E+03  0.10100000352E+00 0.  1.
</event>
<event>
 5   0  0.6593118E-04  0.8002391E+03  0.7818609E-02  0.9559671E-01
        2   -1    0    0  501    0  0.00000000000E+00  0.00000000000E+00  0.70289519859E+03  0.70289519860E+03  0.25500000920E-02 0.  1.
       -2   -1    0    0    0  501  0.00000000000E+00  0.00000000000E+00 -0.22776604610E+03  0.22776604611E+03  0.25500000920E-02 0. -1.
    10030    2    1    2    0    0  0.00000000000E+00  0.00000000000E+00  0.47512915249E+03  0.93066124471E+03  0.80023911480E+03 0.  0.
        1    1    3    3  502    0 -0.64048083402E+02  0.12860130198E+03 -0.19673481746E+03  0.24360837483E+03  0.50400001928E-02 0. -1.
       -1    1    3    3    0  502  0.64048083402E+02 -0.12860130198E+03  0.67186396996E+03  0.68705286988E+03  0.50400001928E-02 0.  1.
</event>
<event>
 5   0  0.4169155E-04  0.8003479E+03  0.7818609E-02  0.9559514E-01
        1   -1    0    0  501    0  0.00000000000E+00  0.00000000000E+00  0.14211876080E+04  0.14211876080E+04  0.50400001928E-02 0. -1.
       -1   -1    0    0    0  501  0.00000000000E+00  0.00000000000E+00 -0.11267984454E+03  0.11267984465E+03  0.50400001928E-02 0.  1.
    10030    2    1    2    0    0  0.00000000000E+00  0.00000000000E+00  0.13085077635E+04  0.15338674527E+04  0.80034792141E+03 0.  0.
        4    1    3    3  502    0 -0.23512994885E+03 -0.23818722156E+03  0.10746554541E+04  0.11255688354E+04  0.12699999809E+01 0. -1.
       -4    1    3    3    0  502  0.23512994885E+03  0.23818722156E+03  0.23385230941E+03  0.40829861728E+03  0.12699999809E+01 0.  1.
</event>
<event>
 5   0  0.6593118E-04  0.8002085E+03  0.7818609E-02  0.9559715E-01
       -2   -1    0    0    0  501  0.00000000000E+00  0.00000000000E+00  0.12831786100E+03  0.12831786102E+03  0.25500000920E-02 0. -1.
        2   -1    0    0  501    0  0.00000000000E+00  0.00000000000E+00 -0.12475537146E+04  0.12475537146E+04  0.25500000920E-02 0.  1.
    10030    2    1    2    0    0  0.00000000000E+00  0.00000000000E+00 -0.11192358536E+04  0.13758715756E+04  0.80020853321E+03 0.  0.
        1    1    3    3  502    0  0.16330576974E+02  0.11749352829E+03  0.97387574258E+02  0.15347884734E+03  0.50400001928E-02 0. -1.
       -1    1    3    3    0  502 -0.16330576974E+02 -0.11749352829E+03 -0.12166234278E+04  0.12223927283E+04  0.50400001928E-02 0.  1.
</event>
<event>
 5   0  0.6593118E-04  0.8000341E+03  0.7818609E-02  0.9559968E-01
       -2   -1    0    0    0  501  0.00000000000E+00  0.00000000000E+00  0.10771327378E+03  0.10771327381E+03  0.25500000920E-02 0.  1.
        2   -1    0    0  501    0  0.00000000000E+00  0.00000000000E+00 -0.14855516514E+04  0.14855516514E+04  0.25500000920E-02 0. -1.
    10030    2    1    2    0    0  0.00000000000E+00  0.00000000000E+00 -0.13778383776E+04  0.15932649252E+04  0.80003407870E+03 0.  0.
        1    1    3    3  502    0  0.26123391698E+03  0.11913438491E+03 -0.12436053319E+04  0.12763190755E+04  0.50400001928E-02 0. -1.
       -1    1    3    3    0  502 -0.26123391698E+03 -0.11913438491E+03 -0.13423304577E+03  0.31694584971E+03  0.50400001928E-02 0.  1.
</event>
<event>
 5   0  0.4169155E-04  0.7997855E+03  0.7818609E-02  0.9560328E-01
        1   -1    0    0  501    0  0.00000000000E+00  0.00000000000E+00  0.59946609003E+03  0.59946609005E+03  0.50400001928E-02 0.  1.
       -1   -1    0    0    0  501  0.00000000000E+00  0.00000000000E+00 -0.26676105599E+03  0.26676105604E+03  0.50400001928E-02 0. -1.
    10030    2    1    2    0    0  0.00000000000E+00  0.00000000000E+00  0.33270503404E+03  0.86622714609E+03  0.79978548934E+03 0.  0.
        4    1    3    3  502    0 -0.12071763288E+03  0.60214707730E+02 -0.24137000634E+03  0.27651338264E+03  0.12699999809E+01 0. -1.
       -4    1    3    3    0  502  0.12071763288E+03 -0.60214707730E+02  0.57407504039E+03  0.58971376345E+03  0.12699999809E+01 0.  1.
</event>
<event>
 5   0  0.4086111E-04  0.7998694E+03  0.7818609E-02  0.9560206E-01
        1   -1    0    0  501    0  0.00000000000E+00  0.00000000000E+00  0.45162306904E+03  0.45162306907E+03  0.50400001928E-02 0. -1.
       -1   -1    0    0    0  501  0.00000000000E+00  0.00000000000E+00 -0.35416205754E+03  0.35416205758E+03  0.50400001928E-02 0.  1.
    10030    2    1    2    0    0  0.00000000000E+00  0.00000000000E+00  0.97461011503E+02  0.80578512665E+03  0.79986937782E+03 0.  0.
        3    1    3    3  502    0  0.25266109525E+03  0.26802305499E+03 -0.10822215639E+03  0.38390888554E+03  0.10100000352E+00 0.  1.
       -3    1    3    3    0  502 -0.25266109525E+03 -0.26802305499E+03  0.20568316789E+03  0.42187624111E+03  0.10100000352E+00 0. -1.
</event>
<event>
 5   0  0.2736375E-04  0.8003823E+03  0.7818609E-02  0.9559464E-01
       -3   -1    0    0    0  501  0.00000000000E+00  0.00000000000E+00  0.75550703934E+03  0.75550704609E+03  0.10100000352E+00 0. -1.
        3   -1    0    0  501    0  0.00000000000E+00  0.00000000000E+00 -0.21198072885E+03  0.21198075291E+03  0.10100000352E+00 0.  1.
    10030    2    1    2    0    0  0.00000000000E+00  0.00000000000E+00  0.54352631048E+03  0.96748779900E+03  0.80038227806E+03 0.  0.
        1    1    3    3  502    0 -0.86434969139E+02 -0.14327503361E+03 -0.16766565988E+03  0.23687657688E+03  0.50400001928E-02 0.  1.
       -1    1    3    3    0  502  0.86434969139E+02  0.14327503361E+03  0.71119197037E+03  0.73061122212E+03  0.50400001928E-02 0. -1.
</event>
<event>
 5   0  0.6801147E-04  0.8002863E+03  0.7818609E-02  0.9559603E-01
        2   -1    0    0  501    0  0.00000000000E+00  0.00000000000E+00  0.72299926774E+03  0.72299926775E+03  0.25500000920E-02 0. -1.
       -2   -1    0    0    0  501  0.00000000000E+00  0.00000000000E+00 -0.22145878591E+03  0.22145878593E+03  0.25500000920E-02 0.  1.
    10030    2    1    2    0    0  0.00000000000E+00  0.00000000000E+00  0.50154048183E+03  0.94445805367E+03  0.80028629891E+03 0.  0.
        4    1    3    3  502    0  0.16577335383E+03  0.34833979616E+03  0.12536569502E+03  0.40563479734E+03  0.12699999809E+01 0. -1.
       -4    1    3    3    0  502 -0.16577335383E+03 -0.34833979616E+03  0.37617478681E+03  0.53882325633E+03  0.12699999809E+01 0.  1.
</event>
<event>
 5   0  0.4169155E-04  0.8003586E+03  0.7818609E-02  0.9559498E-01
        1   -1    0    0  501    0  0.00000000000E+00  0.00000000000E+00  0.20178833661E+03  0.20178833667E+03  0.50400001928E-02 0.  1.
       -1   -1    0    0    0  501  0.00000000000E+00  0.00000000000E+00 -0.79362110528E+03  0.79362110530E+03  0.50400001928E-02 0. -1.
    10030    2    1    2    0    0  0.00000000000E+00  0.00000000000E+00 -0.59183276867E+03  0.99540944197E+03  0.80035862655E+03 0.  0.
        4    1    3    3  502    0  0.25789304162E+03  0.20097332530E+03 -0.58289362313E+03  0.66833052241E+03  0.12699999809E+01 0. -1.
       -4    1    3    3    0  502 -0.25789304162E+03 -0.20097332530E+03 -0.89391455415E+01  0.32707891956E+03  0.12699999809E+01 0.  1.
</event>
<event>
 5   0  0.4087283E-04  0.7999096E+03  0.7818609E-02  0.9560148E-01
       -1   -1    0    0    0  501  0.00000000000E+00  0.00000000000E+00  0.28477724623E+03  0.28477724627E+03  0.50400001928E-02 0. -1.
        1   -1    0    0  501    0  0.00000000000E+00  0.00000000000E+00 -0.56171568917E+03  0.56171568919E+03  0.50400001928E-02 0.  1.
    10030    2    1    2    0    0  0.00000000000E+00  0.00000000000E+00 -0.27693844294E+03  0.84649293546E+03  0.79990961278E+03 0.  0.
        1    1    3    3  502    0  0.28639094039E+03  0.25780883375E+03 -0.25184712637E+03  0.46033915821E+03  0.50400001928E-02 0. -1.
       -1    1    3    3    0  502 -0.28639094039E+03 -0.25780883375E+03 -0.25091316569E+02  0.38615377725E+03  0.50400001928E-02 0.  1.
</event>
<event>
 5   0  0.4392552E-04  0.7998347E+03  0.7818609E-02  0.9560256E-01
       -1   -1    0    0    0  501  0.00000000000E+00  0.00000000000E+00  0.28883605996E+03  0.28883606001E+03  0.50400001928E-02 0.  1.
        1   -1    0    0  501    0  0.00000000000E+00  0.00000000000E+00 -0.55371860394E+03  0.55371860396E+03  0.50400001928E-02 0. -1.
    10030    2    1    2    0    0  0.00000000000E+00  0.00000000000E+00 -0.26488254398E+03  0.84255466397E+03  0.79983473272E+03 0.  0.
        5    1    3    3  502    0  0.34942257433E+02  0.22764171467E+03  0.21192922077E+03  0.31301405116E+03  0.46999998093E+01 0.  1.
       -5    1    3    3    0  502 -0.34942257433E+02 -0.22764171467E+03 -0.47681176474E+03  0.52954061280E+03  0.46999998093E+01 0. -1.
</event>
<event>
 5   0  0.6801147E-04  0.7998581E+03  0.7818609E-02  0.9560222E-01
        2   -1    0    0  501    0  0.00000000000E+00  0.00000000000E+00  0.11370665753E+04  0.11370665753E+04  0.25500000920E-02 0.  1.
       -2   -1    0    0    0  501  0.00000000000E+00  0.00000000000E+00 -0.14066305154E+03  0.14066305156E+03  0.25500000920E-02 0. -1.
    10030    2    1    2    0    0  0.00000000000E+00  0.00000000000E+00  0.99640352375E+03  0.12777296269E+04  0.79985812317E+03 0.  0.
        4    1    3    3  502    0  0.27531109984E+03  0.21703188979E+03  0.80565334064E+03  0.87862276380E+03  0.12699999809E+01 0.  1.
       -4    1    3    3    0  502 -0.27531109984E+03 -0.21703188979E+03  0.19075018311E+03  0.39910686305E+03  0.12699999809E+01 0. -1.
</event>
<event>
 5   0  0.7133039E-04  0.7998032E+03  0.7818609E-02  0.9560302E-01
       -2   -1    0    0    0  501  0.00000000000E+00  0.00000000000E+00  0.12116764508E+04  0.12116764508E+04  0.25500000920E-02 0.  1.
        2   -1    0    0  501    0  0.00000000000E+00  0.00000000000E+00 -0.13198347705E+03  0.13198347708E+03  0.25500000920E-02 0. -1.
    10030    2    1    2    0    0  0.00000000000E+00  0.00000000000E+00  0.10796929738E+04  0.13436599279E+04  0.79980315344E+03 0.  0.
        2    1    3    3  502    0  0.11311505440E+03  0.38045167566E+03  0.62185294313E+03  0.73772594907E+03  0.25500000920E-02 0.  1.
       -2    1    3    3    0  502 -0.11311505440E+03 -0.38045167566E+03  0.45784003066E+03  0.60593397885E+03  0.25500000920E-02 0. -1.
</event>
<event>
 5   0  0.4392552E-04  0.8000297E+03  0.7818609E-02  0.9559974E-01
       -1   -1    0    0    0  501  0.00000000000E+00  0.00000000000E+00  0.47917086327E+03  0.47917086329E+03  0.50400001928E-02 0. -1.
        1   -1    0    0  501    0  0.00000000000E+00  0.00000000000E+00 -0.33393491219E+03  0.33393491223E+03  0.50400001928E-02 0.  1.
    10030    2    1    2    0    0  0.00000000000E+00  0.00000000000E+00  0.14523595107E+03  0.81310577553E+03  0.80002969989E+03 0.  0.
        5    1    3    3  502    0  0.69505003294E+02 -0.10907030126E+03 -0.31206876763E+03  0.33784061601E+03  0.46999998093E+01 0.  1.
       -5    1    3    3    0  502 -0.69505003294E+02  0.10907030126E+03  0.45730471870E+03  0.47526515951E+03  0.46999998093E+01 0. -1.
</event>
<event>
 5   0  0.4087283E-04  0.7996908E+03  0.7818609E-02  0.9560465E-01
       -1   -1    0    0    0  501  0.00000000000E+00  0.00000000000E+00  0.19517642005E+03  0.19517642011E+03  0.50400001928E-02 0.  1.
        1   -1    0    0  501    0  0.00000000000E+00  0.00000000000E+00 -0.81913768054E+03  0.81913768056E+03  0.50400001928E-02 0. -1.
    10030    2    1    2    0    0  0.00000000000E+00  0.00000000000E+00 -0.62396126050E+03  0.10143141007E+04  0.79969084040E+03 0.  0.
        1    1    3    3  502    0  0.11074952652E+03  0.35273800899E+03 -0.50511997062E+03  0.62596784690E+03  0.50400001928E-02 0. -1.
       -1    1    3    3    0  502 -0.11074952652E+03 -0.35273800899E+03 -0.11884128988E+03  0.38834625377E+03  0.50400001928E-02 0.  1.
</event>
<event>
 5   0  0.6970013E-04  0.7987184E+03  0.7818609E-02  0.9561874E-01
       -2   -1    0    0    0  501  0.00000000000E+00  0.00000000000E+00  0.17760691163E+03  0.17760691165E+03  0.25500000920E-02 0.  1.
        2   -1    0    0  501    0  0.00000000000E+00  0.00000000000E+00 -0.89798187665E+03  0.89798187665E+03  0.25500000920E-02 0. -1.
    10030    2    1    2    0    0  0.00000000000E+00  0.00000000000E+00 -0.72037496501E+03  0.10755887883E+04  0.79871844307E+03 0.  0.
        3    1    3    3  502    0  0.23192356267E+03 -0.25978847296E+03 -0.96956831326E+02  0.36149581871E+03  0.10100000352E+00 0.  1.
       -3    1    3    3    0  502 -0.23192356267E+03  0.25978847296E+03 -0.62341813369E+03  0.71409296959E+03  0.10100000352E+00 0. -1.
</event>
<event>
 5   0  0.6801147E-04  0.7992606E+03  0.7818609E-02  0.9561088E-01
        2   -1    0    0  501    0  0.00000000000E+00  0.00000000000E+00  0.17924336842E+03  0.17924336844E+03  0.25500000920E-02 0.  1.
       -2   -1    0    0    0  501  0.00000000000E+00  0.00000000000E+00 -0.89099186154E+03  0.89099186154E+03  0.25500000920E-02 0. -1.
    10030    2    1    2    0    0  0.00000000000E+00  0.00000000000E+00 -0.71174849312E+03  0.10702352300E+04  0.79926061459E+03 0.  0.
        4    1    3    3  502    0  0.38641128943E+03  0.77288252638E+02 -0.26689551011E+03  0.47594325798E+03  0.12699999809E+01 0.  1.
       -4    1    3    3    0  502 -0.38641128943E+03 -0.77288252638E+02 -0.44485298300E+03  0.59429197200E+03  0.12699999809E+01 0. -1.
</event>
<event>
 5   0  0.6801147E-04  0.7986780E+03  0.7818609E-02  0.9561933E-01
        2   -1    0    0  501    0  0.00000000000E+00  0.00000000000E+00  0.40378180342E+03  0.40378180343E+03  0.25500000920E-02 0. -1.
       -2   -1    0    0    0  501  0.00000000000E+00  0.00000000000E+00 -0.39494503406E+03  0.39494503407E+03  0.25500000920E-02 0.  1.
    10030    2    1    2    0    0  0.00000000000E+00  0.00000000000E+00  0.88367693591E+01  0.79872683750E+03  0.79867795290E+03 0.  0.
        4    1    3    3  502    0 -0.17403750760E+03  0.19758418181E+03  0.30467240573E+03  0.40268529979E+03  0.12699999809E+01 0. -1.
       -4    1    3    3    0  502  0.17403750760E+03 -0.19758418181E+03 -0.29583563637E+03  0.39604153772E+03  0.12699999809E+01 0.  1.
</event>
<event>
 5   0  0.4086111E-04  0.8003413E+03  0.7818609E-02  0.9559523E-01
       -1   -1    0    0    0  501  0.00000000000E+00  0.00000000000E+00  0.24037147555E+03  0.24037147561E+03  0.50400001928E-02 0.  1.
        1   -1    0    0  501    0  0.00000000000E+00  0.00000000000E+00 -0.66620451614E+03  0.66620451616E+03  0.50400001928E-02 0. -1.
    10030    2    1    2    0    0  0.00000000000E+00  0.00000000000E+00 -0.42583304059E+03  0.90657599177E+03  0.80034133368E+03 0.  0.
        3    1    3    3  502    0  0.18723474777E+02 -0.38437126816E+03 -0.88600477028E+02  0.39489478982E+03  0.10100000352E+00 0.  1.
       -3    1    3    3    0  502 -0.18723474777E+02  0.38437126816E+03 -0.33723256356E+03  0.51168120194E+03  0.10100000352E+00 0. -1.
</event>
<event>
 5   0  0.4086111E-04  0.8001853E+03  0.7818609E-02  0.9559749E-01
        1   -1    0    0  501    0  0.00000000000E+00  0.00000000000E+00  0.14818279283E+04  0.14818279283E+04  0.50400001928E-02 0.  1.
       -1   -1    0    0    0  501  0.00000000000E+00  0.00000000000E+00 -0.10802477684E+03  0.10802477695E+03  0.50400001928E-02 0. -1.
    10030    2    1    2    0    0  0.00000000000E+00  0.00000000000E+00  0.13738031515E+04  0.15898527053E+04  0.80018530696E+03 0.  0.
        3    1    3    3  502    0  0.20385856163E+03 -0.68329984574E+02  0.16512741689E+02  0.21563854197E+03  0.10100000352E+00 0. -1.
       -3    1    3    3    0  502 -0.20385856163E+03  0.68329984574E+02  0.13572904098E+04  0.13742141633E+04  0.10100000352E+00 0.  1.
</event>
<event>
 5   0  0.4087283E-04  0.7998031E+03  0.7818609E-02  0.9560302E-01
       -1   -1    0    0    0  501  0.00000000000E+00  0.00000000000E+00  0.23030557956E+03  0.23030557961E+03  0.50400001928E-02 0. -1.
        1   -1    0    0  501    0  0.00000000000E+00  0.00000000000E+00 -0.69438714173E+03  0.69438714175E+03  0.50400001928E-02 0.  1.
    10030    2    1    2    0    0  0.00000000000E+00  0.00000000000E+00 -0.46408156218E+03  0.92469272136E+03  0.79980305863E+03 0.  0.
        1    1    3    3  502    0 -0.73755238383E+02 -0.28061562961E+03 -0.55021597995E+03  0.62203102124E+03  0.50400001928E-02 0.  1.
       -1    1    3    3    0  502  0.73755238383E+02  0.28061562961E+03  0.86134417774E+02  0.30266170012E+03  0.50400001928E-02 0. -1.
</event>
<event>
 5   0  0.2736375E-04  0.7999289E+03  0.7818609E-02  0.9560120E-01
       -4   -1    0    0    0  501  0.00000000000E+00  0.00000000000E+00  0.20225333960E+03  0.20225732689E+03  0.12699999809E+01 0. -1.
        4   -1    0    0  501    0  0.00000000000E+00  0.00000000000E+00 -0.79093412181E+03  0.79093514142E+03  0.12699999809E+01 0.  1.
    10030    2    1    2    0    0  0.00000000000E+00  0.00000000000E+00 -0.58868078220E+03  0.99319246831E+03  0.79992888170E+03 0.  0.
        1    1    3    3  502    0 -0.62511859770E+02  0.57916271144E+02  0.19085325608E+03  0.20901433553E+03  0.50400001928E-02 0. -1.
       -1    1    3    3    0  502  0.62511859770E+02 -0.57916271144E+02 -0.77953403828E+03  0.78417813279E+03  0.50400001928E-02 0.  1.
</event>
<event>
 5   0  0.6970013E-04  0.8000292E+03  0.7818609E-02  0.9559975E-01
        2   -1    0    0  501    0  0.00000000000E+00  0.00000000000E+00  0.10917062146E+04  0.10917062146E+04  0.25500000920E-02 0.  1.
       -2   -1    0    0    0  501  0.00000000000E+00  0.00000000000E+00 -0.14657026464E+03  0.14657026466E+03  0.25500000920E-02 0. -1.
    10030    2    1    2    0    0  0.00000000000E+00  0.00000000000E+00  0.94513594994E+03  0.12382764792E+04  0.80002917145E+03 0.  0.
        3    1    3    3  502    0  0.15407089946E+03 -0.37289462619E+02 -0.95880246748E+02  0.18526029796E+03  0.10100000352E+00 0. -1.
       -3    1    3    3    0  502 -0.15407089946E+03  0.37289462619E+02  0.10410161967E+04  0.10530161813E+04  0.10100000352E+00 0.  1.
</event>
<event>
 5   0  0.6970013E-04  0.7981864E+03  0.7818609E-02  0.9562646E-01
       -2   -1    0    0    0  501  0.00000000000E+00  0.00000000000E+00  0.26516344185E+03  0.26516344186E+03  0.25500000920E-02 0. -1.
        2   -1    0    0  501    0  0.00000000000E+00  0.00000000000E+00 -0.60066865745E+03  0.60066865746E+03  0.25500000920E-02 0.  1.
    10030    2    1    2    0    0  0.00000000000E+00  0.00000000000E+00 -0.33550521561E+03  0.86583209932E+03  0.79818636578E+03 0.  0.
        3    1    3    3  502    0 -0.34425089595E+03  0.28640876280E+02  0.49051790245E+02  0.34890552802E+03  0.10100000352E+00 0. -1.
       -3    1    3    3    0  502  0.34425089595E+03 -0.28640876280E+02 -0.38455700585E+03  0.51692657129E+03  0.10100000352E+00 0.  1.
</event>
<event>
 5   0  0.2736375E-04  0.8000445E+03  0.7818609E-02  0.9559953E-01
       -3   -1    0    0    0  501  0.00000000000E+00  0.00000000000E+00  0.32323685832E+03  0.32323687410E+03  0.10100000352E+00 0. -1.
        3   -1    0    0  501    0  0.00000000000E+00  0.00000000000E+00 -0.49504807573E+03  0.49504808603E+03  0.10100000352E+00 0.  1.
    10030    2    1    2    0    0  0.00000000000E+00  0.00000000000E+00 -0.17181121741E+03  0.81828496014E+03  0.80004448724E+03 0.  0.
        3    1    3    3  502    0  0.26417621608E+03  0.29654885271E+03 -0.36987457557E+02  0.39887137952E+03  0.10100000352E+00 0. -1.
       -3    1    3    3    0  502 -0.26417621608E+03 -0.29654885271E+03 -0.13482375985E+03  0.41941358062E+03  0.10100000352E+00 0.  1.
</event>
<event>
 5   0  0.4086111E-04  0.7999172E+03  0.7818609E-02  0.9560137E-01
        1   -1    0    0  501    0  0.00000000000E+00  0.00000000000E+00  0.95484106907E+03  0.95484106908E+03  0.50400001928E-02 0. -1.
       -1   -1    0    0    0  501  0.00000000000E+00  0.00000000000E+00 -0.16753245166E+03  0.16753245173E+03  0.50400001928E-02 0.  1.
    10030    2    1    2    0    0  0.00000000000E+00  0.00000000000E+00  0.78730861741E+03  0.11223735208E+04  0.79991715894E+03 0.  0.
        3    1    3    3  502    0  0.22186441648E+03  0.72111823266E+01 -0.73164797482E+02  0.23372830005E+03  0.10100000352E+00 0.  1.
       -3    1    3    3    0  502 -0.22186441648E+03 -0.72111823266E+01  0.86047341489E+03  0.88864522077E+03  0.10100000352E+00 0. -1.
</event>
<event>
 5   0  0.7133039E-04  0.7998611E+03  0.7818609E-02  0.9560218E-01
       -2   -1    0    0    0  501  0.00000000000E+00  0.00000000000E+00  0.25036183201E+03  0.25036183203E+03  0.25500000920E-02 0. -1.
        2   -1    0    0  501    0  0.00000000000E+00  0.00000000000E+00 -0.63885321606E+03  0.63885321606E+03  0.25500000920E-02 0.  1.
    10030    2    1    2    0    0  0.00000000000E+00  0.00000000000E+00 -0.38849138404E+03  0.88921504809E+03  0.79986114187E+03 0.  0.
        2    1    3    3  502    0 -0.14456920786E+03 -0.53127528693E+02 -0.60455872049E+03  0.62387020821E+03  0.25500000920E-02 0.  1.
       -2    1    3    3    0  502  0.14456920786E+03  0.53127528693E+02  0.21606733644E+03  0.26534483988E+03  0.25500000920E-02 0. -1.
</event>
<event>
 5   0  0.6593118E-04  0.8002451E+03  0.7818609E-02  0.9559662E-01
        2   -1    0    0  501    0  0.00000000000E+00  0.00000000000E+00  0.11081542961E+04  0.11081542961E+04  0.25500000920E-02 0. -1.
       -2   -1    0    0    0  501  0.00000000000E+00  0.00000000000E+00 -0.14447270873E+03  0.14447270875E+03  0.25500000920E-02 0.  1.
    10030    2    1    2    0    0  0.00000000000E+00  0.00000000000E+00  0.96368158737E+03  0.12526270048E+04  0.80024509461E+03 0.  0.
        1    1    3    3  502    0  0.35487337422E+03 -0.11010698515E+03  0.24946089211E+03  0.44753703380E+03  0.50400001928E-02 0. -1.
       -1    1    3    3    0  502 -0.35487337422E+03  0.11010698515E+03  0.71422069526E+03  0.80508997104E+03  0.50400001928E-02 0.  1.
</event>
<event>
 5   0  0.6801147E-04  0.8002770E+03  0.7818609E-02  0.9559616E-01
        2   -1    0    0  501    0  0.00000000000E+00  0.00000000000E+00  0.47866478062E+03  0.47866478063E+03  0.25500000920E-02 0.  1.
       -2   -1    0    0    0  501  0.00000000000E+00  0.00000000000E+00 -0.33449471242E+03  0.33449471243E+03  0.25500000920E-02 0. -1.
    10030    2    1    2    0    0  0.00000000000E+00  0.00000000000E+00  0.14417006820E+03  0.81315949306E+03  0.80027704739E+03 0.  0.
        4    1    3    3  502    0  0.58412284504E+02  0.12918269410E+03 -0.30811613504E+03  0.33917153331E+03  0.12699999809E+01 0. -1.
       -4    1    3    3    0  502 -0.58412284504E+02 -0.12918269410E+03  0.45228620325E+03  0.47398795975E+03  0.12699999809E+01 0.  1.
</event>
<event>
 5   0  0.2736375E-04  0.8003387E+03  0.7818609E-02  0.9559527E-01
       -3   -1    0    0    0  501  0.00000000000E+00  0.00000000000E+00  0.24675630681E+03  0.24675632748E+03  0.10100000352E+00 0. -1.
        3   -1    0    0  501    0  0.00000000000E+00  0.00000000000E+00 -0.64896218885E+03  0.64896219671E+03  0.10100000352E+00 0.  1.
    10030    2    1    2    0    0  0.00000000000E+00  0.00000000000E+00 -0.40220588204E+03  0.89571852419E+03  0.80033874267E+03 0.  0.
        3    1    3    3  502    0 -0.85555979607E+02  0.13381148752E+03 -0.61217699801E+03  0.63244448525E+03  0.10100000352E+00 0.  1.
       -3    1    3    3    0  502  0.85555979607E+02 -0.13381148752E+03  0.20997111596E+03  0.26327403894E+03  0.10100000352E+00 0. -1.
</event>
<event>
 5   0  0.4392552E-04  0.8014690E+03  0.7818609E-02  0.9557893E-01
        1   -1    0    0  501    0  0.00000000000E+00  0.00000000000E+00  0.26540786963E+03  0.26540786968E+03  0.50400001928E-02 0. -1.
       -1   -1    0    0    0  501  0.00000000000E+00  0.00000000000E+00 -0.60506163739E+03  0.60506163741E+03  0.50400001928E-02 0.  1.
    10030    2    1    2    0    0  0.00000000000E+00  0.00000000000E+00 -0.33965376776E+03  0.87046950709E+03  0.80146895187E+03 0.  0.
        5    1    3    3  502    0 -0.19308271320E+03  0.10416646149E+03  0.19435349915E+03  0.29313300474E+03  0.46999998093E+01 0. -1.
       -5    1    3    3    0  502  0.19308271320E+03 -0.10416646149E+03 -0.53400726691E+03  0.57733650235E+03  0.46999998093E+01 0.  1.
</event>
<event>
 5   0  0.6593118E-04  0.7996093E+03  0.7818609E-02  0.9560583E-01
        2   -1    0    0  501    0  0.00000000000E+00  0.00000000000E+00  0.15982777898E+04  0.15982777898E+04  0.25500000920E-02 0. -1.
       -2   -1    0    0    0  501  0.00000000000E+00  0.00000000000E+00 -0.10001000639E+03  0.10001000642E+03  0.25500000920E-02 0.  1.
    10030    2    1    2    0    0  0.00000000000E+00  0.00000000000E+00  0.14982677834E+04  0.16982877962E+04  0.79960933462E+03 0.  0.
        1    1    3    3  502    0  0.22484806715E+03 -0.25579171532E+03  0.11939253557E+04  0.12415489559E+04  0.50400001928E-02 0. -1.
       -1    1    3    3    0  502 -0.22484806715E+03  0.25579171532E+03  0.30434242775E+03  0.45673884035E+03  0.50400001928E-02 0.  1.
</event>
<event>
 5   0  0.6970013E-04  0.8001473E+03  0.7818609E-02  0.9559804E-01
        2   -1    0    0  501    0  0.00000000000E+00  0.00000000000E+00  0.68693675896E+03  0.68693675896E+03  0.25500000920E-02 0.  1.
       -2   -1    0    0    0  501  0.00000000000E+00  0.00000000000E+00 -0.23300388960E+03  0.23300388961E+03  0.25500000920E-02 0. -1.
    10030    2    1    2    0    0  0.00000000000E+00  0.00000000000E+00  0.45393286936E+03  0.91994064858E+03  0.80014732832E+03 0.  0.
        3    1    3    3  502    0  0.43340581232E+02  0.32405481488E+03 -0.38139277557E+02  0.32915732366E+03  0.10100000352E+00 0. -1.
       -3    1    3    3    0  502 -0.43340581232E+02 -0.32405481488E+03  0.49207214691E+03  0.59078332491E+03  0.10100000352E+00 0.  1.
</event>
<event>
 5   0  0.4169155E-04  0.8000460E+03  0.7818609E-02  0.9559951E-01
        1   -1    0    0  501    0  0.00000000000E+00  0.00000000000E+00  0.12265613718E+04  0.12265613718E+04  0.50400001928E-02 0.  1.
       -1   -1    0    0    0  501  0.00000000000E+00  0.00000000000E+00 -0.13046096933E+03  0.13046096943E+03  0.50400001928E-02 0. -1.
    10030    2    1    2    0    0  0.00000000000E+00  0.00000000000E+00  0.10961004025E+04  0.13570223413E+04  0.80004596264E+03 0.  0.
        4    1    3    3  502    0  0.15313972533E+03 -0.45882720743E+02  0.11700184961E+04  0.11808902970E+04  0.12699999809E+01 0.  1.
       -4    1    3    3    0  502 -0.15313972533E+03  0.45882720743E+02 -0.73918093606E+02  0.17613204422E+03  0.12699999809E+01 0. -1.
</event>
<event>
 5   0  0.6672462E-04  0.8000454E+03  0.7818609E-02  0.9559951E-01
       -2   -1    0    0    0  501  0.00000000000E+00  0.00000000000E+00  0.15161323986E+03  0.15161323988E+03  0.25500000920E-02 0.  1.
        2   -1    0    0  501    0  0.00000000000E+00  0.00000000000E+00 -0.10554365792E+04  0.10554365792E+04  0.25500000920E-02 0. -1.
    10030    2    1    2    0    0  0.00000000000E+00  0.00000000000E+00 -0.90382333936E+03  0.12070498191E+04  0.80004539685E+03 0.  0.
        5    1    3    3  502    0  0.25684671984E+03 -0.30595361629E+03 -0.42105769506E+03  0.58042185123E+03  0.46999998093E+01 0. -1.
       -5    1    3    3    0  502 -0.25684671984E+03  0.30595361629E+03 -0.48276564430E+03  0.62662796788E+03  0.46999998093E+01 0.  1.
</event>
<event>
 5   0  0.7133039E-04  0.7999784E+03  0.7818609E-02  0.9560048E-01
        2   -1    0    0  501    0  0.00000000000E+00  0.00000000000E+00  0.13347013417E+04  0.13347013417E+04  0.25500000920E-02 0.  1.
       -2   -1    0    0    0  501  0.00000000000E+00  0.00000000000E+00 -0.11987054388E+03  0.11987054390E+03  0.25500000920E-02 0. -1.
    10030    2    1    2    0    0  0.00000000000E+00  0.00000000000E+00  0.12148307978E+04  0.14545718856E+04  0.79997843911E+03 0.  0.
        2    1    3    3  502    0 -0.18330133879E+03 -0.56657970815E+02 -0.30745663649E+02  0.19430595024E+03  0.25500000920E-02 0. -1.
       -2    1    3    3    0  502  0.18330133879E+03  0.56657970815E+02  0.12455764615E+04  0.12602659354E+04  0.25500000920E-02 0.  1.
</event>
<event>
 5   0  0.7133039E-04  0.7979629E+03  0.7818609E-02  0.9562970E-01
        2   -1    0    0  501    0  0.00000000000E+00  0.00000000000E+00  0.11317522461E+04  0.11317522461E+04  0.25500000920E-02 0. -1.
       -2   -1    0    0    0  501  0.00000000000E+00  0.00000000000E+00 -0.14065464957E+03  0.14065464960E+03  0.25500000920E-02 0.  1.
    10030    2    1    2    0    0  0.00000000000E+00  0.00000000000E+00  0.99109759649E+03  0.12724068957E+04  0.79796294548E+03 0.  0.
        2    1    3    3  502    0 -0.42651856089E+02  0.30985479928E+03  0.10056845517E+03  0.32854709197E+03  0.25500000920E-02 0.  1.
       -2    1    3    3    0  502  0.42651856089E+02 -0.30985479928E+03  0.89052914133E+03  0.94385980369E+03  0.25500000920E-02 0. -1.
</event>
<event>
 5   0  0.4086111E-04  0.7998192E+03  0.7818609E-02  0.9560279E-01
        1   -1    0    0  501    0  0.00000000000E+00  0.00000000000E+00  0.66737049716E+03  0.66737049717E+03  0.50400001928E-02 0. -1.
       -1   -1    0    0    0  501  0.00000000000E+00  0.00000000000E+00 -0.23963852140E+03  0.23963852146E+03  0.50400001928E-02 0.  1.
    10030    2    1    2    0    0  0.00000000000E+00  0.00000000000E+00  0.42773197575E+03  0.90700901863E+03  0.79981917756E+03 0.  0.
        3    1    3    3  502    0 -0.33718659955E+03 -0.13014096954E+03  0.19766050783E+02  0.36196986315E+03  0.10100000352E+00 0.  1.
       -3    1    3    3    0  502  0.33718659955E+03  0.13014096954E+03  0.40796592497E+03  0.54503915548E+03  0.10100000352E+00 0. -1.
</event>
<event>
 5   0  0.4104786E-04  0.7995611E+03  0.7818609E-02  0.9560653E-01
       -1   -1    0    0    0  501  0.00000000000E+00  0.00000000000E+00  0.40239399010E+03  0.40239399013E+03  0.50400001928E-02 0. -1.
        1   -1    0    0  501    0  0.00000000000E+00  0.00000000000E+00 -0.39718406245E+03  0.39718406248E+03  0.50400001928E-02 0.  1.
    10030    2    1    2    0    0  0.00000000000E+00  0.00000000000E+00  0.52099276449E+01  0.79957805261E+03  0.79956107889E+03 0.  0.
        2    1    3    3  502    0  0.10998856848E+03 -0.35029474764E+03 -0.15557735699E+03  0.39875833463E+03  0.25500000920E-02 0.  1.
       -2    1    3    3    0  502 -0.10998856848E+03  0.35029474764E+03  0.16078728463E+03  0.40081971799E+03  0.25500000920E-02 0. -1.
</event>
<event>
 5   0  0.6593118E-04  0.7995603E+03  0.7818609E-02  0.9560654E-01
       -2   -1    0    0    0  501  0.00000000000E+00  0.00000000000E+00  0.21540782717E+03  0.21540782719E+03  0.25500000920E-02 0.  1.
        2   -1    0    0  501    0  0.00000000000E+00  0.00000000000E+00 -0.74196078938E+03  0.74196078938E+03  0.25500000920E-02 0. -1.
    10030    2    1    2    0    0  0.00000000000E+00  0.00000000000E+00 -0.52655296220E+03  0.95736861657E+03  0.79956028290E+03 0.  0.
        1    1    3    3  502    0 -0.14696301683E+01  0.26378546097E+03  0.96411287524E+02  0.28085595172E+03  0.50400001928E-02 0.  1.
       -1    1    3    3    0  502  0.14696301683E+01 -0.26378546097E+03 -0.62296424973E+03  0.67651266485E+03  0.50400001928E-02 0. -1.
</event>
<event>
 5   0  0.2736375E-04  0.8007479E+03  0.7818609E-02  0.9558935E-01
        4   -1    0    0  501    0  0.00000000000E+00  0.00000000000E+00  0.22850133990E+03  0.22850486918E+03  0.12699999809E+01 0.  1.
       -4   -1    0    0    0  501  0.00000000000E+00  0.00000000000E+00 -0.70151509051E+03  0.70151624009E+03  0.12699999809E+01 0. -1.
    10030    2    1    2    0    0  0.00000000000E+00  0.00000000000E+00 -0.47301375060E+03  0.93002110927E+03  0.80074793501E+03 0.  0.
        4    1    3    3  502    0 -0.34851075146E+03  0.18298803174E+03 -0.15152833181E+03  0.42179000923E+03  0.12699999809E+01 0.  1.
       -4    1    3    3    0  502  0.34851075146E+03 -0.18298803174E+03 -0.32148541880E+03  0.50823110004E+03  0.12699999809E+01 0. -1.
</event>
<event>
 5   0  0.4392552E-04  0.8001899E+03  0.7818609E-02  0.9559742E-01
       -1   -1    0    0    0  501  0.00000000000E+00  0.00000000000E+00  0.28929446193E+03  0.28929446197E+03  0.50400001928E-02 0. -1.
        1   -1    0    0  501    0  0.00000000000E+00  0.00000000000E+00 -0.55333236126E+03  0.55333236128E+03  0.50400001928E-02 0.  1.
    10030    2    1    2    0    0  0.00000000000E+00  0.00000000000E+00 -0.26403789933E+03  0.84262682326E+03  0.80018994682E+03 0.  0.
        5    1    3    3  502    0  0.34421329530E+02  0.39547096450E+03 -0.79665219740E+02  0.40490832163E+03  0.46999998093E+01 0. -1.
       -5    1    3    3    0  502 -0.34421329530E+02 -0.39547096450E+03 -0.18437267959E+03  0.43771850163E+03  0.46999998093E+01 0.  1.
</event>
<event>
 5   0  0.6672462E-04  0.8001279E+03  0.7818609E-02  0.9559832E-01
        2   -1    0    0  501    0  0.00000000000E+00  0.00000000000E+00  0.45521093337E+03  0.45521093338E+03  0.25500000920E-02 0.  1.
       -2   -1    0    0    0  501  0.00000000000E+00  0.00000000000E+00 -0.35159777116E+03  0.35159777117E+03  0.25500000920E-02 0. -1.
    10030    2    1    2    0    0  0.00000000000E+00  0.00000000000E+00  0.10361316221E+03  0.80680870455E+03  0.80012786375E+03 0.  0.
        5    1    3    3  502    0 -0.29447472199E+02  0.17484750648E+03  0.41339558097E+03  0.44984086131E+03  0.46999998093E+01 0.  1.
       -5    1    3    3    0  502  0.29447472199E+02 -0.17484750648E+03 -0.30978241876E+03  0.35696784324E+03  0.46999998093E+01 0. -1.
</event>
<event>
 5   0  0.2736375E-04  0.7994243E+03  0.7818609E-02  0.9560851E-01
        4   -1    0    0  501    0  0.00000000000E+00  0.00000000000E+00  0.28947572099E+03  0.28947850688E+03  0.12699999809E+01 0. -1.
       -4   -1    0    0    0  501  0.00000000000E+00  0.00000000000E+00 -0.55192204565E+03  0.55192350681E+03  0.12699999809E+01 0.  1.
    10030    2    1    2    0    0  0.00000000000E+00  0.00000000000E+00 -0.26244632466E+03  0.84140201369E+03  0.79942433996E+03 0.  0.
        4    1    3    3  502    0 -0.39409620450E+03  0.64032264743E+02 -0.15108903470E+03  0.42689748024E+03  0.12699999809E+01 0.  1.
       -4    1    3    3    0  502  0.39409620450E+03 -0.64032264743E+02 -0.11135728995E+03  0.41450453345E+03  0.12699999809E+01 0. -1.
</event>
<event>
 5   0  0.4086111E-04  0.7956526E+03  0.7818609E-02  0.9566331E-01
       -1   -1    0    0    0  501  0.00000000000E+00  0.00000000000E+00  0.20792459736E+03  0.20792459742E+03  0.50400001928E-02 0. -1.
        1   -1    0    0  501    0  0.00000000000E+00  0.00000000000E+00 -0.76116907257E+03  0.76116907259E+03  0.50400001928E-02 0.  1.
    10030    2    1    2    0    0  0.00000000000E+00  0.00000000000E+00 -0.55324447521E+03  0.96909367001E+03  0.79565262012E+03 0.  0.
        3    1    3    3  502    0 -0.11751068696E+03 -0.14125656717E+02 -0.73922839680E+03  0.74864339212E+03  0.10100000352E+00 0.  1.
       -3    1    3    3    0  502  0.11751068696E+03  0.14125656717E+02  0.18598392160E+03  0.22045027789E+03  0.10100000352E+00 0. -1.
</event>
<event>
 5   0  0.4086111E-04  0.8000997E+03  0.7818609E-02  0.9559873E-01
        1   -1    0    0  501    0  0.00000000000E+00  0.00000000000E+00  0.45733046654E+03  0.45733046657E+03  0.50400001928E-02 0.  1.
       -1   -1    0    0    0  501  0.00000000000E+00  0.00000000000E+00 -0.34994361440E+03  0.34994361444E+03  0.50400001928E-02 0. -1.
    10030    2    1    2    0    0  0.00000000000E+00  0.00000000000E+00  0.10738685214E+03  0.80727408100E+03  0.80009968494E+03 0.  0.
        3    1    3    3  502    0 -0.13900057011E+03 -0.33193604260E+03  0.23000925886E+03  0.42709128326E+03  0.10100000352E+00 0.  1.
       -3    1    3    3    0  502  0.13900057011E+03  0.33193604260E+03 -0.12262240673E+03  0.38018279775E+03  0.10100000352E+00 0. -1.
</event>
<event>
 5   0  0.7133039E-04  0.7969809E+03  0.7818609E-02  0.9564397E-01
       -2   -1    0    0    0  501  0.00000000000E+00  0.00000000000E+00  0.16698044691E+03  0.16698044693E+03  0.25500000920E-02 0. -1.
        2   -1    0    0  501    0  0.00000000000E+00  0.00000000000E+00 -0.95097753826E+03  0.95097753826E+03  0.25500000920E-02 0.  1.
    10030    2    1    2    0    0  0.00000000000E+00  0.00000000000E+00 -0.78399709135E+03  0.11179579852E+04  0.79698093917E+03 0.  0.
        2    1    3    3  502    0 -0.14666835435E+03  0.18390080171E+03  0.59203667569E+02  0.24256171441E+03  0.25500000920E-02 0. -1.
       -2    1    3    3    0  502  0.14666835435E+03 -0.18390080171E+03 -0.84320075892E+03  0.87539627077E+03  0.25500000920E-02 0.  1.
</event>
<event>
 5   0  0.6593118E-04  0.7995315E+03  0.7818609E-02  0.9560695E-01
       -2   -1    0    0    0  501  0.00000000000E+00  0.00000000000E+00  0.17169194365E+03  0.17169194367E+03  0.25500000920E-02 0. -1.
        2   -1    0    0  501    0  0.00000000000E+00  0.00000000000E+00 -0.93081048006E+03  0.93081048007E+03  0.25500000920E-02 0.  1.
    10030    2    1    2    0    0  0.00000000000E+00  0.00000000000E+00 -0.75911853641E+03  0.11025024237E+04  0.79953151409E+03 0.  0.
        1    1    3    3  502    0 -0.11469585406E+03 -0.33824108613E+03 -0.13192421507E+03  0.38074423151E+03  0.50400001928E-02 0.  1.
       -1    1    3    3    0  502  0.11469585406E+03  0.33824108613E+03 -0.62719432135E+03  0.72175819222E+03  0.50400001928E-02 0. -1.
</event>
<event>
 5   0  0.4087283E-04  0.8019703E+03  0.7818609E-02  0.9557170E-01
        1   -1    0    0  501    0  0.00000000000E+00  0.00000000000E+00  0.16243946846E+03  0.16243946854E+03  0.50400001928E-02 0. -1.
       -1   -1    0    0    0  501  0.00000000000E+00  0.00000000000E+00 -0.98983997067E+03  0.98983997068E+03  0.50400001928E-02 0.  1.
    10030    2    1    2    0    0  0.00000000000E+00  0.00000000000E+00 -0.82740050221E+03  0.11522794392E+04  0.80197027064E+03 0.  0.
        1    1    3    3  502    0 -0.91894395778E+02 -0.35043208338E+03 -0.16674491487E+03  0.39881210074E+03  0.50400001928E-02 0. -1.
       -1    1    3    3    0  502  0.91894395778E+02  0.35043208338E+03 -0.66065558734E+03  0.75346733848E+03  0.50400001928E-02 0.  1.
</event>
<event>
 5   0  0.6593118E-04  0.8001103E+03  0.7818609E-02  0.9559857E-01
       -2   -1    0    0    0  501  0.00000000000E+00  0.00000000000E+00  0.31323226455E+03  0.31323226456E+03  0.25500000920E-02 0. -1.
        2   -1    0    0  501    0  0.00000000000E+00  0.00000000000E+00 -0.51094396181E+03  0.51094396181E+03  0.25500000920E-02 0.  1.
    10030    2    1    2    0    0  0.00000000000E+00  0.00000000000E+00 -0.19771169726E+03  0.82417622638E+03  0.80011032795E+03 0.  0.
        1    1    3    3  502    0  0.28955301695E+03  0.27210847711E+02  0.18411163513E+03  0.34420702212E+03  0.50400001928E-02 0. -1.
       -1    1    3    3    0  502 -0.28955301695E+03 -0.27210847711E+02 -0.38182333239E+03  0.47996920426E+03  0.50400001928E-02 0.  1.
</event>
<event>
 5   0  0.6593118E-04  0.8003952E+03  0.7818609E-02  0.9559445E-01
        2   -1    0    0  501    0  0.00000000000E+00  0.00000000000E+00  0.10348953954E+04  0.10348953954E+04  0.25500000920E-02 0. -1.
       -2   -1    0    0    0  501  0.00000000000E+00  0.00000000000E+00 -0.15475776776E+03  0.15475776778E+03  0.25500000920E-02 0.  1.
    10030    2    1    2    0    0  0.00000000000E+00  0.00000000000E+00  0.88013762761E+03  0.11896531632E+04  0.80039515558E+03 0.  0.
        1    1    3    3  502    0 -0.34668997548E+03  0.18140951971E+03  0.31522797610E+03  0.50246594897E+03  0.50400001928E-02 0. -1.
       -1    1    3    3    0  502  0.34668997548E+03 -0.18140951971E+03  0.56490965151E+03  0.68718721418E+03  0.50400001928E-02 0.  1.
</event>
<event>
 5   0  0.6672462E-04  0.7971880E+03  0.7818609E-02  0.9564096E-01
        2   -1    0    0  501    0  0.00000000000E+00  0.00000000000E+00  0.74377618726E+03  0.74377618727E+03  0.25500000920E-02 0. -1.
       -2   -1    0    0    0  501  0.00000000000E+00  0.00000000000E+00 -0.21360884770E+03  0.21360884771E+03  0.25500000920E-02 0.  1.
    10030    2    1    2    0    0  0.00000000000E+00  0.00000000000E+00  0.53016733956E+03  0.95738503498E+03  0.79718799368E+03 0.  0.
        5    1    3    3  502    0 -0.70988021364E+02 -0.14674244987E+03  0.70187798911E+03  0.72057438712E+03  0.46999998093E+01 0. -1.
       -5    1    3    3    0  502  0.70988021364E+02  0.14674244987E+03 -0.17171064955E+03  0.23681064786E+03  0.46999998093E+01 0.  1.
</event>
<event>
 5   0  0.6593118E-04  0.8002577E+03  0.7818609E-02  0.9559644E-01
       -2   -1    0    0    0  501  0.00000000000E+00  0.00000000000E+00  0.34293316318E+03  0.34293316319E+03  0.25500000920E-02 0.  1.
        2   -1    0    0  501    0  0.00000000000E+00  0.00000000000E+00 -0.46686387409E+03  0.46686387410E+03  0.25500000920E-02 0. -1.
    10030    2    1    2    0    0  0.00000000000E+00  0.00000000000E+00 -0.12393071091E+03  0.80979703729E+03  0.80025772130E+03 0.  0.
        1    1    3    3  502    0 -0.34647785689E+03 -0.18952218446E+03 -0.12705583715E+03  0.41485991551E+03  0.50400001928E-02 0.  1.
       -1    1    3    3    0  502  0.34647785689E+03  0.18952218446E+03  0.31251262373E+01  0.39493712178E+03  0.50400001928E-02 0. -1.
</event>
<event>
 5   0  0.4169155E-04  0.7998914E+03  0.7818609E-02  0.9560174E-01
       -1   -1    0    0    0  501  0.00000000000E+00  0.00000000000E+00  0.84779842425E+02  0.84779842575E+02  0.50400001928E-02 0. -1.
        1   -1    0    0  501    0  0.00000000000E+00  0.00000000000E+00 -0.18867285009E+04  0.18867285009E+04  0.50400001928E-02 0.  1.
    10030    2    1    2    0    0  0.00000000000E+00  0.00000000000E+00 -0.18019486585E+04  0.19715083435E+04  0.79989135552E+03 0.  0.
        4    1    3    3  502    0 -0.15259791619E+03  0.33476823235E+03 -0.12875430277E+04  0.13390760078E+04  0.12699999809E+01 0.  1.
       -4    1    3    3    0  502  0.15259791619E+03 -0.33476823235E+03 -0.51440563075E+03  0.63243233572E+03  0.12699999809E+01 0. -1.
</event>
<event>
 5   0  0.4087283E-04  0.7999988E+03  0.7818609E-02  0.9560019E-01
        1   -1    0    0  501    0  0.00000000000E+00  0.00000000000E+00  0.17366039505E+04  0.17366039505E+04  0.50400001928E-02 0.  1.
       -1   -1    0    0    0  501  0.00000000000E+00  0.00000000000E+00 -0.92133575898E+02  0.92133576036E+02  0.50400001928E-02 0. -1.
    10030    2    1    2    0    0  0.00000000000E+00  0.00000000000E+00  0.16444703746E+04  0.18287375265E+04  0.79999883002E+03 0.  0.
        1    1    3    3  502    0  0.78654332849E+02 -0.52304492700E+02 -0.66273311570E+02  0.11538810980E+03  0.50400001928E-02 0. -1.
       -1    1    3    3    0  502 -0.78654332849E+02  0.52304492700E+02  0.17107436861E+04  0.17133494167E+04  0.50400001928E-02 0.  1.
</event>
<event>
 5   0  0.4087283E-04  0.8000532E+03  0.7818609E-02  0.9559940E-01
       -1   -1    0    0    0  501  0.00000000000E+00  0.00000000000E+00  0.45890993951E+03  0.45890993954E+03  0.50400001928E-02 0.  1.
        1   -1    0    0  501    0  0.00000000000E+00  0.00000000000E+00 -0.34869870134E+03  0.34869870137E+03  0.50400001928E-02 0. -1.
    10030    2    1    2    0    0  0.00000000000E+00  0.00000000000E+00  0.11021123818E+03  0.80760864092E+03  0.80005324814E+03 0.  0.
        1    1    3    3  502    0 -0.21856024260E+03 -0.33089637995E+03  0.10814038806E+03  0.41104177095E+03  0.50400001928E-02 0.  1.
       -1    1    3    3    0  502  0.21856024260E+03  0.33089637995E+03  0.20708501165E+01  0.39656686997E+03  0.50400001928E-02 0. -1.
</event>
<event>
 5   0  0.6672462E-04  0.8000503E+03  0.7818609E-02  0.9559944E-01
        2   -1    0    0  501    0  0.00000000000E+00  0.00000000000E+00  0.10516998436E+04  0.10516998436E+04  0.25500000920E-02 0.  1.
       -2   -1    0    0    0  501  0.00000000000E+00  0.00000000000E+00 -0.15215378336E+03  0.15215378338E+03  0.25500000920E-02 0. -1.
    10030    2    1    2    0    0  0.00000000000E+00  0.00000000000E+00  0.89954606020E+03  0.12038536269E+04  0.80005027383E+03 0.  0.
        5    1    3    3  502    0 -0.39469051738E+02 -0.12090036407E+03 -0.12087859225E+03  0.17552329800E+03  0.46999998093E+01 0. -1.
       -5    1    3    3    0  502  0.39469051738E+02  0.12090036407E+03  0.10204246525E+04  0.10283303289E+04  0.46999998093E+01 0.  1.
</event>
<event>
 5   0  0.6593118E-04  0.8003380E+03  0.7818609E-02  0.9559528E-01
        2   -1    0    0  501    0  0.00000000000E+00  0.00000000000E+00  0.51012639489E+03  0.51012639490E+03  0.25500000920E-02 0. -1.
       -2   -1    0    0    0  501  0.00000000000E+00  0.00000000000E+00 -0.31391285007E+03  0.31391285008E+03  0.25500000920E-02 0.  1.
    10030    2    1    2    0    0  0.00000000000E+00  0.00000000000E+00  0.19621354483E+03  0.82403924498E+03  0.80033800490E+03 0.  0.
        1    1    3    3  502    0  0.11265931942E+03 -0.30898371781E+03  0.33283206114E+03  0.46791050541E+03  0.50400001928E-02 0. -1.
       -1    1    3    3    0  502 -0.11265931942E+03  0.30898371781E+03 -0.13661851631E+03  0.35612873957E+03  0.50400001928E-02 0.  1.
</event>
<event>
 5   0  0.4086111E-04  0.8001586E+03  0.7818609E-02  0.9559788E-01
        1   -1    0    0  501    0  0.00000000000E+00  0.00000000000E+00  0.56525157379E+03  0.56525157381E+03  0.50400001928E-02 0. -1.
       -1   -1    0    0    0  501  0.00000000000E+00  0.00000000000E+00 -0.28317207574E+03  0.28317207579E+03  0.50400001928E-02 0.  1.
    10030    2    1    2    0    0  0.00000000000E+00  0.00000000000E+00  0.28207949805E+03  0.84842364960E+03  0.80015863801E+03 0.  0.
        3    1    3    3  502    0  0.91899334369E+02 -0.20773178684E+03  0.49024632699E+03  0.54031421807E+03  0.10100000352E+00 0. -1.
       -3    1    3    3    0  502 -0.91899334369E+02  0.20773178684E+03 -0.20816682894E+03  0.30810943153E+03  0.10100000352E+00 0.  1.
</event>
<event>
 5   0  0.4086111E-04  0.8000712E+03  0.7818609E-02  0.9559914E-01
       -1   -1    0    0    0  501  0.00000000000E+00  0.00000000000E+00  0.31695719412E+03  0.31695719416E+03  0.50400001928E-02 0.  1.
        1   -1    0    0  501    0  0.00000000000E+00  0.00000000000E+00 -0.50488990122E+03  0.50488990124E+03  0.50400001928E-02 0. -1.
    10030    2    1    2    0    0  0.00000000000E+00  0.00000000000E+00 -0.18793270710E+03  0.82184709540E+03  0.80007121297E+03 0.  0.
        3    1    3    3  502    0  0.11824381640E+03  0.16380285569E+03  0.26070714874E+03  0.32981995581E+03  0.10100000352E+00 0.  1.
       -3    1    3    3    0  502 -0.11824381640E+03 -0.16380285569E+03 -0.44863985583E+03  0.49202713959E+03  0.10100000352E+00 0. -1.
</event>
<event>
 5   0  0.6593118E-04  0.7997922E+03  0.7818609E-02  0.9560318E-01
       -2   -1    0    0    0  501  0.00000000000E+00  0.00000000000E+00  0.16423105284E+03  0.16423105286E+03  0.25500000920E-02 0.  1.
        2   -1    0    0  501    0  0.00000000000E+00  0.00000000000E+00 -0.97373111134E+03  0.97373111135E+03  0.25500000920E-02 0. -1.
    10030    2    1    2    0    0  0.00000000000E+00  0.00000000000E+00 -0.80950005850E+03  0.11379621642E+04  0.79979218704E+03 0.  0.
        1    1    3    3  502    0  0.11670755719E+01 -0.62155317509E+02  0.15731384004E+03  0.16915167706E+03  0.50400001928E-02 0.  1.
       -1    1    3    3    0  502 -0.11670755719E+01  0.62155317509E+02 -0.96681389854E+03  0.96881048714E+03  0.50400001928E-02 0. -1.
</event>
<event>
 5   0  0.4087283E-04  0.7995389E+03  0.7818609E-02  0.9560685E-01
        1   -1    0    0  501    0  0.00000000000E+00  0.00000000000E+00  0.52711444201E+03  0.52711444204E+03  0.50400001928E-02 0.  1.
       -1   -1    0    0    0  501  0.00000000000E+00  0.00000000000E+00 -0.30318956099E+03  0.30318956104E+03  0.50400001928E-02 0. -1.
    10030    2    1    2    0    0  0.00000000000E+00  0.00000000000E+00  0.22392488102E+03  0.83030400307E+03  0.79953885783E+03 0.  0.
        1    1    3    3  502    0 -0.10854751667E+02  0.21771760370E+03  0.45996406963E+03  0.50900464238E+03  0.50400001928E-02 0.  1.
       -1    1    3    3    0  502  0.10854751667E+02 -0.21771760370E+03 -0.23603918861E+03  0.32129936069E+03  0.50400001928E-02 0. -1.
</event>
<event>
 5   0  0.4104786E-04  0.8002812E+03  0.7818609E-02  0.9559610E-01
        1   -1    0    0  501    0  0.00000000000E+00  0.00000000000E+00  0.47053453417E+03  0.47053453419E+03  0.50400001928E-02 0.  1.
       -1   -1    0    0    0  501  0.00000000000E+00  0.00000000000E+00 -0.34027792643E+03  0.34027792647E+03  0.50400001928E-02 0. -1.
    10030    2    1    2    0    0  0.00000000000E+00  0.00000000000E+00  0.13025660774E+03  0.81081246066E+03  0.80028123963E+03 0.  0.
        2    1    3    3  502    0 -0.20991438070E+03 -0.27239245946E+03  0.27239510536E+03  0.43870353614E+03  0.25500000920E-02 0.  1.
       -2    1    3    3    0  502  0.20991438070E+03  0.27239245946E+03 -0.14213849762E+03  0.37210892452E+03  0.25500000920E-02 0. -1.
</event>
<event>
 5   0  0.4169155E-04  0.7997290E+03  0.7818609E-02  0.9560409E-01
        1   -1    0    0  501    0  0.00000000000E+00  0.00000000000E+00  0.55997579142E+03  0.55997579145E+03  0.50400001928E-02 0.  1.
       -1   -1    0    0    0  501  0.00000000000E+00  0.00000000000E+00 -0.28553308018E+03  0.28553308022E+03  0.50400001928E-02 0. -1.
    10030    2    1    2    0    0  0.00000000000E+00  0.00000000000E+00  0.27444271124E+03  0.84550887167E+03  0.79972898554E+03 0.  0.
        4    1    3    3  502    0  0.19228095968E+03  0.71698994494E+02 -0.22561107980E+03  0.30498309051E+03  0.12699999809E+01 0. -1.
       -4    1    3    3    0  502 -0.19228095968E+03 -0.71698994494E+02  0.50005379104E+03  0.54052578116E+03  0.12699999809E+01 0.  1.
</event>
<event>
 5   0  0.4104786E-04  0.7965822E+03  0.7818609E-02  0.9564977E-01
        1   -1    0    0  501    0  0.00000000000E+00  0.00000000000E+00  0.26372489215E+03  0.26372489220E+03  0.50400001928E-02 0. -1.
       -1   -1    0    0    0  501  0.00000000000E+00  0.00000000000E+00 -0.60152003045E+03  0.60152003048E+03  0.50400001928E-02 0.  1.
    10030    2    1    2    0    0  0.00000000000E+00  0.00000000000E+00 -0.33779513830E+03  0.86524492267E+03  0.79658221217E+03 0.  0.
        2    1    3    3  502    0  0.17445032685E+03 -0.27871053363E+03 -0.41304627484E+03  0.52793910942E+03  0.25500000920E-02 0.  1.
       -2    1    3    3    0  502 -0.17445032685E+03  0.27871053363E+03  0.75251136533E+02  0.33730581325E+03  0.25500000920E-02 0. -1.
</event>
<event>
 5   0  0.4087283E-04  0.8000843E+03  0.7818609E-02  0.9559895E-01
        1   -1    0    0  501    0  0.00000000000E+00  0.00000000000E+00  0.57344159964E+03  0.57344159966E+03  0.50400001928E-02 0.  1.
       -1   -1    0    0    0  501  0.00000000000E+00  0.00000000000E+00 -0.27907585983E+03  0.27907585987E+03  0.50400001928E-02 0. -1.
    10030    2    1    2    0    0  0.00000000000E+00  0.00000000000E+00  0.29436573981E+03  0.85251745953E+03  0.80008426433E+03 0.  0.
        1    1    3    3  502    0 -0.99231657411E+02 -0.32730785371E+03 -0.73915826212E+02  0.34991556456E+03  0.50400001928E-02 0. -1.
       -1    1    3    3    0  502  0.99231657411E+02  0.32730785371E+03  0.36828156602E+03  0.50260189497E+03  0.50400001928E-02 0.  1.
</event>
<event>
 5   0  0.4086111E-04  0.8001333E+03  0.7818609E-02  0.9559824E-01
       -1   -1    0    0    0  501  0.00000000000E+00  0.00000000000E+00  0.22334719356E+03  0.22334719361E+03  0.50400001928E-02 0. -1.
        1   -1    0    0  501    0  0.00000000000E+00  0.00000000000E+00 -0.71661219640E+03  0.71661219642E+03  0.50400001928E-02 0.  1.
    10030    2    1    2    0    0  0.00000000000E+00  0.00000000000E+00 -0.49326500284E+03  0.93995939003E+03  0.80013329632E+03 0.  0.
        3    1    3    3  502    0 -0.17188762578E+03  0.25744635730E+03  0.51091223052E+02  0.31374241992E+03  0.10100000352E+00 0. -1.
       -3    1    3    3    0  502  0.17188762578E+03 -0.25744635730E+03 -0.54435622589E+03  0.62621697011E+03  0.10100000352E+00 0.  1.
</event>
<event>
 5   0  0.4169155E-04  0.7997740E+03  0.7818609E-02  0.9560344E-01
       -1   -1    0    0    0  501  0.00000000000E+00  0.00000000000E+00  0.58510802320E+03  0.58510802323E+03  0.50400001928E-02 0. -1.
        1   -1    0    0  501    0  0.00000000000E+00  0.00000000000E+00 -0.27329927363E+03  0.27329927368E+03  0.50400001928E-02 0.  1.
    10030    2    1    2    0    0  0.00000000000E+00  0.00000000000E+00  0.31180874957E+03  0.85840729690E+03  0.79977396248E+03 0.  0.
        4    1    3    3  502    0  0.14419939321E+03  0.18282463964E+03  0.50483767065E+03  0.55595053779E+03  0.12699999809E+01 0. -1.
       -4    1    3    3    0  502 -0.14419939321E+03 -0.18282463964E+03 -0.19302892108E+03  0.30245675911E+03  0.12699999809E+01 0.  1.
</event>
<event>
 5   0  0.6970013E-04  0.8002059E+03  0.7818609E-02  0.9559719E-01
        2   -1    0    0  501    0  0.00000000000E+00  0.00000000000E+00  0.14587980286E+04  0.14587980286E+04  0.25500000920E-02 0.  1.
       -2   -1    0    0    0  501  0.00000000000E+00  0.00000000000E+00 -0.10973580969E+03  0.10973580972E+03  0.25500000920E-02 0. -1.
    10030    2    1    2    0    0  0.00000000000E+00  0.00000000000E+00  0.13490622189E+04  0.15685338383E+04  0.80020593068E+03 0.  0.
        3    1    3    3  502    0 -0.23803312282E+03  0.86784007542E+02  0.12815208770E+04  0.13063257633E+04  0.10100000352E+00 0.  1.
       -3    1    3    3    0  502  0.23803312282E+03 -0.86784007542E+02  0.67541341883E+02  0.26220807498E+03  0.10100000352E+00 0. -1.
</event>
<event>
 5   0  0.4104786E-04  0.7995271E+03  0.7818609E-02  0.9560702E-01
       -1   -1    0    0    0  501  0.00000000000E+00  0.00000000000E+00  0.30119469344E+03  0.30119469349E+03  0.50400001928E-02 0. -1.
        1   -1    0    0  501    0  0.00000000000E+00  0.00000000000E+00 -0.53058998413E+03  0.53058998415E+03  0.50400001928E-02 0.  1.
    10030    2    1    2    0    0  0.00000000000E+00  0.00000000000E+00 -0.22939529069E+03  0.83178467764E+03  0.79952707932E+03 0.  0.
        2    1    3    3  502    0 -0.17651830202E+03 -0.16262824303E+03  0.21789464389E+03  0.32416775321E+03  0.25500000920E-02 0. -1.
       -2    1    3    3    0  502  0.17651830202E+03  0.16262824303E+03 -0.44728993458E+03  0.50761692443E+03  0.25500000920E-02 0.  1.
</event>
<event>
 5   0  0.4086111E-04  0.8011936E+03  0.7818609E-02  0.9558291E-01
        1   -1    0    0  501    0  0.00000000000E+00  0.00000000000E+00  0.43276331819E+03  0.43276331822E+03  0.50400001928E-02 0.  1.
       -1   -1    0    0    0  501  0.00000000000E+00  0.00000000000E+00 -0.37082111492E+03  0.37082111495E+03  0.50400001928E-02 0. -1.
    10030    2    1    2    0    0  0.00000000000E+00  0.00000000000E+00  0.61942203277E+02  0.80358443317E+03  0.80119355008E+03 0.  0.
        3    1    3    3  502    0 -0.24982324667E+03  0.13385474594E+03 -0.25297974936E+03  0.37990460826E+03  0.10100000352E+00 0. -1.
       -3    1    3    3    0  502  0.24982324667E+03 -0.13385474594E+03  0.31492195264E+03  0.42367982492E+03  0.10100000352E+00 0.  1.
</event>
<event>
 5   0  0.2736375E-04  0.8052586E+03  0.7818609E-02  0.9552437E-01
        4   -1    0    0  501    0  0.00000000000E+00  0.00000000000E+00  0.41358923855E+03  0.41359118843E+03  0.12699999809E+01 0.  1.
       -4   -1    0    0    0  501  0.00000000000E+00  0.00000000000E+00 -0.39195586269E+03  0.39195792019E+03  0.12699999809E+01 0. -1.
    10030    2    1    2    0    0  0.00000000000E+00  0.00000000000E+00  0.21633375864E+02  0.80554910862E+03  0.80525856931E+03 0.  0.
        1    1    3    3  502    0 -0.23020228058E+02  0.24752788688E+03 -0.30601568520E+03  0.39426588148E+03  0.50400001928E-02 0. -1.
       -1    1    3    3    0  502  0.23020228058E+02 -0.24752788688E+03  0.32764906106E+03  0.41128322714E+03  0.50400001928E-02 0.  1.
</event>
<event>
 5   0  0.6593118E-04  0.7987123E+03  0.7818609E-02  0.9561883E-01
        2   -1    0    0  501    0  0.00000000000E+00  0.00000000000E+00  0.67920044108E+03  0.67920044108E+03  0.25500000920E-02 0.  1.
       -2   -1    0    0    0  501  0.00000000000E+00  0.00000000000E+00 -0.23481336543E+03  0.23481336544E+03  0.25500000920E-02 0. -1.
    10030    2    1    2    0    0  0.00000000000E+00  0.00000000000E+00  0.44438707565E+03  0.91401380652E+03  0.79871231711E+03 0.  0.
        1    1    3    3  502    0 -0.20566622281E+03 -0.19676943497E+03 -0.98367066407E+02  0.30115259508E+03  0.50400001928E-02 0. -1.
       -1    1    3    3    0  502  0.20566622281E+03  0.19676943497E+03  0.54275414206E+03  0.61286121144E+03  0.50400001928E-02 0.  1.
</event>
<event>
 5   0  0.2736375E-04  0.8000199E+03  0.7818609E-02  0.9559988E-01
        3   -1    0    0  501    0  0.00000000000E+00  0.00000000000E+00  0.13146873007E+03  0.13146876886E+03  0.10100000352E+00 0. -1.
       -3   -1    0    0    0  501  0.00000000000E+00  0.00000000000E+00 -0.12170798132E+04  0.12170798174E+04  0.10100000352E+00 0.  1.
    10030    2    1    2    0    0  0.00000000000E+00  0.00000000000E+00 -0.10856110832E+04  0.13485485863E+04  0.80001991581E+03 0.  0.
        1    1    3    3  502    0  0.18403237842E+03  0.26927264319E+03 -0.15243324911E+03  0.36001606650E+03  0.50400001928E-02 0. -1.
       -1    1    3    3    0  502 -0.18403237842E+03 -0.26927264319E+03 -0.93317783406E+03  0.98853251979E+03  0.50400001928E-02 0.  1.
</event>
<event>
 5   0  0.4087283E-04  0.8008034E+03  0.7818609E-02  0.9558855E-01
       -1   -1    0    0    0  501  0.00000000000E+00  0.00000000000E+00  0.11439838185E+03  0.11439838196E+03  0.50400001928E-02 0. -1.
        1   -1    0    0  501    0  0.00000000000E+00  0.00000000000E+00 -0.14014316247E+04  0.14014316247E+04  0.50400001928E-02 0.  1.
    10030    2    1    2    0    0  0.00000000000E+00  0.00000000000E+00 -0.12870332428E+04  0.15158300067E+04  0.80080337219E+03 0.  0.
        1    1    3    3  502    0  0.37215604355E+03  0.13224849529E+03 -0.76809854795E+03  0.86369274898E+03  0.50400001928E-02 0.  1.
       -1    1    3    3    0  502 -0.37215604355E+03 -0.13224849529E+03 -0.51893469489E+03  0.65213725767E+03  0.50400001928E-02 0. -1.
</event>
<event>
 5   0  0.7133039E-04  0.8003236E+03  0.7818609E-02  0.9559549E-01
        2   -1    0    0  501    0  0.00000000000E+00  0.00000000000E+00  0.36885646780E+03  0.36885646781E+03  0.25500000920E-02 0. -1.
       -2   -1    0    0    0  501  0.00000000000E+00  0.00000000000E+00 -0.43412401250E+03  0.43412401251E+03  0.25500000920E-02 0.  1.
    10030    2    1    2    0    0  0.00000000000E+00  0.00000000000E+00 -0.65267544704E+02  0.80298048032E+03  0.80032355918E+03 0.  0.
        2    1    3    3  502    0  0.25255873299E+03 -0.34173114631E+02  0.27689605477E+03  0.37633115806E+03  0.25500000920E-02 0. -1.
       -2    1    3    3    0  502 -0.25255873299E+03  0.34173114631E+02 -0.34216359948E+03  0.42664932226E+03  0.25500000920E-02 0.  1.
</event>
<event>
 5   0  0.4392552E-04  0.8001409E+03  0.7818609E-02  0.9559813E-01
        1   -1    0    0  501    0  0.00000000000E+00  0.00000000000E+00  0.43562524491E+03  0.43562524494E+03  0.50400001928E-02 0. -1.
       -1   -1    0    0    0  501  0.00000000000E+00  0.00000000000E+00 -0.36741760012E+03  0.36741760016E+03  0.50400001928E-02 0.  1.
    10030    2    1    2    0    0  0.00000000000E+00  0.00000000000E+00  0.68207644790E+02  0.80304284510E+03  0.80014094275E+03 0.  0.
        5    1    3    3  502    0 -0.33304520835E+03 -0.19739914437E+03 -0.67002588648E+02  0.39293379835E+03  0.46999998093E+01 0.  1.
       -5    1    3    3    0  502  0.33304520835E+03  0.19739914437E+03  0.13521023344E+03  0.41010904675E+03  0.46999998093E+01 0. -1.
</event>
<event>
 5   0  0.4169155E-04  0.8003507E+03  0.7818609E-02  0.9559510E-01
        1   -1    0    0  501    0  0.00000000000E+00  0.00000000000E+00  0.44793656492E+03  0.44793656494E+03  0.50400001928E-02 0.  1.
       -1   -1    0    0    0  501  0.00000000000E+00  0.00000000000E+00 -0.35750665462E+03  0.35750665465E+03  0.50400001928E-02 0. -1.
    10030    2    1    2    0    0  0.00000000000E+00  0.00000000000E+00  0.90429910298E+02  0.80544321960E+03  0.80035068021E+03 0.  0.
        4    1    3    3  502    0  0.21247720544E+03  0.30972052267E+03  0.18417076743E+03  0.41832266191E+03  0.12699999809E+01 0.  1.
       -4    1    3    3    0  502 -0.21247720544E+03 -0.30972052267E+03 -0.93740857127E+02  0.38712055769E+03  0.12699999809E+01 0. -1.
</event>
<event>
 5   0  0.4086111E-04  0.7998686E+03  0.7818609E-02  0.9560207E-01
        1   -1    0    0  501    0  0.00000000000E+00  0.00000000000E+00  0.67838583892E+03  0.67838583894E+03  0.50400001928E-02 0.  1.
       -1   -1    0    0    0  501  0.00000000000E+00  0.00000000000E+00 -0.23577652918E+03  0.23577652924E+03  0.50400001928E-02 0. -1.
    10030    2    1    2    0    0  0.00000000000E+00  0.00000000000E+00  0.44260930974E+03  0.91416236817E+03  0.79986863566E+03 0.  0.
        3    1    3    3  502    0  0.13833481425E+03 -0.75526779175E+02 -0.19878598748E+03  0.25368621213E+03  0.10100000352E+00 0. -1.
       -3    1    3    3    0  502 -0.13833481425E+03  0.75526779175E+02  0.64139529722E+03  0.66047615604E+03  0.10100000352E+00 0.  1.
</event>
<event>
 5   0  0.2736375E-04  0.8005187E+03  0.7818609E-02  0.9559267E-01
       -3   -1    0    0    0  501  0.00000000000E+00  0.00000000000E+00  0.29270789302E+03  0.29270791044E+03  0.10100000352E+00 0.  1.
        3   -1    0    0  501    0  0.00000000000E+00  0.00000000000E+00 -0.54732911968E+03  0.54732912900E+03  0.10100000352E+00 0. -1.
    10030    2    1    2    0    0  0.00000000000E+00  0.00000000000E+00 -0.25462122666E+03  0.84003703944E+03  0.80051874342E+03 0.  0.
        4    1    3    3  502    0  0.63636429041E+02 -0.19601590964E+03 -0.48737328642E+03  0.52915608770E+03  0.12699999809E+01 0. -1.
       -4    1    3    3    0  502 -0.63636429041E+02  0.19601590964E+03  0.23275205976E+03  0.31088095174E+03  0.12699999809E+01 0.  1.
</event>
<event>
 5   0  0.6970013E-04  0.8002795E+03  0.7818609E-02  0.9559613E-01
       -2   -1    0    0    0  501  0.00000000000E+00  0.00000000000E+00  0.81064792724E+03  0.81064792725E+03  0.25500000920E-02 0. -1.
        2   -1    0    0  501    0  0.00000000000E+00  0.00000000000E+00 -0.19751091931E+03  0.19751091933E+03  0.25500000920E-02 0.  1.
    10030    2    1    2    0    0  0.00000000000E+00  0.00000000000E+00  0.61313700793E+03  0.10081588466E+04  0.80027949458E+03 0.  0.
        3    1    3    3  502    0 -0.15179908064E+03 -0.15992159766E+03 -0.11407374045E+03  0.24825532570E+03  0.10100000352E+00 0.  1.
       -3    1    3    3    0  502  0.15179908064E+03  0.15992159766E+03  0.72721074838E+03  0.75990352088E+03  0.10100000352E+00 0. -1.
</event>
<event>
 5   0  0.6801147E-04  0.8000134E+03  0.7818609E-02  0.9559998E-01
       -2   -1    0    0    0  501  0.00000000000E+00  0.00000000000E+00  0.80460329037E+03  0.80460329038E+03  0.25500000920E-02 0.  1.
        2   -1    0    0  501    0  0.00000000000E+00  0.00000000000E+00 -0.19886240945E+03  0.19886240947E+03  0.25500000920E-02 0. -1.
    10030    2    1    2    0    0  0.00000000000E+00  0.00000000000E+00  0.60574088092E+03  0.10034656998E+04  0.80001337236E+03 0.  0.
        4    1    3    3  502    0  0.27109921266E+03 -0.18886602743E+03  0.58568513921E+03  0.67245360778E+03  0.12699999809E+01 0.  1.
       -4    1    3    3    0  502 -0.27109921266E+03  0.18886602743E+03  0.20055741712E+02  0.33101209207E+03  0.12699999809E+01 0. -1.
</event>
<event>
 5   0  0.4169155E-04  0.7998611E+03  0.7818609E-02  0.9560218E-01
       -1   -1    0    0    0  501  0.00000000000E+00  0.00000000000E+00  0.62054901652E+03  0.62054901654E+03  0.50400001928E-02 0. -1.
        1   -1    0    0  501    0  0.00000000000E+00  0.00000000000E+00 -0.25774665799E+03  0.25774665804E+03  0.50400001928E-02 0.  1.
    10030    2    1    2    0    0  0.00000000000E+00  0.00000000000E+00  0.36280235853E+03  0.87829567459E+03  0.79986107584E+03 0.  0.
        4    1    3    3  502    0  0.79678117234E+02 -0.36694187863E+03  0.33255059276E+03  0.50158394542E+03  0.12699999809E+01 0. -1.
       -4    1    3    3    0  502 -0.79678117234E+02  0.36694187863E+03  0.30251765764E+02  0.37671172916E+03  0.12699999809E+01 0.  1.
</event>
<event>
 5   0  0.4086111E-04  0.7999738E+03  0.7818609E-02  0.9560055E-01
       -1   -1    0    0    0  501  0.00000000000E+00  0.00000000000E+00  0.30206381345E+03  0.30206381349E+03  0.50400001928E-02 0.  1.
        1   -1    0    0  501    0  0.00000000000E+00  0.00000000000E+00 -0.52965471193E+03  0.52965471195E+03  0.50400001928E-02 0. -1.
    10030    2    1    2    0    0  0.00000000000E+00  0.00000000000E+00 -0.22759089848E+03  0.83171852544E+03  0.79997380488E+03 0.  0.
        3    1    3    3  502    0  0.31497791205E+03 -0.34019462392E+02  0.14006825450E+03  0.34639216940E+03  0.10100000352E+00 0.  1.
       -3    1    3    3    0  502 -0.31497791205E+03  0.34019462392E+02 -0.36765915297E+03  0.48532635604E+03  0.10100000352E+00 0. -1.
</event>
<event>
 5   0  0.6970013E-04  0.8004055E+03  0.7818609E-02  0.9559430E-01
        2   -1    0    0  501    0  0.00000000000E+00  0.00000000000E+00  0.56843100013E+03  0.56843100014E+03  0.25500000920E-02 0. -1.
       -2   -1    0    0    0  501  0.00000000000E+00  0.00000000000E+00 -0.28176195334E+03  0.28176195335E+03  0.25500000920E-02 0.  1.
    10030    2    1    2    0    0  0.00000000000E+00  0.00000000000E+00  0.28666904679E+03  0.85019295349E+03  0.80040546961E+03 0.  0.
        3    1    3    3  502    0  0.35503146404E+03 -0.18456720678E+03  0.15083223564E+03  0.42762456406E+03  0.10100000352E+00 0. -1.
       -3    1    3    3    0  502 -0.35503146404E+03  0.18456720678E+03  0.13583681114E+03  0.42256838943E+03  0.10100000352E+00 0.  1.
</event>
<event>
 5   0  0.4104786E-04  0.7995256E+03  0.7818609E-02  0.9560704E-01
       -1   -1    0    0    0  501  0.00000000000E+00  0.00000000000E+00  0.23696354020E+03  0.23696354025E+03  0.50400001928E-02 0. -1.
        1   -1    0    0  501    0  0.00000000000E+00  0.00000000000E+00 -0.67440881008E+03  0.67440881010E+03  0.50400001928E-02 0.  1.
    10030    2    1    2    0    0  0.00000000000E+00  0.00000000000E+00 -0.43744526988E+03  0.91137235036E+03  0.79952560738E+03 0.  0.
        2    1    3    3  502    0 -0.15121000033E+03 -0.22280805656E+03 -0.55552611820E+03  0.61734687355E+03  0.25500000920E-02 0.  1.
       -2    1    3    3    0  502  0.15121000033E+03  0.22280805656E+03  0.11808084832E+03  0.29402547681E+03  0.25500000920E-02 0. -1.
</event>
<event>
 5   0  0.6970013E-04  0.7980911E+03  0.7818609E-02  0.9562784E-01
       -2   -1    0    0    0  501  0.00000000000E+00  0.00000000000E+00  0.14684720940E+03  0.14684720942E+03  0.25500000920E-02 0. -1.
        2   -1    0    0  501    0  0.00000000000E+00  0.00000000000E+00 -0.10843743686E+04  0.10843743686E+04  0.25500000920E-02 0.  1.
    10030    2    1    2    0    0  0.00000000000E+00  0.00000000000E+00 -0.93752715919E+03  0.12312215780E+04  0.79809109752E+03 0.  0.
        3    1    3    3  502    0 -0.15043214761E+03 -0.30650646926E+03 -0.78740392130E+03  0.85824296805E+03  0.10100000352E+00 0.  1.
       -3    1    3    3    0  502  0.15043214761E+03  0.30650646926E+03 -0.15012323789E+03  0.37297860996E+03  0.10100000352E+00 0. -1.
</event>
<event>
 5   0  0.4392552E-04  0.7999517E+03  0.7818609E-02  0.9560087E-01
       -1   -1    0    0    0  501  0.00000000000E+00  0.00000000000E+00  0.45145447604E+03  0.45145447607E+03  0.50400001928E-02 0.  1.
        1   -1    0    0  501    0  0.00000000000E+00  0.00000000000E+00 -0.35436724777E+03  0.35436724780E+03  0.50400001928E-02 0. -1.
    10030    2    1    2    0    0  0.00000000000E+00  0.00000000000E+00  0.97087228274E+02  0.80582172387E+03  0.79995169902E+03 0.  0.
        5    1    3    3  502    0 -0.27419750283E+03  0.24762727822E+03 -0.10573061827E+03  0.38432355264E+03  0.46999998093E+01 0. -1.
       -5    1    3    3    0  502  0.27419750283E+03 -0.24762727822E+03  0.20281784654E+03  0.42149817123E+03  0.46999998093E+01 0.  1.
</event>
<event>
 5   0  0.4104786E-04  0.7997345E+03  0.7818609E-02  0.9560401E-01
       -1   -1    0    0    0  501  0.00000000000E+00  0.00000000000E+00  0.38101776338E+03  0.38101776341E+03  0.50400001928E-02 0. -1.
        1   -1    0    0  501    0  0.00000000000E+00  0.00000000000E+00 -0.41964925836E+03  0.41964925839E+03  0.50400001928E-02 0.  1.
    10030    2    1    2    0    0  0.00000000000E+00  0.00000000000E+00 -0.38631494984E+02  0.80066702180E+03  0.79973451057E+03 0.  0.
        2    1    3    3  502    0 -0.12319025785E+03  0.47489955873E+02 -0.39719815035E+03  0.41856601174E+03  0.25500000920E-02 0.  1.
       -2    1    3    3    0  502  0.12319025785E+03 -0.47489955873E+02  0.35856665537E+03  0.38210101006E+03  0.25500000920E-02 0. -1.
</event>
<event>
 5   0  0.6672462E-04  0.7977209E+03  0.7818609E-02  0.9563322E-01
        2   -1    0    0  501    0  0.00000000000E+00  0.00000000000E+00  0.51209858431E+03  0.51209858431E+03  0.25500000920E-02 0. -1.
       -2   -1    0    0    0  501  0.00000000000E+00  0.00000000000E+00 -0.31066213375E+03  0.31066213376E+03  0.25500000920E-02 0.  1.
    10030    2    1    2    0    0  0.00000000000E+00  0.00000000000E+00  0.20143645056E+03  0.82276071807E+03  0.79772085067E+03 0.  0.
        5    1    3    3  502    0  0.37225396246E+03 -0.63237758196E+02  0.23318459668E+03  0.44381209172E+03  0.46999998093E+01 0.  1.
       -5    1    3    3    0  502 -0.37225396246E+03  0.63237758196E+02 -0.31748146118E+02  0.37894862635E+03  0.46999998093E+01 0. -1.
</event>
<event>
 5   0  0.4087283E-04  0.7999495E+03  0.7818609E-02  0.9560090E-01
        1   -1    0    0  501    0  0.00000000000E+00  0.00000000000E+00  0.74668355832E+03  0.74668355833E+03  0.50400001928E-02 0.  1.
       -1   -1    0    0    0  501  0.00000000000E+00  0.00000000000E+00 -0.21425381322E+03  0.21425381328E+03  0.50400001928E-02 0. -1.
    10030    2    1    2    0    0  0.00000000000E+00  0.00000000000E+00  0.53242974509E+03  0.96093737161E+03  0.79994949760E+03 0.  0.
        1    1    3    3  502    0 -0.99546569309E+02 -0.84479477310E+02  0.72036508856E+03  0.73210119682E+03  0.50400001928E-02 0.  1.
       -1    1    3    3    0  502  0.99546569309E+02  0.84479477310E+02 -0.18793534346E+03  0.22883617480E+03  0.50400001928E-02 0. -1.
</event>
<event>
 5   0  0.4087283E-04  0.8002572E+03  0.7818609E-02  0.9559645E-01
        1   -1    0    0  501    0  0.00000000000E+00  0.00000000000E+00  0.52307854168E+02  0.52307854411E+02  0.50400001928E-02 0.  1.
       -1   -1    0    0    0  501  0.00000000000E+00  0.00000000000E+00 -0.30607809810E+04  0.30607809810E+04  0.50400001928E-02 0. -1.
    10030    2    1    2    0    0  0.00000000000E+00  0.00000000000E+00 -0.30084731269E+04  0.31130888355E+04  0.80025717262E+03 0.  0.
        1    1    3    3  502    0 -0.74865677123E+02 -0.36909044352E+03 -0.97841994514E+03  0.10483979274E+04  0.50400001928E-02 0. -1.
       -1    1    3    3    0  502  0.74865677123E+02  0.36909044352E+03 -0.20300531817E+04  0.20646909081E+04  0.50400001928E-02 0.  1.
</event>
<event>
 5   0  0.6970013E-04  0.8004057E+03  0.7818609E-02  0.9559430E-01
        2   -1    0    0  501    0  0.00000000000E+00  0.00000000000E+00  0.83365422228E+03  0.83365422229E+03  0.25500000920E-02 0.  1.
       -2   -1    0    0    0  501  0.00000000000E+00  0.00000000000E+00 -0.19212078767E+03  0.19212078769E+03  0.25500000920E-02 0. -1.
    10030    2    1    2    0    0  0.00000000000E+00  0.00000000000E+00  0.64153343461E+03  0.10257750100E+04  0.80040566175E+03 0.  0.
        3    1    3    3  502    0 -0.13954798404E+03  0.36955192983E+03  0.23850609492E+03  0.46144060961E+03  0.10100000352E+00 0. -1.
       -3    1    3    3    0  502  0.13954798404E+03 -0.36955192983E+03  0.40302733969E+03  0.56433440036E+03  0.10100000352E+00 0.  1.
</event>
<event>
 5   0  0.4104786E-04  0.7990400E+03  0.7818609E-02  0.9561408E-01
       -1   -1    0    0    0  501  0.00000000000E+00  0.00000000000E+00  0.19096271471E+03  0.19096271478E+03  0.50400001928E-02 0.  1.
        1   -1    0    0  501    0  0.00000000000E+00  0.00000000000E+00 -0.83585025223E+03  0.83585025224E+03  0.50400001928E-02 0. -1.
    10030    2    1    2    0    0  0.00000000000E+00  0.00000000000E+00 -0.64488753751E+03  0.10268129670E+04  0.79904000726E+03 0.  0.
        2    1    3    3  502    0 -0.20114905521E+03  0.15617942145E+03 -0.71803154216E+03  0.76185448062E+03  0.25500000920E-02 0. -1.
       -2    1    3    3    0  502  0.20114905521E+03 -0.15617942145E+03  0.73144004647E+02  0.26495848640E+03  0.25500000920E-02 0.  1.
</event>
<event>
 5   0  0.4087283E-04  0.7999373E+03  0.7818609E-02  0.9560108E-01
       -1   -1    0    0    0  501  0.00000000000E+00  0.00000000000E+00  0.37695438773E+03  0.37695438776E+03  0.50400001928E-02 0. -1.
        1   -1    0    0  501    0  0.00000000000E+00  0.00000000000E+00 -0.42438799123E+03  0.42438799126E+03  0.50400001928E-02 0.  1.
    10030    2    1    2    0    0  0.00000000000E+00  0.00000000000E+00 -0.47433603504E+02  0.80134237903E+03  0.79993728609E+03 0.  0.
        1    1    3    3  502    0  0.32032233957E+03  0.23921878619E+03 -0.35691312332E+02  0.40137999289E+03  0.50400001928E-02 0.  1.
       -1    1    3    3    0  502 -0.32032233957E+03 -0.23921878619E+03 -0.11742291172E+02  0.39996238613E+03  0.50400001928E-02 0. -1.
</event>
<event>
 5   0  0.6672462E-04  0.7996634E+03  0.7818609E-02  0.9560504E-01
        2   -1    0    0  501    0  0.00000000000E+00  0.00000000000E+00  0.94770113332E+03  0.94770113332E+03  0.25500000920E-02 0. -1.
       -2   -1    0    0    0  501  0.00000000000E+00  0.00000000000E+00 -0.16868754789E+03  0.16868754791E+03  0.25500000920E-02 0.  1.
    10030    2    1    2    0    0  0.00000000000E+00  0.00000000000E+00  0.77901358542E+03  0.11163886812E+04  0.79966338000E+03 0.  0.
        5    1    3    3  502    0  0.12760233468E+03  0.35681557211E+03  0.56743676829E+03  0.68235348927E+03  0.46999998093E+01 0.  1.
       -5    1    3    3    0  502 -0.12760233468E+03 -0.35681557211E+03  0.21157681713E+03  0.43403519196E+03  0.46999998093E+01 0. -1.
</event>
<event>
 5   0  0.4392552E-04  0.8000674E+03  0.7818609E-02  0.9559920E-01
        1   -1    0    0  501    0  0.00000000000E+00  0.00000000000E+00  0.48318344702E+03  0.48318344705E+03  0.50400001928E-02 0.  1.
       -1   -1    0    0    0  501  0.00000000000E+00  0.00000000000E+00 -0.33119297440E+03  0.33119297444E+03  0.50400001928E-02 0. -1.
    10030    2    1    2    0    0  0.00000000000E+00  0.00000000000E+00  0.15199047262E+03  0.81437642149E+03  0.80006740473E+03 0.  0.
        5    1    3    3  502    0 -0.26039250007E+02 -0.27214739832E+03 -0.22122471661E+03  0.35171680965E+03  0.46999998093E+01 0. -1.
       -5    1    3    3    0  502  0.26039250007E+02  0.27214739832E+03  0.37321518923E+03  0.46265961184E+03  0.46999998093E+01 0.  1.
</event>
<event>
 5   0  0.6970013E-04  0.8025818E+03  0.7818609E-02  0.9556288E-01
        2   -1    0    0  501    0  0.00000000000E+00  0.00000000000E+00  0.84940992171E+03  0.84940992171E+03  0.25500000920E-02 0. -1.
       -2   -1    0    0    0  501  0.00000000000E+00  0.00000000000E+00 -0.18958380827E+03  0.18958380829E+03  0.25500000920E-02 0.  1.
    10030    2    1    2    0    0  0.00000000000E+00  0.00000000000E+00  0.65982611343E+03  0.10389937300E+04  0.80258175347E+03 0.  0.
        3    1    3    3  502    0 -0.48518835565E+02 -0.76266942953E+02 -0.17623285593E+03  0.19806249949E+03  0.10100000352E+00 0.  1.
       -3    1    3    3    0  502  0.48518835565E+02  0.76266942953E+02  0.83605896937E+03  0.84093123051E+03  0.10100000352E+00 0. -1.
</event>
<event>
 5   0  0.4104786E-04  0.7993036E+03  0.7818609E-02  0.9561026E-01
       -1   -1    0    0    0  501  0.00000000000E+00  0.00000000000E+00  0.51524386329E+03  0.51524386332E+03  0.50400001928E-02 0. -1.
        1   -1    0    0  501    0  0.00000000000E+00  0.00000000000E+00 -0.30999217071E+03  0.30999217075E+03  0.50400001928E-02 0.  1.
    10030    2    1    2    0    0  0.00000000000E+00  0.00000000000E+00  0.20525169259E+03  0.82523603407E+03  0.79930360603E+03 0.  0.
        2    1    3    3  502    0 -0.73281771001E+02 -0.29693462464E+03  0.36822925578E+03  0.47867857075E+03  0.25500000920E-02 0. -1.
       -2    1    3    3    0  502  0.73281771001E+02  0.29693462464E+03 -0.16297756319E+03  0.34655746332E+03  0.25500000920E-02 0.  1.
</event>
<event>
 5   0  0.4104786E-04  0.8000025E+03  0.7818609E-02  0.9560014E-01
       -1   -1    0    0    0  501  0.00000000000E+00  0.00000000000E+00  0.10346838454E+03  0.10346838466E+03  0.50400001928E-02 0. -1.
        1   -1    0    0  501    0  0.00000000000E+00  0.00000000000E+00 -0.15463756204E+04  0.15463756204E+04  0.50400001928E-02 0.  1.
    10030    2    1    2    0    0  0.00000000000E+00  0.00000000000E+00 -0.14429072359E+04  0.16498440051E+04  0.80000246861E+03 0.  0.
        2    1    3    3  502    0 -0.23236832252E+03  0.32548210856E+03 -0.73837793372E+03  0.83972353386E+03  0.25500000920E-02 0.  1.
       -2    1    3    3    0  502  0.23236832252E+03 -0.32548210856E+03 -0.70452930216E+03  0.81012047124E+03  0.25500000920E-02 0. -1.
</event>
<event>
 5   0  0.4087283E-04  0.7994614E+03  0.7818609E-02  0.9560797E-01
       -1   -1    0    0    0  501  0.00000000000E+00  0.00000000000E+00  0.59329540311E+03  0.59329540313E+03  0.50400001928E-02 0.  1.
        1   -1    0    0  501    0  0.00000000000E+00  0.00000000000E+00 -0.26931716037E+03  0.26931716042E+03  0.50400001928E-02 0. -1.
    10030    2    1    2    0    0  0.00000000000E+00  0.00000000000E+00  0.32397824274E+03  0.86261256356E+03  0.79946140184E+03 0.  0.
        1    1    3    3  502    0 -0.69744512786E+02 -0.28592832187E+03  0.45384668249E+03  0.54092154102E+03  0.50400001928E-02 0.  1.
       -1    1    3    3    0  502  0.69744512786E+02  0.28592832187E+03 -0.12986843975E+03  0.32169102253E+03  0.50400001928E-02 0. -1.
</event>
<event>
 5   0  0.4169155E-04  0.7995847E+03  0.7818609E-02  0.9560618E-01
       -1   -1    0    0    0  501  0.00000000000E+00  0.00000000000E+00  0.26212726750E+03  0.26212726755E+03  0.50400001928E-02 0.  1.
        1   -1    0    0  501    0  0.00000000000E+00  0.00000000000E+00 -0.60975702217E+03  0.60975702219E+03  0.50400001928E-02 0. -1.
    10030    2    1    2    0    0  0.00000000000E+00  0.00000000000E+00 -0.34762975466E+03  0.87188428974E+03  0.79958474746E+03 0.  0.
        4    1    3    3  502    0  0.11937077109E+03  0.81363964752E+02  0.23266936342E+03  0.27387245449E+03  0.12699999809E+01 0.  1.
       -4    1    3    3    0  502 -0.11937077109E+03 -0.81363964752E+02 -0.58029911809E+03  0.59801183526E+03  0.12699999809E+01 0. -1.
</event>
<event>
 5   0  0.7133039E-04  0.8001097E+03  0.7818609E-02  0.9559858E-01
        2   -1    0    0  501    0  0.00000000000E+00  0.00000000000E+00  0.48924461259E+03  0.48924461260E+03  0.25500000920E-02 0. -1.
       -2   -1    0    0    0  501  0.00000000000E+00  0.00000000000E+00 -0.32712448731E+03  0.32712448732E+03  0.25500000920E-02 0.  1.
    10030    2    1    2    0    0  0.00000000000E+00  0.00000000000E+00  0.16212012528E+03  0.81636909992E+03  0.80010972515E+03 0.  0.
        2    1    3    3  502    0  0.23774129195E+02  0.27813566784E+02 -0.32541362336E+03  0.32746424231E+03  0.25500000920E-02 0.  1.
       -2    1    3    3    0  502 -0.23774129195E+02 -0.27813566784E+02  0.48753374864E+03  0.48890485760E+03  0.25500000920E-02 0. -1.
</event>
<event>
 5   0  0.6593118E-04  0.7999346E+03  0.7818609E-02  0.9560112E-01
        2   -1    0    0  501    0  0.00000000000E+00  0.00000000000E+00  0.46205629654E+03  0.46205629655E+03  0.25500000920E-02 0. -1.
       -2   -1    0    0    0  501  0.00000000000E+00  0.00000000000E+00 -0.34622153298E+03  0.34622153299E+03  0.25500000920E-02 0.  1.
    10030    2    1    2    0    0  0.00000000000E+00  0.00000000000E+00  0.11583476356E+03  0.80827782954E+03  0.79993459563E+03 0.  0.
        1    1    3    3  502    0  0.11953880788E+02  0.38686210150E+03 -0.43974132621E+02  0.38953678287E+03  0.50400001928E-02 0.  1.
       -1    1    3    3    0  502 -0.11953880788E+02 -0.38686210150E+03  0.15980889618E+03  0.41874104667E+03  0.50400001928E-02 0. -1.
</event>
<event>
 5   0  0.6970013E-04  0.7999244E+03  0.7818609E-02  0.9560127E-01
       -2   -1    0    0    0  501  0.00000000000E+00  0.00000000000E+00  0.74021771773E+02  0.74021771817E+02  0.25500000920E-02 0. -1.
        2   -1    0    0  501    0  0.00000000000E+00  0.00000000000E+00 -0.21611176321E+04  0.21611176321E+04  0.25500000920E-02 0.  1.
    10030    2    1    2    0    0  0.00000000000E+00  0.00000000000E+00 -0.20870958603E+04  0.22351394039E+04  0.79992438689E+03 0.  0.
        3    1    3    3  502    0 -0.37352570406E+03  0.10087861620E+03 -0.13267385981E+04  0.13820033520E+04  0.10100000352E+00 0.  1.
       -3    1    3    3    0  502  0.37352570406E+03 -0.10087861620E+03 -0.76035726214E+03  0.85313605193E+03  0.10100000352E+00 0. -1.
</event>
<event>
 5   0  0.6593118E-04  0.8002336E+03  0.7818609E-02  0.9559679E-01
        2   -1    0    0  501    0  0.00000000000E+00  0.00000000000E+00  0.88611003488E+03  0.88611003488E+03  0.25500000920E-02 0. -1.
       -2   -1    0    0    0  501  0.00000000000E+00  0.00000000000E+00 -0.18066996361E+03  0.18066996363E+03  0.25500000920E-02 0.  1.
    10030    2    1    2    0    0  0.00000000000E+00  0.00000000000E+00  0.70544007127E+03  0.10667799985E+04  0.80023363529E+03 0.  0.
        1    1    3    3  502    0 -0.15646615401E+03  0.24601111027E+03  0.71802040361E+03  0.77495575600E+03  0.50400001928E-02 0. -1.
       -1    1    3    3    0  502  0.15646615401E+03 -0.24601111027E+03 -0.12580332344E+02  0.29182424251E+03  0.50400001928E-02 0.  1.
</event>
<event>
 5   0  0.6801147E-04  0.7998850E+03  0.7818609E-02  0.9560184E-01
        2   -1    0    0  501    0  0.00000000000E+00  0.00000000000E+00  0.11270806413E+04  0.11270806413E+04  0.25500000920E-02 0.  1.
       -2   -1    0    0    0  501  0.00000000000E+00  0.00000000000E+00 -0.14191886093E+03  0.14191886095E+03  0.25500000920E-02 0. -1.
    10030    2    1    2    0    0  0.00000000000E+00  0.00000000000E+00  0.98516178035E+03  0.12689995022E+04  0.79988499375E+03 0.  0.
        4    1    3    3  502    0 -0.14082722172E+03 -0.36713586532E+03  0.60841914554E+03  0.72442840885E+03  0.12699999809E+01 0. -1.
       -4    1    3    3    0  502  0.14082722172E+03  0.36713586532E+03  0.37674263481E+03  0.54457109339E+03  0.12699999809E+01 0.  1.
</event>
<event>
 5   0  0.4086111E-04  0.7975166E+03  0.7818609E-02  0.9563619E-01
       -1   -1    0    0    0  501  0.00000000000E+00  0.00000000000E+00  0.20803180644E+03  0.20803180651E+03  0.50400001928E-02 0.  1.
        1   -1    0    0  501    0  0.00000000000E+00  0.00000000000E+00 -0.76434550855E+03  0.76434550856E+03  0.50400001928E-02 0. -1.
    10030    2    1    2    0    0  0.00000000000E+00  0.00000000000E+00 -0.55631370210E+03  0.97237731507E+03  0.79751658773E+03 0.  0.
        3    1    3    3  502    0  0.23057141513E+03 -0.14202857834E+03  0.78718667884E+02  0.28201406599E+03  0.10100000352E+00 0.  1.
       -3    1    3    3    0  502 -0.23057141513E+03  0.14202857834E+03 -0.63503236998E+03  0.69036324907E+03  0.10100000352E+00 0. -1.
</event>
<event>
 5   0  0.4087283E-04  0.7995452E+03  0.7818609E-02  0.9560676E-01
        1   -1    0    0  501    0  0.00000000000E+00  0.00000000000E+00  0.96327509950E+03  0.96327509952E+03  0.50400001928E-02 0. -1.
       -1   -1    0    0    0  501  0.00000000000E+00  0.00000000000E+00 -0.16591118744E+03  0.16591118752E+03  0.50400001928E-02 0.  1.
    10030    2    1    2    0    0  0.00000000000E+00  0.00000000000E+00  0.79736391207E+03  0.11291862870E+04  0.79954515980E+03 0.  0.
        1    1    3    3  502    0  0.13188272024E+03 -0.30652411087E+03  0.70960312731E+03  0.78414710403E+03  0.50400001928E-02 0. -1.
       -1    1    3    3    0  502 -0.13188272024E+03  0.30652411087E+03  0.87760784752E+02  0.34503918300E+03  0.50400001928E-02 0.  1.
</event>
<event>
 5   0  0.4392552E-04  0.8000567E+03  0.7818609E-02  0.9559935E-01
        1   -1    0    0  501    0  0.00000000000E+00  0.00000000000E+00  0.29209053729E+03  0.29209053734E+03  0.50400001928E-02 0. -1.
       -1   -1    0    0    0  501  0.00000000000E+00  0.00000000000E+00 -0.54785298266E+03  0.54785298269E+03  0.50400001928E-02 0.  1.
    10030    2    1    2    0    0  0.00000000000E+00  0.00000000000E+00 -0.25576244537E+03  0.83994352003E+03  0.80005667822E+03 0.  0.
        5    1    3    3  502    0  0.35567599077E+02  0.13188979274E+03 -0.52257730054E+03  0.54015654821E+03  0.46999998093E+01 0.  1.
       -5    1    3    3    0  502 -0.35567599077E+02 -0.13188979274E+03  0.26681485517E+03  0.29978697182E+03  0.46999998093E+01 0. -1.
</event>
<event>
 5   0  0.4169155E-04  0.8002070E+03  0.7818609E-02  0.9559717E-01
       -1   -1    0    0    0  501  0.00000000000E+00  0.00000000000E+00  0.17363200233E+03  0.17363200240E+03  0.50400001928E-02 0. -1.
        1   -1    0    0  501    0  0.00000000000E+00  0.00000000000E+00 -0.92196613027E+03  0.92196613028E+03  0.50400001928E-02 0.  1.
    10030    2    1    2    0    0  0.00000000000E+00  0.00000000000E+00 -0.74833412794E+03  0.10955981327E+04  0.80020703652E+03 0.  0.
        4    1    3    3  502    0 -0.32173406783E+03  0.23716067235E+03 -0.34955226123E+03  0.53098624383E+03  0.12699999809E+01 0.  1.
       -4    1    3    3    0  502  0.32173406783E+03 -0.23716067235E+03 -0.39878186671E+03  0.56461188885E+03  0.12699999809E+01 0. -1.
</event>
<event>
 5   0  0.4169155E-04  0.7996022E+03  0.7818609E-02  0.9560593E-01
        1   -1    0    0  501    0  0.00000000000E+00  0.00000000000E+00  0.53833609121E+03  0.53833609123E+03  0.50400001928E-02 0. -1.
       -1   -1    0    0    0  501  0.00000000000E+00  0.00000000000E+00 -0.29691662196E+03  0.29691662200E+03  0.50400001928E-02 0.  1.
    10030    2    1    2    0    0  0.00000000000E+00  0.00000000000E+00  0.24141946925E+03  0.83525271324E+03  0.79960223539E+03 0.  0.
        4    1    3    3  502    0  0.17899115129E+02 -0.26740380570E+03 -0.18918923917E+03  0.32805389000E+03  0.12699999809E+01 0.  1.
       -4    1    3    3    0  502 -0.17899115129E+02  0.26740380570E+03  0.43060870842E+03  0.50719882323E+03  0.12699999809E+01 0. -1.
</event>
<event>
 5   0  0.4086111E-04  0.7995052E+03  0.7818609E-02  0.9560734E-01
        1   -1    0    0  501    0  0.00000000000E+00  0.00000000000E+00  0.31246651117E+03  0.31246651121E+03  0.50400001928E-02 0.  1.
       -1   -1    0    0    0  501  0.00000000000E+00  0.00000000000E+00 -0.51142163495E+03  0.51142163498E+03  0.50400001928E-02 0. -1.
    10030    2    1    2    0    0  0.00000000000E+00  0.00000000000E+00 -0.19895512378E+03  0.82388814619E+03  0.79950518206E+03 0.  0.
        3    1    3    3  502    0 -0.25326998713E+03 -0.30027799807E+03 -0.17582874869E+03  0.43038159995E+03  0.10100000352E+00 0.  1.
       -3    1    3    3    0  502  0.25326998713E+03  0.30027799807E+03 -0.23126375086E+02  0.39350654624E+03  0.10100000352E+00 0. -1.
</event>
<event>
 5   0  0.6801147E-04  0.7998889E+03  0.7818609E-02  0.9560178E-01
       -2   -1    0    0    0  501  0.00000000000E+00  0.00000000000E+00  0.28979333997E+03  0.28979333998E+03  0.25500000920E-02 0. -1.
        2   -1    0    0  501    0  0.00000000000E+00  0.00000000000E+00 -0.55196430042E+03  0.55196430043E+03  0.25500000920E-02 0.  1.
    10030    2    1    2    0    0  0.00000000000E+00  0.00000000000E+00 -0.26217096045E+03  0.84175764041E+03  0.79988893772E+03 0.  0.
        4    1    3    3  502    0  0.14318309067E+03  0.11732661495E+03 -0.50416603508E+03  0.53707721591E+03  0.12699999809E+01 0.  1.
       -4    1    3    3    0  502 -0.14318309067E+03 -0.11732661495E+03  0.24199507463E+03  0.30468042450E+03  0.12699999809E+01 0. -1.
</event>
<event>
 5   0  0.4104786E-04  0.7994780E+03  0.7818609E-02  0.9560773E-01
       -1   -1    0    0    0  501  0.00000000000E+00  0.00000000000E+00  0.85660098176E+03  0.85660098177E+03  0.50400001928E-02 0. -1.
        1   -1    0    0  501    0  0.00000000000E+00  0.00000000000E+00 -0.18654109592E+03  0.18654109598E+03  0.50400001928E-02 0.  1.
    10030    2    1    2    0    0  0.00000000000E+00  0.00000000000E+00  0.67005988584E+03  0.10431420778E+04  0.79947804458E+03 0.  0.
        2    1    3    3  502    0 -0.70390806311E+02 -0.13625101562E+03  0.81668970485E+03  0.83096406594E+03  0.25500000920E-02 0. -1.
       -2    1    3    3    0  502  0.70390806311E+02  0.13625101562E+03 -0.14662981901E+03  0.21217801182E+03  0.25500000920E-02 0.  1.
</event>
<event>
 5   0  0.4086111E-04  0.8000304E+03  0.7818609E-02  0.9559973E-01
        1   -1    0    0  501    0  0.00000000000E+00  0.00000000000E+00  0.83808961733E+03  0.83808961735E+03  0.50400001928E-02 0. -1.
       -1   -1    0    0    0  501  0.00000000000E+00  0.00000000000E+00 -0.19092485849E+03  0.19092485856E+03  0.50400001928E-02 0.  1.
    10030    2    1    2    0    0  0.00000000000E+00  0.00000000000E+00  0.64716475884E+03  0.10290144759E+04  0.80003035351E+03 0.  0.
        3    1    3    3  502    0  0.20806298184E+03 -0.22888273977E+03  0.64982251172E+03  0.71968522280E+03  0.10100000352E+00 0. -1.
       -3    1    3    3    0  502 -0.20806298184E+03  0.22888273977E+03 -0.26577528790E+01  0.30932925311E+03  0.10100000352E+00 0.  1.
</event>
<event>
 5   0  0.6672462E-04  0.8000312E+03  0.7818609E-02  0.9559972E-01
       -2   -1    0    0    0  501  0.00000000000E+00  0.00000000000E+00  0.22851390723E+03  0.22851390725E+03  0.25500000920E-02 0. -1.
        2   -1    0    0  501    0  0.00000000000E+00  0.00000000000E+00 -0.70023076177E+03  0.70023076177E+03  0.25500000920E-02 0.  1.
    10030    2    1    2    0    0  0.00000000000E+00  0.00000000000E+00 -0.47171685453E+03  0.92874466902E+03  0.80003116775E+03 0.  0.
        5    1    3    3  502    0 -0.29990260377E+03 -0.26458168368E+03 -0.24367509828E+03  0.46834248431E+03  0.46999998093E+01 0.  1.
       -5    1    3    3    0  502  0.29990260377E+03  0.26458168368E+03 -0.22804175625E+03  0.46040218471E+03  0.46999998093E+01 0. -1.
</event>
<event>
 5   0  0.4104786E-04  0.7999650E+03  0.7818609E-02  0.9560068E-01
       -1   -1    0    0    0  501  0.00000000000E+00  0.00000000000E+00  0.12187901941E+03  0.12187901952E+03  0.50400001928E-02 0. -1.
        1   -1    0    0  501    0  0.00000000000E+00  0.00000000000E+00 -0.13126622847E+04  0.13126622847E+04  0.50400001928E-02 0.  1.
    10030    2    1    2    0    0  0.00000000000E+00  0.00000000000E+00 -0.11907832653E+04  0.14345413042E+04  0.79996497964E+03 0.  0.
        2    1    3    3  502    0  0.35118726263E+03 -0.18482956960E+03 -0.50588091306E+03  0.64296964270E+03  0.25500000920E-02 0. -1.
       -2    1    3    3    0  502 -0.35118726263E+03  0.18482956960E+03 -0.68490235222E+03  0.79157166152E+03  0.25500000920E-02 0.  1.
</event>
<event>
 5   0  0.4086111E-04  0.8001729E+03  0.7818609E-02  0.9559767E-01
       -1   -1    0    0    0  501  0.00000000000E+00  0.00000000000E+00  0.12176278766E+03  0.12176278776E+03  0.50400001928E-02 0.  1.
        1   -1    0    0  501    0  0.00000000000E+00  0.00000000000E+00 -0.13145984084E+04  0.13145984084E+04  0.50400001928E-02 0. -1.
    10030    2    1    2    0    0  0.00000000000E+00  0.00000000000E+00 -0.11928356207E+04  0.14363611962E+04  0.80017289866E+03 0.  0.
        3    1    3    3  502    0  0.12904470176E+03 -0.28234508227E+03 -0.14337180842E+03  0.34194556027E+03  0.10100000352E+00 0.  1.
       -3    1    3    3    0  502 -0.12904470176E+03  0.28234508227E+03 -0.10494638123E+04  0.10944156359E+04  0.10100000352E+00 0. -1.
</event>
<event>
 5   0  0.4392552E-04  0.8000962E+03  0.7818609E-02  0.9559878E-01
       -1   -1    0    0    0  501  0.00000000000E+00  0.00000000000E+00  0.48602769001E+03  0.48602769004E+03  0.50400001928E-02 0.  1.
        1   -1    0    0  501    0  0.00000000000E+00  0.00000000000E+00 -0.32927852415E+03  0.32927852419E+03  0.50400001928E-02 0. -1.
    10030    2    1    2    0    0  0.00000000000E+00  0.00000000000E+00  0.15674916586E+03  0.81530621423E+03  0.80009619544E+03 0.  0.
        5    1    3    3  502    0  0.21228964703E+03  0.33729743699E+03  0.11337777376E+03  0.41438275159E+03  0.46999998093E+01 0.  1.
       -5    1    3    3    0  502 -0.21228964703E+03 -0.33729743699E+03  0.43371392109E+02  0.40092346263E+03  0.46999998093E+01 0. -1.
</event>
<event>
 5   0  0.7133039E-04  0.7999639E+03  0.7818609E-02  0.9560069E-01
        2   -1    0    0  501    0  0.00000000000E+00  0.00000000000E+00  0.95632715924E+03  0.95632715924E+03  0.25500000920E-02 0. -1.
       -2   -1    0    0    0  501  0.00000000000E+00  0.00000000000E+00 -0.16729167140E+03  0.16729167142E+03  0.25500000920E-02 0.  1.
    10030    2    1    2    0    0  0.00000000000E+00  0.00000000000E+00  0.78903548784E+03  0.11236188307E+04  0.79996392140E+03 0.  0.
        2    1    3    3  502    0  0.28520962499E+03  0.64673457813E+02  0.77778825621E+03  0.83095231983E+03  0.25500000920E-02 0. -1.
       -2    1    3    3    0  502 -0.28520962499E+03 -0.64673457813E+02  0.11247231635E+02  0.29266651083E+03  0.25500000920E-02 0.  1.
</event>
<event>
 5   0  0.7133039E-04  0.7996730E+03  0.7818609E-02  0.9560491E-01
        2   -1    0    0  501    0  0.00000000000E+00  0.00000000000E+00  0.12850582077E+04  0.12850582077E+04  0.25500000920E-02 0.  1.
       -2   -1    0    0    0  501  0.00000000000E+00  0.00000000000E+00 -0.12440620850E+03  0.12440620853E+03  0.25500000920E-02 0. -1.
    10030    2    1    2    0    0  0.00000000000E+00  0.00000000000E+00  0.11606519992E+04  0.14094644162E+04  0.79967298151E+03 0.  0.
        2    1    3    3  502    0  0.47580292029E+02  0.37578430331E+03  0.80598410795E+03  0.89055494444E+03  0.25500000920E-02 0. -1.
       -2    1    3    3    0  502 -0.47580292029E+02 -0.37578430331E+03  0.35466789122E+03  0.51890947175E+03  0.25500000920E-02 0.  1.
</event>
<event>
 5   0  0.6970013E-04  0.8019971E+03  0.7818609E-02  0.9557131E-01
        2   -1    0    0  501    0  0.00000000000E+00  0.00000000000E+00  0.15389813092E+04  0.15389813092E+04  0.25500000920E-02 0.  1.
       -2   -1    0    0    0  501  0.00000000000E+00  0.00000000000E+00 -0.10448460459E+03  0.10448460462E+03  0.25500000920E-02 0. -1.
    10030    2    1    2    0    0  0.00000000000E+00  0.00000000000E+00  0.14344967046E+04  0.16434659138E+04  0.80199714110E+03 0.  0.
        3    1    3    3  502    0 -0.16075334552E+02 -0.30418834411E+02 -0.10145441393E+03  0.10712950189E+03  0.10100000352E+00 0. -1.
       -3    1    3    3    0  502  0.16075334552E+02  0.30418834411E+02  0.15359511185E+04  0.15363364119E+04  0.10100000352E+00 0.  1.
</event>
<event>
 5   0  0.6801147E-04  0.8000293E+03  0.7818609E-02  0.9559975E-01
        2   -1    0    0  501    0  0.00000000000E+00  0.00000000000E+00  0.11826188874E+04  0.11826188874E+04  0.25500000920E-02 0. -1.
       -2   -1    0    0    0  501  0.00000000000E+00  0.00000000000E+00 -0.13530287719E+03  0.13530287721E+03  0.25500000920E-02 0.  1.
    10030    2    1    2    0    0  0.00000000000E+00  0.00000000000E+00  0.10473160102E+04  0.13179217646E+04  0.80002934471E+03 0.  0.
        4    1    3    3  502    0  0.34590760048E+03 -0.16475498241E+03  0.71302245350E+03  0.80944357703E+03  0.12699999809E+01 0. -1.
       -4    1    3    3    0  502 -0.34590760048E+03  0.16475498241E+03  0.33429355673E+03  0.50847818761E+03  0.12699999809E+01 0.  1.
</event>
<event>
 5   0  0.4087283E-04  0.8005100E+03  0.7818609E-02  0.9559279E-01
        1   -1    0    0  501    0  0.00000000000E+00  0.00000000000E+00  0.30090774290E+03  0.30090774294E+03  0.50400001928E-02 0.  1.
       -1   -1    0    0    0  501  0.00000000000E+00  0.00000000000E+00 -0.53240257368E+03  0.53240257371E+03  0.50400001928E-02 0. -1.
    10030    2    1    2    0    0  0.00000000000E+00  0.00000000000E+00 -0.23149483079E+03  0.83331031665E+03  0.80050997942E+03 0.  0.
        1    1    3    3  502    0 -0.16724031519E+03 -0.33168361179E+03  0.39426610159E+02  0.37354758595E+03  0.50400001928E-02 0.  1.
       -1    1    3    3    0  502  0.16724031519E+03  0.33168361179E+03 -0.27092144095E+03  0.45976273070E+03  0.50400001928E-02 0. -1.
</event>
<event>
 5   0  0.6801147E-04  0.7995512E+03  0.7818609E-02  0.9560667E-01
        2   -1    0    0  501    0  0.00000000000E+00  0.00000000000E+00  0.59149220693E+03  0.59149220694E+03  0.25500000920E-02 0.  1.
       -2   -1    0    0    0  501  0.00000000000E+00  0.00000000000E+00 -0.27019890805E+03  0.27019890807E+03  0.25500000920E-02 0. -1.
    10030    2    1    2    0    0  0.00000000000E+00  0.00000000000E+00  0.32129329888E+03  0.86169111501E+03  0.79955124525E+03 0.  0.
        4    1    3    3  502    0 -0.18862206478E+03 -0.26085366962E+03 -0.94834035503E+02  0.33558609546E+03  0.12699999809E+01 0. -1.
       -4    1    3    3    0  502  0.18862206478E+03  0.26085366962E+03  0.41612733438E+03  0.52610501955E+03  0.12699999809E+01 0.  1.
</event>
<event>
 5   0  0.4169155E-04  0.8001882E+03  0.7818609E-02  0.9559745E-01
        1   -1    0    0  501    0  0.00000000000E+00  0.00000000000E+00  0.59154995182E+03  0.59154995184E+03  0.50400001928E-02 0. -1.
       -1   -1    0    0    0  501  0.00000000000E+00  0.00000000000E+00 -0.27060315313E+03  0.27060315317E+03  0.50400001928E-02 0.  1.
    10030    2    1    2    0    0  0.00000000000E+00  0.00000000000E+00  0.32094679870E+03  0.86215310502E+03  0.80018818343E+03 0.  0.
        4    1    3    3  502    0 -0.13374408455E+03  0.32601868583E+03  0.36461307656E+03  0.50706998744E+03  0.12699999809E+01 0. -1.
       -4    1    3    3    0  502  0.13374408455E+03 -0.32601868583E+03 -0.43666277863E+02  0.35508311758E+03  0.12699999809E+01 0.  1.
</event>
<event>
 5   0  0.6593118E-04  0.7998646E+03  0.7818609E-02  0.9560213E-01
        2   -1    0    0  501    0  0.00000000000E+00  0.00000000000E+00  0.27651159315E+04  0.27651159315E+04  0.25500000920E-02 0.  1.
       -2   -1    0    0    0  501  0.00000000000E+00  0.00000000000E+00 -0.57844178143E+02  0.57844178199E+02  0.25500000920E-02 0. -1.
    10030    2    1    2    0    0  0.00000000000E+00  0.00000000000E+00  0.27072717534E+04  0.28229601097E+04  0.79986463507E+03 0.  0.
        1    1    3    3  502    0  0.49060083603E+02  0.37657968497E+03  0.17962315383E+04  0.18359376052E+04  0.50400001928E-02 0. -1.
       -1    1    3    3    0  502 -0.49060083603E+02 -0.37657968497E+03  0.91104021506E+03  0.98702250452E+03  0.50400001928E-02 0.  1.
</event>
<event>
 5   0  0.4086111E-04  0.7994955E+03  0.7818609E-02  0.9560748E-01
       -1   -1    0    0    0  501  0.00000000000E+00  0.00000000000E+00  0.10060221321E+03  0.10060221333E+03  0.50400001928E-02 0.  1.
        1   -1    0    0  501    0  0.00000000000E+00  0.00000000000E+00 -0.15884170836E+04  0.15884170836E+04  0.50400001928E-02 0. -1.
    10030    2    1    2    0    0  0.00000000000E+00  0.00000000000E+00 -0.14878148704E+04  0.16890192969E+04  0.79949552649E+03 0.  0.
        3    1    3    3  502    0  0.10411800378E+03  0.35175925552E+03 -0.10794271741E+04  0.11400605979E+04  0.10100000352E+00 0. -1.
       -3    1    3    3    0  502 -0.10411800378E+03 -0.35175925552E+03 -0.40838769635E+03  0.54895869907E+03  0.10100000352E+00 0.  1.
</event>
<event>
 5   0  0.6970013E-04  0.7992586E+03  0.7818609E-02  0.9561091E-01
       -2   -1    0    0    0  501  0.00000000000E+00  0.00000000000E+00  0.16512968133E+03  0.16512968135E+03  0.25500000920E-02 0.  1.
        2   -1    0    0  501    0  0.00000000000E+00  0.00000000000E+00 -0.96714028663E+03  0.96714028663E+03  0.25500000920E-02 0. -1.
    10030    2    1    2    0    0  0.00000000000E+00  0.00000000000E+00 -0.80201060530E+03  0.11322699680E+04  0.79925857478E+03 0.  0.
        3    1    3    3  502    0 -0.19087528936E+03  0.13403591746E+03 -0.86071774721E+03  0.89175896621E+03  0.10100000352E+00 0. -1.
       -3    1    3    3    0  502  0.19087528936E+03 -0.13403591746E+03  0.58707141901E+02  0.24051100177E+03  0.10100000352E+00 0.  1.
</event>
<event>
 5   0  0.4392552E-04  0.7997770E+03  0.7818609E-02  0.9560340E-01
       -1   -1    0    0    0  501  0.00000000000E+00  0.00000000000E+00  0.23144234266E+03  0.23144234271E+03  0.50400001928E-02 0.  1.
        1   -1    0    0  501    0  0.00000000000E+00  0.00000000000E+00 -0.69093149693E+03  0.69093149695E+03  0.50400001928E-02 0. -1.
    10030    2    1    2    0    0  0.00000000000E+00  0.00000000000E+00 -0.45948915427E+03  0.92237383966E+03  0.79977697967E+03 0.  0.
        5    1    3    3  502    0  0.37192626873E+02 -0.38195257043E+03 -0.10019755575E+03  0.39665185960E+03  0.46999998093E+01 0.  1.
       -5    1    3    3    0  502 -0.37192626873E+02  0.38195257043E+03 -0.35929159852E+03  0.52572198006E+03  0.46999998093E+01 0. -1.
</event>
<event>
 5   0  0.6593118E-04  0.7999931E+03  0.7818609E-02  0.9560027E-01
       -2   -1    0    0    0  501  0.00000000000E+00  0.00000000000E+00  0.16493616639E+03  0.16493616641E+03  0.25500000920E-02 0. -1.
        2   -1    0    0  501    0  0.00000000000E+00  0.00000000000E+00 -0.97005559406E+03  0.97005559407E+03  0.25500000920E-02 0.  1.
    10030    2    1    2    0    0  0.00000000000E+00  0.00000000000E+00 -0.80511942767E+03  0.11349917605E+04  0.79999312717E+03 0.  0.
        1    1    3    3  502    0  0.76569939580E+02 -0.16589147820E+03  0.10227342275E+03  0.20938670257E+03  0.50400001928E-02 0. -1.
       -1    1    3    3    0  502 -0.76569939580E+02  0.16589147820E+03 -0.90739285043E+03  0.92560505790E+03  0.50400001928E-02 0.  1.
</event>
<event>
 5   0  0.6970013E-04  0.7983256E+03  0.7818609E-02  0.9562444E-01
        2   -1    0    0  501    0  0.00000000000E+00  0.00000000000E+00  0.14128423570E+04  0.14128423570E+04  0.25500000920E-02 0. -1.
       -2   -1    0    0    0  501  0.00000000000E+00  0.00000000000E+00 -0.11277333696E+03  0.11277333699E+03  0.25500000920E-02 0.  1.
    10030    2    1    2    0    0  0.00000000000E+00  0.00000000000E+00  0.13000690200E+04  0.15256156940E+04  0.79832561583E+03 0.  0.
        3    1    3    3  502    0  0.33414876828E+03 -0.48635770056E+02  0.24325170086E+03  0.41616371496E+03  0.10100000352E+00 0. -1.
       -3    1    3    3    0  502 -0.33414876828E+03  0.48635770056E+02  0.10568173191E+04  0.11094519790E+04  0.10100000352E+00 0.  1.
</event>
<event>
 5   0  0.4392552E-04  0.8003294E+03  0.7818609E-02  0.9559540E-01
        1   -1    0    0  501    0  0.00000000000E+00  0.00000000000E+00  0.40786534594E+03  0.40786534597E+03  0.50400001928E-02 0.  1.
       -1   -1    0    0    0  501  0.00000000000E+00  0.00000000000E+00 -0.39260942015E+03  0.39260942018E+03  0.50400001928E-02 0. -1.
    10030    2    1    2    0    0  0.00000000000E+00  0.00000000000E+00  0.15255925787E+02  0.80047476615E+03  0.80032937468E+03 0.  0.
        5    1    3    3  502    0  0.24566144274E+03  0.24472977158E+02 -0.30732798222E+03  0.39423476472E+03  0.46999998093E+01 0. -1.
       -5    1    3    3    0  502 -0.24566144274E+03 -0.24472977158E+02  0.32258390801E+03  0.40624000143E+03  0.46999998093E+01 0.  1.
</event>
<event>
 5   0  0.4169155E-04  0.7999897E+03  0.7818609E-02  0.9560032E-01
       -1   -1    0    0    0  501  0.00000000000E+00  0.00000000000E+00  0.29317021074E+03  0.29317021078E+03  0.50400001928E-02 0.  1.
        1   -1    0    0  501    0  0.00000000000E+00  0.00000000000E+00 -0.54574400114E+03  0.54574400116E+03  0.50400001928E-02 0. -1.
    10030    2    1    2    0    0  0.00000000000E+00  0.00000000000E+00 -0.25257379040E+03  0.83891421195E+03  0.79998970956E+03 0.  0.
        4    1    3    3  502    0 -0.39747393278E+03 -0.43655352504E+02 -0.11564657786E+03  0.41625360168E+03  0.12699999809E+01 0.  1.
       -4    1    3    3    0  502  0.39747393278E+03  0.43655352504E+02 -0.13692721254E+03  0.42266061027E+03  0.12699999809E+01 0. -1.
</event>
<event>
 5   0  0.4104786E-04  0.8000483E+03  0.7818609E-02  0.9559947E-01
        1   -1    0    0  501    0  0.00000000000E+00  0.00000000000E+00  0.63793045408E+03  0.63793045410E+03  0.50400001928E-02 0. -1.
       -1   -1    0    0    0  501  0.00000000000E+00  0.00000000000E+00 -0.25084133853E+03  0.25084133858E+03  0.50400001928E-02 0.  1.
    10030    2    1    2    0    0  0.00000000000E+00  0.00000000000E+00  0.38708911555E+03  0.88877179269E+03  0.80004832110E+03 0.  0.
        2    1    3    3  502    0 -0.25581792825E+03  0.11051982293E+03  0.51235841105E+03  0.58323973206E+03  0.25500000920E-02 0. -1.
       -2    1    3    3    0  502  0.25581792825E+03 -0.11051982293E+03 -0.12526929550E+03  0.30553206063E+03  0.25500000920E-02 0.  1.
</event>
<event>
 5   0  0.6801147E-04  0.7989913E+03  0.7818609E-02  0.9561478E-01
       -2   -1    0    0    0  501  0.00000000000E+00  0.00000000000E+00  0.10398056867E+03  0.10398056870E+03  0.25500000920E-02 0.  1.
        2   -1    0    0  501    0  0.00000000000E+00  0.00000000000E+00 -0.15348712340E+04  0.15348712340E+04  0.25500000920E-02 0. -1.
    10030    2    1    2    0    0  0.00000000000E+00  0.00000000000E+00 -0.14308906653E+04  0.16388518027E+04  0.79899132355E+03 0.  0.
        4    1    3    3  502    0 -0.32382921368E+03 -0.16702084154E+03 -0.37944546085E+03  0.52606253602E+03  0.12699999809E+01 0.  1.
       -4    1    3    3    0  502  0.32382921368E+03  0.16702084154E+03 -0.10514452045E+04  0.11127892667E+04  0.12699999809E+01 0. -1.
</event>
<event>
 5   0  0.6593118E-04  0.8002501E+03  0.7818609E-02  0.9559655E-01
        2   -1    0    0  501    0  0.00000000000E+00  0.00000000000E+00  0.12438163483E+04  0.12438163483E+04  0.25500000920E-02 0.  1.
       -2   -1    0    0    0  501  0.00000000000E+00  0.00000000000E+00 -0.12871679785E+03  0.12871679788E+03  0.25500000920E-02 0. -1.
    10030    2    1    2    0    0  0.00000000000E+00  0.00000000000E+00  0.11150995504E+04  0.13725331462E+04  0.80025010461E+03 0.  0.
        1    1    3    3  502    0  0.79896135489E+02 -0.31940096458E+03  0.94752863596E+03  0.10031006353E+04  0.50400001928E-02 0.  1.
       -1    1    3    3    0  502 -0.79896135489E+02  0.31940096458E+03  0.16757091446E+03  0.36943251080E+03  0.50400001928E-02 0. -1.
</event>
<event>
 5   0  0.4087283E-04  0.8001518E+03  0.7818609E-02  0.9559797E-01
        1   -1    0    0  501    0  0.00000000000E+00  0.00000000000E+00  0.44610529144E+03  0.44610529147E+03  0.50400001928E-02 0.  1.
       -1   -1    0    0    0  501  0.00000000000E+00  0.00000000000E+00 -0.35879584711E+03  0.35879584714E+03  0.50400001928E-02 0. -1.
    10030    2    1    2    0    0  0.00000000000E+00  0.00000000000E+00  0.87309444331E+02  0.80490113861E+03  0.80015180052E+03 0.  0.
        1    1    3    3  502    0  0.32957993321E+03  0.21680331858E+03  0.11063911306E+03  0.40971651747E+03  0.50400001928E-02 0. -1.
       -1    1    3    3    0  502 -0.32957993321E+03 -0.21680331858E+03 -0.23329668724E+02  0.39518462115E+03  0.50400001928E-02 0.  1.
</event>
<event>
 5   0  0.6672462E-04  0.8002030E+03  0.7818609E-02  0.9559723E-01
       -2   -1    0    0    0  501  0.00000000000E+00  0.00000000000E+00  0.42126925194E+03  0.42126925195E+03  0.25500000920E-02 0. -1.
        2   -1    0    0  501    0  0.00000000000E+00  0.00000000000E+00 -0.37999739463E+03  0.37999739463E+03  0.25500000920E-02 0.  1.
    10030    2    1    2    0    0  0.00000000000E+00  0.00000000000E+00  0.41271857319E+02  0.80126664658E+03  0.80020301969E+03 0.  0.
        5    1    3    3  502    0  0.45110644270E+02  0.91324762354E+02 -0.36676841939E+03  0.38067879624E+03  0.46999998093E+01 0.  1.
       -5    1    3    3    0  502 -0.45110644270E+02 -0.91324762354E+02  0.40804027671E+03  0.42058785035E+03  0.46999998093E+01 0. -1.
</event>
<event>
 5   0  0.4169155E-04  0.7995645E+03  0.7818609E-02  0.9560648E-01
       -1   -1    0    0    0  501  0.00000000000E+00  0.00000000000E+00  0.95035663433E+02  0.95035663566E+02  0.50400001928E-02 0.  1.
        1   -1    0    0  501    0  0.00000000000E+00  0.00000000000E+00 -0.16817458629E+04  0.16817458629E+04  0.50400001928E-02 0. -1.
    10030    2    1    2    0    0  0.00000000000E+00  0.00000000000E+00 -0.15867101995E+04  0.17767815265E+04  0.79956446627E+03 0.  0.
        4    1    3    3  502    0  0.25130322865E+03 -0.29824747155E+03 -0.59811409942E+03  0.71403568247E+03  0.12699999809E+01 0.  1.
       -4    1    3    3    0  502 -0.25130322865E+03  0.29824747155E+03 -0.98859610006E+03  0.10627458440E+04  0.12699999809E+01 0. -1.
</event>
<event>
 5   0  0.4086111E-04  0.7998922E+03  0.7818609E-02  0.9560173E-01
       -1   -1    0    0    0  501  0.00000000000E+00  0.00000000000E+00  0.23874285773E+03  0.23874285779E+03  0.50400001928E-02 0. -1.
        1   -1    0    0  501    0  0.00000000000E+00  0.00000000000E+00 -0.66999649586E+03  0.66999649588E+03  0.50400001928E-02 0.  1.
    10030    2    1    2    0    0  0.00000000000E+00  0.00000000000E+00 -0.43125363813E+03  0.90873935367E+03  0.79989218805E+03 0.  0.
        3    1    3    3  502    0  0.36970621063E+02 -0.33539486599E+03  0.28300180613E+02  0.33861106506E+03  0.10100000352E+00 0. -1.
       -3    1    3    3    0  502 -0.36970621063E+02  0.33539486599E+03 -0.45955381874E+03  0.57012828861E+03  0.10100000352E+00 0.  1.
</event>
<event>
 5   0  0.2736375E-04  0.7998635E+03  0.7818609E-02  0.9560215E-01
       -3   -1    0    0    0  501  0.00000000000E+00  0.00000000000E+00  0.49845949305E+03  0.49845950328E+03  0.10100000352E+00 0. -1.
        3   -1    0    0  501    0  0.00000000000E+00  0.00000000000E+00 -0.32087944664E+03  0.32087946253E+03  0.10100000352E+00 0.  1.
    10030    2    1    2    0    0  0.00000000000E+00  0.00000000000E+00  0.17758004641E+03  0.81933896582E+03  0.79986353087E+03 0.  0.
        4    1    3    3  502    0  0.69647468999E+02 -0.36958767728E+03 -0.50528833247E+02  0.37947410587E+03  0.12699999809E+01 0.  1.
       -4    1    3    3    0  502 -0.69647468999E+02  0.36958767728E+03  0.22810887966E+03  0.43986485995E+03  0.12699999809E+01 0. -1.
</event>
<event>
 5   0  0.4104786E-04  0.8001270E+03  0.7818609E-02  0.9559833E-01
       -1   -1    0    0    0  501  0.00000000000E+00  0.00000000000E+00  0.40948413752E+03  0.40948413755E+03  0.50400001928E-02 0. -1.
        1   -1    0    0  501    0  0.00000000000E+00  0.00000000000E+00 -0.39085956682E+03  0.39085956685E+03  0.50400001928E-02 0.  1.
    10030    2    1    2    0    0  0.00000000000E+00  0.00000000000E+00  0.18624570704E+02  0.80034370440E+03  0.80012697151E+03 0.  0.
        2    1    3    3  502    0 -0.17902659864E+03 -0.13301748559E+03  0.34152665052E+03  0.40790271820E+03  0.25500000920E-02 0. -1.
       -2    1    3    3    0  502  0.17902659864E+03  0.13301748559E+03 -0.32290207982E+03  0.39244098620E+03  0.25500000920E-02 0.  1.
</event>
<event>
 5   0  0.2736375E-04  0.8004970E+03  0.7818609E-02  0.9559298E-01
       -3   -1    0    0    0  501  0.00000000000E+00  0.00000000000E+00  0.29023978344E+03  0.29023980101E+03  0.10100000352E+00 0.  1.
        3   -1    0    0  501    0  0.00000000000E+00  0.00000000000E+00 -0.55195346633E+03  0.55195347557E+03  0.10100000352E+00 0. -1.
    10030    2    1    2    0    0  0.00000000000E+00  0.00000000000E+00 -0.26171368289E+03  0.84219327658E+03  0.80049701017E+03 0.  0.
        1    1    3    3  502    0  0.19522917659E+03 -0.13248951665E+03  0.20929633451E+03  0.31539318173E+03  0.50400001928E-02 0.  1.
       -1    1    3    3    0  502 -0.19522917659E+03  0.13248951665E+03 -0.47101001740E+03  0.52680009485E+03  0.50400001928E-02 0. -1.
</event>
<event>
 5   0  0.6801147E-04  0.7996212E+03  0.7818609E-02  0.9560566E-01
        2   -1    0    0  501    0  0.00000000000E+00  0.00000000000E+00  0.75848848258E+03  0.75848848258E+03  0.25500000920E-02 0. -1.
       -2   -1    0    0    0  501  0.00000000000E+00  0.00000000000E+00 -0.21074614800E+03  0.21074614802E+03  0.25500000920E-02 0.  1.
    10030    2    1    2    0    0  0.00000000000E+00  0.00000000000E+00  0.54774233458E+03  0.96923463060E+03  0.79962122538E+03 0.  0.
        4    1    3    3  502    0  0.27671464813E+03 -0.15077958002E+03  0.57211465148E+03  0.65316327636E+03  0.12699999809E+01 0. -1.
       -4    1    3    3    0  502 -0.27671464813E+03  0.15077958002E+03 -0.24372316907E+02  0.31607135424E+03  0.12699999809E+01 0.  1.
</event>
<event>
 5   0  0.4087283E-04  0.7997347E+03  0.7818609E-02  0.9560401E-01
        1   -1    0    0  501    0  0.00000000000E+00  0.00000000000E+00  0.51652803800E+03  0.51652803802E+03  0.50400001928E-02 0.  1.
       -1   -1    0    0    0  501  0.00000000000E+00  0.00000000000E+00 -0.30955513331E+03  0.30955513335E+03  0.50400001928E-02 0. -1.
    10030    2    1    2    0    0  0.00000000000E+00  0.00000000000E+00  0.20697290469E+03  0.82608317137E+03  0.79973472024E+03 0.  0.
        1    1    3    3  502    0  0.78996791703E+01  0.39599841193E+03  0.46751839570E+02  0.39882688188E+03  0.50400001928E-02 0. -1.
       -1    1    3    3    0  502 -0.78996791703E+01 -0.39599841193E+03  0.16022106512E+03  0.42725628950E+03  0.50400001928E-02 0.  1.
</event>
<event>
 5   0  0.4086111E-04  0.8002645E+03  0.7818609E-02  0.9559634E-01
        1   -1    0    0  501    0  0.00000000000E+00  0.00000000000E+00  0.16839691230E+04  0.16839691230E+04  0.50400001928E-02 0.  1.
       -1   -1    0    0    0  501  0.00000000000E+00  0.00000000000E+00 -0.95076459618E+02  0.95076459752E+02  0.50400001928E-02 0. -1.
    10030    2    1    2    0    0  0.00000000000E+00  0.00000000000E+00  0.15888926634E+04  0.17790455827E+04  0.80026451238E+03 0.  0.
        3    1    3    3  502    0 -0.88741082246E+02 -0.27404081075E+02 -0.70782432128E+02  0.11677382514E+03  0.10100000352E+00 0. -1.
       -3    1    3    3    0  502  0.88741082246E+02  0.27404081075E+02  0.16596750955E+04  0.16622717576E+04  0.10100000352E+00 0.  1.
</event>
<event>
 5   0  0.7133039E-04  0.7984571E+03  0.7818609E-02  0.9562253E-01
        2   -1    0    0  501    0  0.00000000000E+00  0.00000000000E+00  0.10822434073E+04  0.10822434073E+04  0.25500000920E-02 0. -1.
       -2   -1    0    0    0  501  0.00000000000E+00  0.00000000000E+00 -0.14727134637E+03  0.14727134639E+03  0.25500000920E-02 0.  1.
    10030    2    1    2    0    0  0.00000000000E+00  0.00000000000E+00  0.93497206094E+03  0.12295147537E+04  0.79845712148E+03 0.  0.
        2    1    3    3  502    0 -0.25578495688E+03 -0.17213233775E+03  0.85804087383E+03  0.91175085798E+03  0.25500000920E-02 0. -1.
       -2    1    3    3    0  502  0.25578495688E+03  0.17213233775E+03  0.76931187110E+02  0.31776389572E+03  0.25500000920E-02 0.  1.
</event>
<event>
 5   0  0.6801147E-04  0.8005331E+03  0.7818609E-02  0.9559246E-01
       -2   -1    0    0    0  501  0.00000000000E+00  0.00000000000E+00  0.16322786567E+03  0.16322786569E+03  0.25500000920E-02 0.  1.
        2   -1    0    0  501    0  0.00000000000E+00  0.00000000000E+00 -0.98153165047E+03  0.98153165047E+03  0.25500000920E-02 0. -1.
    10030    2    1    2    0    0  0.00000000000E+00  0.00000000000E+00 -0.81830378480E+03  0.11447595162E+04  0.80053311340E+03 0.  0.
        4    1    3    3  502    0 -0.11834095500E+03  0.10471885979E+03 -0.93503507231E+03  0.94829469079E+03  0.12699999809E+01 0. -1.
       -4    1    3    3    0  502  0.11834095500E+03 -0.10471885979E+03  0.11673128751E+03  0.19646482538E+03  0.12699999809E+01 0.  1.
</event>
<event>
 5   0  0.4392552E-04  0.7999296E+03  0.7818609E-02  0.9560119E-01
       -1   -1    0    0    0  501  0.00000000000E+00  0.00000000000E+00  0.22791705042E+03  0.22791705047E+03  0.50400001928E-02 0. -1.
        1   -1    0    0  501    0  0.00000000000E+00  0.00000000000E+00 -0.70188622272E+03  0.70188622274E+03  0.50400001928E-02 0.  1.
    10030    2    1    2    0    0  0.00000000000E+00  0.00000000000E+00 -0.47396917231E+03  0.92980327321E+03  0.79992959101E+03 0.  0.
        5    1    3    3  502    0  0.25214973955E+03 -0.22197598640E+03 -0.48923712850E+03  0.59348790012E+03  0.46999998093E+01 0.  1.
       -5    1    3    3    0  502 -0.25214973955E+03  0.22197598640E+03  0.15267956192E+02  0.33631537309E+03  0.46999998093E+01 0. -1.
</event>
<event>
 5   0  0.6801147E-04  0.8002289E+03  0.7818609E-02  0.9559686E-01
        2   -1    0    0  501    0  0.00000000000E+00  0.00000000000E+00  0.51222361260E+03  0.51222361261E+03  0.25500000920E-02 0.  1.
       -2   -1    0    0    0  501  0.00000000000E+00  0.00000000000E+00 -0.31254233936E+03  0.31254233937E+03  0.25500000920E-02 0. -1.
    10030    2    1    2    0    0  0.00000000000E+00  0.00000000000E+00  0.19968127325E+03  0.82476595197E+03  0.80022888266E+03 0.  0.
        4    1    3    3  502    0 -0.17556788950E+03  0.20859752426E+03  0.40165577338E+03  0.48545440995E+03  0.12699999809E+01 0.  1.
       -4    1    3    3    0  502  0.17556788950E+03 -0.20859752426E+03 -0.20197450013E+03  0.33931154203E+03  0.12699999809E+01 0. -1.
</event>
<event>
 5   0  0.4104786E-04  0.8001294E+03  0.7818609E-02  0.9559830E-01
       -1   -1    0    0    0  501  0.00000000000E+00  0.00000000000E+00  0.60253481095E+03  0.60253481097E+03  0.50400001928E-02 0. -1.
        1   -1    0    0  501    0  0.00000000000E+00  0.00000000000E+00 -0.26563075963E+03  0.26563075967E+03  0.50400001928E-02 0.  1.
    10030    2    1    2    0    0  0.00000000000E+00  0.00000000000E+00  0.33690405132E+03  0.86816557064E+03  0.80012943844E+03 0.  0.
        2    1    3    3  502    0 -0.25711746077E+03  0.23254490724E+03 -0.48188446628E+02  0.35001235537E+03  0.25500000920E-02 0.  1.
       -2    1    3    3    0  502  0.25711746077E+03 -0.23254490724E+03  0.38509249795E+03  0.51815321528E+03  0.25500000920E-02 0. -1.
</event>
<event>
 5   0  0.6672462E-04  0.8002588E+03  0.7818609E-02  0.9559643E-01
       -2   -1    0    0    0  501  0.00000000000E+00  0.00000000000E+00  0.15804237265E+03  0.15804237267E+03  0.25500000920E-02 0. -1.
        2   -1    0    0  501    0  0.00000000000E+00  0.00000000000E+00 -0.10130419637E+04  0.10130419637E+04  0.25500000920E-02 0.  1.
    10030    2    1    2    0    0  0.00000000000E+00  0.00000000000E+00 -0.85499959107E+03  0.11710843364E+04  0.80025884702E+03 0.  0.
        5    1    3    3  502    0 -0.18201180082E+03  0.68790098675E+02  0.84100478472E+02  0.21202677612E+03  0.46999998093E+01 0.  1.
       -5    1    3    3    0  502  0.18201180082E+03 -0.68790098675E+02 -0.93910006955E+03  0.95905756028E+03  0.46999998093E+01 0. -1.
</event>
<event>
 5   0  0.4104786E-04  0.7996280E+03  0.7818609E-02  0.9560556E-01
       -1   -1    0    0    0  501  0.00000000000E+00  0.00000000000E+00  0.17140424878E+03  0.17140424886E+03  0.50400001928E-02 0. -1.
        1   -1    0    0  501    0  0.00000000000E+00  0.00000000000E+00 -0.93259792102E+03  0.93259792103E+03  0.50400001928E-02 0.  1.
    10030    2    1    2    0    0  0.00000000000E+00  0.00000000000E+00 -0.76119367223E+03  0.11040021699E+04  0.79962802881E+03 0.  0.
        2    1    3    3  502    0 -0.24159176210E+03  0.64609696543E+02  0.50089625988E+02  0.25504894244E+03  0.25500000920E-02 0. -1.
       -2    1    3    3    0  502  0.24159176210E+03 -0.64609696543E+02 -0.81128329822E+03  0.84895322744E+03  0.25500000920E-02 0.  1.
</event>
<event>
 5   0  0.6970013E-04  0.7999310E+03  0.7818609E-02  0.9560117E-01
       -2   -1    0    0    0  501  0.00000000000E+00  0.00000000000E+00  0.29281717746E+03  0.29281717747E+03  0.25500000920E-02 0.  1.
        2   -1    0    0  501    0  0.00000000000E+00  0.00000000000E+00 -0.54632179673E+03  0.54632179674E+03  0.25500000920E-02 0. -1.
    10030    2    1    2    0    0  0.00000000000E+00  0.00000000000E+00 -0.25350461927E+03  0.83913897421E+03  0.79993101330E+03 0.  0.
        3    1    3    3  502    0 -0.19910639020E+03  0.43462324331E+01 -0.49061078511E+03  0.52949145132E+03  0.10100000352E+00 0. -1.
       -3    1    3    3    0  502  0.19910639020E+03 -0.43462324331E+01  0.23710616584E+03  0.30964752289E+03  0.10100000352E+00 0.  1.
</event>
<event>
 5   0  0.2736375E-04  0.8000578E+03  0.7818609E-02  0.9559933E-01
        4   -1    0    0  501    0  0.00000000000E+00  0.00000000000E+00  0.41209462080E+03  0.41209657775E+03  0.12699999809E+01 0.  1.
       -4   -1    0    0    0  501  0.00000000000E+00  0.00000000000E+00 -0.38831250766E+03  0.38831458446E+03  0.12699999809E+01 0. -1.
    10030    2    1    2    0    0  0.00000000000E+00  0.00000000000E+00  0.23782113148E+02  0.80041116221E+03  0.80005777272E+03 0.  0.
        2    1    3    3  502    0 -0.18484234341E+02 -0.10876224962E+03 -0.37279434608E+03  0.38877566583E+03  0.25500000920E-02 0. -1.
       -2    1    3    3    0  502  0.18484234341E+02  0.10876224962E+03  0.39657645923E+03  0.41163549638E+03  0.25500000920E-02 0.  1.
</event>
<event>
 5   0  0.7133039E-04  0.7997113E+03  0.7818609E-02  0.9560435E-01
        2   -1    0    0  501    0  0.00000000000E+00  0.00000000000E+00  0.95652565493E+03  0.95652565494E+03  0.25500000920E-02 0.  1.
       -2   -1    0    0    0  501  0.00000000000E+00  0.00000000000E+00 -0.16715134995E+03  0.16715134997E+03  0.25500000920E-02 0. -1.
    10030    2    1    2    0    0  0.00000000000E+00  0.00000000000E+00  0.78937430498E+03  0.11236770049E+04  0.79971133417E+03 0.  0.
        2    1    3    3  502    0  0.19728634810E+03  0.11100223507E+03  0.85781983508E+03  0.88718558871E+03  0.25500000920E-02 0.  1.
       -2    1    3    3    0  502 -0.19728634810E+03 -0.11100223507E+03 -0.68445530103E+02  0.23649141620E+03  0.25500000920E-02 0. -1.
</event>
<event>
 5   0  0.4392552E-04  0.7999476E+03  0.7818609E-02  0.9560093E-01
       -1   -1    0    0    0  501  0.00000000000E+00  0.00000000000E+00  0.20082945949E+03  0.20082945956E+03  0.50400001928E-02 0. -1.
        1   -1    0    0  501    0  0.00000000000E+00  0.00000000000E+00 -0.79659147235E+03  0.79659147236E+03  0.50400001928E-02 0.  1.
    10030    2    1    2    0    0  0.00000000000E+00  0.00000000000E+00 -0.59576201285E+03  0.99742093192E+03  0.79994758545E+03 0.  0.
        5    1    3    3  502    0 -0.33916497613E+03 -0.17360943456E+03 -0.14627709800E+03  0.40815707296E+03  0.46999998093E+01 0. -1.
       -5    1    3    3    0  502  0.33916497613E+03  0.17360943456E+03 -0.44948491485E+03  0.58926385896E+03  0.46999998093E+01 0.  1.
</event>
<event>
 5   0  0.6801147E-04  0.8004086E+03  0.7818609E-02  0.9559426E-01
       -2   -1    0    0    0  501  0.00000000000E+00  0.00000000000E+00  0.59533210215E+03  0.59533210216E+03  0.25500000920E-02 0.  1.
        2   -1    0    0  501    0  0.00000000000E+00  0.00000000000E+00 -0.26903216451E+03  0.26903216452E+03  0.25500000920E-02 0. -1.
    10030    2    1    2    0    0  0.00000000000E+00  0.00000000000E+00  0.32629993764E+03  0.86436426668E+03  0.80040860578E+03 0.  0.
        4    1    3    3  502    0 -0.34283673839E+03 -0.65935802726E+02 -0.48128757747E+02  0.35242382083E+03  0.12699999809E+01 0. -1.
       -4    1    3    3    0  502  0.34283673839E+03  0.65935802726E+02  0.37442869538E+03  0.51194044585E+03  0.12699999809E+01 0.  1.
</event>
<event>
 5   0  0.6672462E-04  0.7999918E+03  0.7818609E-02  0.9560029E-01
       -2   -1    0    0    0  501  0.00000000000E+00  0.00000000000E+00  0.15949058259E+03  0.15949058261E+03  0.25500000920E-02 0. -1.
        2   -1    0    0  501    0  0.00000000000E+00  0.00000000000E+00 -0.10031735572E+04  0.10031735572E+04  0.25500000920E-02 0.  1.
    10030    2    1    2    0    0  0.00000000000E+00  0.00000000000E+00 -0.84368297465E+03  0.11626641399E+04  0.79999183770E+03 0.  0.
        5    1    3    3  502    0  0.32643038898E+02 -0.16908200725E+03  0.10281475427E+03  0.20061718984E+03  0.46999998093E+01 0. -1.
       -5    1    3    3    0  502 -0.32643038898E+02  0.16908200725E+03 -0.94649772893E+03  0.96204695001E+03  0.46999998093E+01 0.  1.
</event>
<event>
 5   0  0.4169155E-04  0.8000014E+03  0.7818609E-02  0.9560015E-01
       -1   -1    0    0    0  501  0.00000000000E+00  0.00000000000E+00  0.81695051609E+03  0.81695051611E+03  0.50400001928E-02 0. -1.
        1   -1    0    0  501    0  0.00000000000E+00  0.00000000000E+00 -0.19585098248E+03  0.19585098255E+03  0.50400001928E-02 0.  1.
    10030    2    1    2    0    0  0.00000000000E+00  0.00000000000E+00  0.62109953361E+03  0.10128014987E+04  0.80000140314E+03 0.  0.
        4    1    3    3  502    0 -0.22222770513E+03  0.29497707495E+02  0.72994486240E+03  0.76359438364E+03  0.12699999809E+01 0. -1.
       -4    1    3    3    0  502  0.22222770513E+03 -0.29497707495E+02 -0.10884532879E+03  0.24920711502E+03  0.12699999809E+01 0.  1.
</event>
<event>
 5   0  0.2736375E-04  0.8001588E+03  0.7818609E-02  0.9559787E-01
       -4   -1    0    0    0  501  0.00000000000E+00  0.00000000000E+00  0.17673534506E+03  0.17673990804E+03  0.12699999809E+01 0. -1.
        4   -1    0    0  501    0  0.00000000000E+00  0.00000000000E+00 -0.90565116717E+03  0.90565205764E+03  0.12699999809E+01 0.  1.
    10030    2    1    2    0    0  0.00000000000E+00  0.00000000000E+00 -0.72891582211E+03  0.10823919657E+04  0.80015879152E+03 0.  0.
        4    1    3    3  502    0  0.19982171747E+03 -0.99767348204E+02  0.84555287727E+02  0.23881677521E+03  0.12699999809E+01 0. -1.
       -4    1    3    3    0  502 -0.19982171747E+03  0.99767348204E+02 -0.81347110984E+03  0.84357519047E+03  0.12699999809E+01 0.  1.
</event>
<event>
 5   0  0.6672462E-04  0.8000077E+03  0.7818609E-02  0.9560006E-01
        2   -1    0    0  501    0  0.00000000000E+00  0.00000000000E+00  0.14824681090E+04  0.14824681090E+04  0.25500000920E-02 0. -1.
       -2   -1    0    0    0  501  0.00000000000E+00  0.00000000000E+00 -0.10793019108E+03  0.10793019111E+03  0.25500000920E-02 0.  1.
    10030    2    1    2    0    0  0.00000000000E+00  0.00000000000E+00  0.13745379179E+04  0.15903983001E+04  0.80000766571E+03 0.  0.
        5    1    3    3  502    0  0.11400974073E+02 -0.11993442176E+03 -0.70948168304E+02  0.13989274576E+03  0.46999998093E+01 0.  1.
       -5    1    3    3    0  502 -0.11400974073E+02  0.11993442176E+03  0.14454860862E+04  0.14505055543E+04  0.46999998093E+01 0. -1.
</event>
<event>
 5   0  0.4086111E-04  0.8004759E+03  0.7818609E-02  0.9559329E-01
        1   -1    0    0  501    0  0.00000000000E+00  0.00000000000E+00  0.10729783272E+04  0.10729783272E+04  0.50400001928E-02 0. -1.
       -1   -1    0    0    0  501  0.00000000000E+00  0.00000000000E+00 -0.14929511380E+03  0.14929511389E+03  0.50400001928E-02 0.  1.
    10030    2    1    2    0    0  0.00000000000E+00  0.00000000000E+00  0.92368321340E+03  0.12222734411E+04  0.80047591225E+03 0.  0.
        3    1    3    3  502    0  0.29084250135E+03  0.15763097704E+03  0.80583746694E+03  0.87109753693E+03  0.10100000352E+00 0. -1.
       -3    1    3    3    0  502 -0.29084250135E+03 -0.15763097704E+03  0.11784574645E+03  0.35117590417E+03  0.10100000352E+00 0.  1.
</event>
<event>
 5   0  0.6593118E-04  0.7995059E+03  0.7818609E-02  0.9560733E-01
       -2   -1    0    0    0  501  0.00000000000E+00  0.00000000000E+00  0.13437501455E+03  0.13437501458E+03  0.25500000920E-02 0. -1.
        2   -1    0    0  501    0  0.00000000000E+00  0.00000000000E+00 -0.11892270996E+04  0.11892270996E+04  0.25500000920E-02 0.  1.
    10030    2    1    2    0    0  0.00000000000E+00  0.00000000000E+00 -0.10548520850E+04  0.13236021142E+04  0.79950586948E+03 0.  0.
        1    1    3    3  502    0 -0.25835166827E+03  0.87688412767E+02 -0.43719182443E+02  0.27630817789E+03  0.50400001928E-02 0. -1.
       -1    1    3    3    0  502  0.25835166827E+03 -0.87688412767E+02 -0.10111329026E+04  0.10472939363E+04  0.50400001928E-02 0.  1.
</event>
<event>
 5   0  0.4087283E-04  0.7996210E+03  0.7818609E-02  0.9560566E-01
        1   -1    0    0  501    0  0.00000000000E+00  0.00000000000E+00  0.28642668630E+03  0.28642668634E+03  0.50400001928E-02 0.  1.
       -1   -1    0    0    0  501  0.00000000000E+00  0.00000000000E+00 -0.55807800504E+03  0.55807800506E+03  0.50400001928E-02 0. -1.
    10030    2    1    2    0    0  0.00000000000E+00  0.00000000000E+00 -0.27165131874E+03  0.84450469141E+03  0.79962099449E+03 0.  0.
        1    1    3    3  502    0  0.21896791929E+03  0.33324775437E+03 -0.16657011268E+03  0.43214189560E+03  0.50400001928E-02 0.  1.
       -1    1    3    3    0  502 -0.21896791929E+03 -0.33324775437E+03 -0.10508120606E+03  0.41236279580E+03  0.50400001928E-02 0. -1.
</event>
<event>
 5   0  0.6593118E-04  0.8006402E+03  0.7818609E-02  0.9559091E-01
       -2   -1    0    0    0  501  0.00000000000E+00  0.00000000000E+00  0.26319628883E+03  0.26319628884E+03  0.25500000920E-02 0. -1.
        2   -1    0    0  501    0  0.00000000000E+00  0.00000000000E+00 -0.60888471114E+03  0.60888471114E+03  0.25500000920E-02 0.  1.
    10030    2    1    2    0    0  0.00000000000E+00  0.00000000000E+00 -0.34568842231E+03  0.87208099999E+03  0.80064023458E+03 0.  0.
        1    1    3    3  502    0  0.32106449047E+03 -0.19320650777E+03 -0.32628659744E+03  0.49686427259E+03  0.50400001928E-02 0.  1.
       -1    1    3    3    0  502 -0.32106449047E+03  0.19320650777E+03 -0.19401824866E+02  0.37521672740E+03  0.50400001928E-02 0. -1.
</event>
<event>
 5   0  0.6593118E-04  0.7999782E+03  0.7818609E-02  0.9560049E-01
       -2   -1    0    0    0  501  0.00000000000E+00  0.00000000000E+00  0.19744088203E+03  0.19744088205E+03  0.25500000920E-02 0. -1.
        2   -1    0    0  501    0  0.00000000000E+00  0.00000000000E+00 -0.81032504398E+03  0.81032504398E+03  0.25500000920E-02 0.  1.
    10030    2    1    2    0    0  0.00000000000E+00  0.00000000000E+00 -0.61288416195E+03  0.10077659260E+04  0.79997822827E+03 0.  0.
        1    1    3    3  502    0  0.28103038091E+03 -0.17713488860E+03 -0.25781222802E+02  0.33319591118E+03  0.50400001928E-02 0.  1.
       -1    1    3    3    0  502 -0.28103038091E+03  0.17713488860E+03 -0.58710293915E+03  0.67457001485E+03  0.50400001928E-02 0. -1.
</event>
<event>
 5   0  0.6672462E-04  0.8002989E+03  0.7818609E-02  0.9559585E-01
       -2   -1    0    0    0  501  0.00000000000E+00  0.00000000000E+00  0.12828846651E+03  0.12828846653E+03  0.25500000920E-02 0.  1.
        2   -1    0    0  501    0  0.00000000000E+00  0.00000000000E+00 -0.12481213081E+04  0.12481213081E+04  0.25500000920E-02 0. -1.
    10030    2    1    2    0    0  0.00000000000E+00  0.00000000000E+00 -0.11198328416E+04  0.13764097746E+04  0.80029886580E+03 0.  0.
        5    1    3    3  502    0  0.37921795078E+03 -0.36074269492E+02 -0.77048545355E+03  0.85952168748E+03  0.46999998093E+01 0.  1.
       -5    1    3    3    0  502 -0.37921795078E+03  0.36074269492E+02 -0.34934738805E+03  0.51688808716E+03  0.46999998093E+01 0. -1.
</event>
<event>
 5   0  0.6970013E-04  0.8020748E+03  0.7818609E-02  0.9557019E-01
       -2   -1    0    0    0  501  0.00000000000E+00  0.00000000000E+00  0.22667116017E+03  0.22667116019E+03  0.25500000920E-02 0. -1.
        2   -1    0    0  501    0  0.00000000000E+00  0.00000000000E+00 -0.70953452796E+03  0.70953452797E+03  0.25500000920E-02 0.  1.
    10030    2    1    2    0    0  0.00000000000E+00  0.00000000000E+00 -0.48286336779E+03  0.93620568816E+03  0.80207484600E+03 0.  0.
        3    1    3    3  502    0 -0.14429079629E+02  0.16737705425E+03 -0.66648244260E+03  0.68732971209E+03  0.10100000352E+00 0.  1.
       -3    1    3    3    0  502  0.14429079629E+02 -0.16737705425E+03  0.18361907481E+03  0.24887597606E+03  0.10100000352E+00 0. -1.
</event>
<event>
 5   0  0.4104786E-04  0.8001821E+03  0.7818609E-02  0.9559754E-01
       -1   -1    0    0    0  501  0.00000000000E+00  0.00000000000E+00  0.77678421794E+03  0.77678421796E+03  0.50400001928E-02 0. -1.
        1   -1    0    0  501    0  0.00000000000E+00  0.00000000000E+00 -0.20607119429E+03  0.20607119435E+03  0.50400001928E-02 0.  1.
    10030    2    1    2    0    0  0.00000000000E+00  0.00000000000E+00  0.57071302365E+03  0.98285541231E+03  0.80018210811E+03 0.  0.
        2    1    3    3  502    0  0.30516015279E+03 -0.21521188701E+03  0.46179456678E+03  0.59387969916E+03  0.25500000920E-02 0. -1.
       -2    1    3    3    0  502 -0.30516015279E+03  0.21521188701E+03  0.10891845687E+03  0.38897571314E+03  0.25500000920E-02 0.  1.
</event>
<event>
 5   0  0.4086111E-04  0.8001862E+03  0.7818609E-02  0.9559748E-01
        1   -1    0    0  501    0  0.00000000000E+00  0.00000000000E+00  0.70825603334E+03  0.70825603335E+03  0.50400001928E-02 0. -1.
       -1   -1    0    0    0  501  0.00000000000E+00  0.00000000000E+00 -0.22601220052E+03  0.22601220058E+03  0.50400001928E-02 0.  1.
    10030    2    1    2    0    0  0.00000000000E+00  0.00000000000E+00  0.48224383282E+03  0.93426823393E+03  0.80018623998E+03 0.  0.
        3    1    3    3  502    0 -0.62767110975E+01 -0.45860572166E+02  0.70511920319E+03  0.70663688701E+03  0.10100000352E+00 0. -1.
       -3    1    3    3    0  502  0.62767110975E+01  0.45860572166E+02 -0.22287537037E+03  0.22763134692E+03  0.10100000352E+00 0.  1.
</event>
<event>
 5   0  0.4392552E-04  0.7999104E+03  0.7818609E-02  0.9560147E-01
        1   -1    0    0  501    0  0.00000000000E+00  0.00000000000E+00  0.94915443899E+03  0.94915443900E+03  0.50400001928E-02 0.  1.
       -1   -1    0    0    0  501  0.00000000000E+00  0.00000000000E+00 -0.16853331616E+03  0.16853331623E+03  0.50400001928E-02 0. -1.
    10030    2    1    2    0    0  0.00000000000E+00  0.00000000000E+00  0.78062112283E+03  0.11176877552E+04  0.79991035797E+03 0.  0.
        5    1    3    3  502    0  0.13222846385E+03 -0.28158367087E+02 -0.13559787931E+03  0.19153625026E+03  0.46999998093E+01 0. -1.
       -5    1    3    3    0  502 -0.13222846385E+03  0.28158367087E+02  0.91621900214E+03  0.92615150498E+03  0.46999998093E+01 0.  1.
</event>
<event>
 5   0  0.2736375E-04  0.8000239E+03  0.7818609E-02  0.9559982E-01
       -3   -1    0    0    0  501  0.00000000000E+00  0.00000000000E+00  0.11006581096E+04  0.11006581142E+04  0.10100000352E+00 0. -1.
        3   -1    0    0  501    0  0.00000000000E+00  0.00000000000E+00 -0.14537625253E+03  0.14537628761E+03  0.10100000352E+00 0.  1.
    10030    2    1    2    0    0  0.00000000000E+00  0.00000000000E+00  0.95528185705E+03  0.12460344018E+04  0.80002393972E+03 0.  0.
        3    1    3    3  502    0 -0.18371228004E+03  0.21072431368E+03  0.32037351327E+02  0.28139179145E+03  0.10100000352E+00 0.  1.
       -3    1    3    3    0  502  0.18371228004E+03 -0.21072431368E+03  0.92324450573E+03  0.96464261038E+03  0.10100000352E+00 0. -1.
</event>
<event>
 5   0  0.4104786E-04  0.7997232E+03  0.7818609E-02  0.9560418E-01
        1   -1    0    0  501    0  0.00000000000E+00  0.00000000000E+00  0.98370467950E+03  0.98370467951E+03  0.50400001928E-02 0. -1.
       -1   -1    0    0    0  501  0.00000000000E+00  0.00000000000E+00 -0.16253791642E+03  0.16253791649E+03  0.50400001928E-02 0.  1.
    10030    2    1    2    0    0  0.00000000000E+00  0.00000000000E+00  0.82116676308E+03  0.11462425960E+04  0.79972322469E+03 0.  0.
        2    1    3    3  502    0 -0.51217715138E+02  0.60618249846E+02  0.97230404616E+03  0.97553728003E+03  0.25500000920E-02 0. -1.
       -2    1    3    3    0  502  0.51217715138E+02 -0.60618249846E+02 -0.15113728308E+03  0.17070531597E+03  0.25500000920E-02 0.  1.
</event>
<event>
 5   0  0.4087283E-04  0.8000711E+03  0.7818609E-02  0.9559914E-01
       -1   -1    0    0    0  501  0.00000000000E+00  0.00000000000E+00  0.14582201339E+03  0.14582201348E+03  0.50400001928E-02 0.  1.
        1   -1    0    0  501    0  0.00000000000E+00  0.00000000000E+00 -0.10974230675E+04  0.10974230675E+04  0.50400001928E-02 0. -1.
    10030    2    1    2    0    0  0.00000000000E+00  0.00000000000E+00 -0.95160105415E+03  0.12432450810E+04  0.80007110012E+03 0.  0.
        1    1    3    3  502    0  0.15104918462E+03  0.88171367548E+02 -0.10348622081E+04  0.10495379154E+04  0.50400001928E-02 0. -1.
       -1    1    3    3    0  502 -0.15104918462E+03 -0.88171367548E+02  0.83261153909E+02  0.19370716560E+03  0.50400001928E-02 0.  1.
</event>
<event>
 5   0  0.6593118E-04  0.8002799E+03  0.7818609E-02  0.9559612E-01
        2   -1    0    0  501    0  0.00000000000E+00  0.00000000000E+00  0.36034690665E+03  0.36034690666E+03  0.25500000920E-02 0. -1.
       -2   -1    0    0    0  501  0.00000000000E+00  0.00000000000E+00 -0.44432736368E+03  0.44432736369E+03  0.25500000920E-02 0.  1.
    10030    2    1    2    0    0  0.00000000000E+00  0.00000000000E+00 -0.83980457032E+02  0.80467427034E+03  0.80027992864E+03 0.  0.
        1    1    3    3  502    0  0.30625231239E+03  0.71913302339E+02  0.20665285454E+03  0.37638730613E+03  0.50400001928E-02 0. -1.
       -1    1    3    3    0  502 -0.30625231239E+03 -0.71913302339E+02 -0.29063331157E+03  0.42828696422E+03  0.50400001928E-02 0.  1.
</event>
<event>
 5   0  0.4086111E-04  0.7989357E+03  0.7818609E-02  0.9561559E-01
       -1   -1    0    0    0  501  0.00000000000E+00  0.00000000000E+00  0.51737695278E+03  0.51737695280E+03  0.50400001928E-02 0. -1.
        1   -1    0    0  501    0  0.00000000000E+00  0.00000000000E+00 -0.30842998960E+03  0.30842998964E+03  0.50400001928E-02 0.  1.
    10030    2    1    2    0    0  0.00000000000E+00  0.00000000000E+00  0.20894696318E+03  0.82580694244E+03  0.79893571253E+03 0.  0.
        3    1    3    3  502    0  0.49807024049E+02 -0.94986091047E+02 -0.29326936311E+03  0.31226595504E+03  0.10100000352E+00 0.  1.
       -3    1    3    3    0  502 -0.49807024049E+02  0.94986091047E+02  0.50221632629E+03  0.51354098739E+03  0.10100000352E+00 0. -1.
</event>
<event>
 5   0  0.7133039E-04  0.8004474E+03  0.7818609E-02  0.9559370E-01
        2   -1    0    0  501    0  0.00000000000E+00  0.00000000000E+00  0.42409212479E+03  0.42409212479E+03  0.25500000920E-02 0. -1.
       -2   -1    0    0    0  501  0.00000000000E+00  0.00000000000E+00 -0.37769864410E+03  0.37769864411E+03  0.25500000920E-02 0.  1.
    10030    2    1    2    0    0  0.00000000000E+00  0.00000000000E+00  0.46393480686E+02  0.80179076890E+03  0.80044742616E+03 0.  0.
        2    1    3    3  502    0 -0.18356226765E+03 -0.25483702597E+03  0.27168968272E+03  0.41527376466E+03  0.25500000920E-02 0. -1.
       -2    1    3    3    0  502  0.18356226765E+03  0.25483702597E+03 -0.22529620204E+03  0.38651700424E+03  0.25500000920E-02 0.  1.
</event>
<event>
 5   0  0.4392552E-04  0.7997220E+03  0.7818609E-02  0.9560420E-01
        1   -1    0    0  501    0  0.00000000000E+00  0.00000000000E+00  0.91318453425E+03  0.91318453427E+03  0.50400001928E-02 0.  1.
       -1   -1    0    0    0  501  0.00000000000E+00  0.00000000000E+00 -0.17508927273E+03  0.17508927280E+03  0.50400001928E-02 0. -1.
    10030    2    1    2    0    0  0.00000000000E+00  0.00000000000E+00  0.73809526153E+03  0.10882738071E+04  0.79972199173E+03 0.  0.
        5    1    3    3  502    0 -0.70120222486E+02  0.13753571571E+03 -0.13285857356E+03  0.20373121819E+03  0.46999998093E+01 0. -1.
       -5    1    3    3    0  502  0.70120222486E+02 -0.13753571571E+03  0.87095383508E+03  0.88454258888E+03  0.46999998093E+01 0.  1.
</event>
<event>
 5   0  0.6801147E-04  0.7998101E+03  0.7818609E-02  0.9560292E-01
        2   -1    0    0  501    0  0.00000000000E+00  0.00000000000E+00  0.18521352990E+03  0.18521352992E+03  0.25500000920E-02 0. -1.
       -2   -1    0    0    0  501  0.00000000000E+00  0.00000000000E+00 -0.86345767662E+03  0.86345767662E+03  0.25500000920E-02 0.  1.
    10030    2    1    2    0    0  0.00000000000E+00  0.00000000000E+00 -0.67824414672E+03  0.10486712065E+04  0.79981008800E+03 0.  0.
        4    1    3    3  502    0 -0.71019158716E+02 -0.38773862531E+03 -0.25080202571E+03  0.46721326122E+03  0.12699999809E+01 0. -1.
       -4    1    3    3    0  502  0.71019158716E+02  0.38773862531E+03 -0.42744212101E+03  0.58145794531E+03  0.12699999809E+01 0.  1.
</event>
<event>
 5   0  0.6593118E-04  0.7999818E+03  0.7818609E-02  0.9560043E-01
        2   -1    0    0  501    0  0.00000000000E+00  0.00000000000E+00  0.17762526703E+03  0.17762526705E+03  0.25500000920E-02 0.  1.
       -2   -1    0    0    0  501  0.00000000000E+00  0.00000000000E+00 -0.90073172502E+03  0.90073172502E+03  0.25500000920E-02 0. -1.
    10030    2    1    2    0    0  0.00000000000E+00  0.00000000000E+00 -0.72310645798E+03  0.10783569921E+04  0.79998178277E+03 0.  0.
        1    1    3    3  502    0 -0.17500203415E+03  0.28344995526E+03 -0.66001104265E+03  0.73931330675E+03  0.50400001928E-02 0. -1.
       -1    1    3    3    0  502  0.17500203415E+03 -0.28344995526E+03 -0.63095415331E+02  0.33904368532E+03  0.50400001928E-02 0.  1.
</event>
<event>
 5   0  0.6593118E-04  0.7996591E+03  0.7818609E-02  0.9560511E-01
        2   -1    0    0  501    0  0.00000000000E+00  0.00000000000E+00  0.73355726355E+03  0.73355726355E+03  0.25500000920E-02 0. -1.
       -2   -1    0    0    0  501  0.00000000000E+00  0.00000000000E+00 -0.21792936188E+03  0.21792936189E+03  0.25500000920E-02 0.  1.
    10030    2    1    2    0    0  0.00000000000E+00  0.00000000000E+00  0.51562790167E+03  0.95148662544E+03  0.79965909325E+03 0.  0.
        1    1    3    3  502    0 -0.55056868528E+02 -0.74326795569E+02  0.72065157968E+03  0.72656343882E+03  0.50400001928E-02 0. -1.
       -1    1    3    3    0  502  0.55056868528E+02  0.74326795569E+02 -0.20502367801E+03  0.22492318662E+03  0.50400001928E-02 0.  1.
</event>
<event>
 5   0  0.4104786E-04  0.7975201E+03  0.7818609E-02  0.9563614E-01
        1   -1    0    0  501    0  0.00000000000E+00  0.00000000000E+00  0.70719409910E+03  0.70719409912E+03  0.50400001928E-02 0. -1.
       -1   -1    0    0    0  501  0.00000000000E+00  0.00000000000E+00 -0.22484573372E+03  0.22484573378E+03  0.50400001928E-02 0.  1.
    10030    2    1    2    0    0  0.00000000000E+00  0.00000000000E+00  0.48234836538E+03  0.93203983290E+03  0.79752009663E+03 0.  0.
        2    1    3    3  502    0 -0.75354148765E+02 -0.38885297772E+03  0.29504339628E+03  0.49389826048E+03  0.25500000920E-02 0.  1.
       -2    1    3    3    0  502  0.75354148765E+02  0.38885297772E+03  0.18730496911E+03  0.43814157241E+03  0.25500000920E-02 0. -1.
</event>
<event>
 5   0  0.6801147E-04  0.7997834E+03  0.7818609E-02  0.9560331E-01
       -2   -1    0    0    0  501  0.00000000000E+00  0.00000000000E+00  0.22069957920E+03  0.22069957921E+03  0.25500000920E-02 0. -1.
        2   -1    0    0  501    0  0.00000000000E+00  0.00000000000E+00 -0.72457485164E+03  0.72457485165E+03  0.25500000920E-02 0.  1.
    10030    2    1    2    0    0  0.00000000000E+00  0.00000000000E+00 -0.50387527245E+03  0.94527443086E+03  0.79978338283E+03 0.  0.
        4    1    3    3  502    0  0.15139163181E+03  0.21490373491E+03  0.10422576372E+03  0.28278554450E+03  0.12699999809E+01 0. -1.
       -4    1    3    3    0  502 -0.15139163181E+03 -0.21490373491E+03 -0.60810103617E+03  0.66248888635E+03  0.12699999809E+01 0.  1.
</event>
<event>
 5   0  0.6801147E-04  0.7997513E+03  0.7818609E-02  0.9560377E-01
       -2   -1    0    0    0  501  0.00000000000E+00  0.00000000000E+00  0.53218194228E+03  0.53218194229E+03  0.25500000920E-02 0. -1.
        2   -1    0    0  501    0  0.00000000000E+00  0.00000000000E+00 -0.30046217375E+03  0.30046217376E+03  0.25500000920E-02 0.  1.
    10030    2    1    2    0    0  0.00000000000E+00  0.00000000000E+00  0.23171976853E+03  0.83264411605E+03  0.79975131939E+03 0.  0.
        4    1    3    3  502    0  0.14088860795E+03 -0.36902640029E+03  0.18061814761E+03  0.43434388692E+03  0.12699999809E+01 0.  1.
       -4    1    3    3    0  502 -0.14088860795E+03  0.36902640029E+03  0.51101620925E+02  0.39830022913E+03  0.12699999809E+01 0. -1.
</event>
<event>
 5   0  0.2736375E-04  0.7999763E+03  0.7818609E-02  0.9560051E-01
       -4   -1    0    0    0  501  0.00000000000E+00  0.00000000000E+00  0.80782874517E+03  0.80782974347E+03  0.12699999809E+01 0. -1.
        4   -1    0    0  501    0  0.00000000000E+00  0.00000000000E+00 -0.19804689350E+03  0.19805096547E+03  0.12699999809E+01 0.  1.
    10030    2    1    2    0    0  0.00000000000E+00  0.00000000000E+00  0.60978185167E+03  0.10058807089E+04  0.79997630839E+03 0.  0.
        4    1    3    3  502    0 -0.34081058197E+02  0.38253621100E+03  0.16434755674E+03  0.41774059362E+03  0.12699999809E+01 0.  1.
       -4    1    3    3    0  502  0.34081058197E+02 -0.38253621100E+03  0.44543429493E+03  0.58814011532E+03  0.12699999809E+01 0. -1.
</event>
<event>
 5   0  0.6593118E-04  0.8001190E+03  0.7818609E-02  0.9559845E-01
       -2   -1    0    0    0  501  0.00000000000E+00  0.00000000000E+00  0.29114689746E+03  0.29114689748E+03  0.25500000920E-02 0. -1.
        2   -1    0    0  501    0  0.00000000000E+00  0.00000000000E+00 -0.54971422241E+03  0.54971422241E+03  0.25500000920E-02 0.  1.
    10030    2    1    2    0    0  0.00000000000E+00  0.00000000000E+00 -0.25856732494E+03  0.84086111989E+03  0.80011896704E+03 0.  0.
        1    1    3    3  502    0 -0.28779944071E+03 -0.24992677944E+03 -0.16252971865E+01  0.38117522843E+03  0.50400001928E-02 0. -1.
       -1    1    3    3    0  502  0.28779944071E+03  0.24992677944E+03 -0.25694202776E+03  0.45968589146E+03  0.50400001928E-02 0.  1.
</event>
<event>
 5   0  0.4086111E-04  0.7997724E+03  0.7818609E-02  0.9560347E-01
       -1   -1    0    0    0  501  0.00000000000E+00  0.00000000000E+00  0.30290812615E+03  0.30290812620E+03  0.50400001928E-02 0.  1.
        1   -1    0    0  501    0  0.00000000000E+00  0.00000000000E+00 -0.52791250661E+03  0.52791250663E+03  0.50400001928E-02 0. -1.
    10030    2    1    2    0    0  0.00000000000E+00  0.00000000000E+00 -0.22500438045E+03  0.83082063283E+03  0.79977243808E+03 0.  0.
        3    1    3    3  502    0  0.24184934063E+03  0.72078705219E+02  0.20973765217E+03  0.32814072629E+03  0.10100000352E+00 0.  1.
       -3    1    3    3    0  502 -0.24184934063E+03 -0.72078705219E+02 -0.43474203262E+03  0.50267990654E+03  0.10100000352E+00 0. -1.
</event>
<event>
 5   0  0.4392552E-04  0.7998740E+03  0.7818609E-02  0.9560200E-01
       -1   -1    0    0    0  501  0.00000000000E+00  0.00000000000E+00  0.12106100720E+03  0.12106100731E+03  0.50400001928E-02 0.  1.
        1   -1    0    0  501    0  0.00000000000E+00  0.00000000000E+00 -0.13212313853E+04  0.13212313853E+04  0.50400001928E-02 0. -1.
    10030    2    1    2    0    0  0.00000000000E+00  0.00000000000E+00 -0.12001703781E+04  0.14422923926E+04  0.79987399590E+03 0.  0.
        5    1    3    3  502    0 -0.23050122357E+03 -0.19388809285E+03 -0.12573654303E+03  0.32642790149E+03  0.46999998093E+01 0.  1.
       -5    1    3    3    0  502  0.23050122357E+03  0.19388809285E+03 -0.10744338350E+04  0.11158644911E+04  0.46999998093E+01 0. -1.
</event>
<event>
 5   0  0.4086111E-04  0.8002824E+03  0.7818609E-02  0.9559608E-01
       -1   -1    0    0    0  501  0.00000000000E+00  0.00000000000E+00  0.16633585509E+03  0.16633585516E+03  0.50400001928E-02 0. -1.
        1   -1    0    0  501    0  0.00000000000E+00  0.00000000000E+00 -0.96258860272E+03  0.96258860273E+03  0.50400001928E-02 0.  1.
    10030    2    1    2    0    0  0.00000000000E+00  0.00000000000E+00 -0.79625274763E+03  0.11289244579E+04  0.80028244609E+03 0.  0.
        3    1    3    3  502    0  0.22785978374E+02  0.16587112060E+02 -0.96118667322E+03  0.96159979413E+03  0.10100000352E+00 0.  1.
       -3    1    3    3    0  502 -0.22785978374E+02 -0.16587112060E+02  0.16493392558E+03  0.16732466377E+03  0.10100000352E+00 0. -1.
</event>
<event>
 5   0  0.2736375E-04  0.8000027E+03  0.7818609E-02  0.9560013E-01
        4   -1    0    0  501    0  0.00000000000E+00  0.00000000000E+00  0.22495782391E+03  0.22496140878E+03  0.12699999809E+01 0.  1.
       -4   -1    0    0    0  501  0.00000000000E+00  0.00000000000E+00 -0.71123933784E+03  0.71124047171E+03  0.12699999809E+01 0. -1.
    10030    2    1    2    0    0  0.00000000000E+00  0.00000000000E+00 -0.48628151393E+03  0.93620188048E+03  0.80000265639E+03 0.  0.
        3    1    3    3  502    0  0.29370698373E+02  0.30155529595E+03 -0.54875897517E+03  0.62684500275E+03  0.10100000352E+00 0. -1.
       -3    1    3    3    0  502 -0.29370698373E+02 -0.30155529595E+03  0.62477461239E+02  0.30935687773E+03  0.10100000352E+00 0.  1.
</event>
<event>
 5   0  0.6970013E-04  0.7999788E+03  0.7818609E-02  0.9560048E-01
        2   -1    0    0  501    0  0.00000000000E+00  0.00000000000E+00  0.67987820527E+03  0.67987820527E+03  0.25500000920E-02 0. -1.
       -2   -1    0    0    0  501  0.00000000000E+00  0.00000000000E+00 -0.23532381307E+03  0.23532381308E+03  0.25500000920E-02 0.  1.
    10030    2    1    2    0    0  0.00000000000E+00  0.00000000000E+00  0.44455439220E+03  0.91520201835E+03  0.79997882895E+03 0.  0.
        3    1    3    3  502    0  0.18022774559E+03 -0.11480712566E+03 -0.16454938359E+03  0.26970210645E+03  0.10100000352E+00 0.  1.
       -3    1    3    3    0  502 -0.18022774559E+03  0.11480712566E+03  0.60910377579E+03  0.64549991190E+03  0.10100000352E+00 0. -1.
</event>
<event>
 5   0  0.6672462E-04  0.7993923E+03  0.7818609E-02  0.9560897E-01
        2   -1    0    0  501    0  0.00000000000E+00  0.00000000000E+00  0.25167799793E+03  0.25167799794E+03  0.25500000920E-02 0. -1.
       -2   -1    0    0    0  501  0.00000000000E+00  0.00000000000E+00 -0.63476748358E+03  0.63476748359E+03  0.25500000920E-02 0.  1.
    10030    2    1    2    0    0  0.00000000000E+00  0.00000000000E+00 -0.38308948565E+03  0.88644548153E+03  0.79939229275E+03 0.  0.
        5    1    3    3  502    0 -0.16107486181E+03  0.95544644203E+02 -0.58306787655E+03  0.61242479441E+03  0.46999998093E+01 0.  1.
       -5    1    3    3    0  502  0.16107486181E+03 -0.95544644203E+02  0.19997839090E+03  0.27402068712E+03  0.46999998093E+01 0. -1.
</event>
<event>
 5   0  0.7133039E-04  0.8007565E+03  0.7818609E-02  0.9558923E-01
       -2   -1    0    0    0  501  0.00000000000E+00  0.00000000000E+00  0.89444273822E+02  0.89444273858E+02  0.25500000920E-02 0. -1.
        2   -1    0    0  501    0  0.00000000000E+00  0.00000000000E+00 -0.17922080782E+04  0.17922080782E+04  0.25500000920E-02 0.  1.
    10030    2    1    2    0    0  0.00000000000E+00  0.00000000000E+00 -0.17027638044E+04  0.18816523520E+04  0.80075651762E+03 0.  0.
        2    1    3    3  502    0 -0.24959674308E+02  0.11023882788E+03  0.51175650383E+02  0.12407470214E+03  0.25500000920E-02 0. -1.
       -2    1    3    3    0  502  0.24959674308E+02 -0.11023882788E+03 -0.17539394547E+04  0.17575776499E+04  0.25500000920E-02 0.  1.
</event>
<event>
 5   0  0.4104786E-04  0.7995699E+03  0.7818609E-02  0.9560640E-01
       -1   -1    0    0    0  501  0.00000000000E+00  0.00000000000E+00  0.18163599998E+04  0.18163599998E+04  0.50400001928E-02 0.  1.
        1   -1    0    0  501    0  0.00000000000E+00  0.00000000000E+00 -0.87993571155E+02  0.87993571299E+02  0.50400001928E-02 0. -1.
    10030    2    1    2    0    0  0.00000000000E+00  0.00000000000E+00  0.17283664286E+04  0.19043535711E+04  0.79956989195E+03 0.  0.
        2    1    3    3  502    0 -0.84365205444E+02 -0.32563049010E+03  0.13787416554E+04  0.14191833061E+04  0.25500000920E-02 0.  1.
       -2    1    3    3    0  502  0.84365205444E+02  0.32563049010E+03  0.34962477324E+03  0.48517026500E+03  0.25500000920E-02 0. -1.
</event>
<event>
 5   0  0.6593118E-04  0.8001267E+03  0.7818609E-02  0.9559834E-01
        2   -1    0    0  501    0  0.00000000000E+00  0.00000000000E+00  0.52306459210E+03  0.52306459211E+03  0.25500000920E-02 0. -1.
       -2   -1    0    0    0  501  0.00000000000E+00  0.00000000000E+00 -0.30598646304E+03  0.30598646305E+03  0.25500000920E-02 0.  1.
    10030    2    1    2    0    0  0.00000000000E+00  0.00000000000E+00  0.21707812907E+03  0.82905105516E+03  0.80012670118E+03 0.  0.
        1    1    3    3  502    0 -0.32514752176E+03 -0.10910433486E+03  0.32196079998E+03  0.47040772053E+03  0.50400001928E-02 0.  1.
       -1    1    3    3    0  502  0.32514752176E+03  0.10910433486E+03 -0.10488267091E+03  0.35864333463E+03  0.50400001928E-02 0. -1.
</event>
<event>
 5   0  0.2736375E-04  0.7998376E+03  0.7818609E-02  0.9560252E-01
        3   -1    0    0  501    0  0.00000000000E+00  0.00000000000E+00  0.52922521482E+03  0.52922522445E+03  0.10100000352E+00 0.  1.
       -3   -1    0    0    0  501  0.00000000000E+00  0.00000000000E+00 -0.30220601816E+03  0.30220603504E+03  0.10100000352E+00 0. -1.
    10030    2    1    2    0    0  0.00000000000E+00  0.00000000000E+00  0.22701919665E+03  0.83143125949E+03  0.79983762328E+03 0.  0.
        2    1    3    3  502    0  0.21785438676E+03  0.29496196393E+03  0.27941316320E+03  0.46101497782E+03  0.25500000920E-02 0.  1.
       -2    1    3    3    0  502 -0.21785438676E+03 -0.29496196393E+03 -0.52393966543E+02  0.37041628168E+03  0.25500000920E-02 0. -1.
</event>
<event>
 5   0  0.2736375E-04  0.8001446E+03  0.7818609E-02  0.9559808E-01
        4   -1    0    0  501    0  0.00000000000E+00  0.00000000000E+00  0.51919159245E+03  0.51919314573E+03  0.12699999809E+01 0. -1.
       -4   -1    0    0    0  501  0.00000000000E+00  0.00000000000E+00 -0.30827951057E+03  0.30828212653E+03  0.12699999809E+01 0.  1.
    10030    2    1    2    0    0  0.00000000000E+00  0.00000000000E+00  0.21091208188E+03  0.82747527226E+03  0.80014462437E+03 0.  0.
        2    1    3    3  502    0 -0.25571892899E+03  0.11555104716E+03 -0.18943951885E+03  0.33857280820E+03  0.25500000920E-02 0.  1.
       -2    1    3    3    0  502  0.25571892899E+03 -0.11555104716E+03  0.40035160073E+03  0.48890246406E+03  0.25500000920E-02 0. -1.
</event>
<event>
 5   0  0.4087283E-04  0.8003052E+03  0.7818609E-02  0.9559575E-01
       -1   -1    0    0    0  501  0.00000000000E+00  0.00000000000E+00  0.22071930259E+03  0.22071930265E+03  0.50400001928E-02 0.  1.
        1   -1    0    0  501    0  0.00000000000E+00  0.00000000000E+00 -0.72545576718E+03  0.72545576720E+03  0.50400001928E-02 0. -1.
    10030    2    1    2    0    0  0.00000000000E+00  0.00000000000E+00 -0.50473646459E+03  0.94617506985E+03  0.80030516936E+03 0.  0.
        1    1    3    3  502    0 -0.35291700724E+03  0.14312955084E+03 -0.10715797407E+03  0.39562521881E+03  0.50400001928E-02 0.  1.
       -1    1    3    3    0  502  0.35291700724E+03 -0.14312955084E+03 -0.39757849052E+03  0.55054985104E+03  0.50400001928E-02 0. -1.
</event>
<event>
 5   0  0.2736375E-04  0.8003386E+03  0.7818609E-02  0.9559527E-01
       -3   -1    0    0    0  501  0.00000000000E+00  0.00000000000E+00  0.69492330839E+03  0.69492331573E+03  0.10100000352E+00 0. -1.
        3   -1    0    0  501    0  0.00000000000E+00  0.00000000000E+00 -0.23043613052E+03  0.23043615265E+03  0.10100000352E+00 0.  1.
    10030    2    1    2    0    0  0.00000000000E+00  0.00000000000E+00  0.46448717787E+03  0.92535946838E+03  0.80033855793E+03 0.  0.
        3    1    3    3  502    0 -0.16357830598E+03  0.36199207201E+03  0.17632174552E+03  0.43460958403E+03  0.10100000352E+00 0.  1.
       -3    1    3    3    0  502  0.16357830598E+03 -0.36199207201E+03  0.28816543235E+03  0.49074988435E+03  0.10100000352E+00 0. -1.
</event>
<event>
 5   0  0.4086111E-04  0.8003408E+03  0.7818609E-02  0.9559524E-01
       -1   -1    0    0    0  501  0.00000000000E+00  0.00000000000E+00  0.25366263555E+03  0.25366263560E+03  0.50400001928E-02 0. -1.
        1   -1    0    0  501    0  0.00000000000E+00  0.00000000000E+00 -0.63129659111E+03  0.63129659113E+03  0.50400001928E-02 0.  1.
    10030    2    1    2    0    0  0.00000000000E+00  0.00000000000E+00 -0.37763395557E+03  0.88495922673E+03  0.80034082026E+03 0.  0.
        3    1    3    3  502    0  0.13032546087E+03  0.11644154913E+03  0.20923431922E+03  0.27262129530E+03  0.10100000352E+00 0. -1.
       -3    1    3    3    0  502 -0.13032546087E+03 -0.11644154913E+03 -0.58686827478E+03  0.61233793142E+03  0.10100000352E+00 0.  1.
</event>
<event>
 5   0  0.4104786E-04  0.8002405E+03  0.7818609E-02  0.9559669E-01
        1   -1    0    0  501    0  0.00000000000E+00  0.00000000000E+00  0.19621505708E+04  0.19621505708E+04  0.50400001928E-02 0.  1.
       -1   -1    0    0    0  501  0.00000000000E+00  0.00000000000E+00 -0.81592219999E+02  0.81592220155E+02  0.50400001928E-02 0. -1.
    10030    2    1    2    0    0  0.00000000000E+00  0.00000000000E+00  0.18805583508E+04  0.20437427909E+04  0.80024051686E+03 0.  0.
        2    1    3    3  502    0 -0.28691531220E+03 -0.13924297019E+03  0.32316630952E+03  0.45403244899E+03  0.25500000920E-02 0. -1.
       -2    1    3    3    0  502  0.28691531220E+03  0.13924297019E+03  0.15573920413E+04  0.15897103419E+04  0.25500000920E-02 0.  1.
</event>
<event>
 5   0  0.4086111E-04  0.8000142E+03  0.7818609E-02  0.9559997E-01
        1   -1    0    0  501    0  0.00000000000E+00  0.00000000000E+00  0.80450373184E+03  0.80450373185E+03  0.50400001928E-02 0.  1.
       -1   -1    0    0    0  501  0.00000000000E+00  0.00000000000E+00 -0.19888740958E+03  0.19888740965E+03  0.50400001928E-02 0. -1.
    10030    2    1    2    0    0  0.00000000000E+00  0.00000000000E+00  0.60561632226E+03  0.10033911415E+04  0.80001415804E+03 0.  0.
        3    1    3    3  502    0 -0.31698895803E+03  0.17225360978E+03  0.86106702970E+02  0.37090117294E+03  0.10100000352E+00 0. -1.
       -3    1    3    3    0  502  0.31698895803E+03 -0.17225360978E+03  0.51950961929E+03  0.63248996856E+03  0.10100000352E+00 0.  1.
</event>
<event>
 5   0  0.4169155E-04  0.7997876E+03  0.7818609E-02  0.9560325E-01
       -1   -1    0    0    0  501  0.00000000000E+00  0.00000000000E+00  0.23060146847E+03  0.23060146853E+03  0.50400001928E-02 0. -1.
        1   -1    0    0  501    0  0.00000000000E+00  0.00000000000E+00 -0.69346929739E+03  0.69346929741E+03  0.50400001928E-02 0.  1.
    10030    2    1    2    0    0  0.00000000000E+00  0.00000000000E+00 -0.46286782892E+03  0.92407076593E+03  0.79978756767E+03 0.  0.
        4    1    3    3  502    0 -0.13079094687E+03  0.14175069900E+03  0.17330731734E+03  0.25930015733E+03  0.12699999809E+01 0. -1.
       -4    1    3    3    0  502  0.13079094687E+03 -0.14175069900E+03 -0.63617514625E+03  0.66477060860E+03  0.12699999809E+01 0.  1.
</event>
<event>
 5   0  0.2736375E-04  0.7997732E+03  0.7818609E-02  0.9560345E-01
       -4   -1    0    0    0  501  0.00000000000E+00  0.00000000000E+00  0.45835949822E+03  0.45836125764E+03  0.12699999809E+01 0.  1.
        4   -1    0    0  501    0  0.00000000000E+00  0.00000000000E+00 -0.34886952912E+03  0.34887184073E+03  0.12699999809E+01 0. -1.
    10030    2    1    2    0    0  0.00000000000E+00  0.00000000000E+00  0.10948996909E+03  0.80723309836E+03  0.79977323146E+03 0.  0.
        3    1    3    3  502    0  0.22754229129E+03  0.27497918326E+03  0.23676076081E+03  0.42830446369E+03  0.10100000352E+00 0.  1.
       -3    1    3    3    0  502 -0.22754229129E+03 -0.27497918326E+03 -0.12727079172E+03  0.37892863468E+03  0.10100000352E+00 0. -1.
</event>
<event>
 5   0  0.7133039E-04  0.8000628E+03  0.7818609E-02  0.9559926E-01
       -2   -1    0    0    0  501  0.00000000000E+00  0.00000000000E+00  0.15604149932E+03  0.15604149934E+03  0.25500000920E-02 0.  1.
        2   -1    0    0  501    0  0.00000000000E+00  0.00000000000E+00 -0.10255292940E+04  0.10255292940E+04  0.25500000920E-02 0. -1.
    10030    2    1    2    0    0  0.00000000000E+00  0.00000000000E+00 -0.86948779465E+03  0.11815707933E+04  0.80006281915E+03 0.  0.
        2    1    3    3  502    0  0.18854116608E+03 -0.12691385158E+03 -0.92091669990E+03  0.94854755557E+03  0.25500000920E-02 0. -1.
       -2    1    3    3    0  502 -0.18854116608E+03  0.12691385158E+03  0.51428905245E+02  0.23302323775E+03  0.25500000920E-02 0.  1.
</event>
<event>
 5   0  0.4104786E-04  0.7997834E+03  0.7818609E-02  0.9560331E-01
       -1   -1    0    0    0  501  0.00000000000E+00  0.00000000000E+00  0.26687204193E+03  0.26687204198E+03  0.50400001928E-02 0. -1.
        1   -1    0    0  501    0  0.00000000000E+00  0.00000000000E+00 -0.59921360747E+03  0.59921360749E+03  0.50400001928E-02 0.  1.
    10030    2    1    2    0    0  0.00000000000E+00  0.00000000000E+00 -0.33234156554E+03  0.86608564947E+03  0.79978336819E+03 0.  0.
        2    1    3    3  502    0 -0.11795503145E+03 -0.26889455259E+02  0.24657894558E+03  0.27465907714E+03  0.25500000920E-02 0. -1.
       -2    1    3    3    0  502  0.11795503145E+03  0.26889455259E+02 -0.57892051112E+03  0.59142657232E+03  0.25500000920E-02 0.  1.
</event>
<event>
 5   0  0.4392552E-04  0.8000189E+03  0.7818609E-02  0.9559990E-01
       -1   -1    0    0    0  501  0.00000000000E+00  0.00000000000E+00  0.83401263163E+02  0.83401263315E+02  0.50400001928E-02 0.  1.
        1   -1    0    0  501    0  0.00000000000E+00  0.00000000000E+00 -0.19185266236E+04  0.19185266236E+04  0.50400001928E-02 0. -1.
    10030    2    1    2    0    0  0.00000000000E+00  0.00000000000E+00 -0.18351253605E+04  0.20019278869E+04  0.80001885973E+03 0.  0.
        5    1    3    3  502    0  0.31481399508E+03  0.23908454463E+03 -0.76501811109E+03  0.86112953223E+03  0.46999998093E+01 0.  1.
       -5    1    3    3    0  502 -0.31481399508E+03 -0.23908454463E+03 -0.10701072494E+04  0.11407983547E+04  0.46999998093E+01 0. -1.
</event>
<event>
 5   0  0.4392552E-04  0.7997368E+03  0.7818609E-02  0.9560398E-01
        1   -1    0    0  501    0  0.00000000000E+00  0.00000000000E+00  0.21675216026E+04  0.21675216026E+04  0.50400001928E-02 0. -1.
       -1   -1    0    0    0  501  0.00000000000E+00  0.00000000000E+00 -0.73768463995E+02  0.73768464167E+02  0.50400001928E-02 0.  1.
    10030    2    1    2    0    0  0.00000000000E+00  0.00000000000E+00  0.20937531386E+04  0.22412900668E+04  0.79973680545E+03 0.  0.
        5    1    3    3  502    0 -0.34012139984E+03 -0.93307074334E+02  0.15747945928E+04  0.16138119086E+04  0.46999998093E+01 0. -1.
       -5    1    3    3    0  502  0.34012139984E+03  0.93307074334E+02  0.51895854579E+03  0.62747815819E+03  0.46999998093E+01 0.  1.
</event>
<event>
 5   0  0.6970013E-04  0.7999205E+03  0.7818609E-02  0.9560132E-01
        2   -1    0    0  501    0  0.00000000000E+00  0.00000000000E+00  0.11251226953E+04  0.11251226953E+04  0.25500000920E-02 0.  1.
       -2   -1    0    0    0  501  0.00000000000E+00  0.00000000000E+00 -0.14217843890E+03  0.14217843892E+03  0.25500000920E-02 0. -1.
    10030    2    1    2    0    0  0.00000000000E+00  0.00000000000E+00  0.98294425639E+03  0.12673011342E+04  0.79992046704E+03 0.  0.
        3    1    3    3  502    0 -0.60295071410E+02 -0.38806453699E+03  0.61148723176E+03  0.72673669600E+03  0.10100000352E+00 0. -1.
       -3    1    3    3    0  502  0.60295071410E+02  0.38806453699E+03  0.37145702463E+03  0.54056443821E+03  0.10100000352E+00 0.  1.
</event>
<event>
 5   0  0.6970013E-04  0.8004048E+03  0.7818609E-02  0.9559431E-01
        2   -1    0    0  501    0  0.00000000000E+00  0.00000000000E+00  0.17667669812E+04  0.17667669812E+04  0.25500000920E-02 0. -1.
       -2   -1    0    0    0  501  0.00000000000E+00  0.00000000000E+00 -0.90652559225E+02  0.90652559261E+02  0.25500000920E-02 0.  1.
    10030    2    1    2    0    0  0.00000000000E+00  0.00000000000E+00  0.16761144220E+04  0.18574195404E+04  0.80040476868E+03 0.  0.
        3    1    3    3  502    0  0.13389294943E+03  0.21347757638E+02  0.17118453153E+04  0.17172062900E+04  0.10100000352E+00 0. -1.
       -3    1    3    3    0  502 -0.13389294943E+03 -0.21347757638E+02 -0.35730893345E+02  0.14021325045E+03  0.10100000352E+00 0.  1.
</event>
<event>
 5   0  0.6801147E-04  0.8001041E+03  0.7818609E-02  0.9559866E-01
       -2   -1    0    0    0  501  0.00000000000E+00  0.00000000000E+00  0.52000138883E+03  0.52000138884E+03  0.25500000920E-02 0. -1.
        2   -1    0    0  501    0  0.00000000000E+00  0.00000000000E+00 -0.30777154678E+03  0.30777154679E+03  0.25500000920E-02 0.  1.
    10030    2    1    2    0    0  0.00000000000E+00  0.00000000000E+00  0.21222984205E+03  0.82777293563E+03  0.80010407268E+03 0.  0.
        4    1    3    3  502    0 -0.16960392888E+03  0.22078910939E+03  0.40332392978E+03  0.49008685837E+03  0.12699999809E+01 0. -1.
       -4    1    3    3    0  502  0.16960392888E+03 -0.22078910939E+03 -0.19109408773E+03  0.33768607727E+03  0.12699999809E+01 0.  1.
</event>
<event>
 5   0  0.6970013E-04  0.8006064E+03  0.7818609E-02  0.9559140E-01
       -2   -1    0    0    0  501  0.00000000000E+00  0.00000000000E+00  0.71158228234E+03  0.71158228235E+03  0.25500000920E-02 0. -1.
        2   -1    0    0  501    0  0.00000000000E+00  0.00000000000E+00 -0.22519200137E+03  0.22519200139E+03  0.25500000920E-02 0.  1.
    10030    2    1    2    0    0  0.00000000000E+00  0.00000000000E+00  0.48639028097E+03  0.93677428374E+03  0.80060636598E+03 0.  0.
        3    1    3    3  502    0 -0.68342601658E+02  0.94954387134E+02 -0.20474202977E+03  0.23580999935E+03  0.10100000352E+00 0.  1.
       -3    1    3    3    0  502  0.68342601658E+02 -0.94954387134E+02  0.69113231074E+03  0.70096428439E+03  0.10100000352E+00 0. -1.
</event>
<event>
 5   0  0.6593118E-04  0.8003016E+03  0.7818609E-02  0.9559581E-01
       -2   -1    0    0    0  501  0.00000000000E+00  0.00000000000E+00  0.86252283646E+02  0.86252283684E+02  0.25500000920E-02 0. -1.
        2   -1    0    0  501    0  0.00000000000E+00  0.00000000000E+00 -0.18564221566E+04  0.18564221566E+04  0.25500000920E-02 0.  1.
    10030    2    1    2    0    0  0.00000000000E+00  0.00000000000E+00 -0.17701698729E+04  0.19426744403E+04  0.80030156930E+03 0.  0.
        1    1    3    3  502    0  0.34069978745E+03 -0.20467322445E+03 -0.99772325757E+03  0.10739735438E+04  0.50400001928E-02 0.  1.
       -1    1    3    3    0  502 -0.34069978745E+03  0.20467322445E+03 -0.77244661537E+03  0.86870089651E+03  0.50400001928E-02 0. -1.
</event>
<event>
 5   0  0.6970013E-04  0.8004370E+03  0.7818609E-02  0.9559385E-01
       -2   -1    0    0    0  501  0.00000000000E+00  0.00000000000E+00  0.91809197713E+03  0.91809197713E+03  0.25500000920E-02 0. -1.
        2   -1    0    0  501    0  0.00000000000E+00  0.00000000000E+00 -0.17446490852E+03  0.17446490854E+03  0.25500000920E-02 0.  1.
    10030    2    1    2    0    0  0.00000000000E+00  0.00000000000E+00  0.74362706861E+03  0.10925568857E+04  0.80043696270E+03 0.  0.
        3    1    3    3  502    0 -0.33154474683E+03 -0.79944660574E+02  0.65767783554E+03  0.74084628194E+03  0.10100000352E+00 0. -1.
       -3    1    3    3    0  502  0.33154474683E+03  0.79944660574E+02  0.85949233065E+02  0.35171060372E+03  0.10100000352E+00 0.  1.
</event>
<event>
 5   0  0.6672462E-04  0.7997633E+03  0.7818609E-02  0.9560360E-01
       -2   -1    0    0    0  501  0.00000000000E+00  0.00000000000E+00  0.11277279600E+03  0.11277279603E+03  0.25500000920E-02 0.  1.
        2   -1    0    0  501    0  0.00000000000E+00  0.00000000000E+00 -0.14179423802E+04  0.14179423802E+04  0.25500000920E-02 0. -1.
    10030    2    1    2    0    0  0.00000000000E+00  0.00000000000E+00 -0.13051695842E+04  0.15307151762E+04  0.79976328201E+03 0.  0.
        5    1    3    3  502    0 -0.85360323440E+02 -0.24205534456E+03 -0.12394128319E+04  0.12657185440E+04  0.46999998093E+01 0. -1.
       -5    1    3    3    0  502  0.85360323440E+02  0.24205534456E+03 -0.65756752304E+02  0.26499663228E+03  0.46999998093E+01 0.  1.
</event>
<event>
 5   0  0.4086111E-04  0.8001529E+03  0.7818609E-02  0.9559796E-01
        1   -1    0    0  501    0  0.00000000000E+00  0.00000000000E+00  0.47522562355E+03  0.47522562357E+03  0.50400001928E-02 0.  1.
       -1   -1    0    0    0  501  0.00000000000E+00  0.00000000000E+00 -0.33681088110E+03  0.33681088114E+03  0.50400001928E-02 0. -1.
    10030    2    1    2    0    0  0.00000000000E+00  0.00000000000E+00  0.13841474245E+03  0.81203650471E+03  0.80015288793E+03 0.  0.
        3    1    3    3  502    0  0.19048179946E+03  0.33599373327E+03 -0.36678413733E+02  0.38796961345E+03  0.10100000352E+00 0. -1.
       -3    1    3    3    0  502 -0.19048179946E+03 -0.33599373327E+03  0.17509315618E+03  0.42406689126E+03  0.10100000352E+00 0.  1.
</event>
<event>
 5   0  0.2736375E-04  0.8001684E+03  0.7818609E-02  0.9559773E-01
        3   -1    0    0  501    0  0.00000000000E+00  0.00000000000E+00  0.18828950378E+03  0.18828953087E+03  0.10100000352E+00 0.  1.
       -3   -1    0    0    0  501  0.00000000000E+00  0.00000000000E+00 -0.85011298654E+03  0.85011299254E+03  0.10100000352E+00 0. -1.
    10030    2    1    2    0    0  0.00000000000E+00  0.00000000000E+00 -0.66182348276E+03  0.10384025234E+04  0.80016840620E+03 0.  0.
        3    1    3    3  502    0 -0.19851533564E+03 -0.57388608540E+02 -0.77549662127E+03  0.80255642211E+03  0.10100000352E+00 0. -1.
       -3    1    3    3    0  502  0.19851533564E+03  0.57388608540E+02  0.11367313851E+03  0.23584610129E+03  0.10100000352E+00 0.  1.
</event>
<event>
 5   0  0.4087283E-04  0.8002727E+03  0.7818609E-02  0.9559623E-01
        1   -1    0    0  501    0  0.00000000000E+00  0.00000000000E+00  0.48888475715E+03  0.48888475718E+03  0.50400001928E-02 0. -1.
       -1   -1    0    0    0  501  0.00000000000E+00  0.00000000000E+00 -0.32749862795E+03  0.32749862799E+03  0.50400001928E-02 0.  1.
    10030    2    1    2    0    0  0.00000000000E+00  0.00000000000E+00  0.16138612920E+03  0.81638338517E+03  0.80027267158E+03 0.  0.
        1    1    3    3  502    0 -0.24621697488E+03 -0.13184906374E+03  0.37299610845E+03  0.46597539771E+03  0.50400001928E-02 0. -1.
       -1    1    3    3    0  502  0.24621697488E+03  0.13184906374E+03 -0.21160997925E+03  0.35040798746E+03  0.50400001928E-02 0.  1.
</event>
<event>
 5   0  0.4086111E-04  0.7992541E+03  0.7818609E-02  0.9561097E-01
        1   -1    0    0  501    0  0.00000000000E+00  0.00000000000E+00  0.68580640472E+03  0.68580640474E+03  0.50400001928E-02 0.  1.
       -1   -1    0    0    0  501  0.00000000000E+00  0.00000000000E+00 -0.23286713360E+03  0.23286713366E+03  0.50400001928E-02 0. -1.
    10030    2    1    2    0    0  0.00000000000E+00  0.00000000000E+00  0.45293927112E+03  0.91867353839E+03  0.79925408152E+03 0.  0.
        3    1    3    3  502    0 -0.28267517095E+03  0.11243015627E+03  0.52433407287E+03  0.60619470675E+03  0.10100000352E+00 0.  1.
       -3    1    3    3    0  502  0.28267517095E+03 -0.11243015627E+03 -0.71394801757E+02  0.31247883165E+03  0.10100000352E+00 0. -1.
</event>
<event>
 5   0  0.4169155E-04  0.7999182E+03  0.7818609E-02  0.9560136E-01
       -1   -1    0    0    0  501  0.00000000000E+00  0.00000000000E+00  0.28717121733E+03  0.28717121738E+03  0.50400001928E-02 0. -1.
        1   -1    0    0  501    0  0.00000000000E+00  0.00000000000E+00 -0.55704494074E+03  0.55704494076E+03  0.50400001928E-02 0.  1.
    10030    2    1    2    0    0  0.00000000000E+00  0.00000000000E+00 -0.26987372340E+03  0.84421615814E+03  0.79991818024E+03 0.  0.
        4    1    3    3  502    0  0.29687591691E+03  0.21559593621E+03  0.33092937345E+02  0.36839336741E+03  0.12699999809E+01 0. -1.
       -4    1    3    3    0  502 -0.29687591691E+03 -0.21559593621E+03 -0.30296666075E+03  0.47582279073E+03  0.12699999809E+01 0.  1.
</event>
<event>
 5   0  0.4169155E-04  0.7998607E+03  0.7818609E-02  0.9560219E-01
       -1   -1    0    0    0  501  0.00000000000E+00  0.00000000000E+00  0.26410017447E+03  0.26410017452E+03  0.50400001928E-02 0.  1.
        1   -1    0    0  501    0  0.00000000000E+00  0.00000000000E+00 -0.60561978339E+03  0.60561978341E+03  0.50400001928E-02 0. -1.
    10030    2    1    2    0    0  0.00000000000E+00  0.00000000000E+00 -0.34151960892E+03  0.86971995793E+03  0.79986071409E+03 0.  0.
        4    1    3    3  502    0 -0.42988124749E+02  0.11219373820E+03 -0.58552987137E+03  0.59773092352E+03  0.12699999809E+01 0. -1.
       -4    1    3    3    0  502  0.42988124749E+02 -0.11219373820E+03  0.24401026245E+03  0.27198903441E+03  0.12699999809E+01 0.  1.
</event>
<event>
 5   0  0.6801147E-04  0.7998109E+03  0.7818609E-02  0.9560291E-01
       -2   -1    0    0    0  501  0.00000000000E+00  0.00000000000E+00  0.39610947837E+03  0.39610947838E+03  0.25500000920E-02 0.  1.
        2   -1    0    0  501    0  0.00000000000E+00  0.00000000000E+00 -0.40373776703E+03  0.40373776704E+03  0.25500000920E-02 0. -1.
    10030    2    1    2    0    0  0.00000000000E+00  0.00000000000E+00 -0.76282886587E+01  0.79984724542E+03  0.79981086840E+03 0.  0.
        4    1    3    3  502    0 -0.32478875677E+03 -0.23292133501E+02 -0.23597224947E+03  0.40213775678E+03  0.12699999809E+01 0. -1.
       -4    1    3    3    0  502  0.32478875677E+03  0.23292133501E+02  0.22834396081E+03  0.39770948863E+03  0.12699999809E+01 0.  1.
</event>
<event>
 5   0  0.6672462E-04  0.8000878E+03  0.7818609E-02  0.9559890E-01
       -2   -1    0    0    0  501  0.00000000000E+00  0.00000000000E+00  0.70927114787E+03  0.70927114787E+03  0.25500000920E-02 0. -1.
        2   -1    0    0  501    0  0.00000000000E+00  0.00000000000E+00 -0.22563321203E+03  0.22563321204E+03  0.25500000920E-02 0.  1.
    10030    2    1    2    0    0  0.00000000000E+00  0.00000000000E+00  0.48363793584E+03  0.93490435992E+03  0.80008781344E+03 0.  0.
        5    1    3    3  502    0 -0.23669762795E+03  0.31646572220E+03  0.31419743939E+03  0.50489448534E+03  0.46999998093E+01 0. -1.
       -5    1    3    3    0  502  0.23669762795E+03 -0.31646572220E+03  0.16944049644E+03  0.43000987458E+03  0.46999998093E+01 0.  1.
</event>
<event>
 5   0  0.4169155E-04  0.8000352E+03  0.7818609E-02  0.9559966E-01
       -1   -1    0    0    0  501  0.00000000000E+00  0.00000000000E+00  0.93480706999E+02  0.93480707135E+02  0.50400001928E-02 0.  1.
        1   -1    0    0  501    0  0.00000000000E+00  0.00000000000E+00 -0.17117336015E+04  0.17117336015E+04  0.50400001928E-02 0. -1.
    10030    2    1    2    0    0  0.00000000000E+00  0.00000000000E+00 -0.16182528945E+04  0.18052143086E+04  0.80003516771E+03 0.  0.
        4    1    3    3  502    0 -0.20239027305E+03 -0.19961815249E+03 -0.17410101005E+03  0.33334967231E+03  0.12699999809E+01 0.  1.
       -4    1    3    3    0  502  0.20239027305E+03  0.19961815249E+03 -0.14441518845E+04  0.14718646363E+04  0.12699999809E+01 0. -1.
</event>
<event>
 5   0  0.6970013E-04  0.8002971E+03  0.7818609E-02  0.9559587E-01
       -2   -1    0    0    0  501  0.00000000000E+00  0.00000000000E+00  0.36898635685E+03  0.36898635686E+03  0.25500000920E-02 0.  1.
        2   -1    0    0  501    0  0.00000000000E+00  0.00000000000E+00 -0.43394251201E+03  0.43394251202E+03  0.25500000920E-02 0. -1.
    10030    2    1    2    0    0  0.00000000000E+00  0.00000000000E+00 -0.64956155161E+02  0.80292886887E+03  0.80029711131E+03 0.  0.
        3    1    3    3  502    0  0.11035577122E+03  0.19914882707E+03 -0.36261975840E+03  0.42817257145E+03  0.10100000352E+00 0. -1.
       -3    1    3    3    0  502 -0.11035577122E+03 -0.19914882707E+03  0.29766360324E+03  0.37475629742E+03  0.10100000352E+00 0.  1.
</event>
<event>
 5   0  0.6593118E-04  0.8000676E+03  0.7818609E-02  0.9559919E-01
        2   -1    0    0  501    0  0.00000000000E+00  0.00000000000E+00  0.82252995131E+03  0.82252995132E+03  0.25500000920E-02 0.  1.
       -2   -1    0    0    0  501  0.00000000000E+00  0.00000000000E+00 -0.19455467940E+03  0.19455467942E+03  0.25500000920E-02 0. -1.
    10030    2    1    2    0    0  0.00000000000E+00  0.00000000000E+00  0.62797527191E+03  0.10170846307E+04  0.80006762461E+03 0.  0.
        1    1    3    3  502    0  0.37884041745E+03 -0.44469761006E+02  0.16075379954E+03  0.41393164367E+03  0.50400001928E-02 0.  1.
       -1    1    3    3    0  502 -0.37884041745E+03  0.44469761006E+02  0.46722147237E+03  0.60315298707E+03  0.50400001928E-02 0. -1.
</event>
<event>
 5   0  0.7133039E-04  0.7977243E+03  0.7818609E-02  0.9563317E-01
       -2   -1    0    0    0  501  0.00000000000E+00  0.00000000000E+00  0.45831228161E+03  0.45831228162E+03  0.25500000920E-02 0. -1.
        2   -1    0    0  501    0  0.00000000000E+00  0.00000000000E+00 -0.34712362358E+03  0.34712362359E+03  0.25500000920E-02 0.  1.
    10030    2    1    2    0    0  0.00000000000E+00  0.00000000000E+00  0.11118865803E+03  0.80543590521E+03  0.79772431311E+03 0.  0.
        2    1    3    3  502    0 -0.10674586873E+03  0.28290568151E+03 -0.20703694960E+03  0.36646228132E+03  0.25500000920E-02 0. -1.
       -2    1    3    3    0  502  0.10674586873E+03 -0.28290568151E+03  0.31822560762E+03  0.43897362390E+03  0.25500000920E-02 0.  1.
</event>
<event>
 5   0  0.2736375E-04  0.8005441E+03  0.7818609E-02  0.9559230E-01
       -4   -1    0    0    0  501  0.00000000000E+00  0.00000000000E+00  0.46033067310E+03  0.46033242499E+03  0.12699999809E+01 0. -1.
        4   -1    0    0  501    0  0.00000000000E+00  0.00000000000E+00 -0.34804563816E+03  0.34804795524E+03  0.12699999809E+01 0.  1.
    10030    2    1    2    0    0  0.00000000000E+00  0.00000000000E+00  0.11228503493E+03  0.80838038023E+03  0.80054413374E+03 0.  0.
        4    1    3    3  502    0  0.17516417999E+03 -0.17950118831E+03 -0.25886128755E+03  0.36043577188E+03  0.12699999809E+01 0.  1.
       -4    1    3    3    0  502 -0.17516417999E+03  0.17950118831E+03  0.37114632249E+03  0.44794460835E+03  0.12699999809E+01 0. -1.
</event>
<event>
 5   0  0.4169155E-04  0.7999928E+03  0.7818609E-02  0.9560028E-01
        1   -1    0    0  501    0  0.00000000000E+00  0.00000000000E+00  0.22238263745E+03  0.22238263751E+03  0.50400001928E-02 0. -1.
       -1   -1    0    0    0  501  0.00000000000E+00  0.00000000000E+00 -0.71946767167E+03  0.71946767169E+03  0.50400001928E-02 0.  1.
    10030    2    1    2    0    0  0.00000000000E+00  0.00000000000E+00 -0.49708503422E+03  0.94185030920E+03  0.79999279603E+03 0.  0.
        4    1    3    3  502    0 -0.24349930408E+01  0.27507799511E+03  0.93330965198E+02  0.29049288209E+03  0.12699999809E+01 0. -1.
       -4    1    3    3    0  502  0.24349930408E+01 -0.27507799511E+03 -0.59041599942E+03  0.65135742711E+03  0.12699999809E+01 0.  1.
</event>
<event>
 5   0  0.6672462E-04  0.8001384E+03  0.7818609E-02  0.9559817E-01
        2   -1    0    0  501    0  0.00000000000E+00  0.00000000000E+00  0.83190630023E+03  0.83190630023E+03  0.25500000920E-02 0.  1.
       -2   -1    0    0    0  501  0.00000000000E+00  0.00000000000E+00 -0.19239592573E+03  0.19239592575E+03  0.25500000920E-02 0. -1.
    10030    2    1    2    0    0  0.00000000000E+00  0.00000000000E+00  0.63951037450E+03  0.10243022260E+04  0.80013844494E+03 0.  0.
        5    1    3    3  502    0 -0.12584656531E+03  0.13266118574E+03 -0.13573034902E+03  0.22777437487E+03  0.46999998093E+01 0. -1.
       -5    1    3    3    0  502  0.12584656531E+03 -0.13266118574E+03  0.77524072352E+03  0.79652785112E+03  0.46999998093E+01 0.  1.
</event>
<event>
 5   0  0.2736375E-04  0.8001525E+03  0.7818609E-02  0.9559796E-01
        4   -1    0    0  501    0  0.00000000000E+00  0.00000000000E+00  0.21412568008E+03  0.21412944629E+03  0.12699999809E+01 0. -1.
       -4   -1    0    0    0  501  0.00000000000E+00  0.00000000000E+00 -0.74749871792E+03  0.74749979678E+03  0.12699999809E+01 0.  1.
    10030    2    1    2    0    0  0.00000000000E+00  0.00000000000E+00 -0.53337303784E+03  0.96162924307E+03  0.80015248774E+03 0.  0.
        2    1    3    3  502    0 -0.38705620368E+03  0.35812469004E+02 -0.38048419073E+03  0.54393313665E+03  0.25500000920E-02 0.  1.
       -2    1    3    3    0  502  0.38705620368E+03 -0.35812469004E+02 -0.15288884712E+03  0.41769610643E+03  0.25500000920E-02 0. -1.
</event>
<event>
 5   0  0.4392552E-04  0.7991653E+03  0.7818609E-02  0.9561226E-01
        1   -1    0    0  501    0  0.00000000000E+00  0.00000000000E+00  0.61695812090E+03  0.61695812092E+03  0.50400001928E-02 0.  1.
       -1   -1    0    0    0  501  0.00000000000E+00  0.00000000000E+00 -0.25879600754E+03  0.25879600759E+03  0.50400001928E-02 0. -1.
    10030    2    1    2    0    0  0.00000000000E+00  0.00000000000E+00  0.35816211336E+03  0.87575412851E+03  0.79916531091E+03 0.  0.
        5    1    3    3  502    0  0.11890415536E+02 -0.33615645321E+03  0.41538981763E+03  0.53452159321E+03  0.46999998093E+01 0.  1.
       -5    1    3    3    0  502 -0.11890415536E+02  0.33615645321E+03 -0.57227704274E+02  0.34123253530E+03  0.46999998093E+01 0. -1.
</event>
<event>
 5   0  0.4169155E-04  0.7998617E+03  0.7818609E-02  0.9560217E-01
       -1   -1    0    0    0  501  0.00000000000E+00  0.00000000000E+00  0.26868529074E+03  0.26868529078E+03  0.50400001928E-02 0.  1.
        1   -1    0    0  501    0  0.00000000000E+00  0.00000000000E+00 -0.59528627399E+03  0.59528627401E+03  0.50400001928E-02 0. -1.
    10030    2    1    2    0    0  0.00000000000E+00  0.00000000000E+00 -0.32660098326E+03  0.86397156480E+03  0.79986165211E+03 0.  0.
        4    1    3    3  502    0 -0.25146401565E+03 -0.28973628097E+03 -0.28532311398E+03  0.47811312045E+03  0.12699999809E+01 0.  1.
       -4    1    3    3    0  502  0.25146401565E+03  0.28973628097E+03 -0.41277869274E+02  0.38585844434E+03  0.12699999809E+01 0. -1.
</event>
<event>
 5   0  0.4086111E-04  0.8004146E+03  0.7818609E-02  0.9559417E-01
       -1   -1    0    0    0  501  0.00000000000E+00  0.00000000000E+00  0.12755304455E+03  0.12755304465E+03  0.50400001928E-02 0.  1.
        1   -1    0    0  501    0  0.00000000000E+00  0.00000000000E+00 -0.12556804624E+04  0.12556804624E+04  0.50400001928E-02 0. -1.
    10030    2    1    2    0    0  0.00000000000E+00  0.00000000000E+00 -0.11281274178E+04  0.13832335070E+04  0.80041455766E+03 0.  0.
        3    1    3    3  502    0  0.17296230465E+03 -0.19525792929E+03 -0.10885902594E+04  0.11194062626E+04  0.10100000352E+00 0. -1.
       -3    1    3    3    0  502 -0.17296230465E+03  0.19525792929E+03 -0.39537158414E+02  0.26382724438E+03  0.10100000352E+00 0.  1.
</event>
<event>
 5   0  0.2736375E-04  0.8001061E+03  0.7818609E-02  0.9559864E-01
        3   -1    0    0  501    0  0.00000000000E+00  0.00000000000E+00  0.45918556251E+03  0.45918557362E+03  0.10100000352E+00 0.  1.
       -3   -1    0    0    0  501  0.00000000000E+00  0.00000000000E+00 -0.34853538067E+03  0.34853539531E+03  0.10100000352E+00 0. -1.
    10030    2    1    2    0    0  0.00000000000E+00  0.00000000000E+00  0.11065018184E+03  0.80772096892E+03  0.80010605603E+03 0.  0.
        5    1    3    3  502    0 -0.11623196607E+03 -0.23942737126E+03 -0.24615574189E+03  0.36256044366E+03  0.46999998093E+01 0. -1.
       -5    1    3    3    0  502  0.11623196607E+03  0.23942737126E+03  0.35680592373E+03  0.44516052526E+03  0.46999998093E+01 0.  1.
</event>
<event>
 5   0  0.2736375E-04  0.7999258E+03  0.7818609E-02  0.9560124E-01
        3   -1    0    0  501    0  0.00000000000E+00  0.00000000000E+00  0.15462338317E+03  0.15462341615E+03  0.10100000352E+00 0. -1.
       -3   -1    0    0    0  501  0.00000000000E+00  0.00000000000E+00 -0.10345803079E+04  0.10345803128E+04  0.10100000352E+00 0.  1.
    10030    2    1    2    0    0  0.00000000000E+00  0.00000000000E+00 -0.87995692470E+03  0.11892037290E+04  0.79992582133E+03 0.  0.
        4    1    3    3  502    0 -0.11268026823E+03  0.15741264352E+03 -0.96028875760E+03  0.97960792874E+03  0.12699999809E+01 0.  1.
       -4    1    3    3    0  502  0.11268026823E+03 -0.15741264352E+03  0.80331832897E+02  0.20959580021E+03  0.12699999809E+01 0. -1.
</event>
<event>
 5   0  0.4392552E-04  0.8001888E+03  0.7818609E-02  0.9559744E-01
       -1   -1    0    0    0  501  0.00000000000E+00  0.00000000000E+00  0.12747773079E+03  0.12747773089E+03  0.50400001928E-02 0. -1.
        1   -1    0    0  501    0  0.00000000000E+00  0.00000000000E+00 -0.12557136656E+04  0.12557136656E+04  0.50400001928E-02 0.  1.
    10030    2    1    2    0    0  0.00000000000E+00  0.00000000000E+00 -0.11282359348E+04  0.13831913965E+04  0.80018879944E+03 0.  0.
        5    1    3    3  502    0  0.25560684840E+03  0.29292610725E+03 -0.40092603672E+03  0.55848396770E+03  0.46999998093E+01 0. -1.
       -5    1    3    3    0  502 -0.25560684840E+03 -0.29292610725E+03 -0.72730989806E+03  0.82470742877E+03  0.46999998093E+01 0.  1.
</event>
<event>
 5   0  0.4169155E-04  0.7991954E+03  0.7818609E-02  0.9561182E-01
       -1   -1    0    0    0  501  0.00000000000E+00  0.00000000000E+00  0.14941696309E+03  0.14941696318E+03  0.50400001928E-02 0.  1.
        1   -1    0    0  501    0  0.00000000000E+00  0.00000000000E+00 -0.10686760365E+04  0.10686760365E+04  0.50400001928E-02 0. -1.
    10030    2    1    2    0    0  0.00000000000E+00  0.00000000000E+00 -0.91925907343E+03  0.12180929997E+04  0.79919541531E+03 0.  0.
        4    1    3    3  502    0  0.11110335038E+03  0.13630319918E+03 -0.10065298389E+04  0.10217761233E+04  0.12699999809E+01 0. -1.
       -4    1    3    3    0  502 -0.11110335038E+03 -0.13630319918E+03  0.87270765464E+02  0.19631687645E+03  0.12699999809E+01 0.  1.
</event>
<event>
 5   0  0.4392552E-04  0.8005736E+03  0.7818609E-02  0.9559187E-01
        1   -1    0    0  501    0  0.00000000000E+00  0.00000000000E+00  0.42260438032E+03  0.42260438035E+03  0.50400001928E-02 0.  1.
       -1   -1    0    0    0  501  0.00000000000E+00  0.00000000000E+00 -0.37914783465E+03  0.37914783468E+03  0.50400001928E-02 0. -1.
    10030    2    1    2    0    0  0.00000000000E+00  0.00000000000E+00  0.43456545677E+02  0.80175221503E+03  0.80057363368E+03 0.  0.
        5    1    3    3  502    0 -0.20360147548E+03  0.16389738518E+03  0.32531070204E+03  0.41733087179E+03  0.46999998093E+01 0.  1.
       -5    1    3    3    0  502  0.20360147548E+03 -0.16389738518E+03 -0.28185415636E+03  0.38442134325E+03  0.46999998093E+01 0. -1.
</event>
<event>
 5   0  0.6593118E-04  0.7998363E+03  0.7818609E-02  0.9560254E-01
        2   -1    0    0  501    0  0.00000000000E+00  0.00000000000E+00  0.82060412357E+03  0.82060412358E+03  0.25500000920E-02 0.  1.
       -2   -1    0    0    0  501  0.00000000000E+00  0.00000000000E+00 -0.19489851866E+03  0.19489851868E+03  0.25500000920E-02 0. -1.
    10030    2    1    2    0    0  0.00000000000E+00  0.00000000000E+00  0.62570560491E+03  0.10155026423E+04  0.79983630351E+03 0.  0.
        1    1    3    3  502    0  0.26654554184E+03 -0.29767183177E+03  0.33407827999E+03  0.52082947544E+03  0.50400001928E-02 0.  1.
       -1    1    3    3    0  502 -0.26654554184E+03  0.29767183177E+03  0.29162732493E+03  0.49467316682E+03  0.50400001928E-02 0. -1.
</event>
<event>
 5   0  0.4087283E-04  0.7999078E+03  0.7818609E-02  0.9560151E-01
       -1   -1    0    0    0  501  0.00000000000E+00  0.00000000000E+00  0.76591118820E+03  0.76591118822E+03  0.50400001928E-02 0.  1.
        1   -1    0    0  501    0  0.00000000000E+00  0.00000000000E+00 -0.20885336925E+03  0.20885336931E+03  0.50400001928E-02 0. -1.
    10030    2    1    2    0    0  0.00000000000E+00  0.00000000000E+00  0.55705781896E+03  0.97476455753E+03  0.79990782528E+03 0.  0.
        1    1    3    3  502    0  0.10293416856E+03  0.27114076176E+03 -0.57083997677E+02  0.29558643162E+03  0.50400001928E-02 0. -1.
       -1    1    3    3    0  502 -0.10293416856E+03 -0.27114076176E+03  0.61414181663E+03  0.67917812590E+03  0.50400001928E-02 0.  1.
</event>
<event>
 5   0  0.6801147E-04  0.8001035E+03  0.7818609E-02  0.9559867E-01
       -2   -1    0    0    0  501  0.00000000000E+00  0.00000000000E+00  0.11947963403E+04  0.11947963403E+04  0.25500000920E-02 0.  1.
        2   -1    0    0  501    0  0.00000000000E+00  0.00000000000E+00 -0.13394867206E+03  0.13394867208E+03  0.25500000920E-02 0. -1.
    10030    2    1    2    0    0  0.00000000000E+00  0.00000000000E+00  0.10608476683E+04  0.13287450124E+04  0.80010345128E+03 0.  0.
        4    1    3    3  502    0  0.11765572675E+03  0.32249697479E+03  0.87154891808E+03  0.93672103547E+03  0.12699999809E+01 0.  1.
       -4    1    3    3    0  502 -0.11765572675E+03 -0.32249697479E+03  0.18929875020E+03  0.39202397696E+03  0.12699999809E+01 0. -1.
</event>
<event>
 5   0  0.6672462E-04  0.7999544E+03  0.7818609E-02  0.9560083E-01
        2   -1    0    0  501    0  0.00000000000E+00  0.00000000000E+00  0.14921574000E+04  0.14921574000E+04  0.25500000920E-02 0.  1.
       -2   -1    0    0    0  501  0.00000000000E+00  0.00000000000E+00 -0.10721506613E+03  0.10721506616E+03  0.25500000920E-02 0. -1.
    10030    2    1    2    0    0  0.00000000000E+00  0.00000000000E+00  0.13849423338E+04  0.15993724661E+04  0.79995438454E+03 0.  0.
        5    1    3    3  502    0  0.11986168937E+03  0.21994583727E+03  0.69088447715E+02  0.25988131814E+03  0.46999998093E+01 0. -1.
       -5    1    3    3    0  502 -0.11986168937E+03 -0.21994583727E+03  0.13158538861E+04  0.13394911480E+04  0.46999998093E+01 0.  1.
</event>
<event>
 5   0  0.2736375E-04  0.8000174E+03  0.7818609E-02  0.9559992E-01
        4   -1    0    0  501    0  0.00000000000E+00  0.00000000000E+00  0.29716026437E+03  0.29716297822E+03  0.12699999809E+01 0. -1.
       -4   -1    0    0    0  501  0.00000000000E+00  0.00000000000E+00 -0.53844752193E+03  0.53844901966E+03  0.12699999809E+01 0.  1.
    10030    2    1    2    0    0  0.00000000000E+00  0.00000000000E+00 -0.24128725755E+03  0.83561199787E+03  0.80001741877E+03 0.  0.
        1    1    3    3  502    0 -0.35218922705E+03 -0.11643300785E+03  0.35727259619E+02  0.37265310152E+03  0.50400001928E-02 0. -1.
       -1    1    3    3    0  502  0.35218922705E+03  0.11643300785E+03 -0.27701451717E+03  0.46295889636E+03  0.50400001928E-02 0.  1.
</event>
<event>
 5   0  0.4087283E-04  0.8000902E+03  0.7818609E-02  0.9559887E-01
       -1   -1    0    0    0  501  0.00000000000E+00  0.00000000000E+00  0.14181795005E+03  0.14181795014E+03  0.50400001928E-02 0.  1.
        1   -1    0    0  501    0  0.00000000000E+00  0.00000000000E+00 -0.11284614515E+04  0.11284614515E+04  0.50400001928E-02 0. -1.
    10030    2    1    2    0    0  0.00000000000E+00  0.00000000000E+00 -0.98664350147E+03  0.12702794017E+04  0.80009021950E+03 0.  0.
        1    1    3    3  502    0 -0.18595213750E+03 -0.15075881784E+02 -0.10551654858E+04  0.10715314658E+04  0.50400001928E-02 0. -1.
       -1    1    3    3    0  502  0.18595213750E+03  0.15075881784E+02  0.68521984366E+02  0.19874793589E+03  0.50400001928E-02 0.  1.
</event>
<event>
 5   0  0.7133039E-04  0.8001210E+03  0.7818609E-02  0.9559842E-01
        2   -1    0    0  501    0  0.00000000000E+00  0.00000000000E+00  0.65128437085E+03  0.65128437086E+03  0.25500000920E-02 0. -1.
       -2   -1    0    0    0  501  0.00000000000E+00  0.00000000000E+00 -0.24574272352E+03  0.24574272354E+03  0.25500000920E-02 0.  1.
    10030    2    1    2    0    0  0.00000000000E+00  0.00000000000E+00  0.40554164733E+03  0.89702709439E+03  0.80012097858E+03 0.  0.
        2    1    3    3  502    0 -0.16962229507E+03  0.15487168423E+03  0.56999598262E+03  0.61453428039E+03  0.25500000920E-02 0. -1.
       -2    1    3    3    0  502  0.16962229507E+03 -0.15487168423E+03 -0.16445433529E+03  0.28249281400E+03  0.25500000920E-02 0.  1.
</event>
<event>
 5   0  0.4086111E-04  0.8000281E+03  0.7818609E-02  0.9559976E-01
       -1   -1    0    0    0  501  0.00000000000E+00  0.00000000000E+00  0.45487044951E+03  0.45487044953E+03  0.50400001928E-02 0. -1.
        1   -1    0    0  501    0  0.00000000000E+00  0.00000000000E+00 -0.35177323215E+03  0.35177323219E+03  0.50400001928E-02 0.  1.
    10030    2    1    2    0    0  0.00000000000E+00  0.00000000000E+00  0.10309721735E+03  0.80664368173E+03  0.80002812016E+03 0.  0.
        3    1    3    3  502    0  0.29856489325E+02 -0.32281474638E+03 -0.18471892903E+03  0.37312446098E+03  0.10100000352E+00 0.  1.
       -3    1    3    3    0  502 -0.29856489325E+02  0.32281474638E+03  0.28781614638E+03  0.43351922075E+03  0.10100000352E+00 0. -1.
</event>
<event>
 5   0  0.4086111E-04  0.7998968E+03  0.7818609E-02  0.9560166E-01
        1   -1    0    0  501    0  0.00000000000E+00  0.00000000000E+00  0.11744820663E+03  0.11744820674E+03  0.50400001928E-02 0.  1.
       -1   -1    0    0    0  501  0.00000000000E+00  0.00000000000E+00 -0.13619512203E+04  0.13619512203E+04  0.50400001928E-02 0. -1.
    10030    2    1    2    0    0  0.00000000000E+00  0.00000000000E+00 -0.12445030137E+04  0.14793994271E+04  0.79989681442E+03 0.  0.
        3    1    3    3  502    0 -0.27008206470E+03  0.13882380988E+03 -0.14087865176E+03  0.33475838539E+03  0.10100000352E+00 0.  1.
       -3    1    3    3    0  502  0.27008206470E+03 -0.13882380988E+03 -0.11036243619E+04  0.11446410417E+04  0.10100000352E+00 0. -1.
</event>
<event>
 5   0  0.7133039E-04  0.8000464E+03  0.7818609E-02  0.9559950E-01
        2   -1    0    0  501    0  0.00000000000E+00  0.00000000000E+00  0.47691071519E+03  0.47691071520E+03  0.25500000920E-02 0.  1.
       -2   -1    0    0    0  501  0.00000000000E+00  0.00000000000E+00 -0.33553152168E+03  0.33553152169E+03  0.25500000920E-02 0. -1.
    10030    2    1    2    0    0  0.00000000000E+00  0.00000000000E+00  0.14137919351E+03  0.81244223689E+03  0.80004644361E+03 0.  0.
        2    1    3    3  502    0 -0.77014591970E+02 -0.29584882379E+03  0.33268071831E+03  0.45181216700E+03  0.25500000920E-02 0.  1.
       -2    1    3    3    0  502  0.77014591970E+02  0.29584882379E+03 -0.19130152480E+03  0.36063006989E+03  0.25500000920E-02 0. -1.
</event>
<event>
 5   0  0.4086111E-04  0.8001253E+03  0.7818609E-02  0.9559836E-01
        1   -1    0    0  501    0  0.00000000000E+00  0.00000000000E+00  0.63778954958E+03  0.63778954960E+03  0.50400001928E-02 0. -1.
       -1   -1    0    0    0  501  0.00000000000E+00  0.00000000000E+00 -0.25094502693E+03  0.25094502698E+03  0.50400001928E-02 0.  1.
    10030    2    1    2    0    0  0.00000000000E+00  0.00000000000E+00  0.38684452266E+03  0.88873457658E+03  0.80012527950E+03 0.  0.
        3    1    3    3  502    0  0.26224091430E+03 -0.27727787691E+03  0.60147817097E+02  0.38635616763E+03  0.10100000352E+00 0.  1.
       -3    1    3    3    0  502 -0.26224091430E+03  0.27727787691E+03  0.32669670556E+03  0.50237840896E+03  0.10100000352E+00 0. -1.
</event>
<event>
 5   0  0.6970013E-04  0.7997173E+03  0.7818609E-02  0.9560426E-01
        2   -1    0    0  501    0  0.00000000000E+00  0.00000000000E+00  0.10028632189E+04  0.10028632189E+04  0.25500000920E-02 0.  1.
       -2   -1    0    0    0  501  0.00000000000E+00  0.00000000000E+00 -0.15943046163E+03  0.15943046165E+03  0.25500000920E-02 0. -1.
    10030    2    1    2    0    0  0.00000000000E+00  0.00000000000E+00  0.84343275727E+03  0.11622936806E+04  0.79971731495E+03 0.  0.
        3    1    3    3  502    0  0.19702046435E+03  0.29043802077E+03  0.70020333624E+03  0.78323433886E+03  0.10100000352E+00 0.  1.
       -3    1    3    3    0  502 -0.19702046435E+03 -0.29043802077E+03  0.14322942103E+03  0.37905934170E+03  0.10100000352E+00 0. -1.
</event>
<event>
 5   0  0.6970013E-04  0.7999661E+03  0.7818609E-02  0.9560066E-01
        2   -1    0    0  501    0  0.00000000000E+00  0.00000000000E+00  0.14833176151E+04  0.14833176151E+04  0.25500000920E-02 0. -1.
       -2   -1    0    0    0  501  0.00000000000E+00  0.00000000000E+00 -0.10785715799E+03  0.10785715802E+03  0.25500000920E-02 0.  1.
    10030    2    1    2    0    0  0.00000000000E+00  0.00000000000E+00  0.13754604571E+04  0.15911747731E+04  0.79996605525E+03 0.  0.
        3    1    3    3  502    0  0.17635904242E+03 -0.13072740976E+03  0.13527829098E+04  0.13704793974E+04  0.10100000352E+00 0. -1.
       -3    1    3    3    0  502 -0.17635904242E+03  0.13072740976E+03  0.22677547309E+02  0.22069537570E+03  0.10100000352E+00 0.  1.
</event>
<event>
 5   0  0.7133039E-04  0.7999845E+03  0.7818609E-02  0.9560040E-01
        2   -1    0    0  501    0  0.00000000000E+00  0.00000000000E+00  0.38275211987E+03  0.38275211988E+03  0.25500000920E-02 0. -1.
       -2   -1    0    0    0  501  0.00000000000E+00  0.00000000000E+00 -0.41800893526E+03  0.41800893527E+03  0.25500000920E-02 0.  1.
    10030    2    1    2    0    0  0.00000000000E+00  0.00000000000E+00 -0.35256815389E+02  0.80076105515E+03  0.79998451511E+03 0.  0.
        2    1    3    3  502    0  0.12504674117E+01 -0.39219638185E+03  0.61024201347E+02  0.39691752135E+03  0.25500000920E-02 0.  1.
       -2    1    3    3    0  502 -0.12504674117E+01  0.39219638185E+03 -0.96281016736E+02  0.40384353380E+03  0.25500000920E-02 0. -1.
</event>
<event>
 5   0  0.4169155E-04  0.8003772E+03  0.7818609E-02  0.9559471E-01
        1   -1    0    0  501    0  0.00000000000E+00  0.00000000000E+00  0.25108961263E+03  0.25108961268E+03  0.50400001928E-02 0.  1.
       -1   -1    0    0    0  501  0.00000000000E+00  0.00000000000E+00 -0.63782377814E+03  0.63782377816E+03  0.50400001928E-02 0. -1.
    10030    2    1    2    0    0  0.00000000000E+00  0.00000000000E+00 -0.38673416550E+03  0.88891339084E+03  0.80037722459E+03 0.  0.
        4    1    3    3  502    0 -0.99871334767E+02 -0.32738831288E+03 -0.42364810844E+03  0.54464366664E+03  0.12699999809E+01 0. -1.
       -4    1    3    3    0  502  0.99871334767E+02  0.32738831288E+03  0.36913942938E+02  0.34426972420E+03  0.12699999809E+01 0.  1.
</event>
<event>
 5   0  0.6593118E-04  0.8000990E+03  0.7818609E-02  0.9559874E-01
        2   -1    0    0  501    0  0.00000000000E+00  0.00000000000E+00  0.21303551158E+03  0.21303551160E+03  0.25500000920E-02 0. -1.
       -2   -1    0    0    0  501  0.00000000000E+00  0.00000000000E+00 -0.75123435680E+03  0.75123435681E+03  0.25500000920E-02 0.  1.
    10030    2    1    2    0    0  0.00000000000E+00  0.00000000000E+00 -0.53819884522E+03  0.96426986841E+03  0.80009898270E+03 0.  0.
        1    1    3    3  502    0 -0.81701949722E+02 -0.93655224400E+02  0.18917818905E+03  0.22635126879E+03  0.50400001928E-02 0. -1.
       -1    1    3    3    0  502  0.81701949722E+02  0.93655224400E+02 -0.72737703427E+03  0.73791859961E+03  0.50400001928E-02 0.  1.
</event>
<event>
 5   0  0.7133039E-04  0.7993852E+03  0.7818609E-02  0.9560907E-01
        2   -1    0    0  501    0  0.00000000000E+00  0.00000000000E+00  0.16346593031E+04  0.16346593031E+04  0.25500000920E-02 0. -1.
       -2   -1    0    0    0  501  0.00000000000E+00  0.00000000000E+00 -0.97729329473E+02  0.97729329506E+02  0.25500000920E-02 0.  1.
    10030    2    1    2    0    0  0.00000000000E+00  0.00000000000E+00  0.15369299736E+04  0.17323886326E+04  0.79938515782E+03 0.  0.
        2    1    3    3  502    0 -0.11325664455E+03 -0.23215634133E+03  0.10746419946E+03  0.27977167213E+03  0.25500000920E-02 0.  1.
       -2    1    3    3    0  502  0.11325664455E+03  0.23215634133E+03  0.14294657741E+04  0.14526169604E+04  0.25500000920E-02 0. -1.
</event>
<event>
 5   0  0.6593118E-04  0.7959373E+03  0.7818609E-02  0.9565916E-01
        2   -1    0    0  501    0  0.00000000000E+00  0.00000000000E+00  0.91069544108E+03  0.91069544108E+03  0.25500000920E-02 0. -1.
       -2   -1    0    0    0  501  0.00000000000E+00  0.00000000000E+00 -0.17390999999E+03  0.17391000000E+03  0.25500000920E-02 0.  1.
    10030    2    1    2    0    0  0.00000000000E+00  0.00000000000E+00  0.73678544109E+03  0.10846054411E+04  0.79593729441E+03 0.  0.
        1    1    3    3  502    0 -0.25202496510E+03 -0.24795171145E+03  0.11941999879E+03  0.37317257453E+03  0.50400001928E-02 0.  1.
       -1    1    3    3    0  502  0.25202496510E+03  0.24795171145E+03  0.61736544230E+03  0.71143286655E+03  0.50400001928E-02 0. -1.
</event>
<event>
 5   0  0.6970013E-04  0.8003417E+03  0.7818609E-02  0.9559523E-01
        2   -1    0    0  501    0  0.00000000000E+00  0.00000000000E+00  0.43397494542E+03  0.43397494543E+03  0.25500000920E-02 0.  1.
       -2   -1    0    0    0  501  0.00000000000E+00  0.00000000000E+00 -0.36899990906E+03  0.36899990907E+03  0.25500000920E-02 0. -1.
    10030    2    1    2    0    0  0.00000000000E+00  0.00000000000E+00  0.64975036357E+02  0.80297485450E+03  0.80034171553E+03 0.  0.
        3    1    3    3  502    0 -0.28909702568E+02 -0.81213545904E+02 -0.35957338734E+03  0.36976268338E+03  0.10100000352E+00 0. -1.
       -3    1    3    3    0  502  0.28909702568E+02  0.81213545904E+02  0.42454842369E+03  0.43321217112E+03  0.10100000352E+00 0.  1.
</event>
<event>
 5   0  0.2736375E-04  0.8001777E+03  0.7818609E-02  0.9559760E-01
       -4   -1    0    0    0  501  0.00000000000E+00  0.00000000000E+00  0.41540569192E+03  0.41540763327E+03  0.12699999809E+01 0. -1.
        4   -1    0    0  501    0  0.00000000000E+00  0.00000000000E+00 -0.38533285433E+03  0.38533494719E+03  0.12699999809E+01 0.  1.
    10030    2    1    2    0    0  0.00000000000E+00  0.00000000000E+00  0.30072837595E+02  0.80074258046E+03  0.80017767065E+03 0.  0.
        1    1    3    3  502    0 -0.11901373258E+03 -0.26745065907E+03  0.28795033741E+03  0.41062089623E+03  0.50400001928E-02 0. -1.
       -1    1    3    3    0  502  0.11901373258E+03  0.26745065907E+03 -0.25787749981E+03  0.39012168424E+03  0.50400001928E-02 0.  1.
</event>
<event>
 5   0  0.6593118E-04  0.8001234E+03  0.7818609E-02  0.9559838E-01
        2   -1    0    0  501    0  0.00000000000E+00  0.00000000000E+00  0.82062028317E+03  0.82062028317E+03  0.25500000920E-02 0.  1.
       -2   -1    0    0    0  501  0.00000000000E+00  0.00000000000E+00 -0.19503464245E+03  0.19503464247E+03  0.25500000920E-02 0. -1.
    10030    2    1    2    0    0  0.00000000000E+00  0.00000000000E+00  0.62558564071E+03  0.10156549256E+04  0.80012344929E+03 0.  0.
        1    1    3    3  502    0 -0.28696199088E+03  0.27767564932E+03  0.28174029168E+03  0.48870087213E+03  0.50400001928E-02 0.  1.
       -1    1    3    3    0  502  0.28696199088E+03 -0.27767564932E+03  0.34384534903E+03  0.52695405351E+03  0.50400001928E-02 0. -1.
</event>
<event>
 5   0  0.6801147E-04  0.7998355E+03  0.7818609E-02  0.9560255E-01
       -2   -1    0    0    0  501  0.00000000000E+00  0.00000000000E+00  0.67885853145E+03  0.67885853146E+03  0.25500000920E-02 0. -1.
        2   -1    0    0  501    0  0.00000000000E+00  0.00000000000E+00 -0.23559286545E+03  0.23559286547E+03  0.25500000920E-02 0.  1.
    10030    2    1    2    0    0  0.00000000000E+00  0.00000000000E+00  0.44326566600E+03  0.91445139693E+03  0.79983554978E+03 0.  0.
        4    1    3    3  502    0 -0.23814145004E+03 -0.31832800105E+03  0.17194799740E+03  0.43314177031E+03  0.12699999809E+01 0.  1.
       -4    1    3    3    0  502  0.23814145004E+03  0.31832800105E+03  0.27131766860E+03  0.48130962662E+03  0.12699999809E+01 0. -1.
</event>
<event>
 5   0  0.4087283E-04  0.7987956E+03  0.7818609E-02  0.9561762E-01
       -1   -1    0    0    0  501  0.00000000000E+00  0.00000000000E+00  0.75085145500E+03  0.75085145502E+03  0.50400001928E-02 0.  1.
        1   -1    0    0  501    0  0.00000000000E+00  0.00000000000E+00 -0.21245025664E+03  0.21245025670E+03  0.50400001928E-02 0. -1.
    10030    2    1    2    0    0  0.00000000000E+00  0.00000000000E+00  0.53840119836E+03  0.96330171172E+03  0.79879555420E+03 0.  0.
        1    1    3    3  502    0  0.51803025447E+02 -0.91242537844E+01 -0.20825493537E+03  0.21479507347E+03  0.50400001928E-02 0. -1.
       -1    1    3    3    0  502 -0.51803025447E+02  0.91242537844E+01  0.74665613373E+03  0.74850663826E+03  0.50400001928E-02 0.  1.
</event>
<event>
 5   0  0.4104786E-04  0.7998385E+03  0.7818609E-02  0.9560251E-01
       -1   -1    0    0    0  501  0.00000000000E+00  0.00000000000E+00  0.18814945943E+03  0.18814945950E+03  0.50400001928E-02 0. -1.
        1   -1    0    0  501    0  0.00000000000E+00  0.00000000000E+00 -0.85004451887E+03  0.85004451889E+03  0.50400001928E-02 0.  1.
    10030    2    1    2    0    0  0.00000000000E+00  0.00000000000E+00 -0.66189505944E+03  0.10381939784E+04  0.79983852560E+03 0.  0.
        2    1    3    3  502    0 -0.10825452727E+03  0.26727139269E+03  0.28724745621E+02  0.28978983944E+03  0.25500000920E-02 0. -1.
       -2    1    3    3    0  502  0.10825452727E+03 -0.26727139269E+03 -0.69061980506E+03  0.74840413894E+03  0.25500000920E-02 0.  1.
</event>
<event>
 5   0  0.4392552E-04  0.7997545E+03  0.7818609E-02  0.9560373E-01
        1   -1    0    0  501    0  0.00000000000E+00  0.00000000000E+00  0.15243571284E+03  0.15243571293E+03  0.50400001928E-02 0.  1.
       -1   -1    0    0    0  501  0.00000000000E+00  0.00000000000E+00 -0.10489786417E+04  0.10489786417E+04  0.50400001928E-02 0. -1.
    10030    2    1    2    0    0  0.00000000000E+00  0.00000000000E+00 -0.89654292882E+03  0.12014143546E+04  0.79975447996E+03 0.  0.
        5    1    3    3  502    0 -0.13295739324E+03 -0.11808437344E+03  0.89723964719E+02  0.19923370075E+03  0.46999998093E+01 0.  1.
       -5    1    3    3    0  502  0.13295739324E+03  0.11808437344E+03 -0.98626689354E+03  0.10021806539E+04  0.46999998093E+01 0. -1.
</event>
<event>
 5   0  0.4392552E-04  0.7998389E+03  0.7818609E-02  0.9560250E-01
        1   -1    0    0  501    0  0.00000000000E+00  0.00000000000E+00  0.31013354211E+03  0.31013354215E+03  0.50400001928E-02 0. -1.
       -1   -1    0    0    0  501  0.00000000000E+00  0.00000000000E+00 -0.51569900640E+03  0.51569900643E+03  0.50400001928E-02 0.  1.
    10030    2    1    2    0    0  0.00000000000E+00  0.00000000000E+00 -0.20556546429E+03  0.82583254858E+03  0.79983888265E+03 0.  0.
        5    1    3    3  502    0 -0.35195148068E+03 -0.12916978513E+03 -0.24644033098E+03  0.44867538921E+03  0.46999998093E+01 0.  1.
       -5    1    3    3    0  502  0.35195148068E+03  0.12916978513E+03  0.40874866693E+02  0.37715715938E+03  0.46999998093E+01 0. -1.
</event>
<event>
 5   0  0.4087283E-04  0.8000430E+03  0.7818609E-02  0.9559955E-01
        1   -1    0    0  501    0  0.00000000000E+00  0.00000000000E+00  0.17517940932E+03  0.17517940939E+03  0.50400001928E-02 0.  1.
       -1   -1    0    0    0  501  0.00000000000E+00  0.00000000000E+00 -0.91344748730E+03  0.91344748731E+03  0.50400001928E-02 0. -1.
    10030    2    1    2    0    0  0.00000000000E+00  0.00000000000E+00 -0.73826807798E+03  0.10886268967E+04  0.80004297714E+03 0.  0.
        1    1    3    3  502    0  0.37781903924E+03  0.11726007641E+03 -0.44986488477E+03  0.59906223927E+03  0.50400001928E-02 0.  1.
       -1    1    3    3    0  502 -0.37781903924E+03 -0.11726007641E+03 -0.28840319320E+03  0.48956465744E+03  0.50400001928E-02 0. -1.
</event>
<event>
 5   0  0.6801147E-04  0.7998551E+03  0.7818609E-02  0.9560227E-01
        2   -1    0    0  501    0  0.00000000000E+00  0.00000000000E+00  0.74830079033E+03  0.74830079034E+03  0.25500000920E-02 0. -1.
       -2   -1    0    0    0  501  0.00000000000E+00  0.00000000000E+00 -0.21374030369E+03  0.21374030371E+03  0.25500000920E-02 0.  1.
    10030    2    1    2    0    0  0.00000000000E+00  0.00000000000E+00  0.53456048664E+03  0.96204109405E+03  0.79985508235E+03 0.  0.
        4    1    3    3  502    0 -0.95439282943E+02  0.14709203538E+03  0.69960125869E+03  0.72124077648E+03  0.12699999809E+01 0. -1.
       -4    1    3    3    0  502  0.95439282943E+02 -0.14709203538E+03 -0.16504077205E+03  0.24080031756E+03  0.12699999809E+01 0.  1.
</event>
<event>
 5   0  0.4087283E-04  0.7994615E+03  0.7818609E-02  0.9560797E-01
       -1   -1    0    0    0  501  0.00000000000E+00  0.00000000000E+00  0.16595376164E+03  0.16595376171E+03  0.50400001928E-02 0.  1.
        1   -1    0    0  501    0  0.00000000000E+00  0.00000000000E+00 -0.96282638442E+03  0.96282638443E+03  0.50400001928E-02 0. -1.
    10030    2    1    2    0    0  0.00000000000E+00  0.00000000000E+00 -0.79687262278E+03  0.11287801461E+04  0.79946146961E+03 0.  0.
        1    1    3    3  502    0 -0.12040121673E+03 -0.24683622422E+03 -0.80852739879E+03  0.85389761049E+03  0.50400001928E-02 0. -1.
       -1    1    3    3    0  502  0.12040121673E+03  0.24683622422E+03  0.11654776016E+02  0.27488253565E+03  0.50400001928E-02 0.  1.
</event>
<event>
 5   0  0.6672462E-04  0.7981828E+03  0.7818609E-02  0.9562651E-01
        2   -1    0    0  501    0  0.00000000000E+00  0.00000000000E+00  0.73203843034E+03  0.73203843035E+03  0.25500000920E-02 0. -1.
       -2   -1    0    0    0  501  0.00000000000E+00  0.00000000000E+00 -0.21757591771E+03  0.21757591772E+03  0.25500000920E-02 0.  1.
    10030    2    1    2    0    0  0.00000000000E+00  0.00000000000E+00  0.51446251263E+03  0.94961434807E+03  0.79818276927E+03 0.  0.
        5    1    3    3  502    0 -0.28597366141E+03  0.14651333539E+03 -0.24319925292E+02  0.32227417091E+03  0.46999998093E+01 0.  1.
       -5    1    3    3    0  502  0.28597366141E+03 -0.14651333539E+03  0.53878243793E+03  0.62734017716E+03  0.46999998093E+01 0. -1.
</event>
<event>
 5   0  0.6672462E-04  0.8008435E+03  0.7818609E-02  0.9558797E-01
        2   -1    0    0  501    0  0.00000000000E+00  0.00000000000E+00  0.81079550457E+03  0.81079550457E+03  0.25500000920E-02 0. -1.
       -2   -1    0    0    0  501  0.00000000000E+00  0.00000000000E+00 -0.19775342393E+03  0.19775342394E+03  0.25500000920E-02 0.  1.
    10030    2    1    2    0    0  0.00000000000E+00  0.00000000000E+00  0.61304208064E+03  0.10085489285E+04  0.80084352315E+03 0.  0.
        5    1    3    3  502    0 -0.35299335856E+03 -0.18364995886E+03  0.25042827547E+03  0.47017872106E+03  0.46999998093E+01 0. -1.
       -5    1    3    3    0  502  0.35299335856E+03  0.18364995886E+03  0.36261380517E+03  0.53837020746E+03  0.46999998093E+01 0.  1.
</event>
<event>
 5   0  0.6672462E-04  0.8001410E+03  0.7818609E-02  0.9559813E-01
       -2   -1    0    0    0  501  0.00000000000E+00  0.00000000000E+00  0.41293813148E+03  0.41293813149E+03  0.25500000920E-02 0.  1.
        2   -1    0    0  501    0  0.00000000000E+00  0.00000000000E+00 -0.38760383992E+03  0.38760383992E+03  0.25500000920E-02 0. -1.
    10030    2    1    2    0    0  0.00000000000E+00  0.00000000000E+00  0.25334291564E+02  0.80054197141E+03  0.80014100111E+03 0.  0.
        5    1    3    3  502    0  0.40097849133E+02 -0.21760819453E+03  0.34611054794E+03  0.41082327737E+03  0.46999998093E+01 0.  1.
       -5    1    3    3    0  502 -0.40097849133E+02  0.21760819453E+03 -0.32077625638E+03  0.38971869404E+03  0.46999998093E+01 0. -1.
</event>
<event>
 5   0  0.7133039E-04  0.7997505E+03  0.7818609E-02  0.9560378E-01
        2   -1    0    0  501    0  0.00000000000E+00  0.00000000000E+00  0.12017241928E+04  0.12017241928E+04  0.25500000920E-02 0.  1.
       -2   -1    0    0    0  501  0.00000000000E+00  0.00000000000E+00 -0.13305898338E+03  0.13305898341E+03  0.25500000920E-02 0. -1.
    10030    2    1    2    0    0  0.00000000000E+00  0.00000000000E+00  0.10686652094E+04  0.13347831762E+04  0.79975045964E+03 0.  0.
        2    1    3    3  502    0 -0.77629908603E+01 -0.38703858745E+03  0.36709029268E+03  0.53349265711E+03  0.25500000920E-02 0.  1.
       -2    1    3    3    0  502  0.77629908603E+01  0.38703858745E+03  0.70157491676E+03  0.80129051913E+03  0.25500000920E-02 0. -1.
</event>
<event>
 5   0  0.4169155E-04  0.8002518E+03  0.7818609E-02  0.9559653E-01
       -1   -1    0    0    0  501  0.00000000000E+00  0.00000000000E+00  0.32117751828E+03  0.32117751832E+03  0.50400001928E-02 0. -1.
        1   -1    0    0  501    0  0.00000000000E+00  0.00000000000E+00 -0.49848045698E+03  0.49848045701E+03  0.50400001928E-02 0.  1.
    10030    2    1    2    0    0  0.00000000000E+00  0.00000000000E+00 -0.17730293870E+03  0.81965797533E+03  0.80025175067E+03 0.  0.
        4    1    3    3  502    0  0.22575883429E+03  0.13373742750E+03 -0.39804682654E+03  0.47675532487E+03  0.12699999809E+01 0.  1.
       -4    1    3    3    0  502 -0.22575883429E+03 -0.13373742750E+03  0.22074388785E+03  0.34290265046E+03  0.12699999809E+01 0. -1.
</event>
<event>
 5   0  0.6593118E-04  0.7997186E+03  0.7818609E-02  0.9560425E-01
        2   -1    0    0  501    0  0.00000000000E+00  0.00000000000E+00  0.99720941296E+03  0.99720941296E+03  0.25500000920E-02 0.  1.
       -2   -1    0    0    0  501  0.00000000000E+00  0.00000000000E+00 -0.16033489144E+03  0.16033489146E+03  0.25500000920E-02 0. -1.
    10030    2    1    2    0    0  0.00000000000E+00  0.00000000000E+00  0.83687452152E+03  0.11575443044E+04  0.79971860797E+03 0.  0.
        1    1    3    3  502    0  0.33828085985E+03 -0.21084107877E+03  0.37267522252E+03  0.54568738499E+03  0.50400001928E-02 0.  1.
       -1    1    3    3    0  502 -0.33828085985E+03  0.21084107877E+03  0.46419929900E+03  0.61185691943E+03  0.50400001928E-02 0. -1.
</event>
<event>
 5   0  0.6672462E-04  0.7998501E+03  0.7818609E-02  0.9560234E-01
        2   -1    0    0  501    0  0.00000000000E+00  0.00000000000E+00  0.46802898443E+03  0.46802898443E+03  0.25500000920E-02 0.  1.
       -2   -1    0    0    0  501  0.00000000000E+00  0.00000000000E+00 -0.34173105670E+03  0.34173105671E+03  0.25500000920E-02 0. -1.
    10030    2    1    2    0    0  0.00000000000E+00  0.00000000000E+00  0.12629792773E+03  0.80976004115E+03  0.79985008451E+03 0.  0.
        5    1    3    3  502    0 -0.15444218058E+02 -0.74001484048E+02 -0.33440349914E+03  0.34287393273E+03  0.46999998093E+01 0. -1.
       -5    1    3    3    0  502  0.15444218058E+02  0.74001484048E+02  0.46070142687E+03  0.46688610841E+03  0.46999998093E+01 0.  1.
</event>
<event>
 5   0  0.6801147E-04  0.8000943E+03  0.7818609E-02  0.9559881E-01
       -2   -1    0    0    0  501  0.00000000000E+00  0.00000000000E+00  0.14104021477E+03  0.14104021479E+03  0.25500000920E-02 0.  1.
        2   -1    0    0  501    0  0.00000000000E+00  0.00000000000E+00 -0.11346956643E+04  0.11346956643E+04  0.25500000920E-02 0. -1.
    10030    2    1    2    0    0  0.00000000000E+00  0.00000000000E+00 -0.99365544957E+03  0.12757358791E+04  0.80009429497E+03 0.  0.
        4    1    3    3  502    0  0.71711271150E+02  0.28703014090E+03 -0.67478720322E+02  0.30345312453E+03  0.12699999809E+01 0.  1.
       -4    1    3    3    0  502 -0.71711271150E+02 -0.28703014090E+03 -0.92617672925E+03  0.97228275460E+03  0.12699999809E+01 0. -1.
</event>
<event>
 5   0  0.6970013E-04  0.7998309E+03  0.7818609E-02  0.9560262E-01
       -2   -1    0    0    0  501  0.00000000000E+00  0.00000000000E+00  0.11339524585E+03  0.11339524588E+03  0.25500000920E-02 0. -1.
        2   -1    0    0  501    0  0.00000000000E+00  0.00000000000E+00 -0.14103973477E+04  0.14103973477E+04  0.25500000920E-02 0.  1.
    10030    2    1    2    0    0  0.00000000000E+00  0.00000000000E+00 -0.12970021019E+04  0.15237925936E+04  0.79983086714E+03 0.  0.
        3    1    3    3  502    0 -0.24353051224E+03 -0.23914668548E+03 -0.25145297797E+03  0.42394204545E+03  0.10100000352E+00 0. -1.
       -3    1    3    3    0  502  0.24353051224E+03  0.23914668548E+03 -0.10455491239E+04  0.10998505481E+04  0.10100000352E+00 0.  1.
</event>
<event>
 5   0  0.6672462E-04  0.8000998E+03  0.7818609E-02  0.9559873E-01
       -2   -1    0    0    0  501  0.00000000000E+00  0.00000000000E+00  0.15815193880E+03  0.15815193882E+03  0.25500000920E-02 0. -1.
        2   -1    0    0  501    0  0.00000000000E+00  0.00000000000E+00 -0.10119378093E+04  0.10119378093E+04  0.25500000920E-02 0.  1.
    10030    2    1    2    0    0  0.00000000000E+00  0.00000000000E+00 -0.85378587046E+03  0.11700897481E+04  0.80009981000E+03 0.  0.
        5    1    3    3  502    0 -0.31616329912E+03 -0.26419464343E+02 -0.70586054665E+02  0.32505645805E+03  0.46999998093E+01 0. -1.
       -5    1    3    3    0  502  0.31616329912E+03  0.26419464343E+02 -0.78319981580E+03  0.84503329004E+03  0.46999998093E+01 0.  1.
</event>
<event>
 5   0  0.4169155E-04  0.7961447E+03  0.7818609E-02  0.9565614E-01
        1   -1    0    0  501    0  0.00000000000E+00  0.00000000000E+00  0.37302941666E+03  0.37302941669E+03  0.50400001928E-02 0.  1.
       -1   -1    0    0    0  501  0.00000000000E+00  0.00000000000E+00 -0.42479646434E+03  0.42479646437E+03  0.50400001928E-02 0. -1.
    10030    2    1    2    0    0  0.00000000000E+00  0.00000000000E+00 -0.51767047675E+02  0.79782588106E+03  0.79614465348E+03 0.  0.
        4    1    3    3  502    0  0.37530946513E+03  0.11789973876E+03  0.35092494389E+02  0.39495650277E+03  0.12699999809E+01 0.  1.
       -4    1    3    3    0  502 -0.37530946513E+03 -0.11789973876E+03 -0.86859542064E+02  0.40286937829E+03  0.12699999809E+01 0. -1.
</event>
<event>
 5   0  0.4086111E-04  0.7998802E+03  0.7818609E-02  0.9560191E-01
       -1   -1    0    0    0  501  0.00000000000E+00  0.00000000000E+00  0.44157907986E+03  0.44157907989E+03  0.50400001928E-02 0. -1.
        1   -1    0    0  501    0  0.00000000000E+00  0.00000000000E+00 -0.36222749167E+03  0.36222749171E+03  0.50400001928E-02 0.  1.
    10030    2    1    2    0    0  0.00000000000E+00  0.00000000000E+00  0.79351588188E+02  0.80380657159E+03  0.79988019727E+03 0.  0.
        3    1    3    3  502    0  0.14698109879E+03  0.21707371426E+03 -0.26384594867E+03  0.37193969357E+03  0.10100000352E+00 0.  1.
       -3    1    3    3    0  502 -0.14698109879E+03 -0.21707371426E+03  0.34319753686E+03  0.43186687802E+03  0.10100000352E+00 0. -1.
</event>
<event>
 5   0  0.4392552E-04  0.8002480E+03  0.7818609E-02  0.9559658E-01
       -1   -1    0    0    0  501  0.00000000000E+00  0.00000000000E+00  0.27456055215E+03  0.27456055219E+03  0.50400001928E-02 0.  1.
        1   -1    0    0  501    0  0.00000000000E+00  0.00000000000E+00 -0.58311072756E+03  0.58311072758E+03  0.50400001928E-02 0. -1.
    10030    2    1    2    0    0  0.00000000000E+00  0.00000000000E+00 -0.30855017541E+03  0.85767127978E+03  0.80024796995E+03 0.  0.
        5    1    3    3  502    0  0.17069411305E+03 -0.33428833883E+03 -0.57992716565E+01  0.37542095740E+03  0.46999998093E+01 0.  1.
       -5    1    3    3    0  502 -0.17069411305E+03  0.33428833883E+03 -0.30275090376E+03  0.48225032238E+03  0.46999998093E+01 0. -1.
</event>
<event>
 5   0  0.6593118E-04  0.7983313E+03  0.7818609E-02  0.9562436E-01
        2   -1    0    0  501    0  0.00000000000E+00  0.00000000000E+00  0.23237789511E+03  0.23237789512E+03  0.25500000920E-02 0. -1.
       -2   -1    0    0    0  501  0.00000000000E+00  0.00000000000E+00 -0.68566427469E+03  0.68566427470E+03  0.25500000920E-02 0.  1.
    10030    2    1    2    0    0  0.00000000000E+00  0.00000000000E+00 -0.45328637959E+03  0.91804216982E+03  0.79833131195E+03 0.  0.
        1    1    3    3  502    0  0.41339396525E+02  0.99918448763E+02  0.21521441792E+03  0.24085241916E+03  0.50400001928E-02 0. -1.
       -1    1    3    3    0  502 -0.41339396525E+02 -0.99918448763E+02 -0.66850079750E+03  0.67718975066E+03  0.50400001928E-02 0.  1.
</event>
<event>
 5   0  0.6672462E-04  0.8009900E+03  0.7818609E-02  0.9558585E-01
        2   -1    0    0  501    0  0.00000000000E+00  0.00000000000E+00  0.40210197498E+03  0.40210197499E+03  0.25500000920E-02 0.  1.
       -2   -1    0    0    0  501  0.00000000000E+00  0.00000000000E+00 -0.39889447955E+03  0.39889447956E+03  0.25500000920E-02 0. -1.
    10030    2    1    2    0    0  0.00000000000E+00  0.00000000000E+00  0.32074954269E+01  0.80099645454E+03  0.80099003250E+03 0.  0.
        5    1    3    3  502    0  0.26672375224E+03 -0.77584284890E+02  0.29007319345E+03  0.40165336900E+03  0.46999998093E+01 0.  1.
       -5    1    3    3    0  502 -0.26672375224E+03  0.77584284890E+02 -0.28686569803E+03  0.39934308554E+03  0.46999998093E+01 0. -1.
</event>
<event>
 5   0  0.4392552E-04  0.8000964E+03  0.7818609E-02  0.9559878E-01
        1   -1    0    0  501    0  0.00000000000E+00  0.00000000000E+00  0.47460855424E+03  0.47460855426E+03  0.50400001928E-02 0. -1.
       -1   -1    0    0    0  501  0.00000000000E+00  0.00000000000E+00 -0.33720117669E+03  0.33720117673E+03  0.50400001928E-02 0.  1.
    10030    2    1    2    0    0  0.00000000000E+00  0.00000000000E+00  0.13740737754E+03  0.81180973100E+03  0.80009640165E+03 0.  0.
        5    1    3    3  502    0  0.10581386188E+03  0.30125652281E+02  0.45892784152E+03  0.47195442790E+03  0.46999998093E+01 0. -1.
       -5    1    3    3    0  502 -0.10581386188E+03 -0.30125652281E+02 -0.32152046398E+03  0.33985530310E+03  0.46999998093E+01 0.  1.
</event>
<event>
 5   0  0.4087283E-04  0.7998802E+03  0.7818609E-02  0.9560190E-01
        1   -1    0    0  501    0  0.00000000000E+00  0.00000000000E+00  0.98757369023E+03  0.98757369025E+03  0.50400001928E-02 0.  1.
       -1   -1    0    0    0  501  0.00000000000E+00  0.00000000000E+00 -0.16196472225E+03  0.16196472233E+03  0.50400001928E-02 0. -1.
    10030    2    1    2    0    0  0.00000000000E+00  0.00000000000E+00  0.82560896799E+03  0.11495384126E+04  0.79988023726E+03 0.  0.
        1    1    3    3  502    0 -0.31984898213E+02  0.28153205734E+03  0.81844615677E+03  0.86610475382E+03  0.50400001928E-02 0.  1.
       -1    1    3    3    0  502  0.31984898213E+02 -0.28153205734E+03  0.71628112165E+01  0.28343365876E+03  0.50400001928E-02 0. -1.
</event>
<event>
 5   0  0.6801147E-04  0.8001126E+03  0.7818609E-02  0.9559854E-01
       -2   -1    0    0    0  501  0.00000000000E+00  0.00000000000E+00  0.41998192477E+03  0.41998192478E+03  0.25500000920E-02 0.  1.
        2   -1    0    0  501    0  0.00000000000E+00  0.00000000000E+00 -0.38107603402E+03  0.38107603403E+03  0.25500000920E-02 0. -1.
    10030    2    1    2    0    0  0.00000000000E+00  0.00000000000E+00  0.38905890753E+02  0.80105795881E+03  0.80011260772E+03 0.  0.
        4    1    3    3  502    0  0.49288108215E+02  0.30060632203E+03 -0.24017941674E+03  0.38791911990E+03  0.12699999809E+01 0. -1.
       -4    1    3    3    0  502 -0.49288108215E+02 -0.30060632203E+03  0.27908530749E+03  0.41313883891E+03  0.12699999809E+01 0.  1.
</event>
<event>
 5   0  0.4169155E-04  0.7997801E+03  0.7818609E-02  0.9560335E-01
        1   -1    0    0  501    0  0.00000000000E+00  0.00000000000E+00  0.67268472407E+03  0.67268472409E+03  0.50400001928E-02 0.  1.
       -1   -1    0    0    0  501  0.00000000000E+00  0.00000000000E+00 -0.23772216172E+03  0.23772216178E+03  0.50400001928E-02 0. -1.
    10030    2    1    2    0    0  0.00000000000E+00  0.00000000000E+00  0.43496256234E+03  0.91040688587E+03  0.79978013678E+03 0.  0.
        4    1    3    3  502    0  0.47020368712E+02 -0.61347538611E+02 -0.22913550749E+03  0.24182458366E+03  0.12699999809E+01 0. -1.
       -4    1    3    3    0  502 -0.47020368712E+02  0.61347538611E+02  0.66409806984E+03  0.66858230221E+03  0.12699999809E+01 0.  1.
</event>
<event>
 5   0  0.6801147E-04  0.7996633E+03  0.7818609E-02  0.9560505E-01
        2   -1    0    0  501    0  0.00000000000E+00  0.00000000000E+00  0.52066762401E+03  0.52066762402E+03  0.25500000920E-02 0. -1.
       -2   -1    0    0    0  501  0.00000000000E+00  0.00000000000E+00 -0.30703912068E+03  0.30703912070E+03  0.25500000920E-02 0.  1.
    10030    2    1    2    0    0  0.00000000000E+00  0.00000000000E+00  0.21362850333E+03  0.82770674472E+03  0.79966325276E+03 0.  0.
        4    1    3    3  502    0  0.22222730483E+03  0.10694534389E+03  0.43255929569E+03  0.49792714204E+03  0.12699999809E+01 0. -1.
       -4    1    3    3    0  502 -0.22222730483E+03 -0.10694534389E+03 -0.21893079236E+03  0.32977960267E+03  0.12699999809E+01 0.  1.
</event>
<event>
 5   0  0.6593118E-04  0.7998773E+03  0.7818609E-02  0.9560195E-01
        2   -1    0    0  501    0  0.00000000000E+00  0.00000000000E+00  0.18267864573E+04  0.18267864573E+04  0.25500000920E-02 0.  1.
       -2   -1    0    0    0  501  0.00000000000E+00  0.00000000000E+00 -0.87558628406E+02  0.87558628443E+02  0.25500000920E-02 0. -1.
    10030    2    1    2    0    0  0.00000000000E+00  0.00000000000E+00  0.17392278289E+04  0.19143450858E+04  0.79987728216E+03 0.  0.
        1    1    3    3  502    0  0.59544878572E+02 -0.18074396601E+03  0.27740963052E+02  0.19231103678E+03  0.50400001928E-02 0. -1.
       -1    1    3    3    0  502 -0.59544878572E+02  0.18074396601E+03  0.17114868659E+04  0.17220340490E+04  0.50400001928E-02 0.  1.
</event>
<event>
 5   0  0.6672462E-04  0.8000200E+03  0.7818609E-02  0.9559988E-01
        2   -1    0    0  501    0  0.00000000000E+00  0.00000000000E+00  0.16574316958E+03  0.16574316960E+03  0.25500000920E-02 0.  1.
       -2   -1    0    0    0  501  0.00000000000E+00  0.00000000000E+00 -0.96539726838E+03  0.96539726838E+03  0.25500000920E-02 0. -1.
    10030    2    1    2    0    0  0.00000000000E+00  0.00000000000E+00 -0.79965409880E+03  0.11311404380E+04  0.80002000769E+03 0.  0.
        5    1    3    3  502    0 -0.16293813176E+03  0.33445792380E+03 -0.19214888485E+03  0.41875317494E+03  0.46999998093E+01 0.  1.
       -5    1    3    3    0  502  0.16293813176E+03 -0.33445792380E+03 -0.60750521395E+03  0.71238726304E+03  0.46999998093E+01 0. -1.
</event>
<event>
 5   0  0.4087283E-04  0.8000088E+03  0.7818609E-02  0.9560004E-01
       -1   -1    0    0    0  501  0.00000000000E+00  0.00000000000E+00  0.28571815796E+03  0.28571815801E+03  0.50400001928E-02 0. -1.
        1   -1    0    0  501    0  0.00000000000E+00  0.00000000000E+00 -0.56000479607E+03  0.56000479609E+03  0.50400001928E-02 0.  1.
    10030    2    1    2    0    0  0.00000000000E+00  0.00000000000E+00 -0.27428663810E+03  0.84572295410E+03  0.80000884698E+03 0.  0.
        1    1    3    3  502    0  0.13557626877E+03 -0.37632681772E+03 -0.13805294783E+03  0.42315648976E+03  0.50400001928E-02 0.  1.
       -1    1    3    3    0  502 -0.13557626877E+03  0.37632681772E+03 -0.13623369027E+03  0.42256646434E+03  0.50400001928E-02 0. -1.
</event>
<event>
 5   0  0.4392552E-04  0.8041106E+03  0.7818609E-02  0.9554086E-01
        1   -1    0    0  501    0  0.00000000000E+00  0.00000000000E+00  0.35972999401E+03  0.35972999405E+03  0.50400001928E-02 0.  1.
       -1   -1    0    0    0  501  0.00000000000E+00  0.00000000000E+00 -0.44936058199E+03  0.44936058202E+03  0.50400001928E-02 0. -1.
    10030    2    1    2    0    0  0.00000000000E+00  0.00000000000E+00 -0.89630587980E+02  0.80909057607E+03  0.80411063790E+03 0.  0.
        5    1    3    3  502    0 -0.26770761381E+03 -0.25290827698E+03  0.11741731831E+03  0.38657325269E+03  0.46999998093E+01 0.  1.
       -5    1    3    3    0  502  0.26770761381E+03  0.25290827698E+03 -0.20704790629E+03  0.42251732338E+03  0.46999998093E+01 0. -1.
</event>
<event>
 5   0  0.6801147E-04  0.7997606E+03  0.7818609E-02  0.9560364E-01
        2   -1    0    0  501    0  0.00000000000E+00  0.00000000000E+00  0.13580138692E+03  0.13580138694E+03  0.25500000920E-02 0.  1.
       -2   -1    0    0    0  501  0.00000000000E+00  0.00000000000E+00 -0.11774861532E+04  0.11774861532E+04  0.25500000920E-02 0. -1.
    10030    2    1    2    0    0  0.00000000000E+00  0.00000000000E+00 -0.10416847663E+04  0.13132875402E+04  0.79976059593E+03 0.  0.
        4    1    3    3  502    0  0.27712443490E+03  0.28802986318E+03 -0.54051234525E+03  0.67224576069E+03  0.12699999809E+01 0. -1.
       -4    1    3    3    0  502 -0.27712443490E+03 -0.28802986318E+03 -0.50117242108E+03  0.64104177949E+03  0.12699999809E+01 0.  1.
</event>
<event>
 5   0  0.2736375E-04  0.8001026E+03  0.7818609E-02  0.9559869E-01
       -3   -1    0    0    0  501  0.00000000000E+00  0.00000000000E+00  0.38835950580E+03  0.38835951893E+03  0.10100000352E+00 0.  1.
        3   -1    0    0  501    0  0.00000000000E+00  0.00000000000E+00 -0.41209507814E+03  0.41209509051E+03  0.10100000352E+00 0. -1.
    10030    2    1    2    0    0  0.00000000000E+00  0.00000000000E+00 -0.23735572339E+02  0.80045460945E+03  0.80010262116E+03 0.  0.
        3    1    3    3  502    0  0.30248168540E+03 -0.24138756626E+03  0.89556859931E+02  0.39721979874E+03  0.10100000352E+00 0.  1.
       -3    1    3    3    0  502 -0.30248168540E+03  0.24138756626E+03 -0.11329243227E+03  0.40323481070E+03  0.10100000352E+00 0. -1.
</event>
<event>
 5   0  0.4169155E-04  0.8004462E+03  0.7818609E-02  0.9559371E-01
        1   -1    0    0  501    0  0.00000000000E+00  0.00000000000E+00  0.57473698500E+03  0.57473698502E+03  0.50400001928E-02 0.  1.
       -1   -1    0    0    0  501  0.00000000000E+00  0.00000000000E+00 -0.27869883075E+03  0.27869883080E+03  0.50400001928E-02 0. -1.
    10030    2    1    2    0    0  0.00000000000E+00  0.00000000000E+00  0.29603815425E+03  0.85343581582E+03  0.80044618991E+03 0.  0.
        4    1    3    3  502    0  0.20972936238E+03 -0.32417409315E+03  0.26035865216E+03  0.46568604098E+03  0.12699999809E+01 0.  1.
       -4    1    3    3    0  502 -0.20972936238E+03  0.32417409315E+03  0.35679502088E+02  0.38774977483E+03  0.12699999809E+01 0. -1.
</event>
<event>
 5   0  0.6801147E-04  0.7994739E+03  0.7818609E-02  0.9560779E-01
        2   -1    0    0  501    0  0.00000000000E+00  0.00000000000E+00  0.46470241351E+03  0.46470241352E+03  0.25500000920E-02 0.  1.
       -2   -1    0    0    0  501  0.00000000000E+00  0.00000000000E+00 -0.34385363118E+03  0.34385363119E+03  0.25500000920E-02 0. -1.
    10030    2    1    2    0    0  0.00000000000E+00  0.00000000000E+00  0.12084878233E+03  0.80855604471E+03  0.79947385776E+03 0.  0.
        4    1    3    3  502    0  0.12883035663E+03 -0.30051211643E+03 -0.17215153072E+03  0.36951665096E+03  0.12699999809E+01 0. -1.
       -4    1    3    3    0  502 -0.12883035663E+03  0.30051211643E+03  0.29300031305E+03  0.43903939374E+03  0.12699999809E+01 0.  1.
</event>
<event>
 5   0  0.2736375E-04  0.7939139E+03  0.7818609E-02  0.9568868E-01
        4   -1    0    0  501    0  0.00000000000E+00  0.00000000000E+00  0.92255665725E+03  0.92255753140E+03  0.12699999809E+01 0. -1.
       -4   -1    0    0    0  501  0.00000000000E+00  0.00000000000E+00 -0.17079902797E+03  0.17080374954E+03  0.12699999809E+01 0.  1.
    10030    2    1    2    0    0  0.00000000000E+00  0.00000000000E+00  0.75175762928E+03  0.10933612809E+04  0.79391394840E+03 0.  0.
        1    1    3    3  502    0  0.10023412541E+03 -0.53126256123E+02  0.89976007983E+03  0.90688338846E+03  0.50400001928E-02 0. -1.
       -1    1    3    3    0  502 -0.10023412541E+03  0.53126256123E+02 -0.14800245055E+03  0.18647789247E+03  0.50400001928E-02 0.  1.
</event>
<event>
 5   0  0.6593118E-04  0.8007062E+03  0.7818609E-02  0.9558995E-01
       -2   -1    0    0    0  501  0.00000000000E+00  0.00000000000E+00  0.45854225322E+03  0.45854225323E+03  0.25500000920E-02 0. -1.
        2   -1    0    0  501    0  0.00000000000E+00  0.00000000000E+00 -0.34954820706E+03  0.34954820707E+03  0.25500000920E-02 0.  1.
    10030    2    1    2    0    0  0.00000000000E+00  0.00000000000E+00  0.10899404617E+03  0.80809046030E+03  0.80070624446E+03 0.  0.
        1    1    3    3  502    0 -0.12403791241E+03  0.37513695651E+03 -0.10669994723E+02  0.39525559916E+03  0.50400001928E-02 0.  1.
       -1    1    3    3    0  502  0.12403791241E+03 -0.37513695651E+03  0.11966404089E+03  0.41283486113E+03  0.50400001928E-02 0. -1.
</event>
<event>
 5   0  0.4087283E-04  0.8001247E+03  0.7818609E-02  0.9559837E-01
       -1   -1    0    0    0  501  0.00000000000E+00  0.00000000000E+00  0.30440871602E+03  0.30440871606E+03  0.50400001928E-02 0.  1.
        1   -1    0    0  501    0  0.00000000000E+00  0.00000000000E+00 -0.52577297469E+03  0.52577297471E+03  0.50400001928E-02 0. -1.
    10030    2    1    2    0    0  0.00000000000E+00  0.00000000000E+00 -0.22136425867E+03  0.83018169078E+03  0.80012468071E+03 0.  0.
        1    1    3    3  502    0  0.32603249076E+03  0.38305459827E+02 -0.34793180662E+03  0.47835241754E+03  0.50400001928E-02 0. -1.
       -1    1    3    3    0  502 -0.32603249076E+03 -0.38305459827E+02  0.12656754795E+03  0.35182927323E+03  0.50400001928E-02 0.  1.
</event>
<event>
 5   0  0.4169155E-04  0.8058005E+03  0.7818609E-02  0.9551659E-01
       -1   -1    0    0    0  501  0.00000000000E+00  0.00000000000E+00  0.37379411640E+03  0.37379411643E+03  0.50400001928E-02 0. -1.
        1   -1    0    0  501    0  0.00000000000E+00  0.00000000000E+00 -0.43427281529E+03  0.43427281532E+03  0.50400001928E-02 0.  1.
    10030    2    1    2    0    0  0.00000000000E+00  0.00000000000E+00 -0.60478698891E+02  0.80806693176E+03  0.80580052940E+03 0.  0.
        4    1    3    3  502    0 -0.34246265589E+03 -0.21221180179E+03 -0.26695162484E+02  0.40376820590E+03  0.12699999809E+01 0. -1.
       -4    1    3    3    0  502  0.34246265589E+03  0.21221180179E+03 -0.33783536407E+02  0.40429872586E+03  0.12699999809E+01 0.  1.
</event>
<event>
 5   0  0.4086111E-04  0.7998702E+03  0.7818609E-02  0.9560205E-01
        1   -1    0    0  501    0  0.00000000000E+00  0.00000000000E+00  0.84062690824E+03  0.84062690825E+03  0.50400001928E-02 0.  1.
       -1   -1    0    0    0  501  0.00000000000E+00  0.00000000000E+00 -0.19027237538E+03  0.19027237544E+03  0.50400001928E-02 0. -1.
    10030    2    1    2    0    0  0.00000000000E+00  0.00000000000E+00  0.65035453286E+03  0.10308992837E+04  0.79987018616E+03 0.  0.
        3    1    3    3  502    0 -0.22228064172E+03 -0.13686776830E+03  0.71568863130E+03  0.76180817589E+03  0.10100000352E+00 0.  1.
       -3    1    3    3    0  502  0.22228064172E+03  0.13686776830E+03 -0.65334098435E+02  0.26909110781E+03  0.10100000352E+00 0. -1.
</event>
<event>
 5   0  0.6970013E-04  0.8022696E+03  0.7818609E-02  0.9556738E-01
        2   -1    0    0  501    0  0.00000000000E+00  0.00000000000E+00  0.12742699649E+04  0.12742699649E+04  0.25500000920E-02 0. -1.
       -2   -1    0    0    0  501  0.00000000000E+00  0.00000000000E+00 -0.12627554691E+03  0.12627554693E+03  0.25500000920E-02 0.  1.
    10030    2    1    2    0    0  0.00000000000E+00  0.00000000000E+00  0.11479944180E+04  0.14005455118E+04  0.80226962236E+03 0.  0.
        3    1    3    3  502    0 -0.33723478967E+03 -0.21598286471E+03  0.61430901566E+03  0.73331540154E+03  0.10100000352E+00 0.  1.
       -3    1    3    3    0  502  0.33723478967E+03  0.21598286471E+03  0.53368540229E+03  0.66723011026E+03  0.10100000352E+00 0. -1.
</event>
<event>
 5   0  0.7133039E-04  0.7999582E+03  0.7818609E-02  0.9560078E-01
        2   -1    0    0  501    0  0.00000000000E+00  0.00000000000E+00  0.30581000211E+03  0.30581000212E+03  0.25500000920E-02 0.  1.
       -2   -1    0    0    0  501  0.00000000000E+00  0.00000000000E+00 -0.52314594106E+03  0.52314594106E+03  0.25500000920E-02 0. -1.
    10030    2    1    2    0    0  0.00000000000E+00  0.00000000000E+00 -0.21733593894E+03  0.82895594319E+03  0.79995815227E+03 0.  0.
        2    1    3    3  502    0 -0.19655563525E+03 -0.44848940371E+02  0.24930731430E+03  0.32062389520E+03  0.25500000920E-02 0.  1.
       -2    1    3    3    0  502  0.19655563525E+03  0.44848940371E+02 -0.46664325325E+03  0.50833204799E+03  0.25500000920E-02 0. -1.
</event>
<event>
 5   0  0.4104786E-04  0.7995397E+03  0.7818609E-02  0.9560684E-01
       -1   -1    0    0    0  501  0.00000000000E+00  0.00000000000E+00  0.10105231178E+03  0.10105231191E+03  0.50400001928E-02 0. -1.
        1   -1    0    0  501    0  0.00000000000E+00  0.00000000000E+00 -0.15815168446E+04  0.15815168446E+04  0.50400001928E-02 0.  1.
    10030    2    1    2    0    0  0.00000000000E+00  0.00000000000E+00 -0.14804645328E+04  0.16825691565E+04  0.79953970103E+03 0.  0.
        2    1    3    3  502    0 -0.83747465034E+02 -0.38722937360E+03 -0.62777441908E+03  0.74233479437E+03  0.25500000920E-02 0.  1.
       -2    1    3    3    0  502  0.83747465034E+02  0.38722937360E+03 -0.85269011374E+03  0.94023436214E+03  0.25500000920E-02 0. -1.
</event>
<event>
 5   0  0.6593118E-04  0.7998815E+03  0.7818609E-02  0.9560189E-01
        2   -1    0    0  501    0  0.00000000000E+00  0.00000000000E+00  0.39453784055E+03  0.39453784056E+03  0.25500000920E-02 0. -1.
       -2   -1    0    0    0  501  0.00000000000E+00  0.00000000000E+00 -0.40541767287E+03  0.40541767288E+03  0.25500000920E-02 0.  1.
    10030    2    1    2    0    0  0.00000000000E+00  0.00000000000E+00 -0.10879832317E+02  0.79995551344E+03  0.79988152418E+03 0.  0.
        1    1    3    3  502    0  0.39154405923E+03 -0.47721705563E+02  0.60660839297E+02  0.39907875031E+03  0.50400001928E-02 0. -1.
       -1    1    3    3    0  502 -0.39154405923E+03  0.47721705563E+02 -0.71540671613E+02  0.40087676313E+03  0.50400001928E-02 0.  1.
</event>
<event>
 5   0  0.6672462E-04  0.7999982E+03  0.7818609E-02  0.9560020E-01
       -2   -1    0    0    0  501  0.00000000000E+00  0.00000000000E+00  0.11119134700E+03  0.11119134703E+03  0.25500000920E-02 0.  1.
        2   -1    0    0  501    0  0.00000000000E+00  0.00000000000E+00 -0.14389544148E+04  0.14389544148E+04  0.25500000920E-02 0. -1.
    10030    2    1    2    0    0  0.00000000000E+00  0.00000000000E+00 -0.13277630678E+04  0.15501457619E+04  0.79999819921E+03 0.  0.
        5    1    3    3  502    0  0.36272117335E+03 -0.73788450428E+01 -0.33758931157E+03  0.49559028465E+03  0.46999998093E+01 0.  1.
       -5    1    3    3    0  502 -0.36272117335E+03  0.73788450428E+01 -0.99017375625E+03  0.10545554772E+04  0.46999998093E+01 0. -1.
</event>
<event>
 5   0  0.4169155E-04  0.8002759E+03  0.7818609E-02  0.9559618E-01
       -1   -1    0    0    0  501  0.00000000000E+00  0.00000000000E+00  0.74882627511E+03  0.74882627513E+03  0.50400001928E-02 0. -1.
        1   -1    0    0  501    0  0.00000000000E+00  0.00000000000E+00 -0.21381511381E+03  0.21381511387E+03  0.50400001928E-02 0.  1.
    10030    2    1    2    0    0  0.00000000000E+00  0.00000000000E+00  0.53501116130E+03  0.96264138900E+03  0.80027589061E+03 0.  0.
        4    1    3    3  502    0  0.17302911610E+03  0.61274808419E+02  0.69519080627E+03  0.71901707016E+03  0.12699999809E+01 0. -1.
       -4    1    3    3    0  502 -0.17302911610E+03 -0.61274808419E+02 -0.16017964497E+03  0.24362431884E+03  0.12699999809E+01 0.  1.
</event>
<event>
 5   0  0.6593118E-04  0.8013964E+03  0.7818609E-02  0.9557998E-01
        2   -1    0    0  501    0  0.00000000000E+00  0.00000000000E+00  0.83424101610E+03  0.83424101610E+03  0.25500000920E-02 0.  1.
       -2   -1    0    0    0  501  0.00000000000E+00  0.00000000000E+00 -0.19246122217E+03  0.19246122218E+03  0.25500000920E-02 0. -1.
    10030    2    1    2    0    0  0.00000000000E+00  0.00000000000E+00  0.64177979393E+03  0.10267022383E+04  0.80139639518E+03 0.  0.
        1    1    3    3  502    0 -0.20347261437E+03  0.30792038489E+03  0.52077663063E+03  0.63829802386E+03  0.50400001928E-02 0.  1.
       -1    1    3    3    0  502  0.20347261437E+03 -0.30792038489E+03  0.12100316331E+03  0.38840421443E+03  0.50400001928E-02 0. -1.
</event>
<event>
 5   0  0.4087283E-04  0.7999094E+03  0.7818609E-02  0.9560148E-01
       -1   -1    0    0    0  501  0.00000000000E+00  0.00000000000E+00  0.14313277044E+03  0.14313277053E+03  0.50400001928E-02 0. -1.
        1   -1    0    0  501    0  0.00000000000E+00  0.00000000000E+00 -0.11175900376E+04  0.11175900377E+04  0.50400001928E-02 0.  1.
    10030    2    1    2    0    0  0.00000000000E+00  0.00000000000E+00 -0.97445726720E+03  0.12607228082E+04  0.79990939080E+03 0.  0.
        1    1    3    3  502    0  0.38961089058E+03  0.16271673689E+02 -0.62733465658E+03  0.73865430670E+03  0.50400001928E-02 0. -1.
       -1    1    3    3    0  502 -0.38961089058E+03 -0.16271673689E+02 -0.34712261062E+03  0.52206850149E+03  0.50400001928E-02 0.  1.
</event>
<event>
 5   0  0.6593118E-04  0.8000296E+03  0.7818609E-02  0.9559974E-01
        2   -1    0    0  501    0  0.00000000000E+00  0.00000000000E+00  0.52931214637E+03  0.52931214638E+03  0.25500000920E-02 0.  1.
       -2   -1    0    0    0  501  0.00000000000E+00  0.00000000000E+00 -0.30230145103E+03  0.30230145104E+03  0.25500000920E-02 0. -1.
    10030    2    1    2    0    0  0.00000000000E+00  0.00000000000E+00  0.22701069535E+03  0.83161359742E+03  0.80002957421E+03 0.  0.
        1    1    3    3  502    0  0.41389415638E+02 -0.99829918552E+02 -0.28683931244E+03  0.30652224642E+03  0.50400001928E-02 0. -1.
       -1    1    3    3    0  502 -0.41389415638E+02  0.99829918552E+02  0.51385000779E+03  0.52509135100E+03  0.50400001928E-02 0.  1.
</event>
<event>
 5   0  0.4104786E-04  0.7991836E+03  0.7818609E-02  0.9561200E-01
        1   -1    0    0  501    0  0.00000000000E+00  0.00000000000E+00  0.48516745757E+03  0.48516745760E+03  0.50400001928E-02 0.  1.
       -1   -1    0    0    0  501  0.00000000000E+00  0.00000000000E+00 -0.32911030782E+03  0.32911030786E+03  0.50400001928E-02 0. -1.
    10030    2    1    2    0    0  0.00000000000E+00  0.00000000000E+00  0.15605714975E+03  0.81427776545E+03  0.79918361177E+03 0.  0.
        2    1    3    3  502    0 -0.89180450751E+01 -0.36539065478E+03  0.24258354895E+03  0.43867600841E+03  0.25500000920E-02 0. -1.
       -2    1    3    3    0  502  0.89180450751E+01  0.36539065478E+03 -0.86526399204E+02  0.37560175704E+03  0.25500000920E-02 0.  1.
</event>
<event>
 5   0  0.7133039E-04  0.7996685E+03  0.7818609E-02  0.9560497E-01
       -2   -1    0    0    0  501  0.00000000000E+00  0.00000000000E+00  0.50101709721E+03  0.50101709722E+03  0.25500000920E-02 0. -1.
        2   -1    0    0  501    0  0.00000000000E+00  0.00000000000E+00 -0.31908575842E+03  0.31908575843E+03  0.25500000920E-02 0.  1.
    10030    2    1    2    0    0  0.00000000000E+00  0.00000000000E+00  0.18193133879E+03  0.82010285565E+03  0.79966848244E+03 0.  0.
        2    1    3    3  502    0 -0.19420789500E+03  0.12118239407E+03 -0.24523065428E+03  0.33546974963E+03  0.25500000920E-02 0.  1.
       -2    1    3    3    0  502  0.19420789500E+03 -0.12118239407E+03  0.42716199308E+03  0.48463310602E+03  0.25500000920E-02 0. -1.
</event>
<event>
 5   0  0.7133039E-04  0.7996132E+03  0.7818609E-02  0.9560577E-01
       -2   -1    0    0    0  501  0.00000000000E+00  0.00000000000E+00  0.69709537438E+03  0.69709537438E+03  0.25500000920E-02 0. -1.
        2   -1    0    0  501    0  0.00000000000E+00  0.00000000000E+00 -0.22930190888E+03  0.22930190889E+03  0.25500000920E-02 0.  1.
    10030    2    1    2    0    0  0.00000000000E+00  0.00000000000E+00  0.46779346550E+03  0.92639728327E+03  0.79961315652E+03 0.  0.
        2    1    3    3  502    0  0.13177867608E+03 -0.18767418053E+01  0.67120575741E+03  0.68402215638E+03  0.25500000920E-02 0. -1.
       -2    1    3    3    0  502 -0.13177867608E+03  0.18767418053E+01 -0.20341229191E+03  0.24237512689E+03  0.25500000920E-02 0.  1.
</event>
<event>
 5   0  0.4169155E-04  0.7999585E+03  0.7818609E-02  0.9560077E-01
        1   -1    0    0  501    0  0.00000000000E+00  0.00000000000E+00  0.55440851777E+03  0.55440851779E+03  0.50400001928E-02 0.  1.
       -1   -1    0    0    0  501  0.00000000000E+00  0.00000000000E+00 -0.28856588612E+03  0.28856588616E+03  0.50400001928E-02 0. -1.
    10030    2    1    2    0    0  0.00000000000E+00  0.00000000000E+00  0.26584263165E+03  0.84297440395E+03  0.79995846199E+03 0.  0.
        4    1    3    3  502    0  0.29380968555E+03 -0.25719459113E+03  0.22423291584E+03  0.45028346902E+03  0.12699999809E+01 0. -1.
       -4    1    3    3    0  502 -0.29380968555E+03  0.25719459113E+03  0.41609715814E+02  0.39269093493E+03  0.12699999809E+01 0.  1.
</event>
<event>
 5   0  0.4392552E-04  0.7997000E+03  0.7818609E-02  0.9560452E-01
        1   -1    0    0  501    0  0.00000000000E+00  0.00000000000E+00  0.40591034120E+03  0.40591034123E+03  0.50400001928E-02 0. -1.
       -1   -1    0    0    0  501  0.00000000000E+00  0.00000000000E+00 -0.39388009785E+03  0.39388009788E+03  0.50400001928E-02 0.  1.
    10030    2    1    2    0    0  0.00000000000E+00  0.00000000000E+00  0.12030243356E+02  0.79979043911E+03  0.79969995607E+03 0.  0.
        5    1    3    3  502    0  0.13168995695E+02 -0.34700033584E+03 -0.19218716796E+03  0.39691391138E+03  0.46999998093E+01 0.  1.
       -5    1    3    3    0  502 -0.13168995695E+02  0.34700033584E+03  0.20421741131E+03  0.40287652773E+03  0.46999998093E+01 0. -1.
</event>
<event>
 5   0  0.2736375E-04  0.7998769E+03  0.7818609E-02  0.9560195E-01
       -4   -1    0    0    0  501  0.00000000000E+00  0.00000000000E+00  0.37653013987E+03  0.37653228166E+03  0.12699999809E+01 0.  1.
        4   -1    0    0  501    0  0.00000000000E+00  0.00000000000E+00 -0.42479769631E+03  0.42479959474E+03  0.12699999809E+01 0. -1.
    10030    2    1    2    0    0  0.00000000000E+00  0.00000000000E+00 -0.48267556438E+02  0.80133187640E+03  0.79987687748E+03 0.  0.
        1    1    3    3  502    0  0.25341038413E+03  0.14997230295E+03  0.24699154728E+03  0.38433493062E+03  0.50400001928E-02 0.  1.
       -1    1    3    3    0  502 -0.25341038413E+03 -0.14997230295E+03 -0.29525910372E+03  0.41699694578E+03  0.50400001928E-02 0. -1.
</event>
<event>
 5   0  0.6970013E-04  0.8001381E+03  0.7818609E-02  0.9559817E-01
       -2   -1    0    0    0  501  0.00000000000E+00  0.00000000000E+00  0.12247355231E+03  0.12247355234E+03  0.25500000920E-02 0. -1.
        2   -1    0    0  501    0  0.00000000000E+00  0.00000000000E+00 -0.13068556386E+04  0.13068556386E+04  0.25500000920E-02 0.  1.
    10030    2    1    2    0    0  0.00000000000E+00  0.00000000000E+00 -0.11843820863E+04  0.14293291910E+04  0.80013811918E+03 0.  0.
        3    1    3    3  502    0 -0.29727391045E+03 -0.12719733980E+03 -0.17133785475E+03  0.36593388987E+03  0.10100000352E+00 0. -1.
       -3    1    3    3    0  502  0.29727391045E+03  0.12719733980E+03 -0.10130442316E+04  0.10633953011E+04  0.10100000352E+00 0.  1.
</event>
<event>
 5   0  0.2736375E-04  0.7995053E+03  0.7818609E-02  0.9560733E-01
       -4   -1    0    0    0  501  0.00000000000E+00  0.00000000000E+00  0.37783326058E+03  0.37783539498E+03  0.12699999809E+01 0. -1.
        4   -1    0    0  501    0  0.00000000000E+00  0.00000000000E+00 -0.42293939020E+03  0.42294129697E+03  0.12699999809E+01 0.  1.
    10030    2    1    2    0    0  0.00000000000E+00  0.00000000000E+00 -0.45106129620E+02  0.80077669195E+03  0.79950531421E+03 0.  0.
        3    1    3    3  502    0  0.33348512476E+03 -0.21883205660E+03  0.39915176707E+01  0.39889314339E+03  0.10100000352E+00 0.  1.
       -3    1    3    3    0  502 -0.33348512476E+03  0.21883205660E+03 -0.49097647291E+02  0.40188354856E+03  0.10100000352E+00 0. -1.
</event>
<event>
 5   0  0.4087283E-04  0.7998523E+03  0.7818609E-02  0.9560231E-01
       -1   -1    0    0    0  501  0.00000000000E+00  0.00000000000E+00  0.74106945368E+03  0.74106945370E+03  0.50400001928E-02 0.  1.
        1   -1    0    0  501    0  0.00000000000E+00  0.00000000000E+00 -0.21582447194E+03  0.21582447200E+03  0.50400001928E-02 0. -1.
    10030    2    1    2    0    0  0.00000000000E+00  0.00000000000E+00  0.52524498174E+03  0.95689392569E+03  0.79985229523E+03 0.  0.
        1    1    3    3  502    0 -0.25482534798E+03  0.16734579237E+03  0.57228779069E+03  0.64842415716E+03  0.50400001928E-02 0.  1.
       -1    1    3    3    0  502  0.25482534798E+03 -0.16734579237E+03 -0.47042808946E+02  0.30846976853E+03  0.50400001928E-02 0. -1.
</event>
<event>
 5   0  0.6593118E-04  0.7998499E+03  0.7818609E-02  0.9560234E-01
        2   -1    0    0  501    0  0.00000000000E+00  0.00000000000E+00  0.19685008097E+04  0.19685008097E+04  0.25500000920E-02 0.  1.
       -2   -1    0    0    0  501  0.00000000000E+00  0.00000000000E+00 -0.81249632382E+02  0.81249632422E+02  0.25500000920E-02 0. -1.
    10030    2    1    2    0    0  0.00000000000E+00  0.00000000000E+00  0.18872511774E+04  0.20497504422E+04  0.79984990386E+03 0.  0.
        1    1    3    3  502    0  0.35311703266E+03  0.18452192208E+03  0.10323986231E+04  0.11066105437E+04  0.50400001928E-02 0. -1.
       -1    1    3    3    0  502 -0.35311703266E+03 -0.18452192208E+03  0.85485255426E+03  0.94313989844E+03  0.50400001928E-02 0.  1.
</event>
<event>
 5   0  0.4392552E-04  0.7998911E+03  0.7818609E-02  0.9560175E-01
       -1   -1    0    0    0  501  0.00000000000E+00  0.00000000000E+00  0.17132422467E+03  0.17132422474E+03  0.50400001928E-02 0. -1.
        1   -1    0    0  501    0  0.00000000000E+00  0.00000000000E+00 -0.93364758743E+03  0.93364758745E+03  0.50400001928E-02 0.  1.
    10030    2    1    2    0    0  0.00000000000E+00  0.00000000000E+00 -0.76232336277E+03  0.11049718122E+04  0.79989111528E+03 0.  0.
        5    1    3    3  502    0  0.18312268244E+02 -0.91890075778E+02 -0.91823295172E+03  0.92301298410E+03  0.46999998093E+01 0.  1.
       -5    1    3    3    0  502 -0.18312268244E+02  0.91890075778E+02  0.15590958895E+03  0.18195882809E+03  0.46999998093E+01 0. -1.
</event>
<event>
 5   0  0.4392552E-04  0.8021924E+03  0.7818609E-02  0.9556849E-01
       -1   -1    0    0    0  501  0.00000000000E+00  0.00000000000E+00  0.34724889303E+03  0.34724889307E+03  0.50400001928E-02 0. -1.
        1   -1    0    0  501    0  0.00000000000E+00  0.00000000000E+00 -0.46329356435E+03  0.46329356437E+03  0.50400001928E-02 0.  1.
    10030    2    1    2    0    0  0.00000000000E+00  0.00000000000E+00 -0.11604467131E+03  0.81054245744E+03  0.80219243924E+03 0.  0.
        5    1    3    3  502    0  0.17094542400E+03 -0.98142260916E+02  0.29490102450E+03  0.35474349270E+03  0.46999998093E+01 0. -1.
       -5    1    3    3    0  502 -0.17094542400E+03  0.98142260916E+02 -0.41094569581E+03  0.45579896475E+03  0.46999998093E+01 0.  1.
</event>
<event>
 5   0  0.7133039E-04  0.8002820E+03  0.7818609E-02  0.9559609E-01
       -2   -1    0    0    0  501  0.00000000000E+00  0.00000000000E+00  0.13311362806E+03  0.13311362809E+03  0.25500000920E-02 0.  1.
        2   -1    0    0  501    0  0.00000000000E+00  0.00000000000E+00 -0.12028281964E+04  0.12028281964E+04  0.25500000920E-02 0. -1.
    10030    2    1    2    0    0  0.00000000000E+00  0.00000000000E+00 -0.10697145683E+04  0.13359418244E+04  0.80028201322E+03 0.  0.
        2    1    3    3  502    0 -0.31744229094E+03 -0.21249895665E+03 -0.73369376045E+03  0.82718314102E+03  0.25500000920E-02 0. -1.
       -2    1    3    3    0  502  0.31744229094E+03  0.21249895665E+03 -0.33602080784E+03  0.50875868343E+03  0.25500000920E-02 0.  1.
</event>
<event>
 5   0  0.7133039E-04  0.7999829E+03  0.7818609E-02  0.9560042E-01
       -2   -1    0    0    0  501  0.00000000000E+00  0.00000000000E+00  0.18867023761E+03  0.18867023762E+03  0.25500000920E-02 0. -1.
        2   -1    0    0  501    0  0.00000000000E+00  0.00000000000E+00 -0.84800419463E+03  0.84800419464E+03  0.25500000920E-02 0.  1.
    10030    2    1    2    0    0  0.00000000000E+00  0.00000000000E+00 -0.65933395703E+03  0.10366744323E+04  0.79998288208E+03 0.  0.
        2    1    3    3  502    0 -0.14092905761E+03 -0.27986472686E+03 -0.74980547232E+01  0.31343497803E+03  0.25500000920E-02 0. -1.
       -2    1    3    3    0  502  0.14092905761E+03  0.27986472686E+03 -0.65183590230E+03  0.72323945423E+03  0.25500000920E-02 0.  1.
</event>
<event>
 5   0  0.4087283E-04  0.7996289E+03  0.7818609E-02  0.9560554E-01
       -1   -1    0    0    0  501  0.00000000000E+00  0.00000000000E+00  0.25419306383E+03  0.25419306388E+03  0.50400001928E-02 0. -1.
        1   -1    0    0  501    0  0.00000000000E+00  0.00000000000E+00 -0.62885905096E+03  0.62885905098E+03  0.50400001928E-02 0.  1.
    10030    2    1    2    0    0  0.00000000000E+00  0.00000000000E+00 -0.37466598713E+03  0.88305211486E+03  0.79962893622E+03 0.  0.
        1    1    3    3  502    0  0.15468996686E+02 -0.32984102825E+03  0.61611923877E+02  0.33590240095E+03  0.50400001928E-02 0. -1.
       -1    1    3    3    0  502 -0.15468996686E+02  0.32984102825E+03 -0.43627791100E+03  0.54714971391E+03  0.50400001928E-02 0.  1.
</event>
<event>
 5   0  0.6672462E-04  0.7999506E+03  0.7818609E-02  0.9560089E-01
       -2   -1    0    0    0  501  0.00000000000E+00  0.00000000000E+00  0.11238659290E+03  0.11238659293E+03  0.25500000920E-02 0. -1.
        2   -1    0    0  501    0  0.00000000000E+00  0.00000000000E+00 -0.14234814897E+04  0.14234814897E+04  0.25500000920E-02 0.  1.
    10030    2    1    2    0    0  0.00000000000E+00  0.00000000000E+00 -0.13110948968E+04  0.15358680827E+04  0.79995058527E+03 0.  0.
        5    1    3    3  502    0  0.19049216669E+03  0.11636324248E+02 -0.13303653573E+04  0.13439928361E+04  0.46999998093E+01 0.  1.
       -5    1    3    3    0  502 -0.19049216669E+03 -0.11636324248E+02  0.19270460431E+02  0.19187524660E+03  0.46999998093E+01 0. -1.
</event>
<event>
 5   0  0.4169155E-04  0.7991060E+03  0.7818609E-02  0.9561312E-01
       -1   -1    0    0    0  501  0.00000000000E+00  0.00000000000E+00  0.64715632842E+03  0.64715632844E+03  0.50400001928E-02 0.  1.
        1   -1    0    0  501    0  0.00000000000E+00  0.00000000000E+00 -0.24668319562E+03  0.24668319567E+03  0.50400001928E-02 0. -1.
    10030    2    1    2    0    0  0.00000000000E+00  0.00000000000E+00  0.40047313279E+03  0.89383952411E+03  0.79910597843E+03 0.  0.
        4    1    3    3  502    0  0.28639288021E+02 -0.30798979436E+03 -0.82654854760E+02  0.32017395297E+03  0.12699999809E+01 0. -1.
       -4    1    3    3    0  502 -0.28639288021E+02  0.30798979436E+03  0.48312798756E+03  0.57366557114E+03  0.12699999809E+01 0.  1.
</event>
<event>
 5   0  0.7133039E-04  0.7992783E+03  0.7818609E-02  0.9561062E-01
        2   -1    0    0  501    0  0.00000000000E+00  0.00000000000E+00  0.72873576561E+03  0.72873576562E+03  0.25500000920E-02 0. -1.
       -2   -1    0    0    0  501  0.00000000000E+00  0.00000000000E+00 -0.21916237445E+03  0.21916237447E+03  0.25500000920E-02 0.  1.
    10030    2    1    2    0    0  0.00000000000E+00  0.00000000000E+00  0.50957339116E+03  0.94789814009E+03  0.79927832637E+03 0.  0.
        2    1    3    3  502    0  0.13801392275E+03  0.18703787232E+03  0.64031917025E+03  0.68120455690E+03  0.25500000920E-02 0. -1.
       -2    1    3    3    0  502 -0.13801392275E+03 -0.18703787232E+03 -0.13074577908E+03  0.26669358318E+03  0.25500000920E-02 0.  1.
</event>
<event>
 5   0  0.4086111E-04  0.8010639E+03  0.7818609E-02  0.9558478E-01
        1   -1    0    0  501    0  0.00000000000E+00  0.00000000000E+00  0.12702029329E+03  0.12702029339E+03  0.50400001928E-02 0.  1.
       -1   -1    0    0    0  501  0.00000000000E+00  0.00000000000E+00 -0.12629938270E+04  0.12629938270E+04  0.50400001928E-02 0. -1.
    10030    2    1    2    0    0  0.00000000000E+00  0.00000000000E+00 -0.11359735337E+04  0.13900141204E+04  0.80106390858E+03 0.  0.
        3    1    3    3  502    0 -0.28009239468E+03  0.19250026650E+03 -0.20022975122E+03  0.39446174166E+03  0.10100000352E+00 0.  1.
       -3    1    3    3    0  502  0.28009239468E+03 -0.19250026650E+03 -0.93574378249E+03  0.99555237875E+03  0.10100000352E+00 0. -1.
</event>
<event>
 5   0  0.4392552E-04  0.7975712E+03  0.7818609E-02  0.9563539E-01
        1   -1    0    0  501    0  0.00000000000E+00  0.00000000000E+00  0.25475489355E+03  0.25475489360E+03  0.50400001928E-02 0. -1.
       -1   -1    0    0    0  501  0.00000000000E+00  0.00000000000E+00 -0.62424685958E+03  0.62424685960E+03  0.50400001928E-02 0.  1.
    10030    2    1    2    0    0  0.00000000000E+00  0.00000000000E+00 -0.36949196604E+03  0.87900175320E+03  0.79757116871E+03 0.  0.
        5    1    3    3  502    0 -0.22531871267E+03 -0.42366569321E+02  0.17482257786E+03  0.28835476796E+03  0.46999998093E+01 0. -1.
       -5    1    3    3    0  502  0.22531871267E+03  0.42366569321E+02 -0.54431454390E+03  0.59064698524E+03  0.46999998093E+01 0.  1.
</event>
<event>
 5   0  0.2736375E-04  0.8000066E+03  0.7818609E-02  0.9560008E-01
       -4   -1    0    0    0  501  0.00000000000E+00  0.00000000000E+00  0.25282406190E+03  0.25282725165E+03  0.12699999809E+01 0. -1.
        4   -1    0    0  501    0  0.00000000000E+00  0.00000000000E+00 -0.63285370464E+03  0.63285497895E+03  0.12699999809E+01 0.  1.
    10030    2    1    2    0    0  0.00000000000E+00  0.00000000000E+00 -0.38002964274E+03  0.88568223059E+03  0.80000655262E+03 0.  0.
        3    1    3    3  502    0  0.23018871271E+03  0.20849707971E+03  0.89062261217E+02  0.32309437055E+03  0.10100000352E+00 0. -1.
       -3    1    3    3    0  502 -0.23018871271E+03 -0.20849707971E+03 -0.46909190396E+03  0.56258786004E+03  0.10100000352E+00 0.  1.
</event>
<event>
 5   0  0.4392552E-04  0.8000537E+03  0.7818609E-02  0.9559939E-01
       -1   -1    0    0    0  501  0.00000000000E+00  0.00000000000E+00  0.67415344000E+03  0.67415344002E+03  0.50400001928E-02 0. -1.
        1   -1    0    0  501    0  0.00000000000E+00  0.00000000000E+00 -0.23736654900E+03  0.23736654905E+03  0.50400001928E-02 0.  1.
    10030    2    1    2    0    0  0.00000000000E+00  0.00000000000E+00  0.43678689101E+03  0.91151998908E+03  0.80005368715E+03 0.  0.
        5    1    3    3  502    0 -0.11325726063E+03 -0.90715424450E+02 -0.20628990030E+03  0.25225801927E+03  0.46999998093E+01 0.  1.
       -5    1    3    3    0  502  0.11325726063E+03  0.90715424450E+02  0.64307679131E+03  0.65926196981E+03  0.46999998093E+01 0. -1.
</event>
<event>
 5   0  0.7133039E-04  0.8001240E+03  0.7818609E-02  0.9559838E-01
        2   -1    0    0  501    0  0.00000000000E+00  0.00000000000E+00  0.12919799606E+04  0.12919799606E+04  0.25500000920E-02 0. -1.
       -2   -1    0    0    0  501  0.00000000000E+00  0.00000000000E+00 -0.12387933336E+03  0.12387933339E+03  0.25500000920E-02 0.  1.
    10030    2    1    2    0    0  0.00000000000E+00  0.00000000000E+00  0.11681006272E+04  0.14158592940E+04  0.80012403103E+03 0.  0.
        2    1    3    3  502    0 -0.20852189724E+03 -0.15595956592E+03  0.46605541826E+02  0.26453136745E+03  0.25500000920E-02 0.  1.
       -2    1    3    3    0  502  0.20852189724E+03  0.15595956592E+03  0.11214950854E+04  0.11513279265E+04  0.25500000920E-02 0. -1.
</event>
<event>
 5   0  0.7133039E-04  0.8000744E+03  0.7818609E-02  0.9559909E-01
        2   -1    0    0  501    0  0.00000000000E+00  0.00000000000E+00  0.23195226266E+04  0.23195226266E+04  0.25500000920E-02 0. -1.
       -2   -1    0    0    0  501  0.00000000000E+00  0.00000000000E+00 -0.68992546371E+02  0.68992546418E+02  0.25500000920E-02 0.  1.
    10030    2    1    2    0    0  0.00000000000E+00  0.00000000000E+00  0.22505300802E+04  0.23885151730E+04  0.80007442761E+03 0.  0.
        2    1    3    3  502    0  0.31434200969E+03  0.24630677446E+03  0.11953954943E+04  0.12603365875E+04  0.25500000920E-02 0.  1.
       -2    1    3    3    0  502 -0.31434200969E+03 -0.24630677446E+03  0.10551345859E+04  0.11281785854E+04  0.25500000920E-02 0. -1.
</event>
<event>
 5   0  0.4104786E-04  0.7998959E+03  0.7818609E-02  0.9560168E-01
       -1   -1    0    0    0  501  0.00000000000E+00  0.00000000000E+00  0.73866847728E+03  0.73866847730E+03  0.50400001928E-02 0.  1.
        1   -1    0    0  501    0  0.00000000000E+00  0.00000000000E+00 -0.21654958957E+03  0.21654958963E+03  0.50400001928E-02 0. -1.
    10030    2    1    2    0    0  0.00000000000E+00  0.00000000000E+00  0.52211888771E+03  0.95521806693E+03  0.79989588228E+03 0.  0.
        2    1    3    3  502    0 -0.19277038770E+03 -0.28373561019E+03  0.15476405916E+02  0.34337419532E+03  0.25500000920E-02 0. -1.
       -2    1    3    3    0  502  0.19277038770E+03  0.28373561019E+03  0.50664248179E+03  0.61184387161E+03  0.25500000920E-02 0.  1.
</event>
<event>
 5   0  0.6801147E-04  0.7998250E+03  0.7818609E-02  0.9560270E-01
        2   -1    0    0  501    0  0.00000000000E+00  0.00000000000E+00  0.69768017512E+03  0.69768017512E+03  0.25500000920E-02 0.  1.
       -2   -1    0    0    0  501  0.00000000000E+00  0.00000000000E+00 -0.22923112153E+03  0.22923112155E+03  0.25500000920E-02 0. -1.
    10030    2    1    2    0    0  0.00000000000E+00  0.00000000000E+00  0.46844905359E+03  0.92691129667E+03  0.79982500341E+03 0.  0.
        4    1    3    3  502    0  0.23909567343E+03  0.23098287826E+03 -0.23374559937E+02  0.33326838142E+03  0.12699999809E+01 0. -1.
       -4    1    3    3    0  502 -0.23909567343E+03 -0.23098287826E+03  0.49182361352E+03  0.59364291525E+03  0.12699999809E+01 0.  1.
</event>
<event>
 5   0  0.4392552E-04  0.8002197E+03  0.7818609E-02  0.9559699E-01
       -1   -1    0    0    0  501  0.00000000000E+00  0.00000000000E+00  0.11975286156E+03  0.11975286166E+03  0.50400001928E-02 0. -1.
        1   -1    0    0  501    0  0.00000000000E+00  0.00000000000E+00 -0.13368189481E+04  0.13368189481E+04  0.50400001928E-02 0.  1.
    10030    2    1    2    0    0  0.00000000000E+00  0.00000000000E+00 -0.12170660865E+04  0.14565718097E+04  0.80021970608E+03 0.  0.
        5    1    3    3  502    0  0.17391539862E+03 -0.16126547506E+03 -0.22060248874E+02  0.23824748457E+03  0.46999998093E+01 0. -1.
       -5    1    3    3    0  502 -0.17391539862E+03  0.16126547506E+03 -0.11950058376E+04  0.12183243252E+04  0.46999998093E+01 0.  1.
</event>
<event>
 5   0  0.4392552E-04  0.7985956E+03  0.7818609E-02  0.9562052E-01
        1   -1    0    0  501    0  0.00000000000E+00  0.00000000000E+00  0.28689733444E+03  0.28689733449E+03  0.50400001928E-02 0.  1.
       -1   -1    0    0    0  501  0.00000000000E+00  0.00000000000E+00 -0.55573447034E+03  0.55573447036E+03  0.50400001928E-02 0. -1.
    10030    2    1    2    0    0  0.00000000000E+00  0.00000000000E+00 -0.26883713589E+03  0.84263180485E+03  0.79859561288E+03 0.  0.
        5    1    3    3  502    0 -0.32221289782E+03 -0.21908171925E+03 -0.42441303044E+02  0.39197105178E+03  0.46999998093E+01 0.  1.
       -5    1    3    3    0  502  0.32221289782E+03  0.21908171925E+03 -0.22639583285E+03  0.45066075307E+03  0.46999998093E+01 0. -1.
</event>
<event>
 5   0  0.4086111E-04  0.8010832E+03  0.7818609E-02  0.9558451E-01
        1   -1    0    0  501    0  0.00000000000E+00  0.00000000000E+00  0.67691771437E+03  0.67691771439E+03  0.50400001928E-02 0.  1.
       -1   -1    0    0    0  501  0.00000000000E+00  0.00000000000E+00 -0.23700601527E+03  0.23700601532E+03  0.50400001928E-02 0. -1.
    10030    2    1    2    0    0  0.00000000000E+00  0.00000000000E+00  0.43991169910E+03  0.91392372971E+03  0.80108319213E+03 0.  0.
        3    1    3    3  502    0 -0.14254553786E+03 -0.21769822477E+03  0.56735063118E+03  0.62417825685E+03  0.10100000352E+00 0.  1.
       -3    1    3    3    0  502  0.14254553786E+03  0.21769822477E+03 -0.12743893207E+03  0.28974547285E+03  0.10100000352E+00 0. -1.
</event>
<event>
 5   0  0.7133039E-04  0.7993662E+03  0.7818609E-02  0.9560935E-01
        2   -1    0    0  501    0  0.00000000000E+00  0.00000000000E+00  0.81893053825E+03  0.81893053825E+03  0.25500000920E-02 0. -1.
       -2   -1    0    0    0  501  0.00000000000E+00  0.00000000000E+00 -0.19506732671E+03  0.19506732672E+03  0.25500000920E-02 0.  1.
    10030    2    1    2    0    0  0.00000000000E+00  0.00000000000E+00  0.62386321154E+03  0.10139978650E+04  0.79936622612E+03 0.  0.
        2    1    3    3  502    0  0.21201918052E+03  0.27240342395E+03  0.56749887072E+03  0.66423695062E+03  0.25500000920E-02 0. -1.
       -2    1    3    3    0  502 -0.21201918052E+03 -0.27240342395E+03  0.56364340824E+02  0.34976091436E+03  0.25500000920E-02 0.  1.
</event>
<event>
 5   0  0.4169155E-04  0.8001786E+03  0.7818609E-02  0.9559759E-01
        1   -1    0    0  501    0  0.00000000000E+00  0.00000000000E+00  0.12762261592E+03  0.12762261602E+03  0.50400001928E-02 0. -1.
       -1   -1    0    0    0  501  0.00000000000E+00  0.00000000000E+00 -0.12542562094E+04  0.12542562094E+04  0.50400001928E-02 0.  1.
    10030    2    1    2    0    0  0.00000000000E+00  0.00000000000E+00 -0.11266335935E+04  0.13818788254E+04  0.80017862644E+03 0.  0.
        4    1    3    3  502    0  0.19706141778E+03 -0.22546252686E+03 -0.10509103734E+03  0.31735200082E+03  0.12699999809E+01 0. -1.
       -4    1    3    3    0  502 -0.19706141778E+03  0.22546252686E+03 -0.10215425562E+04  0.10645268246E+04  0.12699999809E+01 0.  1.
</event>
<event>
 5   0  0.7133039E-04  0.8000208E+03  0.7818609E-02  0.9559987E-01
       -2   -1    0    0    0  501  0.00000000000E+00  0.00000000000E+00  0.76913628162E+02  0.76913628204E+02  0.25500000920E-02 0.  1.
        2   -1    0    0  501    0  0.00000000000E+00  0.00000000000E+00 -0.20803635798E+04  0.20803635798E+04  0.25500000920E-02 0. -1.
    10030    2    1    2    0    0  0.00000000000E+00  0.00000000000E+00 -0.20034499516E+04  0.21572772080E+04  0.80002077689E+03 0.  0.
        2    1    3    3  502    0  0.32704841286E+03  0.14643762516E+03 -0.14810978304E+04  0.15238291983E+04  0.25500000920E-02 0. -1.
       -2    1    3    3    0  502 -0.32704841286E+03 -0.14643762516E+03 -0.52235212125E+03  0.63344800970E+03  0.25500000920E-02 0.  1.
</event>
<event>
 5   0  0.7133039E-04  0.7999399E+03  0.7818609E-02  0.9560104E-01
        2   -1    0    0  501    0  0.00000000000E+00  0.00000000000E+00  0.14867084083E+04  0.14867084083E+04  0.25500000920E-02 0. -1.
       -2   -1    0    0    0  501  0.00000000000E+00  0.00000000000E+00 -0.10760414050E+03  0.10760414053E+03  0.25500000920E-02 0.  1.
    10030    2    1    2    0    0  0.00000000000E+00  0.00000000000E+00  0.13791042678E+04  0.15943125489E+04  0.79993994895E+03 0.  0.
        2    1    3    3  502    0 -0.17391650219E+03  0.34918303737E+03  0.51352890555E+03  0.64489354173E+03  0.25500000920E-02 0. -1.
       -2    1    3    3    0  502  0.17391650219E+03 -0.34918303737E+03  0.86557536229E+03  0.94941900715E+03  0.25500000920E-02 0.  1.
</event>
<event>
 5   0  0.4086111E-04  0.7994609E+03  0.7818609E-02  0.9560798E-01
        1   -1    0    0  501    0  0.00000000000E+00  0.00000000000E+00  0.56667694657E+03  0.56667694660E+03  0.50400001928E-02 0.  1.
       -1   -1    0    0    0  501  0.00000000000E+00  0.00000000000E+00 -0.28196739760E+03  0.28196739764E+03  0.50400001928E-02 0. -1.
    10030    2    1    2    0    0  0.00000000000E+00  0.00000000000E+00  0.28470954897E+03  0.84864434424E+03  0.79946087818E+03 0.  0.
        3    1    3    3  502    0 -0.83254566571E+02 -0.27734018913E+03  0.43487167503E+03  0.52245792874E+03  0.10100000352E+00 0.  1.
       -3    1    3    3    0  502  0.83254566571E+02  0.27734018913E+03 -0.15016212605E+03  0.32618641550E+03  0.10100000352E+00 0. -1.
</event>
<event>
 5   0  0.4087283E-04  0.8002963E+03  0.7818609E-02  0.9559588E-01
        1   -1    0    0  501    0  0.00000000000E+00  0.00000000000E+00  0.52135747066E+03  0.52135747068E+03  0.50400001928E-02 0. -1.
       -1   -1    0    0    0  501  0.00000000000E+00  0.00000000000E+00 -0.30711853209E+03  0.30711853213E+03  0.50400001928E-02 0.  1.
    10030    2    1    2    0    0  0.00000000000E+00  0.00000000000E+00  0.21423893857E+03  0.82847600281E+03  0.80029629790E+03 0.  0.
        1    1    3    3  502    0 -0.36389640638E+03 -0.29510334132E+02  0.27667653094E+03  0.45808444330E+03  0.50400001928E-02 0. -1.
       -1    1    3    3    0  502  0.36389640638E+03  0.29510334132E+02 -0.62437592371E+02  0.37039155952E+03  0.50400001928E-02 0.  1.
</event>
<event>
 5   0  0.4086111E-04  0.7999454E+03  0.7818609E-02  0.9560096E-01
       -1   -1    0    0    0  501  0.00000000000E+00  0.00000000000E+00  0.67254361743E+03  0.67254361745E+03  0.50400001928E-02 0. -1.
        1   -1    0    0  501    0  0.00000000000E+00  0.00000000000E+00 -0.23787032672E+03  0.23787032677E+03  0.50400001928E-02 0.  1.
    10030    2    1    2    0    0  0.00000000000E+00  0.00000000000E+00  0.43467329071E+03  0.91041394422E+03  0.79994542324E+03 0.  0.
        3    1    3    3  502    0  0.22768667184E+03  0.12943538523E+03  0.56137926626E+03  0.61946866771E+03  0.10100000352E+00 0. -1.
       -3    1    3    3    0  502 -0.22768667184E+03 -0.12943538523E+03 -0.12670597555E+03  0.29094527651E+03  0.10100000352E+00 0.  1.
</event>
<event>
 5   0  0.4392552E-04  0.7999303E+03  0.7818609E-02  0.9560118E-01
        1   -1    0    0  501    0  0.00000000000E+00  0.00000000000E+00  0.36993343423E+03  0.36993343426E+03  0.50400001928E-02 0. -1.
       -1   -1    0    0    0  501  0.00000000000E+00  0.00000000000E+00 -0.43243486507E+03  0.43243486510E+03  0.50400001928E-02 0.  1.
    10030    2    1    2    0    0  0.00000000000E+00  0.00000000000E+00 -0.62501430845E+02  0.80236829936E+03  0.79993028381E+03 0.  0.
        5    1    3    3  502    0 -0.36844484812E+03  0.10141174142E+03 -0.14956817322E+03  0.41040062846E+03  0.46999998093E+01 0.  1.
       -5    1    3    3    0  502  0.36844484812E+03 -0.10141174142E+03  0.87066742375E+02  0.39196767090E+03  0.46999998093E+01 0. -1.
</event>
<event>
 5   0  0.4169155E-04  0.7997842E+03  0.7818609E-02  0.9560330E-01
       -1   -1    0    0    0  501  0.00000000000E+00  0.00000000000E+00  0.13283574693E+03  0.13283574703E+03  0.50400001928E-02 0.  1.
        1   -1    0    0  501    0  0.00000000000E+00  0.00000000000E+00 -0.12038452413E+04  0.12038452413E+04  0.50400001928E-02 0. -1.
    10030    2    1    2    0    0  0.00000000000E+00  0.00000000000E+00 -0.10710094943E+04  0.13366809883E+04  0.79978417560E+03 0.  0.
        4    1    3    3  502    0  0.97223471752E+02  0.13101891857E+03 -0.11456873058E+04  0.11572464629E+04  0.12699999809E+01 0. -1.
       -4    1    3    3    0  502 -0.97223471752E+02 -0.13101891857E+03  0.74677811416E+02  0.17943452538E+03  0.12699999809E+01 0.  1.
</event>
<event>
 5   0  0.4169155E-04  0.8004896E+03  0.7818609E-02  0.9559309E-01
        1   -1    0    0  501    0  0.00000000000E+00  0.00000000000E+00  0.26166904893E+03  0.26166904898E+03  0.50400001928E-02 0. -1.
       -1   -1    0    0    0  501  0.00000000000E+00  0.00000000000E+00 -0.61220799362E+03  0.61220799364E+03  0.50400001928E-02 0.  1.
    10030    2    1    2    0    0  0.00000000000E+00  0.00000000000E+00 -0.35053894469E+03  0.87387704262E+03  0.80048955889E+03 0.  0.
        4    1    3    3  502    0  0.26688207922E+03 -0.49597264120E+02 -0.49635715239E+03  0.56573665998E+03  0.12699999809E+01 0.  1.
       -4    1    3    3    0  502 -0.26688207922E+03  0.49597264120E+02  0.14581820771E+03  0.30814038264E+03  0.12699999809E+01 0. -1.
</event>
<event>
 5   0  0.6593118E-04  0.7997464E+03  0.7818609E-02  0.9560384E-01
       -2   -1    0    0    0  501  0.00000000000E+00  0.00000000000E+00  0.28983368961E+03  0.28983368963E+03  0.25500000920E-02 0. -1.
        2   -1    0    0  501    0  0.00000000000E+00  0.00000000000E+00 -0.55169083072E+03  0.55169083073E+03  0.25500000920E-02 0.  1.
    10030    2    1    2    0    0  0.00000000000E+00  0.00000000000E+00 -0.26185714111E+03  0.84152452035E+03  0.79974643232E+03 0.  0.
        1    1    3    3  502    0  0.18576257731E+03  0.34326552499E+03 -0.22241671630E+03  0.44923062172E+03  0.50400001928E-02 0.  1.
       -1    1    3    3    0  502 -0.18576257731E+03 -0.34326552499E+03 -0.39440424809E+02  0.39229389864E+03  0.50400001928E-02 0. -1.
</event>
<event>
 5   0  0.6970013E-04  0.7997426E+03  0.7818609E-02  0.9560390E-01
        2   -1    0    0  501    0  0.00000000000E+00  0.00000000000E+00  0.33056298567E+03  0.33056298568E+03  0.25500000920E-02 0. -1.
       -2   -1    0    0    0  501  0.00000000000E+00  0.00000000000E+00 -0.48371131982E+03  0.48371131983E+03  0.25500000920E-02 0.  1.
    10030    2    1    2    0    0  0.00000000000E+00  0.00000000000E+00 -0.15314833415E+03  0.81427430550E+03  0.79974260381E+03 0.  0.
        3    1    3    3  502    0 -0.34163360925E+03 -0.20626397208E+03 -0.10230586987E+03  0.41197675949E+03  0.10100000352E+00 0. -1.
       -3    1    3    3    0  502  0.34163360925E+03  0.20626397208E+03 -0.50842464277E+02  0.40229754601E+03  0.10100000352E+00 0.  1.
</event>
<event>
 5   0  0.4392552E-04  0.7996503E+03  0.7818609E-02  0.9560523E-01
        1   -1    0    0  501    0  0.00000000000E+00  0.00000000000E+00  0.12332028396E+04  0.12332028396E+04  0.50400001928E-02 0.  1.
       -1   -1    0    0    0  501  0.00000000000E+00  0.00000000000E+00 -0.12963005418E+03  0.12963005428E+03  0.50400001928E-02 0. -1.
    10030    2    1    2    0    0  0.00000000000E+00  0.00000000000E+00  0.11035727854E+04  0.13628328939E+04  0.79965030105E+03 0.  0.
        5    1    3    3  502    0  0.16328928175E+03 -0.31395334059E+03  0.23473433673E+03  0.42467915941E+03  0.46999998093E+01 0. -1.
       -5    1    3    3    0  502 -0.16328928175E+03  0.31395334059E+03  0.86883844870E+03  0.93815373449E+03  0.46999998093E+01 0.  1.
</event>
<event>
 5   0  0.7133039E-04  0.8002249E+03  0.7818609E-02  0.9559692E-01
       -2   -1    0    0    0  501  0.00000000000E+00  0.00000000000E+00  0.17878485326E+03  0.17878485328E+03  0.25500000920E-02 0. -1.
        2   -1    0    0  501    0  0.00000000000E+00  0.00000000000E+00 -0.89543369509E+03  0.89543369509E+03  0.25500000920E-02 0.  1.
    10030    2    1    2    0    0  0.00000000000E+00  0.00000000000E+00 -0.71664884183E+03  0.10742185484E+04  0.80022492286E+03 0.  0.
        2    1    3    3  502    0 -0.32595752654E+03 -0.11665883174E+03 -0.62758234187E+03  0.71674066996E+03  0.25500000920E-02 0.  1.
       -2    1    3    3    0  502  0.32595752654E+03  0.11665883174E+03 -0.89066499952E+02  0.35747787841E+03  0.25500000920E-02 0. -1.
</event>
<event>
 5   0  0.6801147E-04  0.7999788E+03  0.7818609E-02  0.9560048E-01
       -2   -1    0    0    0  501  0.00000000000E+00  0.00000000000E+00  0.26478067447E+03  0.26478067448E+03  0.25500000920E-02 0.  1.
        2   -1    0    0  501    0  0.00000000000E+00  0.00000000000E+00 -0.60424163440E+03  0.60424163440E+03  0.25500000920E-02 0. -1.
    10030    2    1    2    0    0  0.00000000000E+00  0.00000000000E+00 -0.33946095993E+03  0.86902230888E+03  0.79997876848E+03 0.  0.
        4    1    3    3  502    0  0.31672054640E+03 -0.30394058541E+02 -0.43304323131E+03  0.53736743145E+03  0.12699999809E+01 0. -1.
       -4    1    3    3    0  502 -0.31672054640E+03  0.30394058541E+02  0.93582271377E+02  0.33165487743E+03  0.12699999809E+01 0.  1.
</event>
<event>
 5   0  0.4169155E-04  0.8000205E+03  0.7818609E-02  0.9559987E-01
       -1   -1    0    0    0  501  0.00000000000E+00  0.00000000000E+00  0.31350415080E+03  0.31350415084E+03  0.50400001928E-02 0.  1.
        1   -1    0    0  501    0  0.00000000000E+00  0.00000000000E+00 -0.51038624481E+03  0.51038624484E+03  0.50400001928E-02 0. -1.
    10030    2    1    2    0    0  0.00000000000E+00  0.00000000000E+00 -0.19688209402E+03  0.82389039567E+03  0.80002051545E+03 0.  0.
        4    1    3    3  502    0  0.31156504275E+03 -0.18459538259E+03 -0.27338710314E+03  0.45375142116E+03  0.12699999809E+01 0. -1.
       -4    1    3    3    0  502 -0.31156504275E+03  0.18459538259E+03  0.76505009126E+02  0.37013897452E+03  0.12699999809E+01 0.  1.
</event>
<event>
 5   0  0.6672462E-04  0.7999487E+03  0.7818609E-02  0.9560091E-01
        2   -1    0    0  501    0  0.00000000000E+00  0.00000000000E+00  0.10333526141E+04  0.10333526141E+04  0.25500000920E-02 0. -1.
       -2   -1    0    0    0  501  0.00000000000E+00  0.00000000000E+00 -0.15481595355E+03  0.15481595357E+03  0.25500000920E-02 0.  1.
    10030    2    1    2    0    0  0.00000000000E+00  0.00000000000E+00  0.87853666053E+03  0.11881685676E+04  0.79994867413E+03 0.  0.
        5    1    3    3  502    0 -0.31980075373E+03 -0.21171944807E+03  0.27083349307E+03  0.46954288169E+03  0.46999998093E+01 0. -1.
       -5    1    3    3    0  502  0.31980075373E+03  0.21171944807E+03  0.60770316746E+03  0.71862568596E+03  0.46999998093E+01 0.  1.
</event>
<event>
 5   0  0.6593118E-04  0.7998066E+03  0.7818609E-02  0.9560297E-01
       -2   -1    0    0    0  501  0.00000000000E+00  0.00000000000E+00  0.25253809075E+03  0.25253809076E+03  0.25500000920E-02 0. -1.
        2   -1    0    0  501    0  0.00000000000E+00  0.00000000000E+00 -0.63326155705E+03  0.63326155705E+03  0.25500000920E-02 0.  1.
    10030    2    1    2    0    0  0.00000000000E+00  0.00000000000E+00 -0.38072346630E+03  0.88579964781E+03  0.79980663805E+03 0.  0.
        1    1    3    3  502    0 -0.19180468766E+03 -0.32698560541E+03 -0.49336728856E+02  0.38228619801E+03  0.50400001928E-02 0. -1.
       -1    1    3    3    0  502  0.19180468766E+03  0.32698560541E+03 -0.33138673744E+03  0.50351344980E+03  0.50400001928E-02 0.  1.
</event>
<event>
 5   0  0.4169155E-04  0.7998324E+03  0.7818609E-02  0.9560260E-01
       -1   -1    0    0    0  501  0.00000000000E+00  0.00000000000E+00  0.78069162126E+03  0.78069162127E+03  0.50400001928E-02 0.  1.
        1   -1    0    0  501    0  0.00000000000E+00  0.00000000000E+00 -0.20486059921E+03  0.20486059927E+03  0.50400001928E-02 0. -1.
    10030    2    1    2    0    0  0.00000000000E+00  0.00000000000E+00  0.57583102205E+03  0.98555222055E+03  0.79983236585E+03 0.  0.
        4    1    3    3  502    0  0.20010388929E+03 -0.28144503331E+03  0.39394588854E+02  0.34757217929E+03  0.12699999809E+01 0. -1.
       -4    1    3    3    0  502 -0.20010388929E+03  0.28144503331E+03  0.53643643319E+03  0.63798004126E+03  0.12699999809E+01 0.  1.
</event>
<event>
 5   0  0.2736375E-04  0.7987386E+03  0.7818609E-02  0.9561845E-01
       -3   -1    0    0    0  501  0.00000000000E+00  0.00000000000E+00  0.20802575181E+03  0.20802577632E+03  0.10100000352E+00 0. -1.
        3   -1    0    0  501    0  0.00000000000E+00  0.00000000000E+00 -0.76671196289E+03  0.76671196954E+03  0.10100000352E+00 0.  1.
    10030    2    1    2    0    0  0.00000000000E+00  0.00000000000E+00 -0.55868621108E+03  0.97473774586E+03  0.79873862481E+03 0.  0.
        1    1    3    3  502    0 -0.68498551943E+02 -0.23812631085E+03  0.10287991512E+03  0.26829176003E+03  0.50400001928E-02 0. -1.
       -1    1    3    3    0  502  0.68498551943E+02  0.23812631085E+03 -0.66156612620E+03  0.70644598584E+03  0.50400001928E-02 0.  1.
</event>
<event>
 5   0  0.4087283E-04  0.7999444E+03  0.7818609E-02  0.9560098E-01
        1   -1    0    0  501    0  0.00000000000E+00  0.00000000000E+00  0.42397194127E+03  0.42397194130E+03  0.50400001928E-02 0. -1.
       -1   -1    0    0    0  501  0.00000000000E+00  0.00000000000E+00 -0.37733100653E+03  0.37733100657E+03  0.50400001928E-02 0.  1.
    10030    2    1    2    0    0  0.00000000000E+00  0.00000000000E+00  0.46640934738E+02  0.80130294787E+03  0.79994439648E+03 0.  0.
        1    1    3    3  502    0 -0.23335714940E+02 -0.16638622197E+03  0.38690912076E+03  0.42181464911E+03  0.50400001928E-02 0. -1.
       -1    1    3    3    0  502  0.23335714940E+02  0.16638622197E+03 -0.34026818602E+03  0.37948829876E+03  0.50400001928E-02 0.  1.
</event>
<event>
 5   0  0.6801147E-04  0.8001111E+03  0.7818609E-02  0.9559856E-01
        2   -1    0    0  501    0  0.00000000000E+00  0.00000000000E+00  0.71946996951E+03  0.71946996951E+03  0.25500000920E-02 0.  1.
       -2   -1    0    0    0  501  0.00000000000E+00  0.00000000000E+00 -0.22244769698E+03  0.22244769700E+03  0.25500000920E-02 0. -1.
    10030    2    1    2    0    0  0.00000000000E+00  0.00000000000E+00  0.49702227252E+03  0.94191766651E+03  0.80011108672E+03 0.  0.
        4    1    3    3  502    0 -0.14415394731E+03 -0.20051531344E+03  0.61902392993E+03  0.66646754623E+03  0.12699999809E+01 0.  1.
       -4    1    3    3    0  502  0.14415394731E+03  0.20051531344E+03 -0.12200165741E+03  0.27545012028E+03  0.12699999809E+01 0. -1.
</event>
<event>
 5   0  0.6970013E-04  0.8002986E+03  0.7818609E-02  0.9559585E-01
       -2   -1    0    0    0  501  0.00000000000E+00  0.00000000000E+00  0.85297584933E+03  0.85297584934E+03  0.25500000920E-02 0.  1.
        2   -1    0    0  501    0  0.00000000000E+00  0.00000000000E+00 -0.18771863644E+03  0.18771863646E+03  0.25500000920E-02 0. -1.
    10030    2    1    2    0    0  0.00000000000E+00  0.00000000000E+00  0.66525721289E+03  0.10406944858E+04  0.80029860269E+03 0.  0.
        3    1    3    3  502    0  0.11237955011E+03  0.35146683155E+03  0.53392078141E+03  0.64902196264E+03  0.10100000352E+00 0.  1.
       -3    1    3    3    0  502 -0.11237955011E+03 -0.35146683155E+03  0.13133643148E+03  0.39167252316E+03  0.10100000352E+00 0. -1.
</event>
<event>
 5   0  0.7133039E-04  0.7999420E+03  0.7818609E-02  0.9560101E-01
        2   -1    0    0  501    0  0.00000000000E+00  0.00000000000E+00  0.13491525954E+04  0.13491525954E+04  0.25500000920E-02 0.  1.
       -2   -1    0    0    0  501  0.00000000000E+00  0.00000000000E+00 -0.11857576886E+03  0.11857576888E+03  0.25500000920E-02 0. -1.
    10030    2    1    2    0    0  0.00000000000E+00  0.00000000000E+00  0.12305768266E+04  0.14677283643E+04  0.79994201373E+03 0.  0.
        2    1    3    3  502    0 -0.21123958791E+03  0.15043724465E+03  0.11739921411E+04  0.12022940886E+04  0.25500000920E-02 0.  1.
       -2    1    3    3    0  502  0.21123958791E+03 -0.15043724465E+03  0.56584685433E+02  0.26543427569E+03  0.25500000920E-02 0. -1.
</event>
<event>
 5   0  0.7133039E-04  0.7988987E+03  0.7818609E-02  0.9561613E-01
       -2   -1    0    0    0  501  0.00000000000E+00  0.00000000000E+00  0.14713186513E+03  0.14713186515E+03  0.25500000920E-02 0.  1.
        2   -1    0    0  501    0  0.00000000000E+00  0.00000000000E+00 -0.10844678644E+04  0.10844678644E+04  0.25500000920E-02 0. -1.
    10030    2    1    2    0    0  0.00000000000E+00  0.00000000000E+00 -0.93733599929E+03  0.12315997296E+04  0.79889869091E+03 0.  0.
        2    1    3    3  502    0 -0.22806045219E+03 -0.14330794127E+03 -0.13926002952E+02  0.26970848976E+03  0.25500000920E-02 0.  1.
       -2    1    3    3    0  502  0.22806045219E+03  0.14330794127E+03 -0.92340999634E+03  0.96189123982E+03  0.25500000920E-02 0. -1.
</event>
<event>
 5   0  0.6801147E-04  0.7997588E+03  0.7818609E-02  0.9560366E-01
       -2   -1    0    0    0  501  0.00000000000E+00  0.00000000000E+00  0.20426130258E+03  0.20426130260E+03  0.25500000920E-02 0. -1.
        2   -1    0    0  501    0  0.00000000000E+00  0.00000000000E+00 -0.78283804405E+03  0.78283804405E+03  0.25500000920E-02 0.  1.
    10030    2    1    2    0    0  0.00000000000E+00  0.00000000000E+00 -0.57857674147E+03  0.98709934665E+03  0.79975876012E+03 0.  0.
        4    1    3    3  502    0 -0.39969692504E+03  0.17669518184E+01 -0.27462462554E+03  0.48495469052E+03  0.12699999809E+01 0.  1.
       -4    1    3    3    0  502  0.39969692504E+03 -0.17669518184E+01 -0.30395211593E+03  0.50214465613E+03  0.12699999809E+01 0. -1.
</event>
<event>
 5   0  0.6672462E-04  0.8001574E+03  0.7818609E-02  0.9559789E-01
       -2   -1    0    0    0  501  0.00000000000E+00  0.00000000000E+00  0.49340788084E+03  0.49340788085E+03  0.25500000920E-02 0. -1.
        2   -1    0    0  501    0  0.00000000000E+00  0.00000000000E+00 -0.32440292655E+03  0.32440292656E+03  0.25500000920E-02 0.  1.
    10030    2    1    2    0    0  0.00000000000E+00  0.00000000000E+00  0.16900495429E+03  0.81781080741E+03  0.80015738586E+03 0.  0.
        5    1    3    3  502    0  0.23362440672E+03  0.23365731654E+03  0.31501044958E+03  0.45654110256E+03  0.46999998093E+01 0. -1.
       -5    1    3    3    0  502 -0.23362440672E+03 -0.23365731654E+03 -0.14600549529E+03  0.36126970485E+03  0.46999998093E+01 0.  1.
</event>
<event>
 5   0  0.6672462E-04  0.8001540E+03  0.7818609E-02  0.9559794E-01
       -2   -1    0    0    0  501  0.00000000000E+00  0.00000000000E+00  0.58727152100E+02  0.58727152156E+02  0.25500000920E-02 0. -1.
        2   -1    0    0  501    0  0.00000000000E+00  0.00000000000E+00 -0.27255128356E+04  0.27255128356E+04  0.25500000920E-02 0.  1.
    10030    2    1    2    0    0  0.00000000000E+00  0.00000000000E+00 -0.26667856835E+04  0.27842399877E+04  0.80015400249E+03 0.  0.
        5    1    3    3  502    0  0.29074565669E+02 -0.49244141609E+02 -0.27111207540E+04  0.27117278899E+04  0.46999998093E+01 0.  1.
       -5    1    3    3    0  502 -0.29074565669E+02  0.49244141609E+02  0.44335070569E+02  0.72512097833E+02  0.46999998093E+01 0. -1.
</event>
<event>
 5   0  0.6970013E-04  0.7994333E+03  0.7818609E-02  0.9560838E-01
        2   -1    0    0  501    0  0.00000000000E+00  0.00000000000E+00  0.64095602771E+03  0.64095602771E+03  0.25500000920E-02 0. -1.
       -2   -1    0    0    0  501  0.00000000000E+00  0.00000000000E+00 -0.24927360514E+03  0.24927360516E+03  0.25500000920E-02 0.  1.
    10030    2    1    2    0    0  0.00000000000E+00  0.00000000000E+00  0.39168242257E+03  0.89022963287E+03  0.79943334875E+03 0.  0.
        3    1    3    3  502    0 -0.11505392934E+02 -0.37202905543E+03  0.35811567646E+03  0.51651218773E+03  0.10100000352E+00 0. -1.
       -3    1    3    3    0  502  0.11505392934E+02  0.37202905543E+03  0.33566746110E+02  0.37371744514E+03  0.10100000352E+00 0.  1.
</event>
<event>
 5   0  0.4169155E-04  0.7996500E+03  0.7818609E-02  0.9560524E-01
       -1   -1    0    0    0  501  0.00000000000E+00  0.00000000000E+00  0.44109317332E+03  0.44109317334E+03  0.50400001928E-02 0. -1.
        1   -1    0    0  501    0  0.00000000000E+00  0.00000000000E+00 -0.36241786258E+03  0.36241786261E+03  0.50400001928E-02 0.  1.
    10030    2    1    2    0    0  0.00000000000E+00  0.00000000000E+00  0.78675310736E+02  0.80351103596E+03  0.79965003620E+03 0.  0.
        4    1    3    3  502    0 -0.28209305998E+03 -0.24487510568E+03  0.18256754219E+03  0.41577978815E+03  0.12699999809E+01 0.  1.
       -4    1    3    3    0  502  0.28209305998E+03  0.24487510568E+03 -0.10389223146E+03  0.38773124781E+03  0.12699999809E+01 0. -1.
</event>
<event>
 5   0  0.4087283E-04  0.8000489E+03  0.7818609E-02  0.9559946E-01
        1   -1    0    0  501    0  0.00000000000E+00  0.00000000000E+00  0.41747097267E+03  0.41747097270E+03  0.50400001928E-02 0. -1.
       -1   -1    0    0    0  501  0.00000000000E+00  0.00000000000E+00 -0.38330699541E+03  0.38330699544E+03  0.50400001928E-02 0.  1.
    10030    2    1    2    0    0  0.00000000000E+00  0.00000000000E+00  0.34163977263E+02  0.80077796814E+03  0.80004885908E+03 0.  0.
        1    1    3    3  502    0  0.22805247487E+03 -0.18564017257E+03  0.28852895557E+03  0.41196985714E+03  0.50400001928E-02 0. -1.
       -1    1    3    3    0  502 -0.22805247487E+03  0.18564017257E+03 -0.25436497831E+03  0.38880811100E+03  0.50400001928E-02 0.  1.
</event>
<event>
 5   0  0.7133039E-04  0.8026576E+03  0.7818609E-02  0.9556178E-01
        2   -1    0    0  501    0  0.00000000000E+00  0.00000000000E+00  0.18510334962E+03  0.18510334964E+03  0.25500000920E-02 0. -1.
       -2   -1    0    0    0  501  0.00000000000E+00  0.00000000000E+00 -0.87013454159E+03  0.87013454160E+03  0.25500000920E-02 0.  1.
    10030    2    1    2    0    0  0.00000000000E+00  0.00000000000E+00 -0.68503119197E+03  0.10552378912E+04  0.80265763132E+03 0.  0.
        2    1    3    3  502    0 -0.29509720801E+03  0.46157943916E+02  0.98870556469E+01  0.29884891138E+03  0.25500000920E-02 0. -1.
       -2    1    3    3    0  502  0.29509720801E+03 -0.46157943916E+02 -0.69491824762E+03  0.75638897985E+03  0.25500000920E-02 0.  1.
</event>
<event>
 5   0  0.6801147E-04  0.8000797E+03  0.7818609E-02  0.9559902E-01
        2   -1    0    0  501    0  0.00000000000E+00  0.00000000000E+00  0.10423192970E+04  0.10423192970E+04  0.25500000920E-02 0. -1.
       -2   -1    0    0    0  501  0.00000000000E+00  0.00000000000E+00 -0.15353441417E+03  0.15353441419E+03  0.25500000920E-02 0.  1.
    10030    2    1    2    0    0  0.00000000000E+00  0.00000000000E+00  0.88878488285E+03  0.11958537112E+04  0.80007970268E+03 0.  0.
        4    1    3    3  502    0 -0.11479454732E+03  0.12186718087E+03 -0.98649286689E+02  0.19432625281E+03  0.12699999809E+01 0.  1.
       -4    1    3    3    0  502  0.11479454732E+03 -0.12186718087E+03  0.98743416954E+03  0.10015274584E+04  0.12699999809E+01 0. -1.
</event>
<event>
 5   0  0.4392552E-04  0.8000705E+03  0.7818609E-02  0.9559915E-01
        1   -1    0    0  501    0  0.00000000000E+00  0.00000000000E+00  0.80918072009E+03  0.80918072011E+03  0.50400001928E-02 0. -1.
       -1   -1    0    0    0  501  0.00000000000E+00  0.00000000000E+00 -0.19776570315E+03  0.19776570322E+03  0.50400001928E-02 0.  1.
    10030    2    1    2    0    0  0.00000000000E+00  0.00000000000E+00  0.61141501694E+03  0.10069464233E+04  0.80007048222E+03 0.  0.
        5    1    3    3  502    0 -0.32997651854E+03  0.81105152879E+01  0.21326396913E+02  0.33079780599E+03  0.46999998093E+01 0.  1.
       -5    1    3    3    0  502  0.32997651854E+03 -0.81105152879E+01  0.59008862002E+03  0.67614861733E+03  0.46999998093E+01 0. -1.
</event>
<event>
 5   0  0.2736375E-04  0.7994859E+03  0.7818609E-02  0.9560761E-01
       -3   -1    0    0    0  501  0.00000000000E+00  0.00000000000E+00  0.26766804270E+03  0.26766806176E+03  0.10100000352E+00 0. -1.
        3   -1    0    0  501    0  0.00000000000E+00  0.00000000000E+00 -0.59698733318E+03  0.59698734172E+03  0.10100000352E+00 0.  1.
    10030    2    1    2    0    0  0.00000000000E+00  0.00000000000E+00 -0.32931929048E+03  0.86465540348E+03  0.79948594214E+03 0.  0.
        2    1    3    3  502    0  0.22697633412E+03 -0.19146896262E+03  0.12476580781E+03  0.32209490326E+03  0.25500000920E-02 0. -1.
       -2    1    3    3    0  502 -0.22697633412E+03  0.19146896262E+03 -0.45408509829E+03  0.54256050022E+03  0.25500000920E-02 0.  1.
</event>
<event>
 5   0  0.6593118E-04  0.7998499E+03  0.7818609E-02  0.9560234E-01
       -2   -1    0    0    0  501  0.00000000000E+00  0.00000000000E+00  0.27339544066E+03  0.27339544067E+03  0.25500000920E-02 0. -1.
        2   -1    0    0  501    0  0.00000000000E+00  0.00000000000E+00 -0.58501326866E+03  0.58501326866E+03  0.25500000920E-02 0.  1.
    10030    2    1    2    0    0  0.00000000000E+00  0.00000000000E+00 -0.31161782799E+03  0.85840870934E+03  0.79984988688E+03 0.  0.
        1    1    3    3  502    0 -0.21416851126E+02 -0.17502957698E+03  0.22942185990E+03  0.28935864279E+03  0.50400001928E-02 0. -1.
       -1    1    3    3    0  502  0.21416851126E+02  0.17502957698E+03 -0.54103968790E+03  0.56905006654E+03  0.50400001928E-02 0.  1.
</event>
<event>
 5   0  0.4392552E-04  0.7998255E+03  0.7818609E-02  0.9560270E-01
       -1   -1    0    0    0  501  0.00000000000E+00  0.00000000000E+00  0.38444904934E+03  0.38444904937E+03  0.50400001928E-02 0. -1.
        1   -1    0    0  501    0  0.00000000000E+00  0.00000000000E+00 -0.41599847467E+03  0.41599847470E+03  0.50400001928E-02 0.  1.
    10030    2    1    2    0    0  0.00000000000E+00  0.00000000000E+00 -0.31549425332E+02  0.80044752408E+03  0.79982552633E+03 0.  0.
        5    1    3    3  502    0  0.84078757818E+02  0.35897570825E+03 -0.17073482254E+03  0.40633147337E+03  0.46999998093E+01 0.  1.
       -5    1    3    3    0  502 -0.84078757818E+02 -0.35897570825E+03  0.13918539721E+03  0.39411605070E+03  0.46999998093E+01 0. -1.
</event>
<event>
 5   0  0.4169155E-04  0.7994300E+03  0.7818609E-02  0.9560842E-01
       -1   -1    0    0    0  501  0.00000000000E+00  0.00000000000E+00  0.35612582049E+03  0.35612582053E+03  0.50400001928E-02 0.  1.
        1   -1    0    0  501    0  0.00000000000E+00  0.00000000000E+00 -0.44863946464E+03  0.44863946467E+03  0.50400001928E-02 0. -1.
    10030    2    1    2    0    0  0.00000000000E+00  0.00000000000E+00 -0.92513644150E+02  0.80476528519E+03  0.79943004065E+03 0.  0.
        4    1    3    3  502    0 -0.69584033297E+02  0.35195608045E+03  0.13114488053E+03  0.38198902189E+03  0.12699999809E+01 0.  1.
       -4    1    3    3    0  502  0.69584033297E+02 -0.35195608045E+03 -0.22365852468E+03  0.42277626331E+03  0.12699999809E+01 0. -1.
</event>
<event>
 5   0  0.4169155E-04  0.7997751E+03  0.7818609E-02  0.9560343E-01
       -1   -1    0    0    0  501  0.00000000000E+00  0.00000000000E+00  0.31723774865E+03  0.31723774869E+03  0.50400001928E-02 0. -1.
        1   -1    0    0  501    0  0.00000000000E+00  0.00000000000E+00 -0.50407007745E+03  0.50407007748E+03  0.50400001928E-02 0.  1.
    10030    2    1    2    0    0  0.00000000000E+00  0.00000000000E+00 -0.18683232880E+03  0.82130782617E+03  0.79977510979E+03 0.  0.
        4    1    3    3  502    0  0.25676164461E+03 -0.30590593433E+03 -0.11404329326E+03  0.41534620311E+03  0.12699999809E+01 0.  1.
       -4    1    3    3    0  502 -0.25676164461E+03  0.30590593433E+03 -0.72789035545E+02  0.40596162306E+03  0.12699999809E+01 0. -1.
</event>
<event>
 5   0  0.4087283E-04  0.8036162E+03  0.7818609E-02  0.9554797E-01
        1   -1    0    0  501    0  0.00000000000E+00  0.00000000000E+00  0.28917494186E+03  0.28917494190E+03  0.50400001928E-02 0. -1.
       -1   -1    0    0    0  501  0.00000000000E+00  0.00000000000E+00 -0.55831171881E+03  0.55831171883E+03  0.50400001928E-02 0.  1.
    10030    2    1    2    0    0  0.00000000000E+00  0.00000000000E+00 -0.26913677695E+03  0.84748666074E+03  0.80361622396E+03 0.  0.
        1    1    3    3  502    0 -0.34842751590E+03 -0.46340489883E+02 -0.33987698119E+03  0.48894328629E+03  0.50400001928E-02 0.  1.
       -1    1    3    3    0  502  0.34842751590E+03  0.46340489883E+02  0.70740204238E+02  0.35854337445E+03  0.50400001928E-02 0. -1.
</event>
<event>
 5   0  0.4087283E-04  0.8007296E+03  0.7818609E-02  0.9558962E-01
       -1   -1    0    0    0  501  0.00000000000E+00  0.00000000000E+00  0.20257992202E+03  0.20257992209E+03  0.50400001928E-02 0. -1.
        1   -1    0    0  501    0  0.00000000000E+00  0.00000000000E+00 -0.79125310528E+03  0.79125310530E+03  0.50400001928E-02 0.  1.
    10030    2    1    2    0    0  0.00000000000E+00  0.00000000000E+00 -0.58867318326E+03  0.99383302738E+03  0.80072964828E+03 0.  0.
        1    1    3    3  502    0 -0.36615222299E+02 -0.62316174760E+02 -0.78308867985E+03  0.78641710350E+03  0.50400001928E-02 0.  1.
       -1    1    3    3    0  502  0.36615222299E+02  0.62316174760E+02  0.19441549659E+03  0.20741592388E+03  0.50400001928E-02 0. -1.
</event>
<event>
 5   0  0.2736375E-04  0.8000321E+03  0.7818609E-02  0.9559971E-01
        4   -1    0    0  501    0  0.00000000000E+00  0.00000000000E+00  0.54458446318E+03  0.54458594404E+03  0.12699999809E+01 0.  1.
       -4   -1    0    0    0  501  0.00000000000E+00  0.00000000000E+00 -0.29382230824E+03  0.29382505291E+03  0.12699999809E+01 0. -1.
    10030    2    1    2    0    0  0.00000000000E+00  0.00000000000E+00  0.25076215495E+03  0.83841099695E+03  0.80003208776E+03 0.  0.
        4    1    3    3  502    0  0.98171594299E+02  0.17546966025E+03  0.48777927037E+03  0.52759595629E+03  0.12699999809E+01 0.  1.
       -4    1    3    3    0  502 -0.98171594299E+02 -0.17546966025E+03 -0.23701711542E+03  0.31081504066E+03  0.12699999809E+01 0. -1.
</event>
<event>
 5   0  0.4392552E-04  0.7999124E+03  0.7818609E-02  0.9560144E-01
       -1   -1    0    0    0  501  0.00000000000E+00  0.00000000000E+00  0.57407342851E+03  0.57407342854E+03  0.50400001928E-02 0.  1.
        1   -1    0    0  501    0  0.00000000000E+00  0.00000000000E+00 -0.27864895601E+03  0.27864895605E+03  0.50400001928E-02 0. -1.
    10030    2    1    2    0    0  0.00000000000E+00  0.00000000000E+00  0.29542447251E+03  0.85272238459E+03  0.79991239909E+03 0.  0.
        5    1    3    3  502    0  0.29093673052E+02 -0.13283578435E+03 -0.25321759872E+03  0.28745961406E+03  0.46999998093E+01 0. -1.
       -5    1    3    3    0  502 -0.29093673052E+02  0.13283578435E+03  0.54864207123E+03  0.56526277052E+03  0.46999998093E+01 0.  1.
</event>
<event>
 5   0  0.6970013E-04  0.7998880E+03  0.7818609E-02  0.9560179E-01
       -2   -1    0    0    0  501  0.00000000000E+00  0.00000000000E+00  0.52491046388E+03  0.52491046389E+03  0.25500000920E-02 0.  1.
        2   -1    0    0  501    0  0.00000000000E+00  0.00000000000E+00 -0.30472854607E+03  0.30472854608E+03  0.25500000920E-02 0. -1.
    10030    2    1    2    0    0  0.00000000000E+00  0.00000000000E+00  0.22018191781E+03  0.82963900997E+03  0.79988799837E+03 0.  0.
        3    1    3    3  502    0 -0.17073921186E+03  0.34686639450E+03  0.21630599338E+03  0.44300842777E+03  0.10100000352E+00 0.  1.
       -3    1    3    3    0  502  0.17073921186E+03 -0.34686639450E+03  0.38759244313E+01  0.38663058220E+03  0.10100000352E+00 0. -1.
</event>
<event>
 5   0  0.4086111E-04  0.8030371E+03  0.7818609E-02  0.9555631E-01
        1   -1    0    0  501    0  0.00000000000E+00  0.00000000000E+00  0.86009481104E+03  0.86009481106E+03  0.50400001928E-02 0.  1.
       -1   -1    0    0    0  501  0.00000000000E+00  0.00000000000E+00 -0.18744112255E+03  0.18744112262E+03  0.50400001928E-02 0. -1.
    10030    2    1    2    0    0  0.00000000000E+00  0.00000000000E+00  0.67265368849E+03  0.10475359337E+04  0.80303707742E+03 0.  0.
        3    1    3    3  502    0  0.14908218933E+03  0.15282983693E+03  0.77991236485E+03  0.80860729979E+03  0.10100000352E+00 0.  1.
       -3    1    3    3    0  502 -0.14908218933E+03 -0.15282983693E+03 -0.10725867636E+03  0.23892863388E+03  0.10100000352E+00 0. -1.
</event>
<event>
 5   0  0.2736375E-04  0.8002785E+03  0.7818609E-02  0.9559614E-01
        3   -1    0    0  501    0  0.00000000000E+00  0.00000000000E+00  0.56908704271E+03  0.56908705168E+03  0.10100000352E+00 0.  1.
       -3   -1    0    0    0  501  0.00000000000E+00  0.00000000000E+00 -0.28134783356E+03  0.28134785169E+03  0.10100000352E+00 0. -1.
    10030    2    1    2    0    0  0.00000000000E+00  0.00000000000E+00  0.28773920915E+03  0.85043490336E+03  0.80027849676E+03 0.  0.
        5    1    3    3  502    0  0.17042215174E+03  0.29649796749E+03  0.36457486416E+03  0.49989166437E+03  0.46999998093E+01 0. -1.
       -5    1    3    3    0  502 -0.17042215174E+03 -0.29649796749E+03 -0.76835655007E+02  0.35054323900E+03  0.46999998093E+01 0.  1.
</event>
<event>
 5   0  0.2736375E-04  0.8000412E+03  0.7818609E-02  0.9559958E-01
        4   -1    0    0  501    0  0.00000000000E+00  0.00000000000E+00  0.94523213065E+03  0.94523298382E+03  0.12699999809E+01 0.  1.
       -4   -1    0    0    0  501  0.00000000000E+00  0.00000000000E+00 -0.16928470511E+03  0.16928946891E+03  0.12699999809E+01 0. -1.
    10030    2    1    2    0    0  0.00000000000E+00  0.00000000000E+00  0.77594742554E+03  0.11145224527E+04  0.80004118047E+03 0.  0.
        3    1    3    3  502    0 -0.10511793564E+03 -0.33954738455E+03  0.64361175475E+03  0.73524030616E+03  0.10100000352E+00 0.  1.
       -3    1    3    3    0  502  0.10511793564E+03  0.33954738455E+03  0.13233567079E+03  0.37928214658E+03  0.10100000352E+00 0. -1.
</event>
<event>
 5   0  0.6672462E-04  0.8000215E+03  0.7818609E-02  0.9559986E-01
        2   -1    0    0  501    0  0.00000000000E+00  0.00000000000E+00  0.11423821738E+04  0.11423821738E+04  0.25500000920E-02 0. -1.
       -2   -1    0    0    0  501  0.00000000000E+00  0.00000000000E+00 -0.14006572118E+03  0.14006572120E+03  0.25500000920E-02 0.  1.
    10030    2    1    2    0    0  0.00000000000E+00  0.00000000000E+00  0.10023164526E+04  0.12824478950E+04  0.80002145734E+03 0.  0.
        5    1    3    3  502    0 -0.57605854373E+02 -0.32096336452E+03  0.12985793225E+03  0.35102861477E+03  0.46999998093E+01 0.  1.
       -5    1    3    3    0  502  0.57605854373E+02  0.32096336452E+03  0.87245852036E+03  0.93141928022E+03  0.46999998093E+01 0. -1.
</event>
<event>
 5   0  0.6970013E-04  0.7997940E+03  0.7818609E-02  0.9560315E-01
        2   -1    0    0  501    0  0.00000000000E+00  0.00000000000E+00  0.14152899426E+04  0.14152899426E+04  0.25500000920E-02 0. -1.
       -2   -1    0    0    0  501  0.00000000000E+00  0.00000000000E+00 -0.11299283307E+03  0.11299283310E+03  0.25500000920E-02 0.  1.
    10030    2    1    2    0    0  0.00000000000E+00  0.00000000000E+00  0.13022971095E+04  0.15282827757E+04  0.79979402410E+03 0.  0.
        3    1    3    3  502    0 -0.10832805731E+03 -0.18546752647E+03  0.65831395479E+01  0.21488722462E+03  0.10100000352E+00 0.  1.
       -3    1    3    3    0  502  0.10832805731E+03  0.18546752647E+03  0.12957139700E+04  0.13133955511E+04  0.10100000352E+00 0. -1.
</event>
<event>
 5   0  0.4087283E-04  0.7977802E+03  0.7818609E-02  0.9563236E-01
       -1   -1    0    0    0  501  0.00000000000E+00  0.00000000000E+00  0.94604953226E+02  0.94604953360E+02  0.50400001928E-02 0.  1.
        1   -1    0    0  501    0  0.00000000000E+00  0.00000000000E+00 -0.16818706391E+04  0.16818706391E+04  0.50400001928E-02 0. -1.
    10030    2    1    2    0    0  0.00000000000E+00  0.00000000000E+00 -0.15872656859E+04  0.17764755925E+04  0.79778015335E+03 0.  0.
        1    1    3    3  502    0  0.51938694770E+02 -0.62040500572E+02  0.76139932944E+02  0.11110329041E+03  0.50400001928E-02 0.  1.
       -1    1    3    3    0  502 -0.51938694770E+02  0.62040500572E+02 -0.16634056188E+04  0.16653723021E+04  0.50400001928E-02 0. -1.
</event>
<event>
 5   0  0.6801147E-04  0.8001591E+03  0.7818609E-02  0.9559787E-01
       -2   -1    0    0    0  501  0.00000000000E+00  0.00000000000E+00  0.55809154883E+03  0.55809154883E+03  0.25500000920E-02 0.  1.
        2   -1    0    0  501    0  0.00000000000E+00  0.00000000000E+00 -0.28680535114E+03  0.28680535116E+03  0.25500000920E-02 0. -1.
    10030    2    1    2    0    0  0.00000000000E+00  0.00000000000E+00  0.27128619768E+03  0.84489689999E+03  0.80015909078E+03 0.  0.
        4    1    3    3  502    0 -0.54767284960E+02  0.38726157948E+03  0.22455961565E+03  0.45099847042E+03  0.12699999809E+01 0.  1.
       -4    1    3    3    0  502  0.54767284960E+02 -0.38726157948E+03  0.46726582033E+02  0.39389842956E+03  0.12699999809E+01 0. -1.
</event>
<event>
 5   0  0.6593118E-04  0.7997656E+03  0.7818609E-02  0.9560356E-01
       -2   -1    0    0    0  501  0.00000000000E+00  0.00000000000E+00  0.13251042687E+03  0.13251042690E+03  0.25500000920E-02 0. -1.
        2   -1    0    0  501    0  0.00000000000E+00  0.00000000000E+00 -0.12067447539E+04  0.12067447539E+04  0.25500000920E-02 0.  1.
    10030    2    1    2    0    0  0.00000000000E+00  0.00000000000E+00 -0.10742343270E+04  0.13392551808E+04  0.79976562187E+03 0.  0.
        1    1    3    3  502    0  0.39736145480E+03  0.11680144350E+02 -0.46463153690E+03  0.61148590878E+03  0.50400001928E-02 0.  1.
       -1    1    3    3    0  502 -0.39736145480E+03 -0.11680144350E+02 -0.60960279009E+03  0.72776927199E+03  0.50400001928E-02 0. -1.
</event>
<event>
 5   0  0.6970013E-04  0.7999792E+03  0.7818609E-02  0.9560047E-01
       -2   -1    0    0    0  501  0.00000000000E+00  0.00000000000E+00  0.20480516064E+03  0.20480516065E+03  0.25500000920E-02 0.  1.
        2   -1    0    0  501    0  0.00000000000E+00  0.00000000000E+00 -0.78118961820E+03  0.78118961820E+03  0.25500000920E-02 0. -1.
    10030    2    1    2    0    0  0.00000000000E+00  0.00000000000E+00 -0.57638445756E+03  0.98599477886E+03  0.79997916286E+03 0.  0.
        3    1    3    3  502    0 -0.51779098625E+02 -0.37398098227E+03 -0.45100136926E+03  0.58817097466E+03  0.10100000352E+00 0. -1.
       -3    1    3    3    0  502  0.51779098625E+02  0.37398098227E+03 -0.12538308830E+03  0.39782380420E+03  0.10100000352E+00 0.  1.
</event>
<event>
 5   0  0.4392552E-04  0.8005051E+03  0.7818609E-02  0.9559286E-01
       -1   -1    0    0    0  501  0.00000000000E+00  0.00000000000E+00  0.17361995030E+03  0.17361995037E+03  0.50400001928E-02 0. -1.
        1   -1    0    0  501    0  0.00000000000E+00  0.00000000000E+00 -0.92271720893E+03  0.92271720895E+03  0.50400001928E-02 0.  1.
    10030    2    1    2    0    0  0.00000000000E+00  0.00000000000E+00 -0.74909725863E+03  0.10963371593E+04  0.80050513054E+03 0.  0.
        5    1    3    3  502    0  0.38301293304E+02  0.36871254514E+03 -0.58118426413E+03  0.68935706922E+03  0.46999998093E+01 0. -1.
       -5    1    3    3    0  502 -0.38301293304E+02 -0.36871254514E+03 -0.16791299450E+03  0.40698009010E+03  0.46999998093E+01 0.  1.
</event>
<event>
 5   0  0.4104786E-04  0.7996986E+03  0.7818609E-02  0.9560453E-01
        1   -1    0    0  501    0  0.00000000000E+00  0.00000000000E+00  0.29195941342E+03  0.29195941346E+03  0.50400001928E-02 0.  1.
       -1   -1    0    0    0  501  0.00000000000E+00  0.00000000000E+00 -0.54760857585E+03  0.54760857588E+03  0.50400001928E-02 0. -1.
    10030    2    1    2    0    0  0.00000000000E+00  0.00000000000E+00 -0.25564916243E+03  0.83956798934E+03  0.79969863978E+03 0.  0.
        2    1    3    3  502    0  0.87436734619E+02 -0.86476162237E+02 -0.52726136429E+03  0.54141283275E+03  0.25500000920E-02 0. -1.
       -2    1    3    3    0  502 -0.87436734619E+02  0.86476162237E+02  0.27161220185E+03  0.29815515658E+03  0.25500000920E-02 0.  1.
</event>
<event>
 5   0  0.4087283E-04  0.7999853E+03  0.7818609E-02  0.9560038E-01
        1   -1    0    0  501    0  0.00000000000E+00  0.00000000000E+00  0.86455396171E+03  0.86455396173E+03  0.50400001928E-02 0. -1.
       -1   -1    0    0    0  501  0.00000000000E+00  0.00000000000E+00 -0.18505972642E+03  0.18505972649E+03  0.50400001928E-02 0.  1.
    10030    2    1    2    0    0  0.00000000000E+00  0.00000000000E+00  0.67949423529E+03  0.10496136882E+04  0.79998529905E+03 0.  0.
        1    1    3    3  502    0 -0.10887608784E+03 -0.17873412422E+02  0.84419353913E+03  0.85137312202E+03  0.50400001928E-02 0. -1.
       -1    1    3    3    0  502  0.10887608784E+03  0.17873412422E+02 -0.16469930384E+03  0.19824056619E+03  0.50400001928E-02 0.  1.
</event>
<event>
 5   0  0.7133039E-04  0.8012359E+03  0.7818609E-02  0.9558230E-01
        2   -1    0    0  501    0  0.00000000000E+00  0.00000000000E+00  0.39454099252E+03  0.39454099253E+03  0.25500000920E-02 0. -1.
       -2   -1    0    0    0  501  0.00000000000E+00  0.00000000000E+00 -0.40678851972E+03  0.40678851973E+03  0.25500000920E-02 0.  1.
    10030    2    1    2    0    0  0.00000000000E+00  0.00000000000E+00 -0.12247527201E+02  0.80132951226E+03  0.80123591114E+03 0.  0.
        2    1    3    3  502    0 -0.21759776882E+03  0.22723355252E+03  0.24191905989E+03  0.39687366747E+03  0.25500000920E-02 0. -1.
       -2    1    3    3    0  502  0.21759776882E+03 -0.22723355252E+03 -0.25416658709E+03  0.40445584479E+03  0.25500000920E-02 0.  1.
</event>
<event>
 5   0  0.6801147E-04  0.7998394E+03  0.7818609E-02  0.9560250E-01
        2   -1    0    0  501    0  0.00000000000E+00  0.00000000000E+00  0.57862084747E+03  0.57862084748E+03  0.25500000920E-02 0.  1.
       -2   -1    0    0    0  501  0.00000000000E+00  0.00000000000E+00 -0.27640857280E+03  0.27640857281E+03  0.25500000920E-02 0. -1.
    10030    2    1    2    0    0  0.00000000000E+00  0.00000000000E+00  0.30221227467E+03  0.85502942029E+03  0.79983939051E+03 0.  0.
        4    1    3    3  502    0  0.24528877562E+03  0.12959923763E+02  0.48847661936E+03  0.54675914590E+03  0.12699999809E+01 0.  1.
       -4    1    3    3    0  502 -0.24528877562E+03 -0.12959923763E+02 -0.18626434469E+03  0.30827027439E+03  0.12699999809E+01 0. -1.
</event>
<event>
 5   0  0.4104786E-04  0.8005609E+03  0.7818609E-02  0.9559206E-01
       -1   -1    0    0    0  501  0.00000000000E+00  0.00000000000E+00  0.99951710304E+02  0.99951710431E+02  0.50400001928E-02 0.  1.
        1   -1    0    0  501    0  0.00000000000E+00  0.00000000000E+00 -0.16030183815E+04  0.16030183815E+04  0.50400001928E-02 0. -1.
    10030    2    1    2    0    0  0.00000000000E+00  0.00000000000E+00 -0.15030666712E+04  0.17029700920E+04  0.80056087587E+03 0.  0.
        2    1    3    3  502    0  0.17068076242E+02  0.35231898695E+03 -0.11540474455E+04  0.12067499717E+04  0.25500000920E-02 0. -1.
       -2    1    3    3    0  502 -0.17068076242E+02 -0.35231898695E+03 -0.34901922569E+03  0.49622012021E+03  0.25500000920E-02 0.  1.
</event>
<event>
 5   0  0.2736375E-04  0.8000498E+03  0.7818609E-02  0.9559945E-01
       -3   -1    0    0    0  501  0.00000000000E+00  0.00000000000E+00  0.44435991621E+03  0.44435992769E+03  0.10100000352E+00 0. -1.
        3   -1    0    0  501    0  0.00000000000E+00  0.00000000000E+00 -0.36011327811E+03  0.36011329228E+03  0.10100000352E+00 0.  1.
    10030    2    1    2    0    0  0.00000000000E+00  0.00000000000E+00  0.84246638102E+02  0.80447321997E+03  0.80004978946E+03 0.  0.
        3    1    3    3  502    0 -0.12107490540E+03  0.14693925244E+03 -0.31163089482E+03  0.36519050019E+03  0.10100000352E+00 0.  1.
       -3    1    3    3    0  502  0.12107490540E+03 -0.14693925244E+03  0.39587753292E+03  0.43928271978E+03  0.10100000352E+00 0. -1.
</event>
<event>
 5   0  0.4086111E-04  0.8001659E+03  0.7818609E-02  0.9559777E-01
       -1   -1    0    0    0  501  0.00000000000E+00  0.00000000000E+00  0.17185958727E+03  0.17185958734E+03  0.50400001928E-02 0.  1.
        1   -1    0    0  501    0  0.00000000000E+00  0.00000000000E+00 -0.93137869507E+03  0.93137869509E+03  0.50400001928E-02 0. -1.
    10030    2    1    2    0    0  0.00000000000E+00  0.00000000000E+00 -0.75951910781E+03  0.11032382824E+04  0.80016587824E+03 0.  0.
        3    1    3    3  502    0 -0.25963982438E+03 -0.38481655931E+02  0.36555041199E+02  0.26500935358E+03  0.10100000352E+00 0.  1.
       -3    1    3    3    0  502  0.25963982438E+03  0.38481655931E+02 -0.79607414901E+03  0.83822892885E+03  0.10100000352E+00 0. -1.
</event>
<event>
 5   0  0.4104786E-04  0.7999266E+03  0.7818609E-02  0.9560123E-01
       -1   -1    0    0    0  501  0.00000000000E+00  0.00000000000E+00  0.22965429533E+03  0.22965429539E+03  0.50400001928E-02 0. -1.
        1   -1    0    0  501    0  0.00000000000E+00  0.00000000000E+00 -0.69657147079E+03  0.69657147081E+03  0.50400001928E-02 0.  1.
    10030    2    1    2    0    0  0.00000000000E+00  0.00000000000E+00 -0.46691717546E+03  0.92622576620E+03  0.79992657240E+03 0.  0.
        2    1    3    3  502    0 -0.28179037216E+03  0.27427389756E+03 -0.31806090908E+03  0.50576153137E+03  0.25500000920E-02 0.  1.
       -2    1    3    3    0  502  0.28179037216E+03 -0.27427389756E+03 -0.14885626638E+03  0.42046423483E+03  0.25500000920E-02 0. -1.
</event>
<event>
 5   0  0.2736375E-04  0.7996156E+03  0.7818609E-02  0.9560574E-01
        3   -1    0    0  501    0  0.00000000000E+00  0.00000000000E+00  0.27427586504E+03  0.27427588364E+03  0.10100000352E+00 0.  1.
       -3   -1    0    0    0  501  0.00000000000E+00  0.00000000000E+00 -0.58279372889E+03  0.58279373765E+03  0.10100000352E+00 0. -1.
    10030    2    1    2    0    0  0.00000000000E+00  0.00000000000E+00 -0.30851786385E+03  0.85706962128E+03  0.79961557226E+03 0.  0.
        2    1    3    3  502    0 -0.11395447786E+03 -0.15282853940E+03 -0.53094149052E+03  0.56412857741E+03  0.25500000920E-02 0. -1.
       -2    1    3    3    0  502  0.11395447786E+03  0.15282853940E+03  0.22242362667E+03  0.29294104388E+03  0.25500000920E-02 0.  1.
</event>
<event>
 5   0  0.7133039E-04  0.8000922E+03  0.7818609E-02  0.9559884E-01
        2   -1    0    0  501    0  0.00000000000E+00  0.00000000000E+00  0.78790633086E+03  0.78790633086E+03  0.25500000920E-02 0. -1.
       -2   -1    0    0    0  501  0.00000000000E+00  0.00000000000E+00 -0.20311663473E+03  0.20311663475E+03  0.25500000920E-02 0.  1.
    10030    2    1    2    0    0  0.00000000000E+00  0.00000000000E+00  0.58478969613E+03  0.99102296561E+03  0.80009220073E+03 0.  0.
        2    1    3    3  502    0 -0.38020735925E+03 -0.46793988709E+02  0.43518528747E+03  0.57977025437E+03  0.25500000920E-02 0. -1.
       -2    1    3    3    0  502  0.38020735925E+03  0.46793988709E+02  0.14960440866E+03  0.41125271125E+03  0.25500000920E-02 0.  1.
</event>
<event>
 5   0  0.6970013E-04  0.7992116E+03  0.7818609E-02  0.9561159E-01
        2   -1    0    0  501    0  0.00000000000E+00  0.00000000000E+00  0.20464779149E+04  0.20464779149E+04  0.25500000920E-02 0.  1.
       -2   -1    0    0    0  501  0.00000000000E+00  0.00000000000E+00 -0.78029089013E+02  0.78029089055E+02  0.25500000920E-02 0. -1.
    10030    2    1    2    0    0  0.00000000000E+00  0.00000000000E+00  0.19684488259E+04  0.21245070040E+04  0.79921163012E+03 0.  0.
        3    1    3    3  502    0  0.87955156446E+02  0.38840205496E+03  0.89635993505E+03  0.98084321337E+03  0.10100000352E+00 0. -1.
       -3    1    3    3    0  502 -0.87955156446E+02 -0.38840205496E+03  0.10720888908E+04  0.11436637906E+04  0.10100000352E+00 0.  1.
</event>
<event>
 5   0  0.7133039E-04  0.8000762E+03  0.7818609E-02  0.9559907E-01
       -2   -1    0    0    0  501  0.00000000000E+00  0.00000000000E+00  0.14825035393E+03  0.14825035396E+03  0.25500000920E-02 0. -1.
        2   -1    0    0  501    0  0.00000000000E+00  0.00000000000E+00 -0.10794610035E+04  0.10794610035E+04  0.25500000920E-02 0.  1.
    10030    2    1    2    0    0  0.00000000000E+00  0.00000000000E+00 -0.93121064953E+03  0.12277113574E+04  0.80007618597E+03 0.  0.
        2    1    3    3  502    0 -0.13306220991E+03 -0.25466432187E+03 -0.38500447416E+02  0.28989955674E+03  0.25500000920E-02 0. -1.
       -2    1    3    3    0  502  0.13306220991E+03  0.25466432187E+03 -0.89271020212E+03  0.93781180069E+03  0.25500000920E-02 0.  1.
</event>
<event>
 5   0  0.4086111E-04  0.8001550E+03  0.7818609E-02  0.9559793E-01
       -1   -1    0    0    0  501  0.00000000000E+00  0.00000000000E+00  0.95216840842E+03  0.95216840843E+03  0.50400001928E-02 0. -1.
        1   -1    0    0  501    0  0.00000000000E+00  0.00000000000E+00 -0.16810263173E+03  0.16810263181E+03  0.50400001928E-02 0.  1.
    10030    2    1    2    0    0  0.00000000000E+00  0.00000000000E+00  0.78406577668E+03  0.11202710402E+04  0.80015502337E+03 0.  0.
        3    1    3    3  502    0 -0.14008891022E+02 -0.21785980130E+03  0.86142702463E+03  0.88865947978E+03  0.10100000352E+00 0. -1.
       -3    1    3    3    0  502  0.14008891022E+02  0.21785980130E+03 -0.77361247944E+02  0.23161156045E+03  0.10100000352E+00 0.  1.
</event>
<event>
 5   0  0.4086111E-04  0.7997802E+03  0.7818609E-02  0.9560335E-01
        1   -1    0    0  501    0  0.00000000000E+00  0.00000000000E+00  0.13921208471E+04  0.13921208471E+04  0.50400001928E-02 0. -1.
       -1   -1    0    0    0  501  0.00000000000E+00  0.00000000000E+00 -0.11486940124E+03  0.11486940135E+03  0.50400001928E-02 0.  1.
    10030    2    1    2    0    0  0.00000000000E+00  0.00000000000E+00  0.12772514458E+04  0.15069902484E+04  0.79978019041E+03 0.  0.
        3    1    3    3  502    0  0.19183412537E+03  0.31598412617E+03  0.35121789489E+03  0.50990226469E+03  0.10100000352E+00 0.  1.
       -3    1    3    3    0  502 -0.19183412537E+03 -0.31598412617E+03  0.92603355093E+03  0.99708798372E+03  0.10100000352E+00 0. -1.
</event>
<event>
 5   0  0.6672462E-04  0.8000171E+03  0.7818609E-02  0.9559992E-01
        2   -1    0    0  501    0  0.00000000000E+00  0.00000000000E+00  0.11150571923E+04  0.11150571923E+04  0.25500000920E-02 0.  1.
       -2   -1    0    0    0  501  0.00000000000E+00  0.00000000000E+00 -0.14349652897E+03  0.14349652899E+03  0.25500000920E-02 0. -1.
    10030    2    1    2    0    0  0.00000000000E+00  0.00000000000E+00  0.97156066335E+03  0.12585537213E+04  0.80001709160E+03 0.  0.
        5    1    3    3  502    0  0.11935474424E+03 -0.95304340894E+02  0.10673306275E+04  0.10782139077E+04  0.46999998093E+01 0.  1.
       -5    1    3    3    0  502 -0.11935474424E+03  0.95304340894E+02 -0.95769964103E+02  0.18033981365E+03  0.46999998093E+01 0. -1.
</event>
<event>
 5   0  0.4086111E-04  0.7999999E+03  0.7818609E-02  0.9560017E-01
        1   -1    0    0  501    0  0.00000000000E+00  0.00000000000E+00  0.12108580304E+03  0.12108580314E+03  0.50400001928E-02 0. -1.
       -1   -1    0    0    0  501  0.00000000000E+00  0.00000000000E+00 -0.13213765905E+04  0.13213765905E+04  0.50400001928E-02 0.  1.
    10030    2    1    2    0    0  0.00000000000E+00  0.00000000000E+00 -0.12002907874E+04  0.14424623936E+04  0.79999986414E+03 0.  0.
        3    1    3    3  502    0 -0.19983166179E+03  0.12223680517E+02  0.24245349633E+02  0.20166794143E+03  0.10100000352E+00 0. -1.
       -3    1    3    3    0  502  0.19983166179E+03 -0.12223680517E+02 -0.12245361371E+04  0.12407944522E+04  0.10100000352E+00 0.  1.
</event>
<event>
 5   0  0.4104786E-04  0.7999773E+03  0.7818609E-02  0.9560050E-01
       -1   -1    0    0    0  501  0.00000000000E+00  0.00000000000E+00  0.53247312725E+03  0.53247312728E+03  0.50400001928E-02 0. -1.
        1   -1    0    0  501    0  0.00000000000E+00  0.00000000000E+00 -0.30046761061E+03  0.30046761065E+03  0.50400001928E-02 0.  1.
    10030    2    1    2    0    0  0.00000000000E+00  0.00000000000E+00  0.23200551664E+03  0.83294073793E+03  0.79997732039E+03 0.  0.
        2    1    3    3  502    0  0.12483727345E+02  0.10166324225E+03 -0.28658127406E+03  0.30433548088E+03  0.25500000920E-02 0.  1.
       -2    1    3    3    0  502 -0.12483727345E+02 -0.10166324225E+03  0.51858679071E+03  0.52860525704E+03  0.25500000920E-02 0. -1.
</event>
<event>
 5   0  0.6672462E-04  0.7992308E+03  0.7818609E-02  0.9561131E-01
       -2   -1    0    0    0  501  0.00000000000E+00  0.00000000000E+00  0.15090801870E+03  0.15090801872E+03  0.25500000920E-02 0.  1.
        2   -1    0    0  501    0  0.00000000000E+00  0.00000000000E+00 -0.10582106462E+04  0.10582106462E+04  0.25500000920E-02 0. -1.
    10030    2    1    2    0    0  0.00000000000E+00  0.00000000000E+00 -0.90730262753E+03  0.12091186650E+04  0.79923081022E+03 0.  0.
        5    1    3    3  502    0  0.20879735124E+03 -0.83327333862E+02 -0.95342108759E+03  0.97957829637E+03  0.46999998093E+01 0. -1.
       -5    1    3    3    0  502 -0.20879735124E+03  0.83327333862E+02  0.46118460062E+02  0.22954036858E+03  0.46999998093E+01 0.  1.
</event>
<event>
 5   0  0.4087283E-04  0.7995236E+03  0.7818609E-02  0.9560707E-01
       -1   -1    0    0    0  501  0.00000000000E+00  0.00000000000E+00  0.48020589582E+03  0.48020589585E+03  0.50400001928E-02 0.  1.
        1   -1    0    0  501    0  0.00000000000E+00  0.00000000000E+00 -0.33279371922E+03  0.33279371926E+03  0.50400001928E-02 0. -1.
    10030    2    1    2    0    0  0.00000000000E+00  0.00000000000E+00  0.14741217660E+03  0.81299961511E+03  0.79952362339E+03 0.  0.
        1    1    3    3  502    0 -0.28184312602E+03 -0.26015389041E+03  0.18827235889E+03  0.42727283499E+03  0.50400001928E-02 0.  1.
       -1    1    3    3    0  502  0.28184312602E+03  0.26015389041E+03 -0.40860182288E+02  0.38572678012E+03  0.50400001928E-02 0. -1.
</event>
<event>
 5   0  0.6970013E-04  0.7998716E+03  0.7818609E-02  0.9560203E-01
        2   -1    0    0  501    0  0.00000000000E+00  0.00000000000E+00  0.63128176565E+03  0.63128176566E+03  0.25500000920E-02 0. -1.
       -2   -1    0    0    0  501  0.00000000000E+00  0.00000000000E+00 -0.25337120926E+03  0.25337120927E+03  0.25500000920E-02 0.  1.
    10030    2    1    2    0    0  0.00000000000E+00  0.00000000000E+00  0.37791055640E+03  0.88465297493E+03  0.79987155058E+03 0.  0.
        3    1    3    3  502    0  0.22839828634E+03  0.31551913243E+03  0.28929344716E+03  0.48518945671E+03  0.10100000352E+00 0. -1.
       -3    1    3    3    0  502 -0.22839828634E+03 -0.31551913243E+03  0.88617109238E+02  0.39946351822E+03  0.10100000352E+00 0.  1.
</event>
<event>
 5   0  0.6593118E-04  0.8001680E+03  0.7818609E-02  0.9559774E-01
       -2   -1    0    0    0  501  0.00000000000E+00  0.00000000000E+00  0.17843509973E+03  0.17843509975E+03  0.25500000920E-02 0. -1.
        2   -1    0    0  501    0  0.00000000000E+00  0.00000000000E+00 -0.89706128368E+03  0.89706128368E+03  0.25500000920E-02 0.  1.
    10030    2    1    2    0    0  0.00000000000E+00  0.00000000000E+00 -0.71862618395E+03  0.10754963834E+04  0.80016803142E+03 0.  0.
        1    1    3    3  502    0 -0.18264962674E+03  0.22553069963E+03 -0.72946784047E+03  0.78507853934E+03  0.50400001928E-02 0.  1.
       -1    1    3    3    0  502  0.18264962674E+03 -0.22553069963E+03  0.10841656523E+02  0.29041784409E+03  0.50400001928E-02 0. -1.
</event>
<event>
 5   0  0.6970013E-04  0.7998795E+03  0.7818609E-02  0.9560192E-01
        2   -1    0    0  501    0  0.00000000000E+00  0.00000000000E+00  0.17750881950E+03  0.17750881952E+03  0.25500000920E-02 0. -1.
       -2   -1    0    0    0  501  0.00000000000E+00  0.00000000000E+00 -0.90109209507E+03  0.90109209507E+03  0.25500000920E-02 0.  1.
    10030    2    1    2    0    0  0.00000000000E+00  0.00000000000E+00 -0.72358327557E+03  0.10786009146E+04  0.79987947608E+03 0.  0.
        3    1    3    3  502    0  0.25298394350E+02 -0.21421415149E+03 -0.81593068959E+03  0.84396126207E+03  0.10100000352E+00 0.  1.
       -3    1    3    3    0  502 -0.25298394350E+02  0.21421415149E+03  0.92347414024E+02  0.23463965251E+03  0.10100000352E+00 0. -1.
</event>
<event>
 5   0  0.2736375E-04  0.7997306E+03  0.7818609E-02  0.9560407E-01
       -4   -1    0    0    0  501  0.00000000000E+00  0.00000000000E+00  0.39833440262E+03  0.39833642717E+03  0.12699999809E+01 0.  1.
        4   -1    0    0  501    0  0.00000000000E+00  0.00000000000E+00 -0.40139799798E+03  0.40140000708E+03  0.12699999809E+01 0. -1.
    10030    2    1    2    0    0  0.00000000000E+00  0.00000000000E+00 -0.30635953591E+01  0.79973643425E+03  0.79973056629E+03 0.  0.
        4    1    3    3  502    0 -0.32651457584E+03  0.16075136655E+03 -0.16717679255E+03  0.40050276273E+03  0.12699999809E+01 0. -1.
       -4    1    3    3    0  502  0.32651457584E+03 -0.16075136655E+03  0.16411319719E+03  0.39923367152E+03  0.12699999809E+01 0.  1.
</event>
<event>
 5   0  0.6801147E-04  0.8001455E+03  0.7818609E-02  0.9559807E-01
        2   -1    0    0  501    0  0.00000000000E+00  0.00000000000E+00  0.43214751486E+03  0.43214751487E+03  0.25500000920E-02 0. -1.
       -2   -1    0    0    0  501  0.00000000000E+00  0.00000000000E+00 -0.37037860289E+03  0.37037860290E+03  0.25500000920E-02 0.  1.
    10030    2    1    2    0    0  0.00000000000E+00  0.00000000000E+00  0.61768911975E+02  0.80252611777E+03  0.80014546878E+03 0.  0.
        4    1    3    3  502    0  0.19624097650E+03 -0.34761703874E+03  0.41884754319E+01  0.39920831993E+03  0.12699999809E+01 0.  1.
       -4    1    3    3    0  502 -0.19624097650E+03  0.34761703874E+03  0.57580436544E+02  0.40331779783E+03  0.12699999809E+01 0. -1.
</event>
<event>
 5   0  0.4086111E-04  0.8000152E+03  0.7818609E-02  0.9559995E-01
        1   -1    0    0  501    0  0.00000000000E+00  0.00000000000E+00  0.25478822775E+03  0.25478822780E+03  0.50400001928E-02 0.  1.
       -1   -1    0    0    0  501  0.00000000000E+00  0.00000000000E+00 -0.62799643926E+03  0.62799643928E+03  0.50400001928E-02 0. -1.
    10030    2    1    2    0    0  0.00000000000E+00  0.00000000000E+00 -0.37320821151E+03  0.88278466709E+03  0.80001524942E+03 0.  0.
        3    1    3    3  502    0 -0.12615692439E+02  0.27352677167E+03  0.13516378635E+03  0.30536095012E+03  0.10100000352E+00 0.  1.
       -3    1    3    3    0  502  0.12615692439E+02 -0.27352677167E+03 -0.50837199786E+03  0.57742371697E+03  0.10100000352E+00 0. -1.
</event>
<event>
 5   0  0.2736375E-04  0.7993174E+03  0.7818609E-02  0.9561006E-01
        4   -1    0    0  501    0  0.00000000000E+00  0.00000000000E+00  0.20300715194E+03  0.20301112443E+03  0.12699999809E+01 0. -1.
       -4   -1    0    0    0  501  0.00000000000E+00  0.00000000000E+00 -0.78679289524E+03  0.78679392022E+03  0.12699999809E+01 0.  1.
    10030    2    1    2    0    0  0.00000000000E+00  0.00000000000E+00 -0.58378574330E+03  0.98980504465E+03  0.79931735396E+03 0.  0.
        2    1    3    3  502    0  0.83052474228E+02  0.38143360650E+03 -0.39796757601E+03  0.55746524664E+03  0.25500000920E-02 0.  1.
       -2    1    3    3    0  502 -0.83052474228E+02 -0.38143360650E+03 -0.18581816729E+03  0.43233979801E+03  0.25500000920E-02 0. -1.
</event>
<event>
 5   0  0.2736375E-04  0.8001070E+03  0.7818609E-02  0.9559862E-01
       -3   -1    0    0    0  501  0.00000000000E+00  0.00000000000E+00  0.35887287026E+03  0.35887288447E+03  0.10100000352E+00 0.  1.
        3   -1    0    0  501    0  0.00000000000E+00  0.00000000000E+00 -0.44595962684E+03  0.44595963828E+03  0.10100000352E+00 0. -1.
    10030    2    1    2    0    0  0.00000000000E+00  0.00000000000E+00 -0.87086756586E+02  0.80483252275E+03  0.80010704690E+03 0.  0.
        4    1    3    3  502    0 -0.11836185222E+03 -0.28123012190E+03  0.21671486296E+03  0.37425506577E+03  0.12699999809E+01 0.  1.
       -4    1    3    3    0  502  0.11836185222E+03  0.28123012190E+03 -0.30380161955E+03  0.43057745698E+03  0.12699999809E+01 0. -1.
</event>
<event>
 5   0  0.2736375E-04  0.8001650E+03  0.7818609E-02  0.9559778E-01
        3   -1    0    0  501    0  0.00000000000E+00  0.00000000000E+00  0.17827069519E+03  0.17827072381E+03  0.10100000352E+00 0. -1.
       -3   -1    0    0    0  501  0.00000000000E+00  0.00000000000E+00 -0.89788176426E+03  0.89788176994E+03  0.10100000352E+00 0.  1.
    10030    2    1    2    0    0  0.00000000000E+00  0.00000000000E+00 -0.71961106906E+03  0.10761524937E+04  0.80016504490E+03 0.  0.
        1    1    3    3  502    0 -0.12437108456E+03 -0.17900838227E+03 -0.81101108384E+03  0.83979232298E+03  0.50400001928E-02 0.  1.
       -1    1    3    3    0  502  0.12437108456E+03  0.17900838227E+03  0.91400014775E+02  0.23636017077E+03  0.50400001928E-02 0. -1.
</event>
<event>
 5   0  0.4392552E-04  0.7998003E+03  0.7818609E-02  0.9560306E-01
       -1   -1    0    0    0  501  0.00000000000E+00  0.00000000000E+00  0.25793970764E+03  0.25793970769E+03  0.50400001928E-02 0.  1.
        1   -1    0    0  501    0  0.00000000000E+00  0.00000000000E+00 -0.61999035915E+03  0.61999035917E+03  0.50400001928E-02 0. -1.
    10030    2    1    2    0    0  0.00000000000E+00  0.00000000000E+00 -0.36205065152E+03  0.87793006686E+03  0.79980030510E+03 0.  0.
        5    1    3    3  502    0 -0.46939226185E+02  0.33114345103E+03  0.59562849502E+02  0.33974858227E+03  0.46999998093E+01 0.  1.
       -5    1    3    3    0  502  0.46939226185E+02 -0.33114345103E+03 -0.42161350102E+03  0.53818148459E+03  0.46999998093E+01 0. -1.
</event>
<event>
 5   0  0.2736375E-04  0.8006994E+03  0.7818609E-02  0.9559005E-01
        4   -1    0    0  501    0  0.00000000000E+00  0.00000000000E+00  0.39375956814E+03  0.39376161621E+03  0.12699999809E+01 0.  1.
       -4   -1    0    0    0  501  0.00000000000E+00  0.00000000000E+00 -0.40704598322E+03  0.40704796444E+03  0.12699999809E+01 0. -1.
    10030    2    1    2    0    0  0.00000000000E+00  0.00000000000E+00 -0.13286415083E+02  0.80080958065E+03  0.80069935409E+03 0.  0.
        3    1    3    3  502    0 -0.32081021699E+03  0.65780043356E+02  0.22367884266E+03  0.39658346446E+03  0.10100000352E+00 0.  1.
       -3    1    3    3    0  502  0.32081021699E+03 -0.65780043356E+02 -0.23696525775E+03  0.40422611619E+03  0.10100000352E+00 0. -1.
</event>
<event>
 5   0  0.4086111E-04  0.8025009E+03  0.7818609E-02  0.9556404E-01
        1   -1    0    0  501    0  0.00000000000E+00  0.00000000000E+00  0.63744098172E+03  0.63744098174E+03  0.50400001928E-02 0.  1.
       -1   -1    0    0    0  501  0.00000000000E+00  0.00000000000E+00 -0.25257540117E+03  0.25257540122E+03  0.50400001928E-02 0. -1.
    10030    2    1    2    0    0  0.00000000000E+00  0.00000000000E+00  0.38486558055E+03  0.89001638296E+03  0.80250087031E+03 0.  0.
        3    1    3    3  502    0  0.43566111586E+02 -0.25528564149E+03 -0.14747561294E+03  0.29802320621E+03  0.10100000352E+00 0. -1.
       -3    1    3    3    0  502 -0.43566111586E+02  0.25528564149E+03  0.53234119349E+03  0.59199317675E+03  0.10100000352E+00 0.  1.
</event>
<event>
 5   0  0.4086111E-04  0.8008642E+03  0.7818609E-02  0.9558767E-01
       -1   -1    0    0    0  501  0.00000000000E+00  0.00000000000E+00  0.92832200807E+02  0.92832200944E+02  0.50400001928E-02 0. -1.
        1   -1    0    0  501    0  0.00000000000E+00  0.00000000000E+00 -0.17272654259E+04  0.17272654260E+04  0.50400001928E-02 0.  1.
    10030    2    1    2    0    0  0.00000000000E+00  0.00000000000E+00 -0.16344332251E+04  0.18200976269E+04  0.80086416077E+03 0.  0.
        3    1    3    3  502    0  0.31112776374E+03  0.24079558945E+03 -0.64771099707E+03  0.75783411588E+03  0.10100000352E+00 0. -1.
       -3    1    3    3    0  502 -0.31112776374E+03 -0.24079558945E+03 -0.98672222807E+03  0.10622635110E+04  0.10100000352E+00 0.  1.
</event>
<event>
 5   0  0.6672462E-04  0.8001328E+03  0.7818609E-02  0.9559825E-01
        2   -1    0    0  501    0  0.00000000000E+00  0.00000000000E+00  0.16888564521E+03  0.16888564523E+03  0.25500000920E-02 0.  1.
       -2   -1    0    0    0  501  0.00000000000E+00  0.00000000000E+00 -0.94770116327E+03  0.94770116328E+03  0.25500000920E-02 0. -1.
    10030    2    1    2    0    0  0.00000000000E+00  0.00000000000E+00 -0.77881551806E+03  0.11165868085E+04  0.80013279509E+03 0.  0.
        5    1    3    3  502    0 -0.21167324722E+03 -0.29468934478E+03 -0.15430127256E+03  0.39430742604E+03  0.46999998093E+01 0.  1.
       -5    1    3    3    0  502  0.21167324722E+03  0.29468934478E+03 -0.62451424550E+03  0.72227938247E+03  0.46999998093E+01 0. -1.
</event>
<event>
 5   0  0.4087283E-04  0.8002091E+03  0.7818609E-02  0.9559714E-01
       -1   -1    0    0    0  501  0.00000000000E+00  0.00000000000E+00  0.19469762972E+03  0.19469762978E+03  0.50400001928E-02 0. -1.
        1   -1    0    0  501    0  0.00000000000E+00  0.00000000000E+00 -0.82221679591E+03  0.82221679593E+03  0.50400001928E-02 0.  1.
    10030    2    1    2    0    0  0.00000000000E+00  0.00000000000E+00 -0.62751916619E+03  0.10169144257E+04  0.80020912596E+03 0.  0.
        1    1    3    3  502    0  0.29684414597E+03 -0.10679846535E+03 -0.10231271451E+01  0.31547330475E+03  0.50400001928E-02 0. -1.
       -1    1    3    3    0  502 -0.29684414597E+03  0.10679846535E+03 -0.62649603905E+03  0.70144112096E+03  0.50400001928E-02 0.  1.
</event>
<event>
 5   0  0.4392552E-04  0.8026611E+03  0.7818609E-02  0.9556173E-01
       -1   -1    0    0    0  501  0.00000000000E+00  0.00000000000E+00  0.26073656474E+03  0.26073656479E+03  0.50400001928E-02 0.  1.
        1   -1    0    0  501    0  0.00000000000E+00  0.00000000000E+00 -0.61773540530E+03  0.61773540532E+03  0.50400001928E-02 0. -1.
    10030    2    1    2    0    0  0.00000000000E+00  0.00000000000E+00 -0.35699884056E+03  0.87847197011E+03  0.80266109293E+03 0.  0.
        5    1    3    3  502    0  0.49893090585E+02  0.15523354357E+03 -0.57981679331E+03  0.60232580664E+03  0.46999998093E+01 0. -1.
       -5    1    3    3    0  502 -0.49893090585E+02 -0.15523354357E+03  0.22281795275E+03  0.27614616347E+03  0.46999998093E+01 0.  1.
</event>
<event>
 5   0  0.4169155E-04  0.7998885E+03  0.7818609E-02  0.9560179E-01
       -1   -1    0    0    0  501  0.00000000000E+00  0.00000000000E+00  0.17993277904E+04  0.17993277904E+04  0.50400001928E-02 0.  1.
        1   -1    0    0  501    0  0.00000000000E+00  0.00000000000E+00 -0.88897312326E+02  0.88897312469E+02  0.50400001928E-02 0. -1.
    10030    2    1    2    0    0  0.00000000000E+00  0.00000000000E+00  0.17104304781E+04  0.18882251029E+04  0.79988850399E+03 0.  0.
        4    1    3    3  502    0  0.29917677417E+03 -0.26403833557E+03  0.91903066112E+03  0.10019191354E+04  0.12699999809E+01 0. -1.
       -4    1    3    3    0  502 -0.29917677417E+03  0.26403833557E+03  0.79139981696E+03  0.88630596751E+03  0.12699999809E+01 0.  1.
</event>
<event>
 5   0  0.4104786E-04  0.8011923E+03  0.7818609E-02  0.9558293E-01
       -1   -1    0    0    0  501  0.00000000000E+00  0.00000000000E+00  0.21713044615E+03  0.21713044621E+03  0.50400001928E-02 0. -1.
        1   -1    0    0  501    0  0.00000000000E+00  0.00000000000E+00 -0.73908234446E+03  0.73908234448E+03  0.50400001928E-02 0.  1.
    10030    2    1    2    0    0  0.00000000000E+00  0.00000000000E+00 -0.52195189831E+03  0.95621279068E+03  0.80119230957E+03 0.  0.
        2    1    3    3  502    0 -0.10506628292E+03  0.13299990102E+03  0.17222766345E+03  0.24164077790E+03  0.25500000920E-02 0. -1.
       -2    1    3    3    0  502  0.10506628292E+03 -0.13299990102E+03 -0.69417956176E+03  0.71457201278E+03  0.25500000920E-02 0.  1.
</event>
<event>
 5   0  0.7133039E-04  0.8003450E+03  0.7818609E-02  0.9559518E-01
       -2   -1    0    0    0  501  0.00000000000E+00  0.00000000000E+00  0.32791731741E+03  0.32791731742E+03  0.25500000920E-02 0.  1.
        2   -1    0    0  501    0  0.00000000000E+00  0.00000000000E+00 -0.48834881676E+03  0.48834881676E+03  0.25500000920E-02 0. -1.
    10030    2    1    2    0    0  0.00000000000E+00  0.00000000000E+00 -0.16043149935E+03  0.81626613418E+03  0.80034501050E+03 0.  0.
        2    1    3    3  502    0  0.20709791821E+03 -0.95805237795E+02 -0.41549509227E+03  0.47402991786E+03  0.25500000920E-02 0. -1.
       -2    1    3    3    0  502 -0.20709791821E+03  0.95805237795E+02  0.25506359293E+03  0.34223621632E+03  0.25500000920E-02 0.  1.
</event>
<event>
 5   0  0.6970013E-04  0.8024140E+03  0.7818609E-02  0.9556529E-01
       -2   -1    0    0    0  501  0.00000000000E+00  0.00000000000E+00  0.17587939763E+03  0.17587939765E+03  0.25500000920E-02 0.  1.
        2   -1    0    0  501    0  0.00000000000E+00  0.00000000000E+00 -0.91521270659E+03  0.91521270660E+03  0.25500000920E-02 0. -1.
    10030    2    1    2    0    0  0.00000000000E+00  0.00000000000E+00 -0.73933330896E+03  0.10910921043E+04  0.80241400674E+03 0.  0.
        3    1    3    3  502    0 -0.12866194222E+03 -0.74998286760E+02 -0.87623670950E+03  0.88880223878E+03  0.10100000352E+00 0. -1.
       -3    1    3    3    0  502  0.12866194222E+03  0.74998286760E+02  0.13690340054E+03  0.20228986547E+03  0.10100000352E+00 0.  1.
</event>
<event>
 5   0  0.6801147E-04  0.8024541E+03  0.7818609E-02  0.9556472E-01
       -2   -1    0    0    0  501  0.00000000000E+00  0.00000000000E+00  0.30477336645E+03  0.30477336646E+03  0.25500000920E-02 0.  1.
        2   -1    0    0  501    0  0.00000000000E+00  0.00000000000E+00 -0.52820607939E+03  0.52820607940E+03  0.25500000920E-02 0. -1.
    10030    2    1    2    0    0  0.00000000000E+00  0.00000000000E+00 -0.22343271294E+03  0.83297944586E+03  0.80245409839E+03 0.  0.
        4    1    3    3  502    0 -0.18237347506E+03 -0.18838938721E+03  0.20353159789E+03  0.33192976645E+03  0.12699999809E+01 0.  1.
       -4    1    3    3    0  502  0.18237347506E+03  0.18838938721E+03 -0.42696431083E+03  0.50104967941E+03  0.12699999809E+01 0. -1.
</event>
<event>
 5   0  0.4086111E-04  0.8000950E+03  0.7818609E-02  0.9559880E-01
       -1   -1    0    0    0  501  0.00000000000E+00  0.00000000000E+00  0.13444502435E+03  0.13444502444E+03  0.50400001928E-02 0. -1.
        1   -1    0    0  501    0  0.00000000000E+00  0.00000000000E+00 -0.11903602535E+04  0.11903602535E+04  0.50400001928E-02 0.  1.
    10030    2    1    2    0    0  0.00000000000E+00  0.00000000000E+00 -0.10559152292E+04  0.13248052779E+04  0.80009502769E+03 0.  0.
        3    1    3    3  502    0 -0.25793283261E+03 -0.12264099357E+03 -0.64130281946E+02  0.29271635196E+03  0.10100000352E+00 0. -1.
       -3    1    3    3    0  502  0.25793283261E+03  0.12264099357E+03 -0.99178494721E+03  0.10320889260E+04  0.10100000352E+00 0.  1.
</event>
<event>
 5   0  0.6593118E-04  0.7997612E+03  0.7818609E-02  0.9560363E-01
       -2   -1    0    0    0  501  0.00000000000E+00  0.00000000000E+00  0.11879466247E+03  0.11879466249E+03  0.25500000920E-02 0. -1.
        2   -1    0    0  501    0  0.00000000000E+00  0.00000000000E+00 -0.13460580238E+04  0.13460580238E+04  0.25500000920E-02 0.  1.
    10030    2    1    2    0    0  0.00000000000E+00  0.00000000000E+00 -0.12272633614E+04  0.14648526863E+04  0.79976123593E+03 0.  0.
        1    1    3    3  502    0 -0.17422069687E+03 -0.24190586843E+03 -0.12546929070E+03  0.32344063340E+03  0.50400001928E-02 0. -1.
       -1    1    3    3    0  502  0.17422069687E+03  0.24190586843E+03 -0.11017940706E+04  0.11414120529E+04  0.50400001928E-02 0.  1.
</event>
<event>
 5   0  0.6672462E-04  0.7999907E+03  0.7818609E-02  0.9560031E-01
       -2   -1    0    0    0  501  0.00000000000E+00  0.00000000000E+00  0.17033042979E+03  0.17033042981E+03  0.25500000920E-02 0. -1.
        2   -1    0    0  501    0  0.00000000000E+00  0.00000000000E+00 -0.93932889392E+03  0.93932889392E+03  0.25500000920E-02 0.  1.
    10030    2    1    2    0    0  0.00000000000E+00  0.00000000000E+00 -0.76899846413E+03  0.11096593237E+04  0.79999073551E+03 0.  0.
        5    1    3    3  502    0 -0.35883573488E+03 -0.13882670273E+03 -0.23294246292E+03  0.44980019903E+03  0.46999998093E+01 0. -1.
       -5    1    3    3    0  502  0.35883573488E+03  0.13882670273E+03 -0.53605600120E+03  0.65985912470E+03  0.46999998093E+01 0.  1.
</event>
<event>
 5   0  0.4169155E-04  0.8000188E+03  0.7818609E-02  0.9559990E-01
        1   -1    0    0  501    0  0.00000000000E+00  0.00000000000E+00  0.11413828237E+03  0.11413828248E+03  0.50400001928E-02 0.  1.
       -1   -1    0    0    0  501  0.00000000000E+00  0.00000000000E+00 -0.14018744064E+04  0.14018744064E+04  0.50400001928E-02 0. -1.
    10030    2    1    2    0    0  0.00000000000E+00  0.00000000000E+00 -0.12877361240E+04  0.15160126889E+04  0.80001884213E+03 0.  0.
        4    1    3    3  502    0 -0.10001728788E+02  0.31438946553E+03 -0.17559481478E+03  0.36024425394E+03  0.12699999809E+01 0. -1.
       -4    1    3    3    0  502  0.10001728788E+02 -0.31438946553E+03 -0.11121413092E+04  0.11557684350E+04  0.12699999809E+01 0.  1.
</event>
<event>
 5   0  0.4104786E-04  0.8003964E+03  0.7818609E-02  0.9559444E-01
        1   -1    0    0  501    0  0.00000000000E+00  0.00000000000E+00  0.69569392099E+03  0.69569392101E+03  0.50400001928E-02 0.  1.
       -1   -1    0    0    0  501  0.00000000000E+00  0.00000000000E+00 -0.23021416605E+03  0.23021416611E+03  0.50400001928E-02 0. -1.
    10030    2    1    2    0    0  0.00000000000E+00  0.00000000000E+00  0.46547975493E+03  0.92590808711E+03  0.80039639150E+03 0.  0.
        2    1    3    3  502    0  0.19833025326E+03  0.17124381092E+03  0.58266212495E+03  0.63886969250E+03  0.25500000920E-02 0.  1.
       -2    1    3    3    0  502 -0.19833025326E+03 -0.17124381092E+03 -0.11718237001E+03  0.28703839462E+03  0.25500000920E-02 0. -1.
</event>
<event>
 5   0  0.4104786E-04  0.8001581E+03  0.7818609E-02  0.9559788E-01
       -1   -1    0    0    0  501  0.00000000000E+00  0.00000000000E+00  0.13278168743E+03  0.13278168753E+03  0.50400001928E-02 0. -1.
        1   -1    0    0  501    0  0.00000000000E+00  0.00000000000E+00 -0.12054617550E+04  0.12054617551E+04  0.50400001928E-02 0.  1.
    10030    2    1    2    0    0  0.00000000000E+00  0.00000000000E+00 -0.10726800676E+04  0.13382434426E+04  0.80015809949E+03 0.  0.
        2    1    3    3  502    0  0.39882826794E+02  0.25991034687E+03 -0.32042129259E+02  0.26489757707E+03  0.25500000920E-02 0. -1.
       -2    1    3    3    0  502 -0.39882826794E+02 -0.25991034687E+03 -0.10406379383E+04  0.10733458655E+04  0.25500000920E-02 0.  1.
</event>
<event>
 5   0  0.4086111E-04  0.7999000E+03  0.7818609E-02  0.9560162E-01
       -1   -1    0    0    0  501  0.00000000000E+00  0.00000000000E+00  0.11696872830E+03  0.11696872841E+03  0.50400001928E-02 0.  1.
        1   -1    0    0  501    0  0.00000000000E+00  0.00000000000E+00 -0.13675449973E+04  0.13675449973E+04  0.50400001928E-02 0. -1.
    10030    2    1    2    0    0  0.00000000000E+00  0.00000000000E+00 -0.12505762690E+04  0.14845137257E+04  0.79989999205E+03 0.  0.
        3    1    3    3  502    0 -0.22664974292E+03 -0.70820576244E+02 -0.28012787284E+02  0.23910329658E+03  0.10100000352E+00 0.  1.
       -3    1    3    3    0  502  0.22664974292E+03  0.70820576244E+02 -0.12225634817E+04  0.12454104292E+04  0.10100000352E+00 0. -1.
</event>
<event>
 5   0  0.4104786E-04  0.7998989E+03  0.7818609E-02  0.9560163E-01
        1   -1    0    0  501    0  0.00000000000E+00  0.00000000000E+00  0.30441140143E+03  0.30441140147E+03  0.50400001928E-02 0.  1.
       -1   -1    0    0    0  501  0.00000000000E+00  0.00000000000E+00 -0.52547170806E+03  0.52547170808E+03  0.50400001928E-02 0. -1.
    10030    2    1    2    0    0  0.00000000000E+00  0.00000000000E+00 -0.22106030663E+03  0.82988310955E+03  0.79989894134E+03 0.  0.
        2    1    3    3  502    0  0.84503374452E+02 -0.80836022320E+02 -0.50733837045E+03  0.52064143605E+03  0.25500000920E-02 0. -1.
       -2    1    3    3    0  502 -0.84503374452E+02  0.80836022320E+02  0.28627806382E+03  0.30924167350E+03  0.25500000920E-02 0.  1.
</event>
<event>
 5   0  0.7133039E-04  0.8000193E+03  0.7818609E-02  0.9559989E-01
        2   -1    0    0  501    0  0.00000000000E+00  0.00000000000E+00  0.35681461151E+03  0.35681461152E+03  0.25500000920E-02 0. -1.
       -2   -1    0    0    0  501  0.00000000000E+00  0.00000000000E+00 -0.44843381946E+03  0.44843381947E+03  0.25500000920E-02 0.  1.
    10030    2    1    2    0    0  0.00000000000E+00  0.00000000000E+00 -0.91619207950E+02  0.80524843099E+03  0.80001934748E+03 0.  0.
        2    1    3    3  502    0  0.35170339044E+03  0.37588095731E+02  0.14222579570E+03  0.38123000506E+03  0.25500000920E-02 0.  1.
       -2    1    3    3    0  502 -0.35170339044E+03 -0.37588095731E+02 -0.23384500365E+03  0.42401842593E+03  0.25500000920E-02 0. -1.
</event>
<event>
 5   0  0.7133039E-04  0.8000724E+03  0.7818609E-02  0.9559912E-01
       -2   -1    0    0    0  501  0.00000000000E+00  0.00000000000E+00  0.11646754700E+03  0.11646754703E+03  0.25500000920E-02 0. -1.
        2   -1    0    0  501    0  0.00000000000E+00  0.00000000000E+00 -0.13740218573E+04  0.13740218573E+04  0.25500000920E-02 0.  1.
    10030    2    1    2    0    0  0.00000000000E+00  0.00000000000E+00 -0.12575543103E+04  0.14904894043E+04  0.80007238490E+03 0.  0.
        2    1    3    3  502    0 -0.95079239434E+02 -0.24926926578E+03 -0.11840896380E+04  0.12137724249E+04  0.25500000920E-02 0.  1.
       -2    1    3    3    0  502  0.95079239434E+02  0.24926926578E+03 -0.73464672328E+02  0.27671697946E+03  0.25500000920E-02 0. -1.
</event>
<event>
 5   0  0.6970013E-04  0.8001958E+03  0.7818609E-02  0.9559734E-01
        2   -1    0    0  501    0  0.00000000000E+00  0.00000000000E+00  0.44981386120E+03  0.44981386121E+03  0.25500000920E-02 0. -1.
       -2   -1    0    0    0  501  0.00000000000E+00  0.00000000000E+00 -0.35587684239E+03  0.35587684240E+03  0.25500000920E-02 0.  1.
    10030    2    1    2    0    0  0.00000000000E+00  0.00000000000E+00  0.93937018810E+02  0.80569070360E+03  0.80019581751E+03 0.  0.
        3    1    3    3  502    0 -0.22986949165E+03  0.13871778439E+03 -0.25170922533E+03  0.36802194393E+03  0.10100000352E+00 0.  1.
       -3    1    3    3    0  502  0.22986949165E+03 -0.13871778439E+03  0.34564624414E+03  0.43766875967E+03  0.10100000352E+00 0. -1.
</event>
<event>
 5   0  0.2736375E-04  0.7984546E+03  0.7818609E-02  0.9562257E-01
        3   -1    0    0  501    0  0.00000000000E+00  0.00000000000E+00  0.22074447325E+03  0.22074449636E+03  0.10100000352E+00 0.  1.
       -3   -1    0    0    0  501  0.00000000000E+00  0.00000000000E+00 -0.72202218024E+03  0.72202218730E+03  0.10100000352E+00 0. -1.
    10030    2    1    2    0    0  0.00000000000E+00  0.00000000000E+00 -0.50127770699E+03  0.94276668366E+03  0.79845455744E+03 0.  0.
        1    1    3    3  502    0  0.65217456728E+02  0.37916195452E+03 -0.12476232037E+03  0.40445363273E+03  0.50400001928E-02 0.  1.
       -1    1    3    3    0  502 -0.65217456728E+02 -0.37916195452E+03 -0.37651538661E+03  0.53831305093E+03  0.50400001928E-02 0. -1.
</event>
<event>
 5   0  0.4169155E-04  0.7997183E+03  0.7818609E-02  0.9560425E-01
        1   -1    0    0  501    0  0.00000000000E+00  0.00000000000E+00  0.13941408142E+04  0.13941408142E+04  0.50400001928E-02 0.  1.
       -1   -1    0    0    0  501  0.00000000000E+00  0.00000000000E+00 -0.11468520373E+03  0.11468520384E+03  0.50400001928E-02 0. -1.
    10030    2    1    2    0    0  0.00000000000E+00  0.00000000000E+00  0.12794556105E+04  0.15088260181E+04  0.79971825887E+03 0.  0.
        4    1    3    3  502    0 -0.16552598407E+03 -0.13381133845E+03  0.10832911791E+01  0.21285467371E+03  0.12699999809E+01 0. -1.
       -4    1    3    3    0  502  0.16552598407E+03  0.13381133845E+03  0.12783723193E+04  0.12959713443E+04  0.12699999809E+01 0.  1.
</event>
<event>
 5   0  0.4104786E-04  0.8032166E+03  0.7818609E-02  0.9555373E-01
        1   -1    0    0  501    0  0.00000000000E+00  0.00000000000E+00  0.30687201912E+03  0.30687201916E+03  0.50400001928E-02 0.  1.
       -1   -1    0    0    0  501  0.00000000000E+00  0.00000000000E+00 -0.52559116727E+03  0.52559116729E+03  0.50400001928E-02 0. -1.
    10030    2    1    2    0    0  0.00000000000E+00  0.00000000000E+00 -0.21871914815E+03  0.83246318646E+03  0.80321659037E+03 0.  0.
        2    1    3    3  502    0 -0.22820183980E+03 -0.10657282775E+03 -0.43356830830E+03  0.50141332778E+03  0.25500000920E-02 0. -1.
       -2    1    3    3    0  502  0.22820183980E+03  0.10657282775E+03  0.21484916015E+03  0.33104985868E+03  0.25500000920E-02 0.  1.
</event>
<event>
 5   0  0.2736375E-04  0.7999975E+03  0.7818609E-02  0.9560021E-01
       -3   -1    0    0    0  501  0.00000000000E+00  0.00000000000E+00  0.52546887699E+03  0.52546888669E+03  0.10100000352E+00 0.  1.
        3   -1    0    0  501    0  0.00000000000E+00  0.00000000000E+00 -0.30448800998E+03  0.30448802673E+03  0.10100000352E+00 0. -1.
    10030    2    1    2    0    0  0.00000000000E+00  0.00000000000E+00  0.22098086700E+03  0.82995691343E+03  0.79999745910E+03 0.  0.
        5    1    3    3  502    0 -0.69882112829E+02 -0.22173393394E+03 -0.22716301601E+03  0.32507625720E+03  0.46999998093E+01 0. -1.
       -5    1    3    3    0  502  0.69882112829E+02  0.22173393394E+03  0.44814388301E+03  0.50488065623E+03  0.46999998093E+01 0.  1.
</event>
<event>
 5   0  0.4104786E-04  0.8001935E+03  0.7818609E-02  0.9559737E-01
        1   -1    0    0  501    0  0.00000000000E+00  0.00000000000E+00  0.11754688420E+03  0.11754688431E+03  0.50400001928E-02 0.  1.
       -1   -1    0    0    0  501  0.00000000000E+00  0.00000000000E+00 -0.13618173865E+04  0.13618173865E+04  0.50400001928E-02 0. -1.
    10030    2    1    2    0    0  0.00000000000E+00  0.00000000000E+00 -0.12442705023E+04  0.14793642708E+04  0.80019345341E+03 0.  0.
        2    1    3    3  502    0 -0.66381957420E+02 -0.24207110712E+03 -0.11981426043E+04  0.12241530482E+04  0.25500000920E-02 0. -1.
       -2    1    3    3    0  502  0.66381957420E+02  0.24207110712E+03 -0.46127898016E+02  0.25521122263E+03  0.25500000920E-02 0.  1.
</event>
<event>
 5   0  0.6970013E-04  0.7993445E+03  0.7818609E-02  0.9560966E-01
        2   -1    0    0  501    0  0.00000000000E+00  0.00000000000E+00  0.39932561562E+03  0.39932561563E+03  0.25500000920E-02 0.  1.
       -2   -1    0    0    0  501  0.00000000000E+00  0.00000000000E+00 -0.40001917533E+03  0.40001917534E+03  0.25500000920E-02 0. -1.
    10030    2    1    2    0    0  0.00000000000E+00  0.00000000000E+00 -0.69355970260E+00  0.79934479097E+03  0.79934449008E+03 0.  0.
        3    1    3    3  502    0  0.30196102016E+03 -0.60468747054E+02  0.25440999640E+03  0.39945135316E+03  0.10100000352E+00 0.  1.
       -3    1    3    3    0  502 -0.30196102016E+03  0.60468747054E+02 -0.25510355611E+03  0.39989343781E+03  0.10100000352E+00 0. -1.
</event>
<event>
 5   0  0.7133039E-04  0.8002403E+03  0.7818609E-02  0.9559669E-01
       -2   -1    0    0    0  501  0.00000000000E+00  0.00000000000E+00  0.27958894438E+03  0.27958894439E+03  0.25500000920E-02 0.  1.
        2   -1    0    0  501    0  0.00000000000E+00  0.00000000000E+00 -0.57261249213E+03  0.57261249214E+03  0.25500000920E-02 0. -1.
    10030    2    1    2    0    0  0.00000000000E+00  0.00000000000E+00 -0.29302354775E+03  0.85220143653E+03  0.80024026947E+03 0.  0.
        2    1    3    3  502    0  0.28598724310E+03  0.13481770219E+03  0.11462814335E+03  0.33630957063E+03  0.25500000920E-02 0.  1.
       -2    1    3    3    0  502 -0.28598724310E+03 -0.13481770219E+03 -0.40765169110E+03  0.51589186590E+03  0.25500000920E-02 0. -1.
</event>
<event>
 5   0  0.7133039E-04  0.7995671E+03  0.7818609E-02  0.9560644E-01
        2   -1    0    0  501    0  0.00000000000E+00  0.00000000000E+00  0.50502114390E+03  0.50502114390E+03  0.25500000920E-02 0.  1.
       -2   -1    0    0    0  501  0.00000000000E+00  0.00000000000E+00 -0.31647562003E+03  0.31647562004E+03  0.25500000920E-02 0. -1.
    10030    2    1    2    0    0  0.00000000000E+00  0.00000000000E+00  0.18854552387E+03  0.82149676394E+03  0.79956708199E+03 0.  0.
        2    1    3    3  502    0 -0.34022496965E+03  0.41417308310E+02  0.30572924897E+03  0.45928073885E+03  0.25500000920E-02 0.  1.
       -2    1    3    3    0  502  0.34022496965E+03 -0.41417308310E+02 -0.11718372510E+03  0.36221602509E+03  0.25500000920E-02 0. -1.
</event>
<event>
 5   0  0.4104786E-04  0.8001967E+03  0.7818609E-02  0.9559732E-01
        1   -1    0    0  501    0  0.00000000000E+00  0.00000000000E+00  0.93088000816E+03  0.93088000817E+03  0.50400001928E-02 0. -1.
       -1   -1    0    0    0  501  0.00000000000E+00  0.00000000000E+00 -0.17196490502E+03  0.17196490509E+03  0.50400001928E-02 0.  1.
    10030    2    1    2    0    0  0.00000000000E+00  0.00000000000E+00  0.75891510314E+03  0.11028449133E+04  0.80019670640E+03 0.  0.
        2    1    3    3  502    0 -0.29570229709E+03 -0.94517234896E+02  0.31596672336E+02  0.31204439733E+03  0.25500000920E-02 0.  1.
       -2    1    3    3    0  502  0.29570229709E+03  0.94517234896E+02  0.72731843081E+03  0.79080051593E+03  0.25500000920E-02 0. -1.
</event>
<event>
 5   0  0.4392552E-04  0.8000738E+03  0.7818609E-02  0.9559910E-01
       -1   -1    0    0    0  501  0.00000000000E+00  0.00000000000E+00  0.12645440571E+03  0.12645440581E+03  0.50400001928E-02 0.  1.
        1   -1    0    0  501    0  0.00000000000E+00  0.00000000000E+00 -0.12655115542E+04  0.12655115542E+04  0.50400001928E-02 0. -1.
    10030    2    1    2    0    0  0.00000000000E+00  0.00000000000E+00 -0.11390571485E+04  0.13919659600E+04  0.80007377556E+03 0.  0.
        5    1    3    3  502    0 -0.27038821062E+03  0.26986371326E+03 -0.77590702798E+03  0.86486415942E+03  0.46999998093E+01 0. -1.
       -5    1    3    3    0  502  0.27038821062E+03 -0.26986371326E+03 -0.36315012051E+03  0.52710180061E+03  0.46999998093E+01 0.  1.
</event>
<event>
 5   0  0.6593118E-04  0.7999988E+03  0.7818609E-02  0.9560019E-01
        2   -1    0    0  501    0  0.00000000000E+00  0.00000000000E+00  0.18021279840E+04  0.18021279840E+04  0.25500000920E-02 0.  1.
       -2   -1    0    0    0  501  0.00000000000E+00  0.00000000000E+00 -0.88783664876E+02  0.88783664913E+02  0.25500000920E-02 0. -1.
    10030    2    1    2    0    0  0.00000000000E+00  0.00000000000E+00  0.17133443191E+04  0.18909116489E+04  0.79999881758E+03 0.  0.
        1    1    3    3  502    0 -0.59816799941E+02  0.39514414827E+03  0.81693907807E+03  0.90945390470E+03  0.50400001928E-02 0.  1.
       -1    1    3    3    0  502  0.59816799941E+02 -0.39514414827E+03  0.89640524106E+03  0.98145774422E+03  0.50400001928E-02 0. -1.
</event>
<event>
 5   0  0.6970013E-04  0.8002322E+03  0.7818609E-02  0.9559681E-01
       -2   -1    0    0    0  501  0.00000000000E+00  0.00000000000E+00  0.18574633838E+03  0.18574633839E+03  0.25500000920E-02 0. -1.
        2   -1    0    0  501    0  0.00000000000E+00  0.00000000000E+00 -0.86188997134E+03  0.86188997135E+03  0.25500000920E-02 0.  1.
    10030    2    1    2    0    0  0.00000000000E+00  0.00000000000E+00 -0.67614363297E+03  0.10476363097E+04  0.80023223197E+03 0.  0.
        3    1    3    3  502    0 -0.18719963686E+03  0.10972728265E+03 -0.77817168613E+03  0.80785825730E+03  0.10100000352E+00 0.  1.
       -3    1    3    3    0  502  0.18719963686E+03 -0.10972728265E+03  0.10202805316E+03  0.23977805244E+03  0.10100000352E+00 0. -1.
</event>
<event>
 5   0  0.2736375E-04  0.7998030E+03  0.7818609E-02  0.9560302E-01
       -4   -1    0    0    0  501  0.00000000000E+00  0.00000000000E+00  0.13563649124E+03  0.13564243679E+03  0.12699999809E+01 0.  1.
        4   -1    0    0  501    0  0.00000000000E+00  0.00000000000E+00 -0.11790105900E+04  0.11790112740E+04  0.12699999809E+01 0. -1.
    10030    2    1    2    0    0  0.00000000000E+00  0.00000000000E+00 -0.10433740987E+04  0.13146537108E+04  0.79980301908E+03 0.  0.
        4    1    3    3  502    0 -0.35446271999E+03 -0.16949607893E+03 -0.64410696709E+03  0.75448534683E+03  0.12699999809E+01 0. -1.
       -4    1    3    3    0  502  0.35446271999E+03  0.16949607893E+03 -0.39926713165E+03  0.56016836394E+03  0.12699999809E+01 0.  1.
</event>
<event>
 5   0  0.6970013E-04  0.7996538E+03  0.7818609E-02  0.9560518E-01
       -2   -1    0    0    0  501  0.00000000000E+00  0.00000000000E+00  0.82090926148E+02  0.82090926187E+02  0.25500000920E-02 0. -1.
        2   -1    0    0  501    0  0.00000000000E+00  0.00000000000E+00 -0.19473716187E+04  0.19473716187E+04  0.25500000920E-02 0.  1.
    10030    2    1    2    0    0  0.00000000000E+00  0.00000000000E+00 -0.18652806926E+04  0.20294625449E+04  0.79965377452E+03 0.  0.
        3    1    3    3  502    0 -0.26065641840E+03  0.16068277832E+03 -0.28013747645E+03  0.41501534864E+03  0.10100000352E+00 0. -1.
       -3    1    3    3    0  502  0.26065641840E+03 -0.16068277832E+03 -0.15851432161E+04  0.16144471962E+04  0.10100000352E+00 0.  1.
</event>
<event>
 5   0  0.7133039E-04  0.7998904E+03  0.7818609E-02  0.9560176E-01
       -2   -1    0    0    0  501  0.00000000000E+00  0.00000000000E+00  0.23648894132E+03  0.23648894133E+03  0.25500000920E-02 0.  1.
        2   -1    0    0  501    0  0.00000000000E+00  0.00000000000E+00 -0.67637904581E+03  0.67637904581E+03  0.25500000920E-02 0. -1.
    10030    2    1    2    0    0  0.00000000000E+00  0.00000000000E+00 -0.43989010449E+03  0.91286798714E+03  0.79989040369E+03 0.  0.
        2    1    3    3  502    0  0.29508764009E+03  0.81517331084E+01 -0.52789628603E+03  0.60482861614E+03  0.25500000920E-02 0. -1.
       -2    1    3    3    0  502 -0.29508764009E+03 -0.81517331084E+01  0.88006181545E+02  0.30803937100E+03  0.25500000920E-02 0.  1.
</event>
<event>
 5   0  0.6970013E-04  0.8001007E+03  0.7818609E-02  0.9559871E-01
        2   -1    0    0  501    0  0.00000000000E+00  0.00000000000E+00  0.91371275967E+03  0.91371275968E+03  0.25500000920E-02 0. -1.
       -2   -1    0    0    0  501  0.00000000000E+00  0.00000000000E+00 -0.17515380940E+03  0.17515380942E+03  0.25500000920E-02 0.  1.
    10030    2    1    2    0    0  0.00000000000E+00  0.00000000000E+00  0.73855895027E+03  0.10888665691E+04  0.80010067008E+03 0.  0.
        3    1    3    3  502    0  0.25442314559E+03 -0.13519215181E+02  0.78901956975E+03  0.82913557265E+03  0.10100000352E+00 0. -1.
       -3    1    3    3    0  502 -0.25442314559E+03  0.13519215181E+02 -0.50460619477E+02  0.25973099644E+03  0.10100000352E+00 0.  1.
</event>
<event>
 5   0  0.4086111E-04  0.7998629E+03  0.7818609E-02  0.9560216E-01
        1   -1    0    0  501    0  0.00000000000E+00  0.00000000000E+00  0.13679268602E+04  0.13679268602E+04  0.50400001928E-02 0. -1.
       -1   -1    0    0    0  501  0.00000000000E+00  0.00000000000E+00 -0.11692523882E+03  0.11692523893E+03  0.50400001928E-02 0.  1.
    10030    2    1    2    0    0  0.00000000000E+00  0.00000000000E+00  0.12510016214E+04  0.14848520991E+04  0.79986292551E+03 0.  0.
        3    1    3    3  502    0  0.88317666498E+02 -0.31101836499E+03  0.10624917254E+04  0.11105949353E+04  0.10100000352E+00 0. -1.
       -3    1    3    3    0  502 -0.88317666498E+02  0.31101836499E+03  0.18850989591E+03  0.37425716377E+03  0.10100000352E+00 0.  1.
</event>
<event>
 5   0  0.4392552E-04  0.8001230E+03  0.7818609E-02  0.9559839E-01
       -1   -1    0    0    0  501  0.00000000000E+00  0.00000000000E+00  0.50673292106E+03  0.50673292108E+03  0.50400001928E-02 0.  1.
        1   -1    0    0  501    0  0.00000000000E+00  0.00000000000E+00 -0.31584526330E+03  0.31584526334E+03  0.50400001928E-02 0. -1.
    10030    2    1    2    0    0  0.00000000000E+00  0.00000000000E+00  0.19088765775E+03  0.82257818443E+03  0.80012297281E+03 0.  0.
        5    1    3    3  502    0 -0.33775757688E+03 -0.19555212261E+03  0.18569297630E+03  0.43223232739E+03  0.46999998093E+01 0.  1.
       -5    1    3    3    0  502  0.33775757688E+03  0.19555212261E+03  0.51946814556E+01  0.39034585704E+03  0.46999998093E+01 0. -1.
</event>
<event>
 5   0  0.6593118E-04  0.8009693E+03  0.7818609E-02  0.9558615E-01
        2   -1    0    0  501    0  0.00000000000E+00  0.00000000000E+00  0.12620775872E+04  0.12620775872E+04  0.25500000920E-02 0.  1.
       -2   -1    0    0    0  501  0.00000000000E+00  0.00000000000E+00 -0.12708249044E+03  0.12708249047E+03  0.25500000920E-02 0. -1.
    10030    2    1    2    0    0  0.00000000000E+00  0.00000000000E+00  0.11349950967E+04  0.13891600776E+04  0.80096932008E+03 0.  0.
        1    1    3    3  502    0 -0.28721609000E+03 -0.14162184634E+03  0.98460077159E+03  0.10353687793E+04  0.50400001928E-02 0.  1.
       -1    1    3    3    0  502  0.28721609000E+03  0.14162184634E+03  0.15039432512E+03  0.35379129833E+03  0.50400001928E-02 0. -1.
</event>
<event>
 5   0  0.4104786E-04  0.8000005E+03  0.7818609E-02  0.9560016E-01
        1   -1    0    0  501    0  0.00000000000E+00  0.00000000000E+00  0.14721343303E+04  0.14721343303E+04  0.50400001928E-02 0.  1.
       -1   -1    0    0    0  501  0.00000000000E+00  0.00000000000E+00 -0.10868586890E+03  0.10868586902E+03  0.50400001928E-02 0. -1.
    10030    2    1    2    0    0  0.00000000000E+00  0.00000000000E+00  0.13634484614E+04  0.15808201993E+04  0.80000049730E+03 0.  0.
        2    1    3    3  502    0 -0.12431419713E+03 -0.29710411447E+03  0.21296349901E+03  0.38610662564E+03  0.25500000920E-02 0. -1.
       -2    1    3    3    0  502  0.12431419713E+03  0.29710411447E+03  0.11504849624E+04  0.11947135737E+04  0.25500000920E-02 0.  1.
</event>
<event>
 5   0  0.7133039E-04  0.8006544E+03  0.7818609E-02  0.9559070E-01
       -2   -1    0    0    0  501  0.00000000000E+00  0.00000000000E+00  0.32911131606E+03  0.32911131607E+03  0.25500000920E-02 0. -1.
        2   -1    0    0  501    0  0.00000000000E+00  0.00000000000E+00 -0.48695340487E+03  0.48695340487E+03  0.25500000920E-02 0.  1.
    10030    2    1    2    0    0  0.00000000000E+00  0.00000000000E+00 -0.15784208880E+03  0.81606472095E+03  0.80065442219E+03 0.  0.
        2    1    3    3  502    0  0.37211980885E+03  0.11929314974E+03  0.96882247430E+01  0.39089368045E+03  0.25500000920E-02 0. -1.
       -2    1    3    3    0  502 -0.37211980885E+03 -0.11929314974E+03 -0.16753031355E+03  0.42517104050E+03  0.25500000920E-02 0.  1.
</event>
<event>
 5   0  0.4087283E-04  0.8001430E+03  0.7818609E-02  0.9559810E-01
        1   -1    0    0  501    0  0.00000000000E+00  0.00000000000E+00  0.13426709775E+04  0.13426709775E+04  0.50400001928E-02 0. -1.
       -1   -1    0    0    0  501  0.00000000000E+00  0.00000000000E+00 -0.11920807531E+03  0.11920807542E+03  0.50400001928E-02 0.  1.
    10030    2    1    2    0    0  0.00000000000E+00  0.00000000000E+00  0.12234629022E+04  0.14618790530E+04  0.80014304495E+03 0.  0.
        1    1    3    3  502    0  0.10840854179E+03 -0.39258882766E+01  0.13152877579E+04  0.13197536552E+04  0.50400001928E-02 0. -1.
       -1    1    3    3    0  502 -0.10840854179E+03  0.39258882766E+01 -0.91824855653E+02  0.14212539771E+03  0.50400001928E-02 0.  1.
</event>
<event>
 5   0  0.6801147E-04  0.7999979E+03  0.7818609E-02  0.9560020E-01
       -2   -1    0    0    0  501  0.00000000000E+00  0.00000000000E+00  0.15204653525E+03  0.15204653528E+03  0.25500000920E-02 0. -1.
        2   -1    0    0  501    0  0.00000000000E+00  0.00000000000E+00 -0.10523038619E+04  0.10523038619E+04  0.25500000920E-02 0.  1.
    10030    2    1    2    0    0  0.00000000000E+00  0.00000000000E+00 -0.90025732669E+03  0.12043503972E+04  0.79999789064E+03 0.  0.
        4    1    3    3  502    0  0.32567759146E+01 -0.81745138272E+02  0.13931419396E+03  0.16156401753E+03  0.12699999809E+01 0. -1.
       -4    1    3    3    0  502 -0.32567759146E+01  0.81745138272E+02 -0.10395715206E+04  0.10427863797E+04  0.12699999809E+01 0.  1.
</event>
<event>
 5   0  0.4169155E-04  0.7997003E+03  0.7818609E-02  0.9560451E-01
       -1   -1    0    0    0  501  0.00000000000E+00  0.00000000000E+00  0.34914775047E+03  0.34914775051E+03  0.50400001928E-02 0.  1.
        1   -1    0    0  501    0  0.00000000000E+00  0.00000000000E+00 -0.45791537771E+03  0.45791537774E+03  0.50400001928E-02 0. -1.
    10030    2    1    2    0    0  0.00000000000E+00  0.00000000000E+00 -0.10876762724E+03  0.80706312825E+03  0.79970025399E+03 0.  0.
        4    1    3    3  502    0 -0.14585885408E+03 -0.26177781564E+03 -0.32153996332E+03  0.43953610886E+03  0.12699999809E+01 0. -1.
       -4    1    3    3    0  502  0.14585885408E+03  0.26177781564E+03  0.21277233608E+03  0.36752701939E+03  0.12699999809E+01 0.  1.
</event>
<event>
 5   0  0.6672462E-04  0.8003742E+03  0.7818609E-02  0.9559476E-01
       -2   -1    0    0    0  501  0.00000000000E+00  0.00000000000E+00  0.73331313149E+02  0.73331313193E+02  0.25500000920E-02 0. -1.
        2   -1    0    0  501    0  0.00000000000E+00  0.00000000000E+00 -0.21839197246E+04  0.21839197246E+04  0.25500000920E-02 0.  1.
    10030    2    1    2    0    0  0.00000000000E+00  0.00000000000E+00 -0.21105884115E+04  0.22572510378E+04  0.80037416568E+03 0.  0.
        5    1    3    3  502    0  0.28062526389E+03 -0.12649927831E+03 -0.33419890191E+03  0.45438266052E+03  0.46999998093E+01 0. -1.
       -5    1    3    3    0  502 -0.28062526389E+03  0.12649927831E+03 -0.17763895096E+04  0.18028683773E+04  0.46999998093E+01 0.  1.
</event>
<event>
 5   0  0.4104786E-04  0.7999176E+03  0.7818609E-02  0.9560136E-01
       -1   -1    0    0    0  501  0.00000000000E+00  0.00000000000E+00  0.11411461204E+03  0.11411461215E+03  0.50400001928E-02 0. -1.
        1   -1    0    0  501    0  0.00000000000E+00  0.00000000000E+00 -0.14018101955E+04  0.14018101955E+04  0.50400001928E-02 0.  1.
    10030    2    1    2    0    0  0.00000000000E+00  0.00000000000E+00 -0.12876955834E+04  0.15159248076E+04  0.79991756251E+03 0.  0.
        2    1    3    3  502    0  0.35990712921E+03  0.13568887691E+02 -0.97345254714E+03  0.10379436969E+04  0.25500000920E-02 0.  1.
       -2    1    3    3    0  502 -0.35990712921E+03 -0.13568887691E+02 -0.31424303628E+03  0.47798111074E+03  0.25500000920E-02 0. -1.
</event>
<event>
 5   0  0.4086111E-04  0.7997799E+03  0.7818609E-02  0.9560336E-01
        1   -1    0    0  501    0  0.00000000000E+00  0.00000000000E+00  0.84527063375E+03  0.84527063376E+03  0.50400001928E-02 0. -1.
       -1   -1    0    0    0  501  0.00000000000E+00  0.00000000000E+00 -0.18918435191E+03  0.18918435198E+03  0.50400001928E-02 0.  1.
    10030    2    1    2    0    0  0.00000000000E+00  0.00000000000E+00  0.65608628184E+03  0.10344549857E+04  0.79977991242E+03 0.  0.
        3    1    3    3  502    0  0.23992521507E+03 -0.27930424714E+03  0.12626478147E+03  0.38925284397E+03  0.10100000352E+00 0.  1.
       -3    1    3    3    0  502 -0.23992521507E+03  0.27930424714E+03  0.52982150037E+03  0.64520214177E+03  0.10100000352E+00 0. -1.
</event>
<event>
 5   0  0.6593118E-04  0.7995593E+03  0.7818609E-02  0.9560655E-01
       -2   -1    0    0    0  501  0.00000000000E+00  0.00000000000E+00  0.53243908353E+02  0.53243908414E+02  0.25500000920E-02 0.  1.
        2   -1    0    0  501    0  0.00000000000E+00  0.00000000000E+00 -0.30017283891E+04  0.30017283891E+04  0.25500000920E-02 0. -1.
    10030    2    1    2    0    0  0.00000000000E+00  0.00000000000E+00 -0.29484844808E+04  0.30549722975E+04  0.79955925696E+03 0.  0.
        1    1    3    3  502    0 -0.18332405271E+03 -0.30489695568E+03 -0.77749084857E+03  0.85502156787E+03  0.50400001928E-02 0.  1.
       -1    1    3    3    0  502  0.18332405271E+03  0.30489695568E+03 -0.21709936322E+04  0.21999507297E+04  0.50400001928E-02 0. -1.
</event>
<event>
 5   0  0.4086111E-04  0.8003739E+03  0.7818609E-02  0.9559476E-01
        1   -1    0    0  501    0  0.00000000000E+00  0.00000000000E+00  0.44090128634E+03  0.44090128637E+03  0.50400001928E-02 0. -1.
       -1   -1    0    0    0  501  0.00000000000E+00  0.00000000000E+00 -0.36323234728E+03  0.36323234731E+03  0.50400001928E-02 0.  1.
    10030    2    1    2    0    0  0.00000000000E+00  0.00000000000E+00  0.77668939061E+02  0.80413363368E+03  0.80037393556E+03 0.  0.
        3    1    3    3  502    0 -0.39780864191E+03 -0.26651460248E+02  0.73457676279E+02  0.40541097212E+03  0.10100000352E+00 0. -1.
       -3    1    3    3    0  502  0.39780864191E+03  0.26651460248E+02  0.42112627822E+01  0.39872266156E+03  0.10100000352E+00 0.  1.
</event>
<event>
 5   0  0.6593118E-04  0.8000014E+03  0.7818609E-02  0.9560015E-01
        2   -1    0    0  501    0  0.00000000000E+00  0.00000000000E+00  0.22041132998E+04  0.22041132998E+04  0.25500000920E-02 0. -1.
       -2   -1    0    0    0  501  0.00000000000E+00  0.00000000000E+00 -0.72591808161E+02  0.72591808206E+02  0.25500000920E-02 0.  1.
    10030    2    1    2    0    0  0.00000000000E+00  0.00000000000E+00  0.21315214916E+04  0.22767051080E+04  0.80000142468E+03 0.  0.
        1    1    3    3  502    0 -0.95744453255E+02  0.37707419627E+03  0.13304214294E+04  0.13861360430E+04  0.50400001928E-02 0. -1.
       -1    1    3    3    0  502  0.95744453255E+02 -0.37707419627E+03  0.80110006216E+03  0.89056906494E+03  0.50400001928E-02 0.  1.
</event>
<event>
 5   0  0.4086111E-04  0.8001213E+03  0.7818609E-02  0.9559842E-01
        1   -1    0    0  501    0  0.00000000000E+00  0.00000000000E+00  0.15368540922E+04  0.15368540922E+04  0.50400001928E-02 0.  1.
       -1   -1    0    0    0  501  0.00000000000E+00  0.00000000000E+00 -0.10414035505E+03  0.10414035517E+03  0.50400001928E-02 0. -1.
    10030    2    1    2    0    0  0.00000000000E+00  0.00000000000E+00  0.14327137372E+04  0.16409944474E+04  0.80012131812E+03 0.  0.
        3    1    3    3  502    0 -0.87962243343E+02 -0.16524902845E+03 -0.87684867121E+01  0.18740729500E+03  0.10100000352E+00 0. -1.
       -3    1    3    3    0  502  0.87962243343E+02  0.16524902845E+03  0.14414822239E+04  0.14535871524E+04  0.10100000352E+00 0.  1.
</event>
<event>
 5   0  0.4392552E-04  0.7992672E+03  0.7818609E-02  0.9561078E-01
        1   -1    0    0  501    0  0.00000000000E+00  0.00000000000E+00  0.91595140649E+03  0.91595140651E+03  0.50400001928E-02 0.  1.
       -1   -1    0    0    0  501  0.00000000000E+00  0.00000000000E+00 -0.17436186775E+03  0.17436186782E+03  0.50400001928E-02 0. -1.
    10030    2    1    2    0    0  0.00000000000E+00  0.00000000000E+00  0.74158953875E+03  0.10903132743E+04  0.79926715946E+03 0.  0.
        5    1    3    3  502    0  0.29893066970E+03 -0.23076141696E+03  0.54904648763E+03  0.66639666297E+03  0.46999998093E+01 0.  1.
       -5    1    3    3    0  502 -0.29893066970E+03  0.23076141696E+03  0.19254305112E+03  0.42391661135E+03  0.46999998093E+01 0. -1.
</event>
<event>
 5   0  0.6801147E-04  0.7999543E+03  0.7818609E-02  0.9560083E-01
       -2   -1    0    0    0  501  0.00000000000E+00  0.00000000000E+00  0.53045595225E+03  0.53045595225E+03  0.25500000920E-02 0. -1.
        2   -1    0    0  501    0  0.00000000000E+00  0.00000000000E+00 -0.30159285342E+03  0.30159285343E+03  0.25500000920E-02 0.  1.
    10030    2    1    2    0    0  0.00000000000E+00  0.00000000000E+00  0.22886309883E+03  0.83204880568E+03  0.79995430934E+03 0.  0.
        4    1    3    3  502    0  0.79658229848E+02  0.82462487288E+01  0.52202961373E+03  0.52813820607E+03  0.12699999809E+01 0. -1.
       -4    1    3    3    0  502 -0.79658229848E+02 -0.82462487288E+01 -0.29316651490E+03  0.30391059961E+03  0.12699999809E+01 0.  1.
</event>
<event>
 5   0  0.7133039E-04  0.7963215E+03  0.7818609E-02  0.9565357E-01
        2   -1    0    0  501    0  0.00000000000E+00  0.00000000000E+00  0.85299213964E+03  0.85299213965E+03  0.25500000920E-02 0. -1.
       -2   -1    0    0    0  501  0.00000000000E+00  0.00000000000E+00 -0.18585398121E+03  0.18585398122E+03  0.25500000920E-02 0.  1.
    10030    2    1    2    0    0  0.00000000000E+00  0.00000000000E+00  0.66713815844E+03  0.10388461209E+04  0.79632150568E+03 0.  0.
        2    1    3    3  502    0 -0.48168699047E+02 -0.30178206989E+03  0.66652325619E+03  0.73324340592E+03  0.25500000920E-02 0. -1.
       -2    1    3    3    0  502  0.48168699047E+02  0.30178206989E+03  0.61490224686E+00  0.30560271495E+03  0.25500000920E-02 0.  1.
</event>
<event>
 5   0  0.4169155E-04  0.7975933E+03  0.7818609E-02  0.9563507E-01
       -1   -1    0    0    0  501  0.00000000000E+00  0.00000000000E+00  0.20541513027E+03  0.20541513033E+03  0.50400001928E-02 0.  1.
        1   -1    0    0  501    0  0.00000000000E+00  0.00000000000E+00 -0.77423111114E+03  0.77423111116E+03  0.50400001928E-02 0. -1.
    10030    2    1    2    0    0  0.00000000000E+00  0.00000000000E+00 -0.56881598087E+03  0.97964624149E+03  0.79759334148E+03 0.  0.
        4    1    3    3  502    0  0.38872761527E+03 -0.26447067957E+02 -0.38883523404E+03  0.55045713585E+03  0.12699999809E+01 0. -1.
       -4    1    3    3    0  502 -0.38872761527E+03  0.26447067957E+02 -0.17998074683E+03  0.42918910565E+03  0.12699999809E+01 0.  1.
</event>
<event>
 5   0  0.2736375E-04  0.7998721E+03  0.7818609E-02  0.9560202E-01
       -3   -1    0    0    0  501  0.00000000000E+00  0.00000000000E+00  0.32512034291E+03  0.32512035860E+03  0.10100000352E+00 0.  1.
        3   -1    0    0  501    0  0.00000000000E+00  0.00000000000E+00 -0.49196811987E+03  0.49196813024E+03  0.10100000352E+00 0. -1.
    10030    2    1    2    0    0  0.00000000000E+00  0.00000000000E+00 -0.16684777696E+03  0.81708848884E+03  0.79987212598E+03 0.  0.
        4    1    3    3  502    0  0.20360871622E+03  0.19391871293E+03  0.20710272416E+03  0.34921931189E+03  0.12699999809E+01 0.  1.
       -4    1    3    3    0  502 -0.20360871622E+03 -0.19391871293E+03 -0.37395050113E+03  0.46786917695E+03  0.12699999809E+01 0. -1.
</event>
<event>
 5   0  0.6672462E-04  0.8016940E+03  0.7818609E-02  0.9557568E-01
       -2   -1    0    0    0  501  0.00000000000E+00  0.00000000000E+00  0.14224270645E+03  0.14224270647E+03  0.25500000920E-02 0.  1.
        2   -1    0    0  501    0  0.00000000000E+00  0.00000000000E+00 -0.11296065825E+04  0.11296065825E+04  0.25500000920E-02 0. -1.
    10030    2    1    2    0    0  0.00000000000E+00  0.00000000000E+00 -0.98736387608E+03  0.12718492890E+04  0.80169395043E+03 0.  0.
        5    1    3    3  502    0 -0.29536507564E+03 -0.39073082749E+02 -0.68320429717E+02  0.30570738431E+03  0.46999998093E+01 0.  1.
       -5    1    3    3    0  502  0.29536507564E+03  0.39073082749E+02 -0.91904344636E+03  0.96614190470E+03  0.46999998093E+01 0. -1.
</event>
<event>
 5   0  0.4169155E-04  0.7996677E+03  0.7818609E-02  0.9560498E-01
        1   -1    0    0  501    0  0.00000000000E+00  0.00000000000E+00  0.85064265757E+03  0.85064265758E+03  0.50400001928E-02 0. -1.
       -1   -1    0    0    0  501  0.00000000000E+00  0.00000000000E+00 -0.18793685179E+03  0.18793685185E+03  0.50400001928E-02 0.  1.
    10030    2    1    2    0    0  0.00000000000E+00  0.00000000000E+00  0.66270580578E+03  0.10385795094E+04  0.79966768873E+03 0.  0.
        4    1    3    3  502    0  0.18266847371E+03 -0.31150454409E+03  0.10842418620E+03  0.37704146898E+03  0.12699999809E+01 0.  1.
       -4    1    3    3    0  502 -0.18266847371E+03  0.31150454409E+03  0.55428161958E+03  0.66153804046E+03  0.12699999809E+01 0. -1.
</event>
<event>
 5   0  0.6801147E-04  0.8004270E+03  0.7818609E-02  0.9559399E-01
        2   -1    0    0  501    0  0.00000000000E+00  0.00000000000E+00  0.12627260589E+04  0.12627260589E+04  0.25500000920E-02 0.  1.
       -2   -1    0    0    0  501  0.00000000000E+00  0.00000000000E+00 -0.12684527716E+03  0.12684527719E+03  0.25500000920E-02 0. -1.
    10030    2    1    2    0    0  0.00000000000E+00  0.00000000000E+00  0.11358807817E+04  0.13895713361E+04  0.80042697841E+03 0.  0.
        4    1    3    3  502    0 -0.34089258548E+03  0.18395341944E+03  0.39327560610E+03  0.55200899504E+03  0.12699999809E+01 0. -1.
       -4    1    3    3    0  502  0.34089258548E+03 -0.18395341944E+03  0.74260517562E+03  0.83756234103E+03  0.12699999809E+01 0.  1.
</event>
<event>
 5   0  0.4104786E-04  0.7991522E+03  0.7818609E-02  0.9561245E-01
        1   -1    0    0  501    0  0.00000000000E+00  0.00000000000E+00  0.43895273998E+03  0.43895274001E+03  0.50400001928E-02 0.  1.
       -1   -1    0    0    0  501  0.00000000000E+00  0.00000000000E+00 -0.36373176843E+03  0.36373176847E+03  0.50400001928E-02 0. -1.
    10030    2    1    2    0    0  0.00000000000E+00  0.00000000000E+00  0.75220971544E+02  0.80268450848E+03  0.79915219176E+03 0.  0.
        2    1    3    3  502    0 -0.23361144951E+03 -0.95089128502E+01  0.36307409865E+03  0.43184201959E+03  0.25500000920E-02 0.  1.
       -2    1    3    3    0  502  0.23361144951E+03  0.95089128502E+01 -0.28785312711E+03  0.37084248888E+03  0.25500000920E-02 0. -1.
</event>
<event>
 5   0  0.4104786E-04  0.8000699E+03  0.7818609E-02  0.9559916E-01
       -1   -1    0    0    0  501  0.00000000000E+00  0.00000000000E+00  0.10950230707E+04  0.10950230707E+04  0.50400001928E-02 0.  1.
        1   -1    0    0  501    0  0.00000000000E+00  0.00000000000E+00 -0.14614117794E+03  0.14614117803E+03  0.50400001928E-02 0. -1.
    10030    2    1    2    0    0  0.00000000000E+00  0.00000000000E+00  0.94888189279E+03  0.12411642488E+04  0.80006990067E+03 0.  0.
        2    1    3    3  502    0 -0.21884795602E+03  0.29196004433E+03  0.22003932767E+03  0.42608966318E+03  0.25500000920E-02 0. -1.
       -2    1    3    3    0  502  0.21884795602E+03 -0.29196004433E+03  0.72884256512E+03  0.81507458559E+03  0.25500000920E-02 0.  1.
</event>
<event>
 5   0  0.7133039E-04  0.8002000E+03  0.7818609E-02  0.9559728E-01
       -2   -1    0    0    0  501  0.00000000000E+00  0.00000000000E+00  0.18930068473E+03  0.18930068475E+03  0.25500000920E-02 0. -1.
        2   -1    0    0  501    0  0.00000000000E+00  0.00000000000E+00 -0.84563888433E+03  0.84563888433E+03  0.25500000920E-02 0.  1.
    10030    2    1    2    0    0  0.00000000000E+00  0.00000000000E+00 -0.65633819959E+03  0.10349395691E+04  0.80020002462E+03 0.  0.
        2    1    3    3  502    0  0.19145055960E+03 -0.31563300176E+03 -0.12863008615E+03  0.39092608974E+03  0.25500000920E-02 0. -1.
       -2    1    3    3    0  502 -0.19145055960E+03  0.31563300176E+03 -0.52770811344E+03  0.64401347934E+03  0.25500000920E-02 0.  1.
</event>
<event>
 5   0  0.4392552E-04  0.8001450E+03  0.7818609E-02  0.9559807E-01
       -1   -1    0    0    0  501  0.00000000000E+00  0.00000000000E+00  0.15677233603E+03  0.15677233611E+03  0.50400001928E-02 0.  1.
        1   -1    0    0  501    0  0.00000000000E+00  0.00000000000E+00 -0.10209581101E+04  0.10209581101E+04  0.50400001928E-02 0. -1.
    10030    2    1    2    0    0  0.00000000000E+00  0.00000000000E+00 -0.86418577404E+03  0.11777304462E+04  0.80014495676E+03 0.  0.
        5    1    3    3  502    0  0.39161830543E+03 -0.52570219035E+02 -0.52409963042E+03  0.65637720686E+03  0.46999998093E+01 0.  1.
       -5    1    3    3    0  502 -0.39161830543E+03  0.52570219035E+02 -0.34008614362E+03  0.52135323933E+03  0.46999998093E+01 0. -1.
</event>
<event>
 5   0  0.4169155E-04  0.7998793E+03  0.7818609E-02  0.9560192E-01
        1   -1    0    0  501    0  0.00000000000E+00  0.00000000000E+00  0.19501771596E+04  0.19501771596E+04  0.50400001928E-02 0. -1.
       -1   -1    0    0    0  501  0.00000000000E+00  0.00000000000E+00 -0.82019067938E+02  0.82019068093E+02  0.50400001928E-02 0.  1.
    10030    2    1    2    0    0  0.00000000000E+00  0.00000000000E+00  0.18681580917E+04  0.20321962277E+04  0.79987927366E+03 0.  0.
        4    1    3    3  502    0 -0.68923299137E+02  0.11702173272E+03 -0.21635069445E+02  0.13752889232E+03  0.12699999809E+01 0.  1.
       -4    1    3    3    0  502  0.68923299137E+02 -0.11702173272E+03  0.18897931611E+04  0.18946673354E+04  0.12699999809E+01 0. -1.
</event>
<event>
 5   0  0.4392552E-04  0.7999418E+03  0.7818609E-02  0.9560101E-01
        1   -1    0    0  501    0  0.00000000000E+00  0.00000000000E+00  0.55142363268E+03  0.55142363271E+03  0.50400001928E-02 0. -1.
       -1   -1    0    0    0  501  0.00000000000E+00  0.00000000000E+00 -0.29011579161E+03  0.29011579165E+03  0.50400001928E-02 0.  1.
    10030    2    1    2    0    0  0.00000000000E+00  0.00000000000E+00  0.26130784107E+03  0.84153942436E+03  0.79994175722E+03 0.  0.
        5    1    3    3  502    0  0.91993920689E+02  0.38799261218E+03  0.98169994053E+02  0.41068307280E+03  0.46999998093E+01 0.  1.
       -5    1    3    3    0  502 -0.91993920689E+02 -0.38799261218E+03  0.16313784702E+03  0.43085635156E+03  0.46999998093E+01 0. -1.
</event>
<event>
 5   0  0.7133039E-04  0.8024601E+03  0.7818609E-02  0.9556463E-01
        2   -1    0    0  501    0  0.00000000000E+00  0.00000000000E+00  0.98460123502E+03  0.98460123502E+03  0.25500000920E-02 0. -1.
       -2   -1    0    0    0  501  0.00000000000E+00  0.00000000000E+00 -0.16350329335E+03  0.16350329337E+03  0.25500000920E-02 0.  1.
    10030    2    1    2    0    0  0.00000000000E+00  0.00000000000E+00  0.82109794167E+03  0.11481045284E+04  0.80246007894E+03 0.  0.
        2    1    3    3  502    0 -0.29176330991E+03  0.13616585646E+03  0.68013393130E+02  0.32907870051E+03  0.25500000920E-02 0.  1.
       -2    1    3    3    0  502  0.29176330991E+03 -0.13616585646E+03  0.75308454854E+03  0.81902582788E+03  0.25500000920E-02 0. -1.
</event>
<event>
 5   0  0.7133039E-04  0.8001236E+03  0.7818609E-02  0.9559838E-01
        2   -1    0    0  501    0  0.00000000000E+00  0.00000000000E+00  0.78166028513E+03  0.78166028513E+03  0.25500000920E-02 0. -1.
       -2   -1    0    0    0  501  0.00000000000E+00  0.00000000000E+00 -0.20475577657E+03  0.20475577659E+03  0.25500000920E-02 0.  1.
    10030    2    1    2    0    0  0.00000000000E+00  0.00000000000E+00  0.57690450856E+03  0.98641606172E+03  0.80012363721E+03 0.  0.
        2    1    3    3  502    0 -0.25612353431E+03 -0.23525537865E+03  0.44660092207E+02  0.35062641352E+03  0.25500000920E-02 0.  1.
       -2    1    3    3    0  502  0.25612353431E+03  0.23525537865E+03  0.53224441635E+03  0.63578964820E+03  0.25500000920E-02 0. -1.
</event>
<event>
 5   0  0.4169155E-04  0.7964001E+03  0.7818609E-02  0.9565242E-01
        1   -1    0    0  501    0  0.00000000000E+00  0.00000000000E+00  0.23246582317E+03  0.23246582323E+03  0.50400001928E-02 0. -1.
       -1   -1    0    0    0  501  0.00000000000E+00  0.00000000000E+00 -0.68209294820E+03  0.68209294822E+03  0.50400001928E-02 0.  1.
    10030    2    1    2    0    0  0.00000000000E+00  0.00000000000E+00 -0.44962712503E+03  0.91455877145E+03  0.79640014745E+03 0.  0.
        4    1    3    3  502    0  0.53818300994E+02 -0.28889817498E+03  0.83759685732E+02  0.30557464372E+03  0.12699999809E+01 0. -1.
       -4    1    3    3    0  502 -0.53818300994E+02  0.28889817498E+03 -0.53338681076E+03  0.60898412773E+03  0.12699999809E+01 0.  1.
</event>
<event>
 5   0  0.6970013E-04  0.8002007E+03  0.7818609E-02  0.9559727E-01
       -2   -1    0    0    0  501  0.00000000000E+00  0.00000000000E+00  0.20772039065E+03  0.20772039066E+03  0.25500000920E-02 0.  1.
        2   -1    0    0  501    0  0.00000000000E+00  0.00000000000E+00 -0.77065281111E+03  0.77065281111E+03  0.25500000920E-02 0. -1.
    10030    2    1    2    0    0  0.00000000000E+00  0.00000000000E+00 -0.56293242046E+03  0.97837320177E+03  0.80020073228E+03 0.  0.
        3    1    3    3  502    0  0.61526071278E+02 -0.14019053504E+03 -0.73342291537E+03  0.74923162410E+03  0.10100000352E+00 0. -1.
       -3    1    3    3    0  502 -0.61526071278E+02  0.14019053504E+03  0.17049049491E+03  0.22914157767E+03  0.10100000352E+00 0.  1.
</event>
<event>
 5   0  0.6970013E-04  0.8000913E+03  0.7818609E-02  0.9559885E-01
        2   -1    0    0  501    0  0.00000000000E+00  0.00000000000E+00  0.15313907566E+04  0.15313907566E+04  0.25500000920E-02 0. -1.
       -2   -1    0    0    0  501  0.00000000000E+00  0.00000000000E+00 -0.10450404330E+03  0.10450404333E+03  0.25500000920E-02 0.  1.
    10030    2    1    2    0    0  0.00000000000E+00  0.00000000000E+00  0.14268867133E+04  0.16358947999E+04  0.80009130969E+03 0.  0.
        3    1    3    3  502    0  0.11777614010E+03 -0.31637425166E+03  0.11523147952E+04  0.12007469691E+04  0.10100000352E+00 0. -1.
       -3    1    3    3    0  502 -0.11777614010E+03  0.31637425166E+03  0.27457191809E+03  0.43514783085E+03  0.10100000352E+00 0.  1.
</event>
<event>
 5   0  0.6801147E-04  0.8002722E+03  0.7818609E-02  0.9559623E-01
        2   -1    0    0  501    0  0.00000000000E+00  0.00000000000E+00  0.32257563506E+03  0.32257563507E+03  0.25500000920E-02 0.  1.
       -2   -1    0    0    0  501  0.00000000000E+00  0.00000000000E+00 -0.49634523325E+03  0.49634523326E+03  0.25500000920E-02 0. -1.
    10030    2    1    2    0    0  0.00000000000E+00  0.00000000000E+00 -0.17376959819E+03  0.81892086833E+03  0.80027215079E+03 0.  0.
        4    1    3    3  502    0  0.29437235455E+02 -0.35766031787E+03  0.94213265290E+02  0.37103262130E+03  0.12699999809E+01 0. -1.
       -4    1    3    3    0  502 -0.29437235455E+02  0.35766031787E+03 -0.26798286348E+03  0.44788824703E+03  0.12699999809E+01 0.  1.
</event>
<event>
 5   0  0.4169155E-04  0.7996477E+03  0.7818609E-02  0.9560527E-01
        1   -1    0    0  501    0  0.00000000000E+00  0.00000000000E+00  0.90003908650E+03  0.90003908652E+03  0.50400001928E-02 0. -1.
       -1   -1    0    0    0  501  0.00000000000E+00  0.00000000000E+00 -0.17761350209E+03  0.17761350216E+03  0.50400001928E-02 0.  1.
    10030    2    1    2    0    0  0.00000000000E+00  0.00000000000E+00  0.72242558441E+03  0.10776525887E+04  0.79964765796E+03 0.  0.
        4    1    3    3  502    0 -0.22092035481E+03 -0.71869194463E+02 -0.77318306895E+02  0.24484835666E+03  0.12699999809E+01 0.  1.
       -4    1    3    3    0  502  0.22092035481E+03  0.71869194463E+02  0.79974389131E+03  0.83280423202E+03  0.12699999809E+01 0. -1.
</event>
<event>
 5   0  0.4169155E-04  0.7998584E+03  0.7818609E-02  0.9560222E-01
       -1   -1    0    0    0  501  0.00000000000E+00  0.00000000000E+00  0.20310373020E+03  0.20310373026E+03  0.50400001928E-02 0.  1.
        1   -1    0    0  501    0  0.00000000000E+00  0.00000000000E+00 -0.78749592648E+03  0.78749592650E+03  0.50400001928E-02 0. -1.
    10030    2    1    2    0    0  0.00000000000E+00  0.00000000000E+00 -0.58439219629E+03  0.99059965676E+03  0.79985838802E+03 0.  0.
        4    1    3    3  502    0 -0.21698701005E+03 -0.28654554281E+03 -0.75022068993E+02  0.36718065632E+03  0.12699999809E+01 0.  1.
       -4    1    3    3    0  502  0.21698701005E+03  0.28654554281E+03 -0.50937012729E+03  0.62341900044E+03  0.12699999809E+01 0. -1.
</event>
<event>
 5   0  0.6672462E-04  0.8000482E+03  0.7818609E-02  0.9559947E-01
        2   -1    0    0  501    0  0.00000000000E+00  0.00000000000E+00  0.40416164492E+03  0.40416164493E+03  0.25500000920E-02 0. -1.
       -2   -1    0    0    0  501  0.00000000000E+00  0.00000000000E+00 -0.39592895181E+03  0.39592895182E+03  0.25500000920E-02 0.  1.
    10030    2    1    2    0    0  0.00000000000E+00  0.00000000000E+00  0.82326931087E+01  0.80009059675E+03  0.80004823966E+03 0.  0.
        5    1    3    3  502    0  0.27889400543E+03 -0.20970749216E+03 -0.19143967334E+03  0.39803308538E+03  0.46999998093E+01 0.  1.
       -5    1    3    3    0  502 -0.27889400543E+03  0.20970749216E+03  0.19967236644E+03  0.40205751137E+03  0.46999998093E+01 0. -1.
</event>
<event>
 5   0  0.4169155E-04  0.7997690E+03  0.7818609E-02  0.9560352E-01
        1   -1    0    0  501    0  0.00000000000E+00  0.00000000000E+00  0.14763610425E+04  0.14763610425E+04  0.50400001928E-02 0. -1.
       -1   -1    0    0    0  501  0.00000000000E+00  0.00000000000E+00 -0.10831199153E+03  0.10831199165E+03  0.50400001928E-02 0.  1.
    10030    2    1    2    0    0  0.00000000000E+00  0.00000000000E+00  0.13680490509E+04  0.15846730341E+04  0.79976897871E+03 0.  0.
        4    1    3    3  502    0  0.10532003295E+03 -0.37782229606E+03  0.83832047904E+03  0.92554029368E+03  0.12699999809E+01 0. -1.
       -4    1    3    3    0  502 -0.10532003295E+03  0.37782229606E+03  0.52972857188E+03  0.65913274043E+03  0.12699999809E+01 0.  1.
</event>
<event>
 5   0  0.6970013E-04  0.7986632E+03  0.7818609E-02  0.9561954E-01
        2   -1    0    0  501    0  0.00000000000E+00  0.00000000000E+00  0.10538978792E+04  0.10538978792E+04  0.25500000920E-02 0.  1.
       -2   -1    0    0    0  501  0.00000000000E+00  0.00000000000E+00 -0.15131042563E+03  0.15131042565E+03  0.25500000920E-02 0. -1.
    10030    2    1    2    0    0  0.00000000000E+00  0.00000000000E+00  0.90258745361E+03  0.12052083049E+04  0.79866322489E+03 0.  0.
        3    1    3    3  502    0 -0.27981651193E+03  0.11579211041E+03  0.58479547118E+02  0.30842334674E+03  0.10100000352E+00 0. -1.
       -3    1    3    3    0  502  0.27981651193E+03 -0.11579211041E+03  0.84410790650E+03  0.89678495816E+03  0.10100000352E+00 0.  1.
</event>
<event>
 5   0  0.6970013E-04  0.7993999E+03  0.7818609E-02  0.9560886E-01
        2   -1    0    0  501    0  0.00000000000E+00  0.00000000000E+00  0.18501341935E+04  0.18501341935E+04  0.25500000920E-02 0. -1.
       -2   -1    0    0    0  501  0.00000000000E+00  0.00000000000E+00 -0.86350528333E+02  0.86350528371E+02  0.25500000920E-02 0.  1.
    10030    2    1    2    0    0  0.00000000000E+00  0.00000000000E+00  0.17637836652E+04  0.19364847219E+04  0.79939993779E+03 0.  0.
        3    1    3    3  502    0 -0.29932114104E+03  0.23987846496E+03  0.11540802497E+04  0.12161562632E+04  0.10100000352E+00 0.  1.
       -3    1    3    3    0  502  0.29932114104E+03 -0.23987846496E+03  0.60970341542E+03  0.72032845869E+03  0.10100000352E+00 0. -1.
</event>
<event>
 5   0  0.4169155E-04  0.7997353E+03  0.7818609E-02  0.9560400E-01
       -1   -1    0    0    0  501  0.00000000000E+00  0.00000000000E+00  0.34302270392E+03  0.34302270396E+03  0.50400001928E-02 0.  1.
        1   -1    0    0  501    0  0.00000000000E+00  0.00000000000E+00 -0.46613280726E+03  0.46613280728E+03  0.50400001928E-02 0. -1.
    10030    2    1    2    0    0  0.00000000000E+00  0.00000000000E+00 -0.12311010333E+03  0.80915551124E+03  0.79973529610E+03 0.  0.
        4    1    3    3  502    0 -0.22077552953E+03  0.20552908660E+03 -0.32715138660E+03  0.44498728356E+03  0.12699999809E+01 0. -1.
       -4    1    3    3    0  502  0.22077552953E+03 -0.20552908660E+03  0.20404128326E+03  0.36416822768E+03  0.12699999809E+01 0.  1.
</event>
<event>
 5   0  0.4086111E-04  0.8004486E+03  0.7818609E-02  0.9559368E-01
       -1   -1    0    0    0  501  0.00000000000E+00  0.00000000000E+00  0.91234743383E+03  0.91234743384E+03  0.50400001928E-02 0.  1.
        1   -1    0    0  501    0  0.00000000000E+00  0.00000000000E+00 -0.17556852991E+03  0.17556852998E+03  0.50400001928E-02 0. -1.
    10030    2    1    2    0    0  0.00000000000E+00  0.00000000000E+00  0.73677890392E+03  0.10879159638E+04  0.80044861863E+03 0.  0.
        3    1    3    3  502    0 -0.25886073097E+03 -0.94612194071E+02 -0.26038148079E+02  0.27683630662E+03  0.10100000352E+00 0. -1.
       -3    1    3    3    0  502  0.25886073097E+03  0.94612194071E+02  0.76281705200E+03  0.81107965721E+03  0.10100000352E+00 0.  1.
</event>
<event>
 5   0  0.4169155E-04  0.8010065E+03  0.7818609E-02  0.9558561E-01
       -1   -1    0    0    0  501  0.00000000000E+00  0.00000000000E+00  0.10318243502E+03  0.10318243515E+03  0.50400001928E-02 0. -1.
        1   -1    0    0  501    0  0.00000000000E+00  0.00000000000E+00 -0.15545556791E+04  0.15545556791E+04  0.50400001928E-02 0.  1.
    10030    2    1    2    0    0  0.00000000000E+00  0.00000000000E+00 -0.14513732440E+04  0.16577381142E+04  0.80100646803E+03 0.  0.
        4    1    3    3  502    0  0.15132767172E+03  0.30060122498E+03 -0.11750265350E+04  0.12222725276E+04  0.12699999809E+01 0.  1.
       -4    1    3    3    0  502 -0.15132767172E+03 -0.30060122498E+03 -0.27634670900E+03  0.43546558666E+03  0.12699999809E+01 0. -1.
</event>
<event>
 5   0  0.6672462E-04  0.8002267E+03  0.7818609E-02  0.9559689E-01
        2   -1    0    0  501    0  0.00000000000E+00  0.00000000000E+00  0.76942752757E+03  0.76942752758E+03  0.25500000920E-02 0. -1.
       -2   -1    0    0    0  501  0.00000000000E+00  0.00000000000E+00 -0.20806469279E+03  0.20806469281E+03  0.25500000920E-02 0.  1.
    10030    2    1    2    0    0  0.00000000000E+00  0.00000000000E+00  0.56136283478E+03  0.97749222038E+03  0.80022672327E+03 0.  0.
        5    1    3    3  502    0 -0.11132487858E+03 -0.28822232548E+03  0.59115705344E+03  0.66704879082E+03  0.46999998093E+01 0. -1.
       -5    1    3    3    0  502  0.11132487858E+03  0.28822232548E+03 -0.29794218662E+02  0.31044342956E+03  0.46999998093E+01 0.  1.
</event>
<event>
 5   0  0.4169155E-04  0.8003414E+03  0.7818609E-02  0.9559523E-01
       -1   -1    0    0    0  501  0.00000000000E+00  0.00000000000E+00  0.30162499587E+03  0.30162499592E+03  0.50400001928E-02 0. -1.
        1   -1    0    0  501    0  0.00000000000E+00  0.00000000000E+00 -0.53091287285E+03  0.53091287287E+03  0.50400001928E-02 0.  1.
    10030    2    1    2    0    0  0.00000000000E+00  0.00000000000E+00 -0.22928787698E+03  0.83253786879E+03  0.80034140993E+03 0.  0.
        4    1    3    3  502    0  0.37732903265E+03 -0.87406542639E+02 -0.10009795809E+02  0.38745181828E+03  0.12699999809E+01 0. -1.
       -4    1    3    3    0  502 -0.37732903265E+03  0.87406542639E+02 -0.21927808117E+03  0.44508605051E+03  0.12699999809E+01 0.  1.
</event>
<event>
 5   0  0.2736375E-04  0.8000524E+03  0.7818609E-02  0.9559941E-01
        3   -1    0    0  501    0  0.00000000000E+00  0.00000000000E+00  0.48567305388E+03  0.48567306438E+03  0.10100000352E+00 0.  1.
       -3   -1    0    0    0  501  0.00000000000E+00  0.00000000000E+00 -0.32948289957E+03  0.32948291505E+03  0.10100000352E+00 0. -1.
    10030    2    1    2    0    0  0.00000000000E+00  0.00000000000E+00  0.15619015430E+03  0.81515597943E+03  0.80005243984E+03 0.  0.
        2    1    3    3  502    0 -0.16870134049E+03 -0.32987668595E+03 -0.75557045054E+02  0.37813706150E+03  0.25500000920E-02 0. -1.
       -2    1    3    3    0  502  0.16870134049E+03  0.32987668595E+03  0.23174719936E+03  0.43701891793E+03  0.25500000920E-02 0.  1.
</event>
<event>
 5   0  0.4104786E-04  0.7997311E+03  0.7818609E-02  0.9560406E-01
        1   -1    0    0  501    0  0.00000000000E+00  0.00000000000E+00  0.26278096871E+03  0.26278096876E+03  0.50400001928E-02 0. -1.
       -1   -1    0    0    0  501  0.00000000000E+00  0.00000000000E+00 -0.60846290084E+03  0.60846290086E+03  0.50400001928E-02 0.  1.
    10030    2    1    2    0    0  0.00000000000E+00  0.00000000000E+00 -0.34568193212E+03  0.87124386962E+03  0.79973113116E+03 0.  0.
        2    1    3    3  502    0 -0.15488194252E+03  0.14943912895E+03 -0.53998068593E+03  0.58129133020E+03  0.25500000920E-02 0.  1.
       -2    1    3    3    0  502  0.15488194252E+03 -0.14943912895E+03  0.19429875380E+03  0.28995253942E+03  0.25500000920E-02 0. -1.
</event>
<event>
 5   0  0.4392552E-04  0.8001405E+03  0.7818609E-02  0.9559814E-01
        1   -1    0    0  501    0  0.00000000000E+00  0.00000000000E+00  0.20559451572E+03  0.20559451579E+03  0.50400001928E-02 0.  1.
       -1   -1    0    0    0  501  0.00000000000E+00  0.00000000000E+00 -0.77850434702E+03  0.77850434704E+03  0.50400001928E-02 0. -1.
    10030    2    1    2    0    0  0.00000000000E+00  0.00000000000E+00 -0.57290983130E+03  0.98409886282E+03  0.80014054829E+03 0.  0.
        5    1    3    3  502    0  0.37147858189E+03  0.14749092829E+03 -0.26571999108E+03  0.47997824366E+03  0.46999998093E+01 0.  1.
       -5    1    3    3    0  502 -0.37147858189E+03 -0.14749092829E+03 -0.30718984022E+03  0.50412061916E+03  0.46999998093E+01 0. -1.
</event>
<event>
 5   0  0.7133039E-04  0.7998232E+03  0.7818609E-02  0.9560273E-01
        2   -1    0    0  501    0  0.00000000000E+00  0.00000000000E+00  0.59108679646E+03  0.59108679647E+03  0.25500000920E-02 0. -1.
       -2   -1    0    0    0  501  0.00000000000E+00  0.00000000000E+00 -0.27056818592E+03  0.27056818594E+03  0.25500000920E-02 0.  1.
    10030    2    1    2    0    0  0.00000000000E+00  0.00000000000E+00  0.32051861054E+03  0.86165498240E+03  0.79982318608E+03 0.  0.
        2    1    3    3  502    0  0.29384154088E+03  0.19966915277E+03 -0.37562686782E+02  0.35724162294E+03  0.25500000920E-02 0.  1.
       -2    1    3    3    0  502 -0.29384154088E+03 -0.19966915277E+03  0.35808129732E+03  0.50441335947E+03  0.25500000920E-02 0. -1.
</event>
<event>
 5   0  0.6801147E-04  0.7996598E+03  0.7818609E-02  0.9560510E-01
        2   -1    0    0  501    0  0.00000000000E+00  0.00000000000E+00  0.35033738338E+03  0.35033738339E+03  0.25500000920E-02 0. -1.
       -2   -1    0    0    0  501  0.00000000000E+00  0.00000000000E+00 -0.45631428061E+03  0.45631428062E+03  0.25500000920E-02 0.  1.
    10030    2    1    2    0    0  0.00000000000E+00  0.00000000000E+00 -0.10597689723E+03  0.80665166401E+03  0.79965980536E+03 0.  0.
        4    1    3    3  502    0 -0.36824266352E+02  0.11883950444E+03 -0.43628907184E+03  0.45368339348E+03  0.12699999809E+01 0.  1.
       -4    1    3    3    0  502  0.36824266352E+02 -0.11883950444E+03  0.33031217461E+03  0.35296827053E+03  0.12699999809E+01 0. -1.
</event>
<event>
 5   0  0.6970013E-04  0.7999948E+03  0.7818609E-02  0.9560025E-01
       -2   -1    0    0    0  501  0.00000000000E+00  0.00000000000E+00  0.14716123296E+03  0.14716123298E+03  0.25500000920E-02 0.  1.
        2   -1    0    0  501    0  0.00000000000E+00  0.00000000000E+00 -0.10872286524E+04  0.10872286524E+04  0.25500000920E-02 0. -1.
    10030    2    1    2    0    0  0.00000000000E+00  0.00000000000E+00 -0.94006741947E+03  0.12343898854E+04  0.79999477252E+03 0.  0.
        3    1    3    3  502    0 -0.51533495476E+02 -0.35482061727E+02  0.13956398308E+03  0.15294702820E+03  0.10100000352E+00 0.  1.
       -3    1    3    3    0  502  0.51533495476E+02  0.35482061727E+02 -0.10796314025E+04  0.10814428572E+04  0.10100000352E+00 0. -1.
</event>
<event>
 5   0  0.4169155E-04  0.8001356E+03  0.7818609E-02  0.9559821E-01
        1   -1    0    0  501    0  0.00000000000E+00  0.00000000000E+00  0.13703899181E+04  0.13703899181E+04  0.50400001928E-02 0.  1.
       -1   -1    0    0    0  501  0.00000000000E+00  0.00000000000E+00 -0.11679468658E+03  0.11679468668E+03  0.50400001928E-02 0. -1.
    10030    2    1    2    0    0  0.00000000000E+00  0.00000000000E+00  0.12535952315E+04  0.14871846048E+04  0.80013564115E+03 0.  0.
        4    1    3    3  502    0  0.28058339948E+03  0.28392765541E+03  0.57724785679E+03  0.70182523369E+03  0.12699999809E+01 0. -1.
       -4    1    3    3    0  502 -0.28058339948E+03 -0.28392765541E+03  0.67634737473E+03  0.78535937110E+03  0.12699999809E+01 0.  1.
</event>
<event>
 5   0  0.4086111E-04  0.7999973E+03  0.7818609E-02  0.9560021E-01
       -1   -1    0    0    0  501  0.00000000000E+00  0.00000000000E+00  0.25097820788E+03  0.25097820793E+03  0.50400001928E-02 0. -1.
        1   -1    0    0  501    0  0.00000000000E+00  0.00000000000E+00 -0.63750131777E+03  0.63750131779E+03  0.50400001928E-02 0.  1.
    10030    2    1    2    0    0  0.00000000000E+00  0.00000000000E+00 -0.38652310989E+03  0.88847952572E+03  0.79999734571E+03 0.  0.
        3    1    3    3  502    0 -0.20361501541E+03 -0.23861279332E+03  0.82391359536E+02  0.32432003633E+03  0.10100000352E+00 0. -1.
       -3    1    3    3    0  502  0.20361501541E+03  0.23861279332E+03 -0.46891446943E+03  0.56415948940E+03  0.10100000352E+00 0.  1.
</event>
<event>
 5   0  0.4392552E-04  0.7996258E+03  0.7818609E-02  0.9560559E-01
        1   -1    0    0  501    0  0.00000000000E+00  0.00000000000E+00  0.31497010022E+03  0.31497010026E+03  0.50400001928E-02 0. -1.
       -1   -1    0    0    0  501  0.00000000000E+00  0.00000000000E+00 -0.50750965853E+03  0.50750965856E+03  0.50400001928E-02 0.  1.
    10030    2    1    2    0    0  0.00000000000E+00  0.00000000000E+00 -0.19253955832E+03  0.82247975882E+03  0.79962583259E+03 0.  0.
        5    1    3    3  502    0 -0.24298029282E+03 -0.27515709877E+03 -0.25915432623E+03  0.44937056702E+03  0.46999998093E+01 0.  1.
       -5    1    3    3    0  502  0.24298029282E+03  0.27515709877E+03  0.66614767918E+02  0.37310919180E+03  0.46999998093E+01 0. -1.
</event>
<event>
 5   0  0.4392552E-04  0.7994469E+03  0.7818609E-02  0.9560818E-01
       -1   -1    0    0    0  501  0.00000000000E+00  0.00000000000E+00  0.29383204166E+03  0.29383204171E+03  0.50400001928E-02 0.  1.
        1   -1    0    0  501    0  0.00000000000E+00  0.00000000000E+00 -0.54377605887E+03  0.54377605890E+03  0.50400001928E-02 0. -1.
    10030    2    1    2    0    0  0.00000000000E+00  0.00000000000E+00 -0.24994401721E+03  0.83760810060E+03  0.79944688282E+03 0.  0.
        5    1    3    3  502    0  0.22305364705E+03  0.28489866720E+03  0.52947257138E+02  0.36571256756E+03  0.46999998093E+01 0.  1.
       -5    1    3    3    0  502 -0.22305364705E+03 -0.28489866720E+03 -0.30289127435E+03  0.47189553304E+03  0.46999998093E+01 0. -1.
</event>
<event>
 5   0  0.7133039E-04  0.8001190E+03  0.7818609E-02  0.9559845E-01
        2   -1    0    0  501    0  0.00000000000E+00  0.00000000000E+00  0.24653111560E+04  0.24653111560E+04  0.25500000920E-02 0. -1.
       -2   -1    0    0    0  501  0.00000000000E+00  0.00000000000E+00 -0.64919846401E+02  0.64919846451E+02  0.25500000920E-02 0.  1.
    10030    2    1    2    0    0  0.00000000000E+00  0.00000000000E+00  0.24003913096E+04  0.25302310024E+04  0.80011904525E+03 0.  0.
        2    1    3    3  502    0  0.52380476062E+02 -0.33210919497E+03  0.51456751484E+03  0.61467061015E+03  0.25500000920E-02 0.  1.
       -2    1    3    3    0  502 -0.52380476062E+02  0.33210919497E+03  0.18858237947E+04  0.19155603923E+04  0.25500000920E-02 0. -1.
</event>
<event>
 5   0  0.7133039E-04  0.7997082E+03  0.7818609E-02  0.9560440E-01
        2   -1    0    0  501    0  0.00000000000E+00  0.00000000000E+00  0.11018964402E+04  0.11018964402E+04  0.25500000920E-02 0. -1.
       -2   -1    0    0    0  501  0.00000000000E+00  0.00000000000E+00 -0.14509828592E+03  0.14509828594E+03  0.25500000920E-02 0.  1.
    10030    2    1    2    0    0  0.00000000000E+00  0.00000000000E+00  0.95679815424E+03  0.12469947261E+04  0.79970815863E+03 0.  0.
        2    1    3    3  502    0 -0.93852310267E+02 -0.17444860344E+03 -0.63207136459E+02  0.20793199246E+03  0.25500000920E-02 0.  1.
       -2    1    3    3    0  502  0.93852310267E+02  0.17444860344E+03  0.10200052907E+04  0.10390627336E+04  0.25500000920E-02 0. -1.
</event>
<event>
 5   0  0.4087283E-04  0.8001763E+03  0.7818609E-02  0.9559762E-01
       -1   -1    0    0    0  501  0.00000000000E+00  0.00000000000E+00  0.13538346181E+03  0.13538346191E+03  0.50400001928E-02 0.  1.
        1   -1    0    0  501    0  0.00000000000E+00  0.00000000000E+00 -0.11823493261E+04  0.11823493261E+04  0.50400001928E-02 0. -1.
    10030    2    1    2    0    0  0.00000000000E+00  0.00000000000E+00 -0.10469658643E+04  0.13177327880E+04  0.80017634283E+03 0.  0.
        1    1    3    3  502    0 -0.24920790970E+03 -0.12310289407E+03 -0.49582245569E+02  0.28234252937E+03  0.50400001928E-02 0.  1.
       -1    1    3    3    0  502  0.24920790970E+03  0.12310289407E+03 -0.99738361873E+03  0.10353902587E+04  0.50400001928E-02 0. -1.
</event>
<event>
 5   0  0.4169155E-04  0.7992207E+03  0.7818609E-02  0.9561146E-01
        1   -1    0    0  501    0  0.00000000000E+00  0.00000000000E+00  0.32607706895E+03  0.32607706899E+03  0.50400001928E-02 0.  1.
       -1   -1    0    0    0  501  0.00000000000E+00  0.00000000000E+00 -0.48972603349E+03  0.48972603352E+03  0.50400001928E-02 0. -1.
    10030    2    1    2    0    0  0.00000000000E+00  0.00000000000E+00 -0.16364896454E+03  0.81580310251E+03  0.79922069447E+03 0.  0.
        4    1    3    3  502    0  0.25390570359E+03  0.30195069544E+03 -0.16908683743E+02  0.39487953261E+03  0.12699999809E+01 0.  1.
       -4    1    3    3    0  502 -0.25390570359E+03 -0.30195069544E+03 -0.14674028079E+03  0.42092356990E+03  0.12699999809E+01 0. -1.
</event>
<event>
 5   0  0.6593118E-04  0.8013393E+03  0.7818609E-02  0.9558081E-01
       -2   -1    0    0    0  501  0.00000000000E+00  0.00000000000E+00  0.26559256016E+03  0.26559256017E+03  0.25500000920E-02 0. -1.
        2   -1    0    0  501    0  0.00000000000E+00  0.00000000000E+00 -0.60444527269E+03  0.60444527270E+03  0.25500000920E-02 0.  1.
    10030    2    1    2    0    0  0.00000000000E+00  0.00000000000E+00 -0.33885271253E+03  0.87003783287E+03  0.80133929757E+03 0.  0.
        1    1    3    3  502    0  0.15046120571E+03  0.16234146055E+03  0.19318596095E+03  0.29379268161E+03  0.50400001928E-02 0. -1.
       -1    1    3    3    0  502 -0.15046120571E+03 -0.16234146055E+03 -0.53203867348E+03  0.57624515125E+03  0.50400001928E-02 0.  1.
</event>
<event>
 5   0  0.6672462E-04  0.7997092E+03  0.7818609E-02  0.9560438E-01
       -2   -1    0    0    0  501  0.00000000000E+00  0.00000000000E+00  0.14644284119E+03  0.14644284122E+03  0.25500000920E-02 0.  1.
        2   -1    0    0  501    0  0.00000000000E+00  0.00000000000E+00 -0.10917824222E+04  0.10917824222E+04  0.25500000920E-02 0. -1.
    10030    2    1    2    0    0  0.00000000000E+00  0.00000000000E+00 -0.94533958096E+03  0.12382252634E+04  0.79970924687E+03 0.  0.
        5    1    3    3  502    0 -0.91187833654E+02 -0.38356348935E+03 -0.57567203297E+03  0.69775106658E+03  0.46999998093E+01 0.  1.
       -5    1    3    3    0  502  0.91187833654E+02  0.38356348935E+03 -0.36966754799E+03  0.54047419680E+03  0.46999998093E+01 0. -1.
</event>
<event>
 5   0  0.4104786E-04  0.7999647E+03  0.7818609E-02  0.9560068E-01
       -1   -1    0    0    0  501  0.00000000000E+00  0.00000000000E+00  0.11369813453E+03  0.11369813464E+03  0.50400001928E-02 0.  1.
        1   -1    0    0  501    0  0.00000000000E+00  0.00000000000E+00 -0.14071107604E+04  0.14071107604E+04  0.50400001928E-02 0. -1.
    10030    2    1    2    0    0  0.00000000000E+00  0.00000000000E+00 -0.12934126259E+04  0.15208088951E+04  0.79996467079E+03 0.  0.
        2    1    3    3  502    0 -0.13412670092E+03  0.37376593676E+03 -0.55563371420E+03  0.68294931858E+03  0.25500000920E-02 0. -1.
       -2    1    3    3    0  502  0.13412670092E+03 -0.37376593676E+03 -0.73777891168E+03  0.83785957648E+03  0.25500000920E-02 0.  1.
</event>
<event>
 5   0  0.4104786E-04  0.7999379E+03  0.7818609E-02  0.9560107E-01
       -1   -1    0    0    0  501  0.00000000000E+00  0.00000000000E+00  0.13456360716E+03  0.13456360725E+03  0.50400001928E-02 0.  1.
        1   -1    0    0  501    0  0.00000000000E+00  0.00000000000E+00 -0.11888440816E+04  0.11888440816E+04  0.50400001928E-02 0. -1.
    10030    2    1    2    0    0  0.00000000000E+00  0.00000000000E+00 -0.10542804745E+04  0.13234076889E+04  0.79993786769E+03 0.  0.
        2    1    3    3  502    0 -0.25044174784E+03  0.14488549715E+03 -0.70270631700E+02  0.29774290592E+03  0.25500000920E-02 0.  1.
       -2    1    3    3    0  502  0.25044174784E+03 -0.14488549715E+03 -0.98400984278E+03  0.10256647830E+04  0.25500000920E-02 0. -1.
</event>
<event>
 5   0  0.4086111E-04  0.7996938E+03  0.7818609E-02  0.9560460E-01
       -1   -1    0    0    0  501  0.00000000000E+00  0.00000000000E+00  0.47093255086E+03  0.47093255088E+03  0.50400001928E-02 0.  1.
        1   -1    0    0  501    0  0.00000000000E+00  0.00000000000E+00 -0.33949141065E+03  0.33949141068E+03  0.50400001928E-02 0. -1.
    10030    2    1    2    0    0  0.00000000000E+00  0.00000000000E+00  0.13144114021E+03  0.81042396157E+03  0.79969383150E+03 0.  0.
        3    1    3    3  502    0 -0.14789823417E+03  0.35733323266E+03  0.16865418459E+03  0.42190659039E+03  0.10100000352E+00 0.  1.
       -3    1    3    3    0  502  0.14789823417E+03 -0.35733323266E+03 -0.37213044375E+02  0.38851737118E+03  0.10100000352E+00 0. -1.
</event>
<event>
 5   0  0.6970013E-04  0.8000310E+03  0.7818609E-02  0.9559972E-01
        2   -1    0    0  501    0  0.00000000000E+00  0.00000000000E+00  0.68380864824E+03  0.68380864824E+03  0.25500000920E-02 0.  1.
       -2   -1    0    0    0  501  0.00000000000E+00  0.00000000000E+00 -0.23400174274E+03  0.23400174275E+03  0.25500000920E-02 0. -1.
    10030    2    1    2    0    0  0.00000000000E+00  0.00000000000E+00  0.44980690550E+03  0.91781039099E+03  0.80003103789E+03 0.  0.
        3    1    3    3  502    0  0.26191929998E+03 -0.26757591358E+03  0.38638771232E+03  0.53804652555E+03  0.10100000352E+00 0. -1.
       -3    1    3    3    0  502 -0.26191929998E+03  0.26757591358E+03  0.63419193182E+02  0.37976386544E+03  0.10100000352E+00 0.  1.
</event>
<event>
 5   0  0.4086111E-04  0.7984915E+03  0.7818609E-02  0.9562203E-01
        1   -1    0    0  501    0  0.00000000000E+00  0.00000000000E+00  0.37038899433E+03  0.37038899436E+03  0.50400001928E-02 0.  1.
       -1   -1    0    0    0  501  0.00000000000E+00  0.00000000000E+00 -0.43035070892E+03  0.43035070895E+03  0.50400001928E-02 0. -1.
    10030    2    1    2    0    0  0.00000000000E+00  0.00000000000E+00 -0.59961714591E+02  0.80073970331E+03  0.79849149353E+03 0.  0.
        3    1    3    3  502    0 -0.32090687168E+03  0.16208493328E+03  0.14412944298E+03  0.38733196670E+03  0.10100000352E+00 0.  1.
       -3    1    3    3    0  502  0.32090687168E+03 -0.16208493328E+03 -0.20409115757E+03  0.41340773661E+03  0.10100000352E+00 0. -1.
</event>
<event>
 5   0  0.4104786E-04  0.8009081E+03  0.7818609E-02  0.9558704E-01
       -1   -1    0    0    0  501  0.00000000000E+00  0.00000000000E+00  0.35319355432E+03  0.35319355436E+03  0.50400001928E-02 0. -1.
        1   -1    0    0  501    0  0.00000000000E+00  0.00000000000E+00 -0.45403847394E+03  0.45403847397E+03  0.50400001928E-02 0.  1.
    10030    2    1    2    0    0  0.00000000000E+00  0.00000000000E+00 -0.10084491962E+03  0.80723202833E+03  0.80090814064E+03 0.  0.
        2    1    3    3  502    0 -0.18352018840E+02  0.21586961984E+03 -0.38987092415E+03  0.44602222688E+03  0.25500000920E-02 0.  1.
       -2    1    3    3    0  502  0.18352018840E+02 -0.21586961984E+03  0.28902600452E+03  0.36120980145E+03  0.25500000920E-02 0. -1.
</event>
<event>
 5   0  0.6970013E-04  0.7997545E+03  0.7818609E-02  0.9560373E-01
        2   -1    0    0  501    0  0.00000000000E+00  0.00000000000E+00  0.10844598176E+04  0.10844598176E+04  0.25500000920E-02 0.  1.
       -2   -1    0    0    0  501  0.00000000000E+00  0.00000000000E+00 -0.14744833885E+03  0.14744833888E+03  0.25500000920E-02 0. -1.
    10030    2    1    2    0    0  0.00000000000E+00  0.00000000000E+00  0.93701147871E+03  0.12319081564E+04  0.79975445899E+03 0.  0.
        3    1    3    3  502    0 -0.89746366076E+02 -0.22500097627E+03  0.95857671983E+03  0.98871087156E+03  0.10100000352E+00 0.  1.
       -3    1    3    3    0  502  0.89746366076E+02  0.22500097627E+03 -0.21565241122E+02  0.24319728488E+03  0.10100000352E+00 0. -1.
</event>
<event>
 5   0  0.6672462E-04  0.8018929E+03  0.7818609E-02  0.9557281E-01
       -2   -1    0    0    0  501  0.00000000000E+00  0.00000000000E+00  0.14653643273E+03  0.14653643275E+03  0.25500000920E-02 0. -1.
        2   -1    0    0  501    0  0.00000000000E+00  0.00000000000E+00 -0.10970518627E+04  0.10970518627E+04  0.25500000920E-02 0.  1.
    10030    2    1    2    0    0  0.00000000000E+00  0.00000000000E+00 -0.95051542996E+03  0.12435882954E+04  0.80189292674E+03 0.  0.
        5    1    3    3  502    0 -0.29725575425E+03 -0.17520421910E+03 -0.79186153555E+03  0.86378485939E+03  0.46999998093E+01 0. -1.
       -5    1    3    3    0  502  0.29725575425E+03  0.17520421910E+03 -0.15865389441E+03  0.37980343605E+03  0.46999998093E+01 0.  1.
</event>
<event>
 5   0  0.6672462E-04  0.7998559E+03  0.7818609E-02  0.9560226E-01
        2   -1    0    0  501    0  0.00000000000E+00  0.00000000000E+00  0.22154253564E+03  0.22154253566E+03  0.25500000920E-02 0. -1.
       -2   -1    0    0    0  501  0.00000000000E+00  0.00000000000E+00 -0.72194874142E+03  0.72194874142E+03  0.25500000920E-02 0.  1.
    10030    2    1    2    0    0  0.00000000000E+00  0.00000000000E+00 -0.50040620577E+03  0.94349127708E+03  0.79985587398E+03 0.  0.
        5    1    3    3  502    0  0.12218240580E+03  0.84375070240E+02  0.18778779925E+03  0.23944527623E+03  0.46999998093E+01 0. -1.
       -5    1    3    3    0  502 -0.12218240580E+03 -0.84375070240E+02 -0.68819400502E+03  0.70404600085E+03  0.46999998093E+01 0.  1.
</event>
<event>
 5   0  0.6672462E-04  0.8001218E+03  0.7818609E-02  0.9559841E-01
       -2   -1    0    0    0  501  0.00000000000E+00  0.00000000000E+00  0.84194693450E+03  0.84194693450E+03  0.25500000920E-02 0.  1.
        2   -1    0    0  501    0  0.00000000000E+00  0.00000000000E+00 -0.19009360127E+03  0.19009360129E+03  0.25500000920E-02 0. -1.
    10030    2    1    2    0    0  0.00000000000E+00  0.00000000000E+00  0.65185333322E+03  0.10320405358E+04  0.80012180291E+03 0.  0.
        5    1    3    3  502    0  0.70569952918E+02  0.34551283991E+03  0.56952613757E+03  0.66988159563E+03  0.46999998093E+01 0.  1.
       -5    1    3    3    0  502 -0.70569952918E+02 -0.34551283991E+03  0.82327195653E+02  0.36215894016E+03  0.46999998093E+01 0. -1.
</event>
<event>
 5   0  0.7133039E-04  0.7995423E+03  0.7818609E-02  0.9560680E-01
        2   -1    0    0  501    0  0.00000000000E+00  0.00000000000E+00  0.15813414107E+04  0.15813414107E+04  0.25500000920E-02 0.  1.
       -2   -1    0    0    0  501  0.00000000000E+00  0.00000000000E+00 -0.10106418037E+03  0.10106418041E+03  0.25500000920E-02 0. -1.
    10030    2    1    2    0    0  0.00000000000E+00  0.00000000000E+00  0.14802772303E+04  0.16824055911E+04  0.79954230305E+03 0.  0.
        2    1    3    3  502    0 -0.31581898200E+03  0.17996364046E+03  0.10902759645E+04  0.11492737795E+04  0.25500000920E-02 0.  1.
       -2    1    3    3    0  502  0.31581898200E+03 -0.17996364046E+03  0.39000126579E+03  0.53313181166E+03  0.25500000920E-02 0. -1.
</event>
<event>
 5   0  0.6801147E-04  0.8000235E+03  0.7818609E-02  0.9559983E-01
       -2   -1    0    0    0  501  0.00000000000E+00  0.00000000000E+00  0.21423351717E+03  0.21423351718E+03  0.25500000920E-02 0. -1.
        2   -1    0    0  501    0  0.00000000000E+00  0.00000000000E+00 -0.74689248518E+03  0.74689248518E+03  0.25500000920E-02 0.  1.
    10030    2    1    2    0    0  0.00000000000E+00  0.00000000000E+00 -0.53265896801E+03  0.96112600237E+03  0.80002350980E+03 0.  0.
        4    1    3    3  502    0 -0.24990477362E+03  0.13301455006E+03  0.73177799093E+02  0.29240702725E+03  0.12699999809E+01 0. -1.
       -4    1    3    3    0  502  0.24990477362E+03 -0.13301455006E+03 -0.60583676710E+03  0.66871897512E+03  0.12699999809E+01 0.  1.
</event>
<event>
 5   0  0.6970013E-04  0.7999183E+03  0.7818609E-02  0.9560135E-01
        2   -1    0    0  501    0  0.00000000000E+00  0.00000000000E+00  0.48429550799E+03  0.48429550800E+03  0.25500000920E-02 0.  1.
       -2   -1    0    0    0  501  0.00000000000E+00  0.00000000000E+00 -0.33030935822E+03  0.33030935823E+03  0.25500000920E-02 0. -1.
    10030    2    1    2    0    0  0.00000000000E+00  0.00000000000E+00  0.15398614978E+03  0.81460486623E+03  0.79991834193E+03 0.  0.
        3    1    3    3  502    0  0.32971244168E+03 -0.11493800472E+03  0.27562886254E+03  0.44485089546E+03  0.10100000352E+00 0.  1.
       -3    1    3    3    0  502 -0.32971244168E+03  0.11493800472E+03 -0.12164271277E+03  0.36975397076E+03  0.10100000352E+00 0. -1.
</event>
<event>
 5   0  0.6672462E-04  0.7996302E+03  0.7818609E-02  0.9560552E-01
        2   -1    0    0  501    0  0.00000000000E+00  0.00000000000E+00  0.47071227736E+03  0.47071227736E+03  0.25500000920E-02 0.  1.
       -2   -1    0    0    0  501  0.00000000000E+00  0.00000000000E+00 -0.33959625787E+03  0.33959625788E+03  0.25500000920E-02 0. -1.
    10030    2    1    2    0    0  0.00000000000E+00  0.00000000000E+00  0.13111601948E+03  0.81030853525E+03  0.79963023438E+03 0.  0.
        5    1    3    3  502    0  0.32769534689E+03  0.11620015610E+03  0.26553392846E+03  0.43751236989E+03  0.46999998093E+01 0.  1.
       -5    1    3    3    0  502 -0.32769534689E+03 -0.11620015610E+03 -0.13441790898E+03  0.37279616535E+03  0.46999998093E+01 0. -1.
</event>
<event>
 5   0  0.6593118E-04  0.7979138E+03  0.7818609E-02  0.9563042E-01
       -2   -1    0    0    0  501  0.00000000000E+00  0.00000000000E+00  0.14632571032E+03  0.14632571034E+03  0.25500000920E-02 0. -1.
        2   -1    0    0  501    0  0.00000000000E+00  0.00000000000E+00 -0.10877556870E+04  0.10877556870E+04  0.25500000920E-02 0.  1.
    10030    2    1    2    0    0  0.00000000000E+00  0.00000000000E+00 -0.94142997668E+03  0.12340813973E+04  0.79791383887E+03 0.  0.
        1    1    3    3  502    0 -0.71532553079E+02  0.18172778085E+02 -0.10771052862E+04  0.10796309339E+04  0.50400001928E-02 0.  1.
       -1    1    3    3    0  502  0.71532553079E+02 -0.18172778085E+02  0.13567530949E+03  0.15445046340E+03  0.50400001928E-02 0. -1.
</event>
<event>
 5   0  0.4392552E-04  0.7998602E+03  0.7818609E-02  0.9560219E-01
       -1   -1    0    0    0  501  0.00000000000E+00  0.00000000000E+00  0.54518076853E+03  0.54518076855E+03  0.50400001928E-02 0.  1.
        1   -1    0    0  501    0  0.00000000000E+00  0.00000000000E+00 -0.29337810264E+03  0.29337810268E+03  0.50400001928E-02 0. -1.
    10030    2    1    2    0    0  0.00000000000E+00  0.00000000000E+00  0.25180266589E+03  0.83855887123E+03  0.79986023652E+03 0.  0.
        5    1    3    3  502    0 -0.38797447895E+03  0.22493919854E+02  0.22476010026E+03  0.44896477079E+03  0.46999998093E+01 0.  1.
       -5    1    3    3    0  502  0.38797447895E+03 -0.22493919854E+02  0.27042565634E+02  0.38959410044E+03  0.46999998093E+01 0. -1.
</event>
<event>
 5   0  0.6593118E-04  0.7992600E+03  0.7818609E-02  0.9561089E-01
       -2   -1    0    0    0  501  0.00000000000E+00  0.00000000000E+00  0.13498583561E+03  0.13498583564E+03  0.25500000920E-02 0.  1.
        2   -1    0    0  501    0  0.00000000000E+00  0.00000000000E+00 -0.11831178866E+04  0.11831178866E+04  0.25500000920E-02 0. -1.
    10030    2    1    2    0    0  0.00000000000E+00  0.00000000000E+00 -0.10481320510E+04  0.13181037222E+04  0.79926004921E+03 0.  0.
        1    1    3    3  502    0 -0.22995391809E+03 -0.23139300321E+03 -0.90474098329E+03  0.96175764788E+03  0.50400001928E-02 0. -1.
       -1    1    3    3    0  502  0.22995391809E+03  0.23139300321E+03 -0.14339106767E+03  0.35634607433E+03  0.50400001928E-02 0.  1.
</event>
<event>
 5   0  0.4104786E-04  0.8000164E+03  0.7818609E-02  0.9559993E-01
       -1   -1    0    0    0  501  0.00000000000E+00  0.00000000000E+00  0.53892930241E+03  0.53892930243E+03  0.50400001928E-02 0.  1.
        1   -1    0    0  501    0  0.00000000000E+00  0.00000000000E+00 -0.29689715128E+03  0.29689715132E+03  0.50400001928E-02 0. -1.
    10030    2    1    2    0    0  0.00000000000E+00  0.00000000000E+00  0.24203215113E+03  0.83582645375E+03  0.80001643646E+03 0.  0.
        2    1    3    3  502    0  0.29292149890E+03 -0.10789546884E+03  0.38233628246E+03  0.49358430850E+03  0.25500000920E-02 0.  1.
       -2    1    3    3    0  502 -0.29292149890E+03  0.10789546884E+03 -0.14030413132E+03  0.34224214525E+03  0.25500000920E-02 0. -1.
</event>
<event>
 5   0  0.6970013E-04  0.8000248E+03  0.7818609E-02  0.9559981E-01
       -2   -1    0    0    0  501  0.00000000000E+00  0.00000000000E+00  0.25553899708E+03  0.25553899709E+03  0.25500000920E-02 0.  1.
        2   -1    0    0  501    0  0.00000000000E+00  0.00000000000E+00 -0.62616628935E+03  0.62616628936E+03  0.25500000920E-02 0. -1.
    10030    2    1    2    0    0  0.00000000000E+00  0.00000000000E+00 -0.37062729227E+03  0.88170528645E+03  0.80002476360E+03 0.  0.
        3    1    3    3  502    0 -0.60889978565E+02 -0.26891519323E+03  0.13407969264E+03  0.30659475667E+03  0.10100000352E+00 0.  1.
       -3    1    3    3    0  502  0.60889978565E+02  0.26891519323E+03 -0.50470698491E+03  0.57511052978E+03  0.10100000352E+00 0. -1.
</event>
<event>
 5   0  0.4169155E-04  0.8005274E+03  0.7818609E-02  0.9559254E-01
       -1   -1    0    0    0  501  0.00000000000E+00  0.00000000000E+00  0.32259665577E+03  0.32259665581E+03  0.50400001928E-02 0.  1.
        1   -1    0    0  501    0  0.00000000000E+00  0.00000000000E+00 -0.49662954642E+03  0.49662954644E+03  0.50400001928E-02 0. -1.
    10030    2    1    2    0    0  0.00000000000E+00  0.00000000000E+00 -0.17403289065E+03  0.81922620225E+03  0.80052740330E+03 0.  0.
        4    1    3    3  502    0  0.18970916925E+03  0.35212123188E+03 -0.71480024983E+02  0.40631261082E+03  0.12699999809E+01 0. -1.
       -4    1    3    3    0  502 -0.18970916925E+03 -0.35212123188E+03 -0.10255286567E+03  0.41291359144E+03  0.12699999809E+01 0.  1.
</event>
<event>
 5   0  0.4087283E-04  0.7995927E+03  0.7818609E-02  0.9560607E-01
       -1   -1    0    0    0  501  0.00000000000E+00  0.00000000000E+00  0.16786538310E+03  0.16786538318E+03  0.50400001928E-02 0. -1.
        1   -1    0    0  501    0  0.00000000000E+00  0.00000000000E+00 -0.95217446460E+03  0.95217446462E+03  0.50400001928E-02 0.  1.
    10030    2    1    2    0    0  0.00000000000E+00  0.00000000000E+00 -0.78430908150E+03  0.11200398478E+04  0.79959272466E+03 0.  0.
        1    1    3    3  502    0 -0.12166723062E+03  0.46851210505E+01  0.14126265192E+03  0.18649397368E+03  0.50400001928E-02 0. -1.
       -1    1    3    3    0  502  0.12166723062E+03 -0.46851210505E+01 -0.92557173341E+03  0.93354587412E+03  0.50400001928E-02 0.  1.
</event>
<event>
 5   0  0.4392552E-04  0.7999099E+03  0.7818609E-02  0.9560148E-01
       -1   -1    0    0    0  501  0.00000000000E+00  0.00000000000E+00  0.44096189934E+03  0.44096189937E+03  0.50400001928E-02 0.  1.
        1   -1    0    0  501    0  0.00000000000E+00  0.00000000000E+00 -0.36276136963E+03  0.36276136967E+03  0.50400001928E-02 0. -1.
    10030    2    1    2    0    0  0.00000000000E+00  0.00000000000E+00  0.78200529706E+02  0.80372326904E+03  0.79990985138E+03 0.  0.
        5    1    3    3  502    0  0.16761640173E+03 -0.67791569149E+02 -0.31932277911E+03  0.36698785025E+03  0.46999998093E+01 0. -1.
       -5    1    3    3    0  502 -0.16761640173E+03  0.67791569149E+02  0.39752330881E+03  0.43673541879E+03  0.46999998093E+01 0.  1.
</event>
<event>
 5   0  0.6801147E-04  0.7999760E+03  0.7818609E-02  0.9560052E-01
       -2   -1    0    0    0  501  0.00000000000E+00  0.00000000000E+00  0.34220910407E+03  0.34220910408E+03  0.25500000920E-02 0.  1.
        2   -1    0    0  501    0  0.00000000000E+00  0.00000000000E+00 -0.46752231138E+03  0.46752231139E+03  0.25500000920E-02 0. -1.
    10030    2    1    2    0    0  0.00000000000E+00  0.00000000000E+00 -0.12531320731E+03  0.80973141547E+03  0.79997597794E+03 0.  0.
        4    1    3    3  502    0 -0.14954501771E+03 -0.89091034344E+02 -0.42717016845E+03  0.46127745494E+03  0.12699999809E+01 0. -1.
       -4    1    3    3    0  502  0.14954501771E+03  0.89091034344E+02  0.30185696114E+03  0.34845396053E+03  0.12699999809E+01 0.  1.
</event>
<event>
 5   0  0.4104786E-04  0.7995930E+03  0.7818609E-02  0.9560606E-01
       -1   -1    0    0    0  501  0.00000000000E+00  0.00000000000E+00  0.18603179473E+03  0.18603179480E+03  0.50400001928E-02 0. -1.
        1   -1    0    0  501    0  0.00000000000E+00  0.00000000000E+00 -0.85919311056E+03  0.85919311058E+03  0.50400001928E-02 0.  1.
    10030    2    1    2    0    0  0.00000000000E+00  0.00000000000E+00 -0.67316131583E+03  0.10452249054E+04  0.79959298752E+03 0.  0.
        2    1    3    3  502    0  0.21444233507E+03  0.19713539456E+02  0.10373901631E+03  0.23903121599E+03  0.25500000920E-02 0. -1.
       -2    1    3    3    0  502 -0.21444233507E+03 -0.19713539456E+02 -0.77690033214E+03  0.80619368938E+03  0.25500000920E-02 0.  1.
</event>
<event>
 5   0  0.7133039E-04  0.8003357E+03  0.7818609E-02  0.9559531E-01
       -2   -1    0    0    0  501  0.00000000000E+00  0.00000000000E+00  0.36743429926E+03  0.36743429927E+03  0.25500000920E-02 0. -1.
        2   -1    0    0  501    0  0.00000000000E+00  0.00000000000E+00 -0.43581755861E+03  0.43581755862E+03  0.25500000920E-02 0.  1.
    10030    2    1    2    0    0  0.00000000000E+00  0.00000000000E+00 -0.68383259345E+02  0.80325185789E+03  0.80033572770E+03 0.  0.
        2    1    3    3  502    0 -0.27816599698E+01 -0.27301301503E+03 -0.32781610451E+03  0.42662306828E+03  0.25500000920E-02 0.  1.
       -2    1    3    3    0  502  0.27816599698E+01  0.27301301503E+03  0.25943284516E+03  0.37662878961E+03  0.25500000920E-02 0. -1.
</event>
<event>
 5   0  0.2736375E-04  0.7998414E+03  0.7818609E-02  0.9560247E-01
       -3   -1    0    0    0  501  0.00000000000E+00  0.00000000000E+00  0.20385640319E+03  0.20385642821E+03  0.10100000352E+00 0. -1.
        3   -1    0    0  501    0  0.00000000000E+00  0.00000000000E+00 -0.78455497749E+03  0.78455498399E+03  0.10100000352E+00 0.  1.
    10030    2    1    2    0    0  0.00000000000E+00  0.00000000000E+00 -0.58069857429E+03  0.98841141220E+03  0.79984141277E+03 0.  0.
        3    1    3    3  502    0 -0.31151304779E+03 -0.24311256231E+03 -0.36645103214E+03  0.53891601020E+03  0.10100000352E+00 0.  1.
       -3    1    3    3    0  502  0.31151304779E+03  0.24311256231E+03 -0.21424754216E+03  0.44949540200E+03  0.10100000352E+00 0. -1.
</event>
<event>
 5   0  0.6593118E-04  0.8000907E+03  0.7818609E-02  0.9559886E-01
       -2   -1    0    0    0  501  0.00000000000E+00  0.00000000000E+00  0.16712794389E+03  0.16712794391E+03  0.25500000920E-02 0.  1.
        2   -1    0    0  501    0  0.00000000000E+00  0.00000000000E+00 -0.95756755050E+03  0.95756755051E+03  0.25500000920E-02 0. -1.
    10030    2    1    2    0    0  0.00000000000E+00  0.00000000000E+00 -0.79043960661E+03  0.11246954944E+04  0.80009073453E+03 0.  0.
        1    1    3    3  502    0  0.19489357949E+03  0.11857652621E+03 -0.85716696451E+03  0.88700569613E+03  0.50400001928E-02 0. -1.
       -1    1    3    3    0  502 -0.19489357949E+03 -0.11857652621E+03  0.66727357903E+02  0.23768979829E+03  0.50400001928E-02 0.  1.
</event>
<event>
 5   0  0.6672462E-04  0.8000745E+03  0.7818609E-02  0.9559909E-01
       -2   -1    0    0    0  501  0.00000000000E+00  0.00000000000E+00  0.30428367955E+03  0.30428367956E+03  0.25500000920E-02 0. -1.
        2   -1    0    0  501    0  0.00000000000E+00  0.00000000000E+00 -0.52592300871E+03  0.52592300871E+03  0.25500000920E-02 0.  1.
    10030    2    1    2    0    0  0.00000000000E+00  0.00000000000E+00 -0.22163932916E+03  0.83020668827E+03  0.80007446717E+03 0.  0.
        5    1    3    3  502    0  0.28254711212E+03 -0.44774006568E+02  0.17929935097E+03  0.33765060268E+03  0.46999998093E+01 0. -1.
       -5    1    3    3    0  502 -0.28254711212E+03  0.44774006568E+02 -0.40093868013E+03  0.49255608559E+03  0.46999998093E+01 0.  1.
</event>
<event>
 5   0  0.4104786E-04  0.8010542E+03  0.7818609E-02  0.9558492E-01
       -1   -1    0    0    0  501  0.00000000000E+00  0.00000000000E+00  0.12505748297E+03  0.12505748307E+03  0.50400001928E-02 0. -1.
        1   -1    0    0  501    0  0.00000000000E+00  0.00000000000E+00 -0.12827857468E+04  0.12827857468E+04  0.50400001928E-02 0.  1.
    10030    2    1    2    0    0  0.00000000000E+00  0.00000000000E+00 -0.11577282639E+04  0.14078432299E+04  0.80105419734E+03 0.  0.
        2    1    3    3  502    0 -0.23215491995E+03 -0.85748714510E+02 -0.11323283861E+04  0.11590583777E+04  0.25500000920E-02 0.  1.
       -2    1    3    3    0  502  0.23215491995E+03  0.85748714510E+02 -0.25399877739E+02  0.24878485221E+03  0.25500000920E-02 0. -1.
</event>
<event>
 5   0  0.4169155E-04  0.8000890E+03  0.7818609E-02  0.9559888E-01
       -1   -1    0    0    0  501  0.00000000000E+00  0.00000000000E+00  0.14383073497E+03  0.14383073506E+03  0.50400001928E-02 0. -1.
        1   -1    0    0  501    0  0.00000000000E+00  0.00000000000E+00 -0.11126662487E+04  0.11126662487E+04  0.50400001928E-02 0.  1.
    10030    2    1    2    0    0  0.00000000000E+00  0.00000000000E+00 -0.96883551373E+03  0.12564969838E+04  0.80008900602E+03 0.  0.
        4    1    3    3  502    0  0.20359073936E+03  0.15734884270E+03 -0.33734470267E+01  0.25733410286E+03  0.12699999809E+01 0. -1.
       -4    1    3    3    0  502 -0.20359073936E+03 -0.15734884270E+03 -0.96546206671E+03  0.99916288092E+03  0.12699999809E+01 0.  1.
</event>
<event>
 5   0  0.6801147E-04  0.8004524E+03  0.7818609E-02  0.9559363E-01
       -2   -1    0    0    0  501  0.00000000000E+00  0.00000000000E+00  0.15989921575E+03  0.15989921577E+03  0.25500000920E-02 0.  1.
        2   -1    0    0  501    0  0.00000000000E+00  0.00000000000E+00 -0.10017622743E+04  0.10017622743E+04  0.25500000920E-02 0. -1.
    10030    2    1    2    0    0  0.00000000000E+00  0.00000000000E+00 -0.84186305850E+03  0.11616614900E+04  0.80045237719E+03 0.  0.
        4    1    3    3  502    0  0.38991434519E+02 -0.39279641102E+03 -0.32499441878E+03  0.51130454488E+03  0.12699999809E+01 0.  1.
       -4    1    3    3    0  502 -0.38991434519E+02  0.39279641102E+03 -0.51686863972E+03  0.65035694515E+03  0.12699999809E+01 0. -1.
</event>
<event>
 5   0  0.6970013E-04  0.7997779E+03  0.7818609E-02  0.9560339E-01
       -2   -1    0    0    0  501  0.00000000000E+00  0.00000000000E+00  0.12021114512E+03  0.12021114515E+03  0.25500000920E-02 0.  1.
        2   -1    0    0  501    0  0.00000000000E+00  0.00000000000E+00 -0.13302525510E+04  0.13302525510E+04  0.25500000920E-02 0. -1.
    10030    2    1    2    0    0  0.00000000000E+00  0.00000000000E+00 -0.12100414058E+04  0.14504636961E+04  0.79977792536E+03 0.  0.
        3    1    3    3  502    0  0.39401826112E+03  0.57509664803E+02 -0.67174036636E+03  0.78089236239E+03  0.10100000352E+00 0. -1.
       -3    1    3    3    0  502 -0.39401826112E+03 -0.57509664803E+02 -0.53830103947E+03  0.66957133371E+03  0.10100000352E+00 0.  1.
</event>
<event>
 5   0  0.4087283E-04  0.8001563E+03  0.7818609E-02  0.9559791E-01
       -1   -1    0    0    0  501  0.00000000000E+00  0.00000000000E+00  0.78986178645E+03  0.78986178646E+03  0.50400001928E-02 0.  1.
        1   -1    0    0  501    0  0.00000000000E+00  0.00000000000E+00 -0.20264626503E+03  0.20264626510E+03  0.50400001928E-02 0. -1.
    10030    2    1    2    0    0  0.00000000000E+00  0.00000000000E+00  0.58721552141E+03  0.99250805156E+03  0.80015633711E+03 0.  0.
        1    1    3    3  502    0 -0.16038235644E+03  0.60185319897E+02 -0.15485511888E+03  0.23092180680E+03  0.50400001928E-02 0. -1.
       -1    1    3    3    0  502  0.16038235644E+03 -0.60185319897E+02  0.74207064030E+03  0.76158624476E+03  0.50400001928E-02 0.  1.
</event>
<event>
 5   0  0.4087283E-04  0.8020317E+03  0.7818609E-02  0.9557081E-01
        1   -1    0    0  501    0  0.00000000000E+00  0.00000000000E+00  0.76353385136E+03  0.76353385138E+03  0.50400001928E-02 0. -1.
       -1   -1    0    0    0  501  0.00000000000E+00  0.00000000000E+00 -0.21061768353E+03  0.21061768359E+03  0.50400001928E-02 0.  1.
    10030    2    1    2    0    0  0.00000000000E+00  0.00000000000E+00  0.55291616783E+03  0.97415153497E+03  0.80203174777E+03 0.  0.
        1    1    3    3  502    0 -0.55153459507E+02  0.28167122964E+03 -0.63703116329E+02  0.29400454547E+03  0.50400001928E-02 0.  1.
       -1    1    3    3    0  502  0.55153459507E+02 -0.28167122964E+03  0.61661928416E+03  0.68014698950E+03  0.50400001928E-02 0. -1.
</event>
<event>
 5   0  0.4104786E-04  0.8001539E+03  0.7818609E-02  0.9559794E-01
       -1   -1    0    0    0  501  0.00000000000E+00  0.00000000000E+00  0.17349681778E+03  0.17349681785E+03  0.50400001928E-02 0.  1.
        1   -1    0    0  501    0  0.00000000000E+00  0.00000000000E+00 -0.92256194907E+03  0.92256194908E+03  0.50400001928E-02 0. -1.
    10030    2    1    2    0    0  0.00000000000E+00  0.00000000000E+00 -0.74906513129E+03  0.10960587669E+04  0.80015389124E+03 0.  0.
        2    1    3    3  502    0  0.13282283547E+03  0.37493679975E+03 -0.43332363737E+03  0.58820819796E+03  0.25500000920E-02 0. -1.
       -2    1    3    3    0  502 -0.13282283547E+03 -0.37493679975E+03 -0.31574149392E+03  0.50785056898E+03  0.25500000920E-02 0.  1.
</event>
<event>
 5   0  0.4104786E-04  0.8012570E+03  0.7818609E-02  0.9558200E-01
        1   -1    0    0  501    0  0.00000000000E+00  0.00000000000E+00  0.53663940830E+03  0.53663940832E+03  0.50400001928E-02 0. -1.
       -1   -1    0    0    0  501  0.00000000000E+00  0.00000000000E+00 -0.29908943291E+03  0.29908943295E+03  0.50400001928E-02 0.  1.
    10030    2    1    2    0    0  0.00000000000E+00  0.00000000000E+00  0.23754997539E+03  0.83572884127E+03  0.80125695337E+03 0.  0.
        2    1    3    3  502    0  0.80642907501E+02  0.37656249304E+03  0.35666434327E+01  0.38511726870E+03  0.25500000920E-02 0.  1.
       -2    1    3    3    0  502 -0.80642907501E+02 -0.37656249304E+03  0.23398333195E+03  0.45061157257E+03  0.25500000920E-02 0. -1.
</event>
<event>
 5   0  0.6672462E-04  0.7997229E+03  0.7818609E-02  0.9560418E-01
       -2   -1    0    0    0  501  0.00000000000E+00  0.00000000000E+00  0.72097953892E+03  0.72097953893E+03  0.25500000920E-02 0. -1.
        2   -1    0    0  501    0  0.00000000000E+00  0.00000000000E+00 -0.22176661431E+03  0.22176661432E+03  0.25500000920E-02 0.  1.
    10030    2    1    2    0    0  0.00000000000E+00  0.00000000000E+00  0.49921292462E+03  0.94274615325E+03  0.79972293037E+03 0.  0.
        5    1    3    3  502    0  0.32002049703E+03  0.22864836345E+03  0.16481256413E+03  0.42647211388E+03  0.46999998093E+01 0.  1.
       -5    1    3    3    0  502 -0.32002049703E+03 -0.22864836345E+03  0.33440036049E+03  0.51627403936E+03  0.46999998093E+01 0. -1.
</event>
<event>
 5   0  0.4392552E-04  0.8005972E+03  0.7818609E-02  0.9559153E-01
        1   -1    0    0  501    0  0.00000000000E+00  0.00000000000E+00  0.25887984214E+03  0.25887984219E+03  0.50400001928E-02 0. -1.
       -1   -1    0    0    0  501  0.00000000000E+00  0.00000000000E+00 -0.61897048861E+03  0.61897048863E+03  0.50400001928E-02 0.  1.
    10030    2    1    2    0    0  0.00000000000E+00  0.00000000000E+00 -0.36009064647E+03  0.87785033082E+03  0.80059723310E+03 0.  0.
        5    1    3    3  502    0 -0.19732120467E+03  0.25874392387E+03  0.75540935846E+02  0.33408471821E+03  0.46999998093E+01 0. -1.
       -5    1    3    3    0  502  0.19732120467E+03 -0.25874392387E+03 -0.43563158232E+03  0.54376561262E+03  0.46999998093E+01 0.  1.
</event>
<event>
 5   0  0.4086111E-04  0.7999867E+03  0.7818609E-02  0.9560036E-01
       -1   -1    0    0    0  501  0.00000000000E+00  0.00000000000E+00  0.10700639864E+03  0.10700639876E+03  0.50400001928E-02 0.  1.
        1   -1    0    0  501    0  0.00000000000E+00  0.00000000000E+00 -0.14951879734E+04  0.14951879734E+04  0.50400001928E-02 0. -1.
    10030    2    1    2    0    0  0.00000000000E+00  0.00000000000E+00 -0.13881815747E+04  0.16021943721E+04  0.79998670095E+03 0.  0.
        3    1    3    3  502    0 -0.37441365869E+03  0.11958461219E+03 -0.54544480712E+03  0.67230656333E+03  0.10100000352E+00 0.  1.
       -3    1    3    3    0  502  0.37441365869E+03 -0.11958461219E+03 -0.84273676761E+03  0.92988780881E+03  0.10100000352E+00 0. -1.
</event>
<event>
 5   0  0.4086111E-04  0.7998987E+03  0.7818609E-02  0.9560164E-01
       -1   -1    0    0    0  501  0.00000000000E+00  0.00000000000E+00  0.10391226416E+04  0.10391226416E+04  0.50400001928E-02 0.  1.
        1   -1    0    0  501    0  0.00000000000E+00  0.00000000000E+00 -0.15393705633E+03  0.15393705641E+03  0.50400001928E-02 0. -1.
    10030    2    1    2    0    0  0.00000000000E+00  0.00000000000E+00  0.88518558524E+03  0.11930596980E+04  0.79989869525E+03 0.  0.
        3    1    3    3  502    0  0.90397068010E+02 -0.32493928005E+02 -0.13647564804E+03  0.16689247428E+03  0.10100000352E+00 0. -1.
       -3    1    3    3    0  502 -0.90397068010E+02  0.32493928005E+02  0.10216612333E+04  0.10261672237E+04  0.10100000352E+00 0.  1.
</event>
<event>
 5   0  0.4169155E-04  0.7997839E+03  0.7818609E-02  0.9560330E-01
        1   -1    0    0  501    0  0.00000000000E+00  0.00000000000E+00  0.18123638463E+03  0.18123638470E+03  0.50400001928E-02 0. -1.
       -1   -1    0    0    0  501  0.00000000000E+00  0.00000000000E+00 -0.88234804901E+03  0.88234804902E+03  0.50400001928E-02 0.  1.
    10030    2    1    2    0    0  0.00000000000E+00  0.00000000000E+00 -0.70111166438E+03  0.10635844337E+04  0.79978389690E+03 0.  0.
        4    1    3    3  502    0  0.83446545285E+02 -0.10743494506E+03 -0.85062927909E+03  0.86143913116E+03  0.12699999809E+01 0.  1.
       -4    1    3    3    0  502 -0.83446545285E+02  0.10743494506E+03  0.14951761472E+03  0.20214530257E+03  0.12699999809E+01 0. -1.
</event>
<event>
 5   0  0.7133039E-04  0.8003429E+03  0.7818609E-02  0.9559521E-01
        2   -1    0    0  501    0  0.00000000000E+00  0.00000000000E+00  0.15358837176E+04  0.15358837176E+04  0.25500000920E-02 0. -1.
       -2   -1    0    0    0  501  0.00000000000E+00  0.00000000000E+00 -0.10426386511E+03  0.10426386514E+03  0.25500000920E-02 0.  1.
    10030    2    1    2    0    0  0.00000000000E+00  0.00000000000E+00  0.14316198525E+04  0.16401475828E+04  0.80034285849E+03 0.  0.
        2    1    3    3  502    0  0.94245024546E+02  0.19371958894E+03  0.14069086866E+04  0.14233065223E+04  0.25500000920E-02 0. -1.
       -2    1    3    3    0  502 -0.94245024546E+02 -0.19371958894E+03  0.24711165874E+02  0.21684106049E+03  0.25500000920E-02 0.  1.
</event>
<event>
 5   0  0.6593118E-04  0.7997689E+03  0.7818609E-02  0.9560352E-01
        2   -1    0    0  501    0  0.00000000000E+00  0.00000000000E+00  0.11687770242E+04  0.11687770242E+04  0.25500000920E-02 0. -1.
       -2   -1    0    0    0  501  0.00000000000E+00  0.00000000000E+00 -0.13681614143E+03  0.13681614145E+03  0.25500000920E-02 0.  1.
    10030    2    1    2    0    0  0.00000000000E+00  0.00000000000E+00  0.10319608827E+04  0.13055931656E+04  0.79976887325E+03 0.  0.
        1    1    3    3  502    0  0.86108606240E+02  0.47587748421E+02  0.11487115878E+04  0.11529169952E+04  0.50400001928E-02 0. -1.
       -1    1    3    3    0  502 -0.86108606240E+02 -0.47587748421E+02 -0.11675070504E+03  0.15267617044E+03  0.50400001928E-02 0.  1.
</event>
<event>
 5   0  0.4392552E-04  0.7998089E+03  0.7818609E-02  0.9560294E-01
        1   -1    0    0  501    0  0.00000000000E+00  0.00000000000E+00  0.46534871928E+03  0.46534871931E+03  0.50400001928E-02 0. -1.
       -1   -1    0    0    0  501  0.00000000000E+00  0.00000000000E+00 -0.34366395166E+03  0.34366395170E+03  0.50400001928E-02 0.  1.
    10030    2    1    2    0    0  0.00000000000E+00  0.00000000000E+00  0.12168476762E+03  0.80901267101E+03  0.79980892667E+03 0.  0.
        5    1    3    3  502    0  0.19753441265E+03 -0.25291695825E+03  0.30215561861E+03  0.44080260867E+03  0.46999998093E+01 0. -1.
       -5    1    3    3    0  502 -0.19753441265E+03  0.25291695825E+03 -0.18047085100E+03  0.36821006234E+03  0.46999998093E+01 0.  1.
</event>
<event>
 5   0  0.4104786E-04  0.7999279E+03  0.7818609E-02  0.9560121E-01
       -1   -1    0    0    0  501  0.00000000000E+00  0.00000000000E+00  0.56229719460E+03  0.56229719462E+03  0.50400001928E-02 0.  1.
        1   -1    0    0  501    0  0.00000000000E+00  0.00000000000E+00 -0.28449576660E+03  0.28449576664E+03  0.50400001928E-02 0. -1.
    10030    2    1    2    0    0  0.00000000000E+00  0.00000000000E+00  0.27780142800E+03  0.84679296127E+03  0.79992792541E+03 0.  0.
        2    1    3    3  502    0  0.19144970775E+03  0.32618236275E+03  0.11898418102E+01  0.37821864060E+03  0.25500000920E-02 0. -1.
       -2    1    3    3    0  502 -0.19144970775E+03 -0.32618236275E+03  0.27661158619E+03  0.46857432067E+03  0.25500000920E-02 0.  1.
</event>
<event>
 5   0  0.4086111E-04  0.7997512E+03  0.7818609E-02  0.9560377E-01
        1   -1    0    0  501    0  0.00000000000E+00  0.00000000000E+00  0.58521755034E+03  0.58521755036E+03  0.50400001928E-02 0.  1.
       -1   -1    0    0    0  501  0.00000000000E+00  0.00000000000E+00 -0.27323259654E+03  0.27323259659E+03  0.50400001928E-02 0. -1.
    10030    2    1    2    0    0  0.00000000000E+00  0.00000000000E+00  0.31198495380E+03  0.85845014694E+03  0.79975123844E+03 0.  0.
        3    1    3    3  502    0 -0.33076993220E+02 -0.28251767507E+03 -0.14568764854E+03  0.31958602182E+03  0.10100000352E+00 0. -1.
       -3    1    3    3    0  502  0.33076993220E+02  0.28251767507E+03  0.45767260234E+03  0.53886412512E+03  0.10100000352E+00 0.  1.
</event>
<event>
 5   0  0.7133039E-04  0.8045805E+03  0.7818609E-02  0.9553411E-01
        2   -1    0    0  501    0  0.00000000000E+00  0.00000000000E+00  0.96509540163E+03  0.96509540163E+03  0.25500000920E-02 0.  1.
       -2   -1    0    0    0  501  0.00000000000E+00  0.00000000000E+00 -0.16769063736E+03  0.16769063738E+03  0.25500000920E-02 0. -1.
    10030    2    1    2    0    0  0.00000000000E+00  0.00000000000E+00  0.79740476427E+03  0.11327860390E+04  0.80458054419E+03 0.  0.
        2    1    3    3  502    0  0.35271346371E+03 -0.14188406360E+03  0.21352146022E+03  0.43603817375E+03  0.25500000920E-02 0. -1.
       -2    1    3    3    0  502 -0.35271346371E+03  0.14188406360E+03  0.58388330406E+03  0.69674786526E+03  0.25500000920E-02 0.  1.
</event>
<event>
 5   0  0.6593118E-04  0.7999880E+03  0.7818609E-02  0.9560034E-01
       -2   -1    0    0    0  501  0.00000000000E+00  0.00000000000E+00  0.10675218025E+03  0.10675218028E+03  0.25500000920E-02 0.  1.
        2   -1    0    0  501    0  0.00000000000E+00  0.00000000000E+00 -0.14987534994E+04  0.14987534994E+04  0.25500000920E-02 0. -1.
    10030    2    1    2    0    0  0.00000000000E+00  0.00000000000E+00 -0.13920013191E+04  0.16055056797E+04  0.79998800927E+03 0.  0.
        1    1    3    3  502    0 -0.13453925093E+03  0.28944627212E+03 -0.21219224102E+03  0.38328253503E+03  0.50400001928E-02 0.  1.
       -1    1    3    3    0  502  0.13453925093E+03 -0.28944627212E+03 -0.11798090781E+04  0.12222231446E+04  0.50400001928E-02 0. -1.
</event>
<event>
 5   0  0.4087283E-04  0.7999040E+03  0.7818609E-02  0.9560156E-01
       -1   -1    0    0    0  501  0.00000000000E+00  0.00000000000E+00  0.22979001308E+03  0.22979001313E+03  0.50400001928E-02 0. -1.
        1   -1    0    0  501    0  0.00000000000E+00  0.00000000000E+00 -0.69612080680E+03  0.69612080682E+03  0.50400001928E-02 0.  1.
    10030    2    1    2    0    0  0.00000000000E+00  0.00000000000E+00 -0.46633079372E+03  0.92591081995E+03  0.79990401757E+03 0.  0.
        1    1    3    3  502    0  0.31059730738E+03  0.14710126370E+03  0.36391934758E+01  0.34368984985E+03  0.50400001928E-02 0.  1.
       -1    1    3    3    0  502 -0.31059730738E+03 -0.14710126370E+03 -0.46996998720E+03  0.58222097010E+03  0.50400001928E-02 0. -1.
</event>
<event>
 5   0  0.7133039E-04  0.8000374E+03  0.7818609E-02  0.9559963E-01
       -2   -1    0    0    0  501  0.00000000000E+00  0.00000000000E+00  0.19165116392E+03  0.19165116394E+03  0.25500000920E-02 0.  1.
        2   -1    0    0  501    0  0.00000000000E+00  0.00000000000E+00 -0.83492822572E+03  0.83492822572E+03  0.25500000920E-02 0. -1.
    10030    2    1    2    0    0  0.00000000000E+00  0.00000000000E+00 -0.64327706180E+03  0.10265793897E+04  0.80003741477E+03 0.  0.
        2    1    3    3  502    0  0.30180359889E+03 -0.23322631739E+03 -0.47633854064E+03  0.61022809894E+03  0.25500000920E-02 0. -1.
       -2    1    3    3    0  502 -0.30180359889E+03  0.23322631739E+03 -0.16693852116E+03  0.41635129072E+03  0.25500000920E-02 0.  1.
</event>
<event>
 5   0  0.4104786E-04  0.7979093E+03  0.7818609E-02  0.9563048E-01
       -1   -1    0    0    0  501  0.00000000000E+00  0.00000000000E+00  0.48078077675E+03  0.48078077678E+03  0.50400001928E-02 0.  1.
        1   -1    0    0  501    0  0.00000000000E+00  0.00000000000E+00 -0.33105489042E+03  0.33105489046E+03  0.50400001928E-02 0. -1.
    10030    2    1    2    0    0  0.00000000000E+00  0.00000000000E+00  0.14972588633E+03  0.81183566724E+03  0.79790933668E+03 0.  0.
        2    1    3    3  502    0 -0.12343408779E+03 -0.37436379704E+03  0.13742269150E+03  0.41745565358E+03  0.25500000920E-02 0.  1.
       -2    1    3    3    0  502  0.12343408779E+03  0.37436379704E+03  0.12303194825E+02  0.39438001366E+03  0.25500000920E-02 0. -1.
</event>
<event>
 5   0  0.2736375E-04  0.8000347E+03  0.7818609E-02  0.9559967E-01
        3   -1    0    0  501    0  0.00000000000E+00  0.00000000000E+00  0.40368073753E+03  0.40368075016E+03  0.10100000352E+00 0.  1.
       -3   -1    0    0    0  501  0.00000000000E+00  0.00000000000E+00 -0.39638717298E+03  0.39638718585E+03  0.10100000352E+00 0. -1.
    10030    2    1    2    0    0  0.00000000000E+00  0.00000000000E+00  0.72935645487E+01  0.80006793601E+03  0.80003469059E+03 0.  0.
        4    1    3    3  502    0 -0.32219595796E+03 -0.20720789080E+02 -0.23252542730E+03  0.39788097927E+03  0.12699999809E+01 0. -1.
       -4    1    3    3    0  502  0.32219595796E+03  0.20720789080E+02  0.23981899184E+03  0.40218695674E+03  0.12699999809E+01 0.  1.
</event>
<event>
 5   0  0.4086111E-04  0.7995676E+03  0.7818609E-02  0.9560643E-01
       -1   -1    0    0    0  501  0.00000000000E+00  0.00000000000E+00  0.15751054433E+03  0.15751054441E+03  0.50400001928E-02 0.  1.
        1   -1    0    0  501    0  0.00000000000E+00  0.00000000000E+00 -0.10147072385E+04  0.10147072385E+04  0.50400001928E-02 0. -1.
    10030    2    1    2    0    0  0.00000000000E+00  0.00000000000E+00 -0.85719669417E+03  0.11722177829E+04  0.79956760695E+03 0.  0.
        3    1    3    3  502    0 -0.41990131255E+02  0.23554934961E+03  0.40955425348E+02  0.24274271213E+03  0.10100000352E+00 0.  1.
       -3    1    3    3    0  502  0.41990131255E+02 -0.23554934961E+03 -0.89815211951E+03  0.92947507079E+03  0.10100000352E+00 0. -1.
</event>
<event>
 5   0  0.6672462E-04  0.7995560E+03  0.7818609E-02  0.9560660E-01
       -2   -1    0    0    0  501  0.00000000000E+00  0.00000000000E+00  0.71895247965E+02  0.71895248010E+02  0.25500000920E-02 0.  1.
        2   -1    0    0  501    0  0.00000000000E+00  0.00000000000E+00 -0.22229901731E+04  0.22229901731E+04  0.25500000920E-02 0. -1.
    10030    2    1    2    0    0  0.00000000000E+00  0.00000000000E+00 -0.21510949252E+04  0.22948854211E+04  0.79955595120E+03 0.  0.
        5    1    3    3  502    0 -0.24433610319E+03  0.51181559621E+02 -0.17941673468E+03  0.30746079107E+03  0.46999998093E+01 0.  1.
       -5    1    3    3    0  502  0.24433610319E+03 -0.51181559621E+02 -0.19716781905E+04  0.19874246301E+04  0.46999998093E+01 0. -1.
</event>
<event>
 5   0  0.7133039E-04  0.8002099E+03  0.7818609E-02  0.9559713E-01
       -2   -1    0    0    0  501  0.00000000000E+00  0.00000000000E+00  0.12012965159E+03  0.12012965162E+03  0.25500000920E-02 0. -1.
        2   -1    0    0  501    0  0.00000000000E+00  0.00000000000E+00 -0.13325933161E+04  0.13325933161E+04  0.25500000920E-02 0.  1.
    10030    2    1    2    0    0  0.00000000000E+00  0.00000000000E+00 -0.12124636645E+04  0.14527229677E+04  0.80020989946E+03 0.  0.
        2    1    3    3  502    0 -0.24319985124E+03  0.32426846797E+01 -0.29487699451E+02  0.24500246340E+03  0.25500000920E-02 0. -1.
       -2    1    3    3    0  502  0.24319985124E+03 -0.32426846797E+01 -0.11829759650E+04  0.12077205043E+04  0.25500000920E-02 0.  1.
</event>
<event>
 5   0  0.4392552E-04  0.7998110E+03  0.7818609E-02  0.9560291E-01
       -1   -1    0    0    0  501  0.00000000000E+00  0.00000000000E+00  0.29018388212E+03  0.29018388217E+03  0.50400001928E-02 0.  1.
        1   -1    0    0  501    0  0.00000000000E+00  0.00000000000E+00 -0.55111404380E+03  0.55111404382E+03  0.50400001928E-02 0. -1.
    10030    2    1    2    0    0  0.00000000000E+00  0.00000000000E+00 -0.26093016168E+03  0.84129792599E+03  0.79981100955E+03 0.  0.
        5    1    3    3  502    0 -0.13101527672E+03  0.25851203439E+03 -0.42027192712E+03  0.51053311095E+03  0.46999998093E+01 0. -1.
       -5    1    3    3    0  502  0.13101527672E+03 -0.25851203439E+03  0.15934176544E+03  0.33076481504E+03  0.46999998093E+01 0.  1.
</event>
<event>
 5   0  0.4392552E-04  0.8000645E+03  0.7818609E-02  0.9559924E-01
        1   -1    0    0  501    0  0.00000000000E+00  0.00000000000E+00  0.39097268075E+03  0.39097268079E+03  0.50400001928E-02 0.  1.
       -1   -1    0    0    0  501  0.00000000000E+00  0.00000000000E+00 -0.40930179333E+03  0.40930179336E+03  0.50400001928E-02 0. -1.
    10030    2    1    2    0    0  0.00000000000E+00  0.00000000000E+00 -0.18329112578E+02  0.80027447415E+03  0.80006454590E+03 0.  0.
        5    1    3    3  502    0 -0.19345597296E+03  0.33820540238E+03  0.81388870900E+02  0.39806324369E+03  0.46999998093E+01 0. -1.
       -5    1    3    3    0  502  0.19345597296E+03 -0.33820540238E+03 -0.99717983478E+02  0.40221123045E+03  0.46999998093E+01 0.  1.
</event>
<event>
 5   0  0.4104786E-04  0.7999051E+03  0.7818609E-02  0.9560154E-01
        1   -1    0    0  501    0  0.00000000000E+00  0.00000000000E+00  0.26558843959E+03  0.26558843964E+03  0.50400001928E-02 0. -1.
       -1   -1    0    0    0  501  0.00000000000E+00  0.00000000000E+00 -0.60229294882E+03  0.60229294884E+03  0.50400001928E-02 0.  1.
    10030    2    1    2    0    0  0.00000000000E+00  0.00000000000E+00 -0.33670450923E+03  0.86788138848E+03  0.79990510558E+03 0.  0.
        2    1    3    3  502    0  0.86974345374E+02 -0.66139416381E+00  0.25520313793E+03  0.26961753618E+03  0.25500000920E-02 0. -1.
       -2    1    3    3    0  502 -0.86974345374E+02  0.66139416381E+00 -0.59190764717E+03  0.59826385231E+03  0.25500000920E-02 0.  1.
</event>
<event>
 5   0  0.4087283E-04  0.7998654E+03  0.7818609E-02  0.9560212E-01
        1   -1    0    0  501    0  0.00000000000E+00  0.00000000000E+00  0.79049264608E+03  0.79049264610E+03  0.50400001928E-02 0. -1.
       -1   -1    0    0    0  501  0.00000000000E+00  0.00000000000E+00 -0.20233730976E+03  0.20233730982E+03  0.50400001928E-02 0.  1.
    10030    2    1    2    0    0  0.00000000000E+00  0.00000000000E+00  0.58815533632E+03  0.99282995592E+03  0.79986537725E+03 0.  0.
        1    1    3    3  502    0 -0.20520723805E+03 -0.29391651922E+03  0.51419941207E+03  0.62681573546E+03  0.50400001928E-02 0. -1.
       -1    1    3    3    0  502  0.20520723805E+03  0.29391651922E+03  0.73955924256E+02  0.36601422046E+03  0.50400001928E-02 0.  1.
</event>
<event>
 5   0  0.7133039E-04  0.8001138E+03  0.7818609E-02  0.9559852E-01
       -2   -1    0    0    0  501  0.00000000000E+00  0.00000000000E+00  0.54196205273E+02  0.54196205333E+02  0.25500000920E-02 0. -1.
        2   -1    0    0  501    0  0.00000000000E+00  0.00000000000E+00 -0.29530763680E+04  0.29530763680E+04  0.25500000920E-02 0.  1.
    10030    2    1    2    0    0  0.00000000000E+00  0.00000000000E+00 -0.28988801627E+04  0.30072725734E+04  0.80011382470E+03 0.  0.
        2    1    3    3  502    0  0.21514491570E+03 -0.20473465376E+02 -0.18408977226E+03  0.28389353954E+03  0.25500000920E-02 0. -1.
       -2    1    3    3    0  502 -0.21514491570E+03  0.20473465376E+02 -0.27147903905E+04  0.27233790338E+04  0.25500000920E-02 0.  1.
</event>
<event>
 5   0  0.4087283E-04  0.8003618E+03  0.7818609E-02  0.9559493E-01
        1   -1    0    0  501    0  0.00000000000E+00  0.00000000000E+00  0.89887193803E+03  0.89887193805E+03  0.50400001928E-02 0. -1.
       -1   -1    0    0    0  501  0.00000000000E+00  0.00000000000E+00 -0.17816194431E+03  0.17816194438E+03  0.50400001928E-02 0.  1.
    10030    2    1    2    0    0  0.00000000000E+00  0.00000000000E+00  0.72070999372E+03  0.10770338824E+04  0.80036184869E+03 0.  0.
        1    1    3    3  502    0 -0.27999736435E+03 -0.63239713237E+02  0.73557395263E+03  0.78959915476E+03  0.50400001928E-02 0. -1.
       -1    1    3    3    0  502  0.27999736435E+03  0.63239713237E+02 -0.14863958911E+02  0.28743472767E+03  0.50400001928E-02 0.  1.
</event>
<event>
 5   0  0.2736375E-04  0.8000265E+03  0.7818609E-02  0.9559979E-01
        3   -1    0    0  501    0  0.00000000000E+00  0.00000000000E+00  0.37552524225E+03  0.37552525583E+03  0.10100000352E+00 0. -1.
       -3   -1    0    0    0  501  0.00000000000E+00  0.00000000000E+00 -0.42609809410E+03  0.42609810607E+03  0.10100000352E+00 0.  1.
    10030    2    1    2    0    0  0.00000000000E+00  0.00000000000E+00 -0.50572851850E+02  0.80162336190E+03  0.80002650019E+03 0.  0.
        3    1    3    3  502    0  0.15425006868E+03 -0.36386543666E+03  0.36638632946E+02  0.39690494996E+03  0.10100000352E+00 0. -1.
       -3    1    3    3    0  502 -0.15425006868E+03  0.36386543666E+03 -0.87211484795E+02  0.40471841194E+03  0.10100000352E+00 0.  1.
</event>
<event>
 5   0  0.6672462E-04  0.8005613E+03  0.7818609E-02  0.9559205E-01
       -2   -1    0    0    0  501  0.00000000000E+00  0.00000000000E+00  0.21373942467E+03  0.21373942468E+03  0.25500000920E-02 0.  1.
        2   -1    0    0  501    0  0.00000000000E+00  0.00000000000E+00 -0.74962580490E+03  0.74962580491E+03  0.25500000920E-02 0. -1.
    10030    2    1    2    0    0  0.00000000000E+00  0.00000000000E+00 -0.53588638023E+03  0.96336522959E+03  0.80056127377E+03 0.  0.
        5    1    3    3  502    0 -0.38918514558E+03  0.43231917928E+02 -0.36767297334E+03  0.53715880481E+03  0.46999998093E+01 0. -1.
       -5    1    3    3    0  502  0.38918514558E+03 -0.43231917928E+02 -0.16821340689E+03  0.42620642478E+03  0.46999998093E+01 0.  1.
</event>
<event>
 5   0  0.4086111E-04  0.7997777E+03  0.7818609E-02  0.9560339E-01
       -1   -1    0    0    0  501  0.00000000000E+00  0.00000000000E+00  0.34003458514E+03  0.34003458517E+03  0.50400001928E-02 0. -1.
        1   -1    0    0  501    0  0.00000000000E+00  0.00000000000E+00 -0.47027886918E+03  0.47027886921E+03  0.50400001928E-02 0.  1.
    10030    2    1    2    0    0  0.00000000000E+00  0.00000000000E+00 -0.13024428404E+03  0.81031345438E+03  0.79977766962E+03 0.  0.
        3    1    3    3  502    0  0.94678255474E+02  0.31954207191E+03  0.15878679877E+03  0.36916712400E+03  0.10100000352E+00 0. -1.
       -3    1    3    3    0  502 -0.94678255474E+02 -0.31954207191E+03 -0.28903108281E+03  0.44114633038E+03  0.10100000352E+00 0.  1.
</event>
<event>
 5   0  0.4392552E-04  0.7991342E+03  0.7818609E-02  0.9561271E-01
        1   -1    0    0  501    0  0.00000000000E+00  0.00000000000E+00  0.40944916267E+03  0.40944916270E+03  0.50400001928E-02 0.  1.
       -1   -1    0    0    0  501  0.00000000000E+00  0.00000000000E+00 -0.38992356656E+03  0.38992356659E+03  0.50400001928E-02 0. -1.
    10030    2    1    2    0    0  0.00000000000E+00  0.00000000000E+00  0.19525596105E+02  0.79937272929E+03  0.79913422617E+03 0.  0.
        5    1    3    3  502    0  0.22772292136E+03  0.29489839319E+03 -0.13453349248E+03  0.39616176219E+03  0.46999998093E+01 0.  1.
       -5    1    3    3    0  502 -0.22772292136E+03 -0.29489839319E+03  0.15405908858E+03  0.40321096711E+03  0.46999998093E+01 0. -1.
</event>
<event>
 5   0  0.4392552E-04  0.7998401E+03  0.7818609E-02  0.9560249E-01
       -1   -1    0    0    0  501  0.00000000000E+00  0.00000000000E+00  0.24410046429E+03  0.24410046434E+03  0.50400001928E-02 0.  1.
        1   -1    0    0  501    0  0.00000000000E+00  0.00000000000E+00 -0.65520575946E+03  0.65520575948E+03  0.50400001928E-02 0. -1.
    10030    2    1    2    0    0  0.00000000000E+00  0.00000000000E+00 -0.41110529517E+03  0.89930622382E+03  0.79984005932E+03 0.  0.
        5    1    3    3  502    0 -0.23007793828E+03  0.31044313216E+03 -0.32132951110E+03  0.50257889001E+03  0.46999998093E+01 0. -1.
       -5    1    3    3    0  502  0.23007793828E+03 -0.31044313216E+03 -0.89775784073E+02  0.39672733381E+03  0.46999998093E+01 0.  1.
</event>
<event>
 5   0  0.7133039E-04  0.7993742E+03  0.7818609E-02  0.9560923E-01
       -2   -1    0    0    0  501  0.00000000000E+00  0.00000000000E+00  0.71020243536E+03  0.71020243537E+03  0.25500000920E-02 0. -1.
        2   -1    0    0  501    0  0.00000000000E+00  0.00000000000E+00 -0.22493553339E+03  0.22493553340E+03  0.25500000920E-02 0.  1.
    10030    2    1    2    0    0  0.00000000000E+00  0.00000000000E+00  0.48526690197E+03  0.93513796877E+03  0.79937416426E+03 0.  0.
        2    1    3    3  502    0  0.96373264116E+02  0.28336371035E+03  0.55251229676E+03  0.62837300742E+03  0.25500000920E-02 0. -1.
       -2    1    3    3    0  502 -0.96373264116E+02 -0.28336371035E+03 -0.67245394787E+02  0.30676496135E+03  0.25500000920E-02 0.  1.
</event>
<event>
 5   0  0.4392552E-04  0.8002540E+03  0.7818609E-02  0.9559650E-01
       -1   -1    0    0    0  501  0.00000000000E+00  0.00000000000E+00  0.10506598975E+03  0.10506598987E+03  0.50400001928E-02 0. -1.
        1   -1    0    0  501    0  0.00000000000E+00  0.00000000000E+00 -0.15238194646E+04  0.15238194646E+04  0.50400001928E-02 0.  1.
    10030    2    1    2    0    0  0.00000000000E+00  0.00000000000E+00 -0.14187534749E+04  0.16288854545E+04  0.80025396059E+03 0.  0.
        5    1    3    3  502    0  0.16554423696E+02  0.57645003202E+02  0.95808162553E+02  0.11312952465E+03  0.46999998093E+01 0. -1.
       -5    1    3    3    0  502 -0.16554423696E+02 -0.57645003202E+02 -0.15145616374E+04  0.15157559298E+04  0.46999998093E+01 0.  1.
</event>
<event>
 5   0  0.4087283E-04  0.8000835E+03  0.7818609E-02  0.9559896E-01
        1   -1    0    0  501    0  0.00000000000E+00  0.00000000000E+00  0.60566745444E+03  0.60566745446E+03  0.50400001928E-02 0. -1.
       -1   -1    0    0    0  501  0.00000000000E+00  0.00000000000E+00 -0.26422654140E+03  0.26422654145E+03  0.50400001928E-02 0.  1.
    10030    2    1    2    0    0  0.00000000000E+00  0.00000000000E+00  0.34144091304E+03  0.86989399590E+03  0.80008353752E+03 0.  0.
        1    1    3    3  502    0  0.11297978363E+03  0.31008123502E+03 -0.75101419801E+02  0.33845978653E+03  0.50400001928E-02 0.  1.
       -1    1    3    3    0  502 -0.11297978363E+03 -0.31008123502E+03  0.41654233284E+03  0.53143420937E+03  0.50400001928E-02 0. -1.
</event>
<event>
 5   0  0.7133039E-04  0.7987723E+03  0.7818609E-02  0.9561796E-01
       -2   -1    0    0    0  501  0.00000000000E+00  0.00000000000E+00  0.28730496185E+03  0.28730496186E+03  0.25500000920E-02 0.  1.
        2   -1    0    0  501    0  0.00000000000E+00  0.00000000000E+00 -0.55519165173E+03  0.55519165174E+03  0.25500000920E-02 0. -1.
    10030    2    1    2    0    0  0.00000000000E+00  0.00000000000E+00 -0.26788668988E+03  0.84249661360E+03  0.79877234886E+03 0.  0.
        2    1    3    3  502    0 -0.26489676987E+03 -0.25132669557E+03  0.36696104626E+02  0.36699047766E+03  0.25500000920E-02 0.  1.
       -2    1    3    3    0  502  0.26489676987E+03  0.25132669557E+03 -0.30458279451E+03  0.47550613593E+03  0.25500000920E-02 0. -1.
</event>
<event>
 5   0  0.2736375E-04  0.7999354E+03  0.7818609E-02  0.9560111E-01
       -4   -1    0    0    0  501  0.00000000000E+00  0.00000000000E+00  0.33014897028E+03  0.33015141296E+03  0.12699999809E+01 0.  1.
        4   -1    0    0  501    0  0.00000000000E+00  0.00000000000E+00 -0.48454636363E+03  0.48454802797E+03  0.12699999809E+01 0. -1.
    10030    2    1    2    0    0  0.00000000000E+00  0.00000000000E+00 -0.15439739335E+03  0.81469944093E+03  0.79993538738E+03 0.  0.
        1    1    3    3  502    0  0.13284958253E+03  0.11324575817E+03  0.28930495235E+03  0.33789194841E+03  0.50400001928E-02 0.  1.
       -1    1    3    3    0  502 -0.13284958253E+03 -0.11324575817E+03 -0.44370234570E+03  0.47680749252E+03  0.50400001928E-02 0. -1.
</event>
<event>
 5   0  0.4104786E-04  0.8006076E+03  0.7818609E-02  0.9559138E-01
       -1   -1    0    0    0  501  0.00000000000E+00  0.00000000000E+00  0.55532986091E+03  0.55532986093E+03  0.50400001928E-02 0. -1.
        1   -1    0    0  501    0  0.00000000000E+00  0.00000000000E+00 -0.28855487721E+03  0.28855487726E+03  0.50400001928E-02 0.  1.
    10030    2    1    2    0    0  0.00000000000E+00  0.00000000000E+00  0.26677498369E+03  0.84388473819E+03  0.80060761889E+03 0.  0.
        2    1    3    3  502    0  0.22899507352E+02 -0.36451675460E+03  0.30609274062E+03  0.47653920897E+03  0.25500000920E-02 0. -1.
       -2    1    3    3    0  502 -0.22899507352E+02  0.36451675460E+03 -0.39317756924E+02  0.36734552922E+03  0.25500000920E-02 0.  1.
</event>
<event>
 5   0  0.4104786E-04  0.7992203E+03  0.7818609E-02  0.9561146E-01
        1   -1    0    0  501    0  0.00000000000E+00  0.00000000000E+00  0.36477186601E+03  0.36477186605E+03  0.50400001928E-02 0. -1.
       -1   -1    0    0    0  501  0.00000000000E+00  0.00000000000E+00 -0.43777570806E+03  0.43777570809E+03  0.50400001928E-02 0.  1.
    10030    2    1    2    0    0  0.00000000000E+00  0.00000000000E+00 -0.73003842046E+02  0.80254757414E+03  0.79922027489E+03 0.  0.
        2    1    3    3  502    0 -0.24971479875E+03 -0.16049434769E+03  0.23214193886E+03  0.37683656422E+03  0.25500000920E-02 0. -1.
       -2    1    3    3    0  502  0.24971479875E+03  0.16049434769E+03 -0.30514578090E+03  0.42571100991E+03  0.25500000920E-02 0.  1.
</event>
<event>
 5   0  0.4169155E-04  0.7999623E+03  0.7818609E-02  0.9560072E-01
        1   -1    0    0  501    0  0.00000000000E+00  0.00000000000E+00  0.25933679794E+03  0.25933679799E+03  0.50400001928E-02 0.  1.
       -1   -1    0    0    0  501  0.00000000000E+00  0.00000000000E+00 -0.61690017477E+03  0.61690017479E+03  0.50400001928E-02 0. -1.
    10030    2    1    2    0    0  0.00000000000E+00  0.00000000000E+00 -0.35756337683E+03  0.87623697278E+03  0.79996228912E+03 0.  0.
        4    1    3    3  502    0  0.27342110050E+03 -0.12365935505E+03  0.11088049532E+03  0.31991691333E+03  0.12699999809E+01 0.  1.
       -4    1    3    3    0  502 -0.27342110050E+03  0.12365935505E+03 -0.46844387215E+03  0.55632005945E+03  0.12699999809E+01 0. -1.
</event>
<event>
 5   0  0.4392552E-04  0.8011514E+03  0.7818609E-02  0.9558352E-01
        1   -1    0    0  501    0  0.00000000000E+00  0.00000000000E+00  0.42730832524E+03  0.42730832527E+03  0.50400001928E-02 0.  1.
       -1   -1    0    0    0  501  0.00000000000E+00  0.00000000000E+00 -0.37551546053E+03  0.37551546056E+03  0.50400001928E-02 0. -1.
    10030    2    1    2    0    0  0.00000000000E+00  0.00000000000E+00  0.51792864709E+02  0.80282378583E+03  0.80115137787E+03 0.  0.
        5    1    3    3  502    0  0.80769042937E+02 -0.29051409491E+03 -0.23831418613E+03  0.38436677659E+03  0.46999998093E+01 0. -1.
       -5    1    3    3    0  502 -0.80769042937E+02  0.29051409491E+03  0.29010705083E+03  0.41845700924E+03  0.46999998093E+01 0.  1.
</event>
<event>
 5   0  0.4086111E-04  0.8003678E+03  0.7818609E-02  0.9559485E-01
       -1   -1    0    0    0  501  0.00000000000E+00  0.00000000000E+00  0.21419683183E+03  0.21419683189E+03  0.50400001928E-02 0. -1.
        1   -1    0    0  501    0  0.00000000000E+00  0.00000000000E+00 -0.74766355518E+03  0.74766355520E+03  0.50400001928E-02 0.  1.
    10030    2    1    2    0    0  0.00000000000E+00  0.00000000000E+00 -0.53346672335E+03  0.96186038709E+03  0.80036782751E+03 0.  0.
        3    1    3    3  502    0 -0.20558519232E+03 -0.16961045501E+03 -0.62548658875E+03  0.67990180222E+03  0.10100000352E+00 0.  1.
       -3    1    3    3    0  502  0.20558519232E+03  0.16961045501E+03  0.92019865396E+02  0.28195858487E+03  0.10100000352E+00 0. -1.
</event>
<event>
 5   0  0.6672462E-04  0.7998277E+03  0.7818609E-02  0.9560267E-01
       -2   -1    0    0    0  501  0.00000000000E+00  0.00000000000E+00  0.28771725960E+03  0.28771725961E+03  0.25500000920E-02 0.  1.
        2   -1    0    0  501    0  0.00000000000E+00  0.00000000000E+00 -0.55586192217E+03  0.55586192218E+03  0.25500000920E-02 0. -1.
    10030    2    1    2    0    0  0.00000000000E+00  0.00000000000E+00 -0.26814466257E+03  0.84357918179E+03  0.79982765386E+03 0.  0.
        5    1    3    3  502    0  0.25108031772E+03  0.30540314183E+02  0.19260413341E+03  0.31795043473E+03  0.46999998093E+01 0.  1.
       -5    1    3    3    0  502 -0.25108031772E+03 -0.30540314183E+02 -0.46074879598E+03  0.52562874706E+03  0.46999998093E+01 0. -1.
</event>
<event>
 5   0  0.4392552E-04  0.7995645E+03  0.7818609E-02  0.9560648E-01
       -1   -1    0    0    0  501  0.00000000000E+00  0.00000000000E+00  0.17191784131E+03  0.17191784138E+03  0.50400001928E-02 0.  1.
        1   -1    0    0  501    0  0.00000000000E+00  0.00000000000E+00 -0.92966420314E+03  0.92966420315E+03  0.50400001928E-02 0. -1.
    10030    2    1    2    0    0  0.00000000000E+00  0.00000000000E+00 -0.75774636183E+03  0.11015820445E+04  0.79956453896E+03 0.  0.
        5    1    3    3  502    0  0.17504041903E+03 -0.23948942015E+03 -0.74806672723E+03  0.80474856262E+03  0.46999998093E+01 0. -1.
       -5    1    3    3    0  502 -0.17504041903E+03  0.23948942015E+03 -0.96796346027E+01  0.29683348191E+03  0.46999998093E+01 0.  1.
</event>
<event>
 5   0  0.6593118E-04  0.8001241E+03  0.7818609E-02  0.9559837E-01
        2   -1    0    0  501    0  0.00000000000E+00  0.00000000000E+00  0.63897433015E+03  0.63897433016E+03  0.25500000920E-02 0. -1.
       -2   -1    0    0    0  501  0.00000000000E+00  0.00000000000E+00 -0.25047899347E+03  0.25047899349E+03  0.25500000920E-02 0.  1.
    10030    2    1    2    0    0  0.00000000000E+00  0.00000000000E+00  0.38849533668E+03  0.88945332364E+03  0.80012410807E+03 0.  0.
        1    1    3    3  502    0  0.14165632295E+03 -0.19875142267E+03  0.54662486139E+03  0.59863793812E+03  0.50400001928E-02 0. -1.
       -1    1    3    3    0  502 -0.14165632295E+03  0.19875142267E+03 -0.15812952471E+03  0.29081538552E+03  0.50400001928E-02 0.  1.
</event>
<event>
 5   0  0.4086111E-04  0.7999161E+03  0.7818609E-02  0.9560139E-01
        1   -1    0    0  501    0  0.00000000000E+00  0.00000000000E+00  0.39342468548E+03  0.39342468551E+03  0.50400001928E-02 0. -1.
       -1   -1    0    0    0  501  0.00000000000E+00  0.00000000000E+00 -0.40659989389E+03  0.40659989393E+03  0.50400001928E-02 0.  1.
    10030    2    1    2    0    0  0.00000000000E+00  0.00000000000E+00 -0.13175208414E+02  0.80002457944E+03  0.79991608409E+03 0.  0.
        3    1    3    3  502    0  0.15043393667E+03  0.25444961293E+03  0.26287694514E+03  0.39557461157E+03  0.10100000352E+00 0. -1.
       -3    1    3    3    0  502 -0.15043393667E+03 -0.25444961293E+03 -0.27605215356E+03  0.40444996787E+03  0.10100000352E+00 0.  1.
</event>
<event>
 5   0  0.4104786E-04  0.7994226E+03  0.7818609E-02  0.9560853E-01
       -1   -1    0    0    0  501  0.00000000000E+00  0.00000000000E+00  0.69522694516E+03  0.69522694518E+03  0.50400001928E-02 0. -1.
        1   -1    0    0  501    0  0.00000000000E+00  0.00000000000E+00 -0.22980860657E+03  0.22980860662E+03  0.50400001928E-02 0.  1.
    10030    2    1    2    0    0  0.00000000000E+00  0.00000000000E+00  0.46541833860E+03  0.92503555181E+03  0.79942263053E+03 0.  0.
        2    1    3    3  502    0 -0.28550593525E+03  0.26181544129E+03  0.34672120463E+03  0.51988129232E+03  0.25500000920E-02 0.  1.
       -2    1    3    3    0  502  0.28550593525E+03 -0.26181544129E+03  0.11869713397E+03  0.40515425949E+03  0.25500000920E-02 0. -1.
</event>
<event>
 5   0  0.2736375E-04  0.8001088E+03  0.7818609E-02  0.9559860E-01
       -3   -1    0    0    0  501  0.00000000000E+00  0.00000000000E+00  0.68720552846E+03  0.68720553588E+03  0.10100000352E+00 0.  1.
        3   -1    0    0  501    0  0.00000000000E+00  0.00000000000E+00 -0.23289028623E+03  0.23289030813E+03  0.10100000352E+00 0. -1.
    10030    2    1    2    0    0  0.00000000000E+00  0.00000000000E+00  0.45431524224E+03  0.92009584401E+03  0.80010875688E+03 0.  0.
        4    1    3    3  502    0  0.82673837043E+02 -0.36597407527E+03  0.67524192984E+02  0.38122580794E+03  0.12699999809E+01 0. -1.
       -4    1    3    3    0  502 -0.82673837043E+02  0.36597407527E+03  0.38679104925E+03  0.53887003608E+03  0.12699999809E+01 0.  1.
</event>
<event>
 5   0  0.6593118E-04  0.8001476E+03  0.7818609E-02  0.9559803E-01
       -2   -1    0    0    0  501  0.00000000000E+00  0.00000000000E+00  0.27117099305E+03  0.27117099306E+03  0.25500000920E-02 0. -1.
        2   -1    0    0  501    0  0.00000000000E+00  0.00000000000E+00 -0.59025140363E+03  0.59025140364E+03  0.25500000920E-02 0.  1.
    10030    2    1    2    0    0  0.00000000000E+00  0.00000000000E+00 -0.31908041058E+03  0.86142239670E+03  0.80014763458E+03 0.  0.
        1    1    3    3  502    0 -0.30803203386E+03 -0.22237990950E+03 -0.24548572008E+02  0.38070880006E+03  0.50400001928E-02 0. -1.
       -1    1    3    3    0  502  0.30803203386E+03  0.22237990950E+03 -0.29453183857E+03  0.48071359664E+03  0.50400001928E-02 0.  1.
</event>
<event>
 5   0  0.6970013E-04  0.8000035E+03  0.7818609E-02  0.9560012E-01
       -2   -1    0    0    0  501  0.00000000000E+00  0.00000000000E+00  0.23069153537E+03  0.23069153538E+03  0.25500000920E-02 0.  1.
        2   -1    0    0  501    0  0.00000000000E+00  0.00000000000E+00 -0.69357288052E+03  0.69357288053E+03  0.25500000920E-02 0. -1.
    10030    2    1    2    0    0  0.00000000000E+00  0.00000000000E+00 -0.46288134516E+03  0.92426441591E+03  0.80000348176E+03 0.  0.
        3    1    3    3  502    0  0.28344724440E+03 -0.96748735519E+02  0.74881249220E+02  0.30872296621E+03  0.10100000352E+00 0.  1.
       -3    1    3    3    0  502 -0.28344724440E+03  0.96748735519E+02 -0.53776259438E+03  0.61554144970E+03  0.10100000352E+00 0. -1.
</event>
<event>
 5   0  0.6593118E-04  0.7999803E+03  0.7818609E-02  0.9560046E-01
        2   -1    0    0  501    0  0.00000000000E+00  0.00000000000E+00  0.61591536753E+03  0.61591536754E+03  0.25500000920E-02 0.  1.
       -2   -1    0    0    0  501  0.00000000000E+00  0.00000000000E+00 -0.25976314898E+03  0.25976314899E+03  0.25500000920E-02 0. -1.
    10030    2    1    2    0    0  0.00000000000E+00  0.00000000000E+00  0.35615221855E+03  0.87567851653E+03  0.79998028821E+03 0.  0.
        1    1    3    3  502    0 -0.22989328210E+03  0.24715782548E+03  0.41298532069E+03  0.53338052738E+03  0.50400001928E-02 0.  1.
       -1    1    3    3    0  502  0.22989328210E+03 -0.24715782548E+03 -0.56833102139E+02  0.34229798915E+03  0.50400001928E-02 0. -1.
</event>
<event>
 5   0  0.6970013E-04  0.8002706E+03  0.7818609E-02  0.9559626E-01
        2   -1    0    0  501    0  0.00000000000E+00  0.00000000000E+00  0.14991626974E+03  0.14991626977E+03  0.25500000920E-02 0. -1.
       -2   -1    0    0    0  501  0.00000000000E+00  0.00000000000E+00 -0.10679844728E+04  0.10679844728E+04  0.25500000920E-02 0.  1.
    10030    2    1    2    0    0  0.00000000000E+00  0.00000000000E+00 -0.91806820302E+03  0.12179007425E+04  0.80027057504E+03 0.  0.
        3    1    3    3  502    0 -0.11280432463E+03 -0.29715524074E+03 -0.82895027670E+03  0.88779762570E+03  0.10100000352E+00 0.  1.
       -3    1    3    3    0  502  0.11280432463E+03  0.29715524074E+03 -0.89117926326E+02  0.33010311684E+03  0.10100000352E+00 0. -1.
</event>
<event>
 5   0  0.7133039E-04  0.7998688E+03  0.7818609E-02  0.9560207E-01
        2   -1    0    0  501    0  0.00000000000E+00  0.00000000000E+00  0.33386655563E+03  0.33386655563E+03  0.25500000920E-02 0. -1.
       -2   -1    0    0    0  501  0.00000000000E+00  0.00000000000E+00 -0.47907623579E+03  0.47907623580E+03  0.25500000920E-02 0.  1.
    10030    2    1    2    0    0  0.00000000000E+00  0.00000000000E+00 -0.14520968017E+03  0.81294279143E+03  0.79986882107E+03 0.  0.
        2    1    3    3  502    0  0.39606037631E+03  0.36028647118E+02 -0.29657220601E+02  0.39879999478E+03  0.25500000920E-02 0. -1.
       -2    1    3    3    0  502 -0.39606037631E+03 -0.36028647118E+02 -0.11555245956E+03  0.41414279665E+03  0.25500000920E-02 0.  1.
</event>
<event>
 5   0  0.6593118E-04  0.7997840E+03  0.7818609E-02  0.9560330E-01
       -2   -1    0    0    0  501  0.00000000000E+00  0.00000000000E+00  0.15467599949E+03  0.15467599952E+03  0.25500000920E-02 0.  1.
        2   -1    0    0  501    0  0.00000000000E+00  0.00000000000E+00 -0.10338617276E+04  0.10338617276E+04  0.25500000920E-02 0. -1.
    10030    2    1    2    0    0  0.00000000000E+00  0.00000000000E+00 -0.87918572809E+03  0.11885377271E+04  0.79978396100E+03 0.  0.
        1    1    3    3  502    0  0.99572728682E+02 -0.85772192214E+02 -0.10008527314E+04  0.10094442962E+04  0.50400001928E-02 0. -1.
       -1    1    3    3    0  502 -0.99572728682E+02  0.85772192214E+02  0.12166700331E+03  0.17909343085E+03  0.50400001928E-02 0.  1.
</event>
<event>
 5   0  0.4392552E-04  0.8000206E+03  0.7818609E-02  0.9559987E-01
        1   -1    0    0  501    0  0.00000000000E+00  0.00000000000E+00  0.17191907987E+04  0.17191907987E+04  0.50400001928E-02 0.  1.
       -1   -1    0    0    0  501  0.00000000000E+00  0.00000000000E+00 -0.93071839092E+02  0.93071839229E+02  0.50400001928E-02 0. -1.
    10030    2    1    2    0    0  0.00000000000E+00  0.00000000000E+00  0.16261189596E+04  0.18122626380E+04  0.80002062353E+03 0.  0.
        5    1    3    3  502    0  0.31070494685E+03  0.22937281440E+03  0.10488729616E+04  0.11177235935E+04  0.46999998093E+01 0.  1.
       -5    1    3    3    0  502 -0.31070494685E+03 -0.22937281440E+03  0.57724599805E+03  0.69453904443E+03  0.46999998093E+01 0. -1.
</event>
<event>
 5   0  0.4086111E-04  0.8000634E+03  0.7818609E-02  0.9559925E-01
       -1   -1    0    0    0  501  0.00000000000E+00  0.00000000000E+00  0.86262533756E+02  0.86262533903E+02  0.50400001928E-02 0. -1.
        1   -1    0    0  501    0  0.00000000000E+00  0.00000000000E+00 -0.18550967745E+04  0.18550967745E+04  0.50400001928E-02 0.  1.
    10030    2    1    2    0    0  0.00000000000E+00  0.00000000000E+00 -0.17688342407E+04  0.19413593084E+04  0.80006336818E+03 0.  0.
        3    1    3    3  502    0  0.22048754945E+03  0.57942450700E+02 -0.86789002457E+02  0.24393529512E+03  0.10100000352E+00 0. -1.
       -3    1    3    3    0  502 -0.22048754945E+03 -0.57942450700E+02 -0.16820452383E+04  0.16974240133E+04  0.10100000352E+00 0.  1.
</event>
<event>
 5   0  0.7133039E-04  0.7999393E+03  0.7818609E-02  0.9560105E-01
        2   -1    0    0  501    0  0.00000000000E+00  0.00000000000E+00  0.14721115167E+04  0.14721115168E+04  0.25500000920E-02 0. -1.
       -2   -1    0    0    0  501  0.00000000000E+00  0.00000000000E+00 -0.10867091705E+03  0.10867091708E+03  0.25500000920E-02 0.  1.
    10030    2    1    2    0    0  0.00000000000E+00  0.00000000000E+00  0.13634405997E+04  0.15807824338E+04  0.79993926907E+03 0.  0.
        2    1    3    3  502    0  0.16788804795E+03 -0.51882673062E+02  0.13917458887E+04  0.14027953618E+04  0.25500000920E-02 0. -1.
       -2    1    3    3    0  502 -0.16788804795E+03  0.51882673062E+02 -0.28305289011E+02  0.17798707201E+03  0.25500000920E-02 0.  1.
</event>
<event>
 5   0  0.4086111E-04  0.7998064E+03  0.7818609E-02  0.9560297E-01
        1   -1    0    0  501    0  0.00000000000E+00  0.00000000000E+00  0.34878856549E+03  0.34878856552E+03  0.50400001928E-02 0.  1.
       -1   -1    0    0    0  501  0.00000000000E+00  0.00000000000E+00 -0.45850863436E+03  0.45850863438E+03  0.50400001928E-02 0. -1.
    10030    2    1    2    0    0  0.00000000000E+00  0.00000000000E+00 -0.10972006887E+03  0.80729719991E+03  0.79980639874E+03 0.  0.
        3    1    3    3  502    0 -0.27429265558E+03 -0.17347159877E+03 -0.29070132621E+03  0.43570187944E+03  0.10100000352E+00 0.  1.
       -3    1    3    3    0  502  0.27429265558E+03  0.17347159877E+03  0.18098125734E+03  0.37159532047E+03  0.10100000352E+00 0. -1.
</event>
<event>
 5   0  0.4086111E-04  0.8000669E+03  0.7818609E-02  0.9559920E-01
       -1   -1    0    0    0  501  0.00000000000E+00  0.00000000000E+00  0.22241394888E+03  0.22241394894E+03  0.50400001928E-02 0. -1.
        1   -1    0    0  501    0  0.00000000000E+00  0.00000000000E+00 -0.71949959230E+03  0.71949959231E+03  0.50400001928E-02 0.  1.
    10030    2    1    2    0    0  0.00000000000E+00  0.00000000000E+00 -0.49708564342E+03  0.94191354125E+03  0.80006686114E+03 0.  0.
        3    1    3    3  502    0  0.37786954841E+03 -0.13081389650E+03 -0.23516800855E+03  0.46389834402E+03  0.10100000352E+00 0. -1.
       -3    1    3    3    0  502 -0.37786954841E+03  0.13081389650E+03 -0.26191763486E+03  0.47801519723E+03  0.10100000352E+00 0.  1.
</event>
<event>
 5   0  0.6672462E-04  0.8000018E+03  0.7818609E-02  0.9560014E-01
       -2   -1    0    0    0  501  0.00000000000E+00  0.00000000000E+00  0.15487692778E+03  0.15487692780E+03  0.25500000920E-02 0. -1.
        2   -1    0    0  501    0  0.00000000000E+00  0.00000000000E+00 -0.10330830399E+04  0.10330830399E+04  0.25500000920E-02 0.  1.
    10030    2    1    2    0    0  0.00000000000E+00  0.00000000000E+00 -0.87820611215E+03  0.11879599677E+04  0.80000181844E+03 0.  0.
        5    1    3    3  502    0  0.32942996309E+03  0.37733751057E+02 -0.77124913128E+03  0.83952084492E+03  0.46999998093E+01 0.  1.
       -5    1    3    3    0  502 -0.32942996309E+03 -0.37733751057E+02 -0.10695698087E+03  0.34843912282E+03  0.46999998093E+01 0. -1.
</event>
<event>
 5   0  0.6970013E-04  0.7999606E+03  0.7818609E-02  0.9560074E-01
        2   -1    0    0  501    0  0.00000000000E+00  0.00000000000E+00  0.22222011536E+04  0.22222011536E+04  0.25500000920E-02 0. -1.
       -2   -1    0    0    0  501  0.00000000000E+00  0.00000000000E+00 -0.71993592397E+02  0.71993592442E+02  0.25500000920E-02 0.  1.
    10030    2    1    2    0    0  0.00000000000E+00  0.00000000000E+00  0.21502075612E+04  0.22941947460E+04  0.79996060935E+03 0.  0.
        3    1    3    3  502    0 -0.35637375679E+03  0.84714654763E+02  0.61440503252E+03  0.71531278574E+03  0.10100000352E+00 0. -1.
       -3    1    3    3    0  502  0.35637375679E+03 -0.84714654763E+02  0.15358025287E+04  0.15788819603E+04  0.10100000352E+00 0.  1.
</event>
<event>
 5   0  0.4392552E-04  0.7999924E+03  0.7818609E-02  0.9560028E-01
        1   -1    0    0  501    0  0.00000000000E+00  0.00000000000E+00  0.55188917357E+03  0.55188917360E+03  0.50400001928E-02 0. -1.
       -1   -1    0    0    0  501  0.00000000000E+00  0.00000000000E+00 -0.28990776327E+03  0.28990776332E+03  0.50400001928E-02 0.  1.
    10030    2    1    2    0    0  0.00000000000E+00  0.00000000000E+00  0.26198141030E+03  0.84179693691E+03  0.79999238975E+03 0.  0.
        5    1    3    3  502    0  0.31904755067E+02 -0.29369466179E+03 -0.15272924848E+03  0.33260003172E+03  0.46999998093E+01 0.  1.
       -5    1    3    3    0  502 -0.31904755067E+02  0.29369466179E+03  0.41471065878E+03  0.50919690520E+03  0.46999998093E+01 0. -1.
</event>
<event>
 5   0  0.7133039E-04  0.7998788E+03  0.7818609E-02  0.9560193E-01
        2   -1    0    0  501    0  0.00000000000E+00  0.00000000000E+00  0.88392555870E+03  0.88392555870E+03  0.25500000920E-02 0.  1.
       -2   -1    0    0    0  501  0.00000000000E+00  0.00000000000E+00 -0.18095586741E+03  0.18095586743E+03  0.25500000920E-02 0. -1.
    10030    2    1    2    0    0  0.00000000000E+00  0.00000000000E+00  0.70296969129E+03  0.10648814261E+04  0.79987878135E+03 0.  0.
        2    1    3    3  502    0  0.62728127230E+02 -0.32940804434E+03  0.61312476717E+02  0.34088663427E+03  0.25500000920E-02 0. -1.
       -2    1    3    3    0  502 -0.62728127230E+02  0.32940804434E+03  0.64165721457E+03  0.72399479186E+03  0.25500000920E-02 0.  1.
</event>
<event>
 5   0  0.4087283E-04  0.8002767E+03  0.7818609E-02  0.9559617E-01
        1   -1    0    0  501    0  0.00000000000E+00  0.00000000000E+00  0.79849264749E+03  0.79849264751E+03  0.50400001928E-02 0. -1.
       -1   -1    0    0    0  501  0.00000000000E+00  0.00000000000E+00 -0.20051617874E+03  0.20051617880E+03  0.50400001928E-02 0.  1.
    10030    2    1    2    0    0  0.00000000000E+00  0.00000000000E+00  0.59797646875E+03  0.99900882631E+03  0.80027668832E+03 0.  0.
        1    1    3    3  502    0  0.15521526788E+03  0.19728475926E+03 -0.89997338025E+02  0.26666941425E+03  0.50400001928E-02 0.  1.
       -1    1    3    3    0  502 -0.15521526788E+03 -0.19728475926E+03  0.68797380678E+03  0.73233941206E+03  0.50400001928E-02 0. -1.
</event>
<event>
 5   0  0.2736375E-04  0.7999680E+03  0.7818609E-02  0.9560063E-01
        3   -1    0    0  501    0  0.00000000000E+00  0.00000000000E+00  0.11297020208E+04  0.11297020254E+04  0.10100000352E+00 0. -1.
       -3   -1    0    0    0  501  0.00000000000E+00  0.00000000000E+00 -0.14161889999E+03  0.14161893600E+03  0.10100000352E+00 0.  1.
    10030    2    1    2    0    0  0.00000000000E+00  0.00000000000E+00  0.98808312086E+03  0.12713209614E+04  0.79996795753E+03 0.  0.
        2    1    3    3  502    0  0.14019089660E+03 -0.33761043447E+02  0.10869569164E+04  0.10964801109E+04  0.25500000920E-02 0. -1.
       -2    1    3    3    0  502 -0.14019089660E+03  0.33761043447E+02 -0.98873795515E+02  0.17484085046E+03  0.25500000920E-02 0.  1.
</event>
<event>
 5   0  0.6593118E-04  0.8000196E+03  0.7818609E-02  0.9559989E-01
       -2   -1    0    0    0  501  0.00000000000E+00  0.00000000000E+00  0.10578582055E+04  0.10578582055E+04  0.25500000920E-02 0. -1.
        2   -1    0    0  501    0  0.00000000000E+00  0.00000000000E+00 -0.15125642845E+03  0.15125642847E+03  0.25500000920E-02 0.  1.
    10030    2    1    2    0    0  0.00000000000E+00  0.00000000000E+00  0.90660177702E+03  0.12091146339E+04  0.80001963471E+03 0.  0.
        1    1    3    3  502    0  0.10551438369E+03 -0.22176433756E+03  0.93050463147E+03  0.96236769261E+03  0.50400001928E-02 0. -1.
       -1    1    3    3    0  502 -0.10551438369E+03  0.22176433756E+03 -0.23902854446E+02  0.24674694133E+03  0.50400001928E-02 0.  1.
</event>
<event>
 5   0  0.4104786E-04  0.8010445E+03  0.7818609E-02  0.9558506E-01
       -1   -1    0    0    0  501  0.00000000000E+00  0.00000000000E+00  0.13763544472E+03  0.13763544481E+03  0.50400001928E-02 0. -1.
        1   -1    0    0  501    0  0.00000000000E+00  0.00000000000E+00 -0.11655287467E+04  0.11655287467E+04  0.50400001928E-02 0.  1.
    10030    2    1    2    0    0  0.00000000000E+00  0.00000000000E+00 -0.10278933019E+04  0.13031641915E+04  0.80104448678E+03 0.  0.
        2    1    3    3  502    0  0.15044957729E+03  0.32832154544E+03 -0.79566551396E+03  0.87379272292E+03  0.25500000920E-02 0. -1.
       -2    1    3    3    0  502 -0.15044957729E+03 -0.32832154544E+03 -0.23222778797E+03  0.42937146857E+03  0.25500000920E-02 0.  1.
</event>
<event>
 5   0  0.4086111E-04  0.7998277E+03  0.7818609E-02  0.9560267E-01
        1   -1    0    0  501    0  0.00000000000E+00  0.00000000000E+00  0.16977967536E+04  0.16977967536E+04  0.50400001928E-02 0.  1.
       -1   -1    0    0    0  501  0.00000000000E+00  0.00000000000E+00 -0.94199195896E+02  0.94199196031E+02  0.50400001928E-02 0. -1.
    10030    2    1    2    0    0  0.00000000000E+00  0.00000000000E+00  0.16035975577E+04  0.17919959496E+04  0.79982770422E+03 0.  0.
        3    1    3    3  502    0 -0.23617685293E+03  0.31513051612E+03  0.95773876058E+03  0.10355434765E+04  0.10100000352E+00 0.  1.
       -3    1    3    3    0  502  0.23617685293E+03 -0.31513051612E+03  0.64585879708E+03  0.75645247307E+03  0.10100000352E+00 0. -1.
</event>
<event>
 5   0  0.4392552E-04  0.8004605E+03  0.7818609E-02  0.9559351E-01
       -1   -1    0    0    0  501  0.00000000000E+00  0.00000000000E+00  0.15167911189E+03  0.15167911197E+03  0.50400001928E-02 0.  1.
        1   -1    0    0  501    0  0.00000000000E+00  0.00000000000E+00 -0.10560733126E+04  0.10560733126E+04  0.50400001928E-02 0. -1.
    10030    2    1    2    0    0  0.00000000000E+00  0.00000000000E+00 -0.90439420067E+03  0.12077524245E+04  0.80046052293E+03 0.  0.
        5    1    3    3  502    0  0.25572727543E+03  0.13785504452E+03 -0.86749803754E+03  0.91486358974E+03  0.46999998093E+01 0. -1.
       -5    1    3    3    0  502 -0.25572727543E+03 -0.13785504452E+03 -0.36896163128E+02  0.29288883480E+03  0.46999998093E+01 0.  1.
</event>
<event>
 5   0  0.4104786E-04  0.8000041E+03  0.7818609E-02  0.9560011E-01
       -1   -1    0    0    0  501  0.00000000000E+00  0.00000000000E+00  0.23927251658E+03  0.23927251663E+03  0.50400001928E-02 0. -1.
        1   -1    0    0  501    0  0.00000000000E+00  0.00000000000E+00 -0.66870049397E+03  0.66870049399E+03  0.50400001928E-02 0.  1.
    10030    2    1    2    0    0  0.00000000000E+00  0.00000000000E+00 -0.42942797739E+03  0.90797301062E+03  0.80000412514E+03 0.  0.
        2    1    3    3  502    0  0.35531963820E+03  0.51336274547E+02 -0.41491209928E+03  0.54867067400E+03  0.25500000920E-02 0.  1.
       -2    1    3    3    0  502 -0.35531963820E+03 -0.51336274547E+02 -0.14515878112E+02  0.35930233662E+03  0.25500000920E-02 0. -1.
</event>
<event>
 5   0  0.2736375E-04  0.7999366E+03  0.7818609E-02  0.9560109E-01
       -3   -1    0    0    0  501  0.00000000000E+00  0.00000000000E+00  0.85750305846E+03  0.85750306441E+03  0.10100000352E+00 0. -1.
        3   -1    0    0  501    0  0.00000000000E+00  0.00000000000E+00 -0.18655867157E+03  0.18655869891E+03  0.10100000352E+00 0.  1.
    10030    2    1    2    0    0  0.00000000000E+00  0.00000000000E+00  0.67094438689E+03  0.10440617633E+04  0.79993661958E+03 0.  0.
        5    1    3    3  502    0 -0.37166965442E+03 -0.12392954851E+03  0.23060441327E+03  0.45463980295E+03  0.46999998093E+01 0. -1.
       -5    1    3    3    0  502  0.37166965442E+03  0.12392954851E+03  0.44033997362E+03  0.58942196038E+03  0.46999998093E+01 0.  1.
</event>
<event>
 5   0  0.6801147E-04  0.7999750E+03  0.7818609E-02  0.9560053E-01
        2   -1    0    0  501    0  0.00000000000E+00  0.00000000000E+00  0.61113778092E+03  0.61113778093E+03  0.25500000920E-02 0. -1.
       -2   -1    0    0    0  501  0.00000000000E+00  0.00000000000E+00 -0.26179036226E+03  0.26179036228E+03  0.25500000920E-02 0.  1.
    10030    2    1    2    0    0  0.00000000000E+00  0.00000000000E+00  0.34934741866E+03  0.87292814320E+03  0.79997495228E+03 0.  0.
        4    1    3    3  502    0 -0.31295871984E+03  0.24185712431E+03  0.23969222255E+03  0.46248459796E+03  0.12699999809E+01 0.  1.
       -4    1    3    3    0  502  0.31295871984E+03 -0.24185712431E+03  0.10965519611E+03  0.41044354525E+03  0.12699999809E+01 0. -1.
</event>
<event>
 5   0  0.4169155E-04  0.7991975E+03  0.7818609E-02  0.9561179E-01
        1   -1    0    0  501    0  0.00000000000E+00  0.00000000000E+00  0.11265738438E+03  0.11265738450E+03  0.50400001928E-02 0. -1.
       -1   -1    0    0    0  501  0.00000000000E+00  0.00000000000E+00 -0.14173876027E+04  0.14173876027E+04  0.50400001928E-02 0.  1.
    10030    2    1    2    0    0  0.00000000000E+00  0.00000000000E+00 -0.13047302183E+04  0.15300449872E+04  0.79919754773E+03 0.  0.
        4    1    3    3  502    0  0.76397925826E+02  0.96126161311E+02 -0.13803715694E+04  0.13858225588E+04  0.12699999809E+01 0.  1.
       -4    1    3    3    0  502 -0.76397925826E+02 -0.96126161311E+02  0.75641351094E+02  0.14422242840E+03  0.12699999809E+01 0. -1.
</event>
<event>
 5   0  0.4086111E-04  0.8002296E+03  0.7818609E-02  0.9559685E-01
        1   -1    0    0  501    0  0.00000000000E+00  0.00000000000E+00  0.62656717017E+03  0.62656717019E+03  0.50400001928E-02 0.  1.
       -1   -1    0    0    0  501  0.00000000000E+00  0.00000000000E+00 -0.25550631594E+03  0.25550631599E+03  0.50400001928E-02 0. -1.
    10030    2    1    2    0    0  0.00000000000E+00  0.00000000000E+00  0.37106085423E+03  0.88207348618E+03  0.80022964046E+03 0.  0.
        3    1    3    3  502    0  0.31008199610E+03  0.96965910500E+02  0.44295039686E+03  0.54932531016E+03  0.10100000352E+00 0.  1.
       -3    1    3    3    0  502 -0.31008199610E+03 -0.96965910500E+02 -0.71889542625E+02  0.33274817602E+03  0.10100000352E+00 0. -1.
</event>
<event>
 5   0  0.2736375E-04  0.8000876E+03  0.7818609E-02  0.9559890E-01
        4   -1    0    0  501    0  0.00000000000E+00  0.00000000000E+00  0.15178214753E+04  0.15178220067E+04  0.12699999809E+01 0. -1.
       -4   -1    0    0    0  501  0.00000000000E+00  0.00000000000E+00 -0.10543294642E+03  0.10544059508E+03  0.12699999809E+01 0.  1.
    10030    2    1    2    0    0  0.00000000000E+00  0.00000000000E+00  0.14123885289E+04  0.16232626017E+04  0.80008756871E+03 0.  0.
        2    1    3    3  502    0  0.36787309137E+03 -0.15205861263E+03  0.78690593610E+03  0.88185791673E+03  0.25500000920E-02 0. -1.
       -2    1    3    3    0  502 -0.36787309137E+03  0.15205861263E+03  0.62548259281E+03  0.74140468501E+03  0.25500000920E-02 0.  1.
</event>
<event>
 5   0  0.6593118E-04  0.8004522E+03  0.7818609E-02  0.9559363E-01
       -2   -1    0    0    0  501  0.00000000000E+00  0.00000000000E+00  0.53236711647E+02  0.53236711708E+02  0.25500000920E-02 0. -1.
        2   -1    0    0  501    0  0.00000000000E+00  0.00000000000E+00 -0.30088434479E+04  0.30088434479E+04  0.25500000920E-02 0.  1.
    10030    2    1    2    0    0  0.00000000000E+00  0.00000000000E+00 -0.29556067362E+04  0.30620801596E+04  0.80045220000E+03 0.  0.
        1    1    3    3  502    0 -0.26992870553E+03  0.20312647142E+03 -0.22987949345E+04  0.23234844566E+04  0.50400001928E-02 0.  1.
       -1    1    3    3    0  502  0.26992870553E+03 -0.20312647142E+03 -0.65681180176E+03  0.73859570295E+03  0.50400001928E-02 0. -1.
</event>
<event>
 5   0  0.6970013E-04  0.7975845E+03  0.7818609E-02  0.9563520E-01
        2   -1    0    0  501    0  0.00000000000E+00  0.00000000000E+00  0.19205993281E+03  0.19205993283E+03  0.25500000920E-02 0.  1.
       -2   -1    0    0    0  501  0.00000000000E+00  0.00000000000E+00 -0.82805022644E+03  0.82805022644E+03  0.25500000920E-02 0. -1.
    10030    2    1    2    0    0  0.00000000000E+00  0.00000000000E+00 -0.63599029362E+03  0.10201101593E+04  0.79758453061E+03 0.  0.
        3    1    3    3  502    0 -0.32466026237E+03  0.10797670685E+03 -0.58002466064E+03  0.67341805169E+03  0.10100000352E+00 0. -1.
       -3    1    3    3    0  502  0.32466026237E+03 -0.10797670685E+03 -0.55965632980E+02  0.34669210758E+03  0.10100000352E+00 0.  1.
</event>
<event>
 5   0  0.6970013E-04  0.8002514E+03  0.7818609E-02  0.9559653E-01
       -2   -1    0    0    0  501  0.00000000000E+00  0.00000000000E+00  0.12597097082E+03  0.12597097085E+03  0.25500000920E-02 0. -1.
        2   -1    0    0  501    0  0.00000000000E+00  0.00000000000E+00 -0.12709322296E+04  0.12709322296E+04  0.25500000920E-02 0.  1.
    10030    2    1    2    0    0  0.00000000000E+00  0.00000000000E+00 -0.11449612587E+04  0.13969032004E+04  0.80025137757E+03 0.  0.
        3    1    3    3  502    0  0.41030346648E+01 -0.82694877794E+02  0.11085400608E+03  0.13836147792E+03  0.10100000352E+00 0. -1.
       -3    1    3    3    0  502 -0.41030346648E+01  0.82694877794E+02 -0.12558152648E+04  0.12585417225E+04  0.10100000352E+00 0.  1.
</event>
<event>
 5   0  0.4169155E-04  0.8003248E+03  0.7818609E-02  0.9559547E-01
        1   -1    0    0  501    0  0.00000000000E+00  0.00000000000E+00  0.63409723958E+03  0.63409723960E+03  0.50400001928E-02 0. -1.
       -1   -1    0    0    0  501  0.00000000000E+00  0.00000000000E+00 -0.25253217163E+03  0.25253217168E+03  0.50400001928E-02 0.  1.
    10030    2    1    2    0    0  0.00000000000E+00  0.00000000000E+00  0.38156506795E+03  0.88662941128E+03  0.80032481647E+03 0.  0.
        4    1    3    3  502    0  0.10984435670E+02 -0.16730099194E+03  0.59330722352E+03  0.61654306753E+03  0.12699999809E+01 0. -1.
       -4    1    3    3    0  502 -0.10984435670E+02  0.16730099194E+03 -0.21174215557E+03  0.27008634375E+03  0.12699999809E+01 0.  1.
</event>
<event>
 5   0  0.6593118E-04  0.8000144E+03  0.7818609E-02  0.9559996E-01
       -2   -1    0    0    0  501  0.00000000000E+00  0.00000000000E+00  0.48639567687E+03  0.48639567688E+03  0.25500000920E-02 0. -1.
        2   -1    0    0  501    0  0.00000000000E+00  0.00000000000E+00 -0.32896210796E+03  0.32896210797E+03  0.25500000920E-02 0.  1.
    10030    2    1    2    0    0  0.00000000000E+00  0.00000000000E+00  0.15743356891E+03  0.81535778485E+03  0.80001436780E+03 0.  0.
        1    1    3    3  502    0 -0.12067341714E+03  0.36090269508E+03  0.20434032681E+03  0.43193494661E+03  0.50400001928E-02 0. -1.
       -1    1    3    3    0  502  0.12067341714E+03 -0.36090269508E+03 -0.46906757898E+02  0.38342283824E+03  0.50400001928E-02 0.  1.
</event>
<event>
 5   0  0.4104786E-04  0.8005880E+03  0.7818609E-02  0.9559166E-01
        1   -1    0    0  501    0  0.00000000000E+00  0.00000000000E+00  0.13289673982E+04  0.13289673982E+04  0.50400001928E-02 0. -1.
       -1   -1    0    0    0  501  0.00000000000E+00  0.00000000000E+00 -0.12057126548E+03  0.12057126559E+03  0.50400001928E-02 0.  1.
    10030    2    1    2    0    0  0.00000000000E+00  0.00000000000E+00  0.12083961327E+04  0.14495386638E+04  0.80058798658E+03 0.  0.
        2    1    3    3  502    0 -0.31189164721E+03  0.21090360286E+03  0.85032248327E+03  0.92994895282E+03  0.25500000920E-02 0. -1.
       -2    1    3    3    0  502  0.31189164721E+03 -0.21090360286E+03  0.35807364941E+03  0.51958971094E+03  0.25500000920E-02 0.  1.
</event>
<event>
 5   0  0.4087283E-04  0.7999845E+03  0.7818609E-02  0.9560040E-01
       -1   -1    0    0    0  501  0.00000000000E+00  0.00000000000E+00  0.20892690502E+03  0.20892690508E+03  0.50400001928E-02 0. -1.
        1   -1    0    0  501    0  0.00000000000E+00  0.00000000000E+00 -0.76578835821E+03  0.76578835823E+03  0.50400001928E-02 0.  1.
    10030    2    1    2    0    0  0.00000000000E+00  0.00000000000E+00 -0.55686145319E+03  0.97471526331E+03  0.79998447890E+03 0.  0.
        1    1    3    3  502    0 -0.13732344432E+03  0.59649193385E+02  0.17349884514E+03  0.22916719643E+03  0.50400001928E-02 0. -1.
       -1    1    3    3    0  502  0.13732344432E+03 -0.59649193385E+02 -0.73036029832E+03  0.74554806688E+03  0.50400001928E-02 0.  1.
</event>
<event>
 5   0  0.4392552E-04  0.8004605E+03  0.7818609E-02  0.9559351E-01
        1   -1    0    0  501    0  0.00000000000E+00  0.00000000000E+00  0.27188230521E+03  0.27188230526E+03  0.50400001928E-02 0. -1.
       -1   -1    0    0    0  501  0.00000000000E+00  0.00000000000E+00 -0.58916760953E+03  0.58916760955E+03  0.50400001928E-02 0.  1.
    10030    2    1    2    0    0  0.00000000000E+00  0.00000000000E+00 -0.31728530432E+03  0.86104991480E+03  0.80046048712E+03 0.  0.
        5    1    3    3  502    0 -0.35021528802E+02 -0.72245535866E+02  0.26310074859E+03  0.27511819067E+03  0.46999998093E+01 0. -1.
       -5    1    3    3    0  502  0.35021528802E+02  0.72245535866E+02 -0.58038605291E+03  0.58593172413E+03  0.46999998093E+01 0.  1.
</event>
<event>
 5   0  0.7133039E-04  0.8013053E+03  0.7818609E-02  0.9558130E-01
        2   -1    0    0  501    0  0.00000000000E+00  0.00000000000E+00  0.51280655430E+03  0.51280655430E+03  0.25500000920E-02 0. -1.
       -2   -1    0    0    0  501  0.00000000000E+00  0.00000000000E+00 -0.31302747828E+03  0.31302747829E+03  0.25500000920E-02 0.  1.
    10030    2    1    2    0    0  0.00000000000E+00  0.00000000000E+00  0.19977907602E+03  0.82583403259E+03  0.80130529149E+03 0.  0.
        2    1    3    3  502    0  0.22224458101E+03 -0.30280625508E+03  0.24357851937E+03  0.44767709011E+03  0.25500000920E-02 0. -1.
       -2    1    3    3    0  502 -0.22224458101E+03  0.30280625508E+03 -0.43799443350E+02  0.37815694248E+03  0.25500000920E-02 0.  1.
</event>
<event>
 5   0  0.6593118E-04  0.7997321E+03  0.7818609E-02  0.9560405E-01
       -2   -1    0    0    0  501  0.00000000000E+00  0.00000000000E+00  0.22649198750E+03  0.22649198752E+03  0.25500000920E-02 0.  1.
        2   -1    0    0  501    0  0.00000000000E+00  0.00000000000E+00 -0.70595372755E+03  0.70595372755E+03  0.25500000920E-02 0. -1.
    10030    2    1    2    0    0  0.00000000000E+00  0.00000000000E+00 -0.47946174004E+03  0.93244571507E+03  0.79973211226E+03 0.  0.
        1    1    3    3  502    0  0.33710491219E+03 -0.20771658342E+03 -0.17474080204E+03  0.43280509328E+03  0.50400001928E-02 0.  1.
       -1    1    3    3    0  502 -0.33710491219E+03  0.20771658342E+03 -0.30472093801E+03  0.49964062178E+03  0.50400001928E-02 0. -1.
</event>
<event>
 5   0  0.6970013E-04  0.7996444E+03  0.7818609E-02  0.9560532E-01
       -2   -1    0    0    0  501  0.00000000000E+00  0.00000000000E+00  0.21048680785E+03  0.21048680786E+03  0.25500000920E-02 0.  1.
        2   -1    0    0  501    0  0.00000000000E+00  0.00000000000E+00 -0.75946703909E+03  0.75946703909E+03  0.25500000920E-02 0. -1.
    10030    2    1    2    0    0  0.00000000000E+00  0.00000000000E+00 -0.54898023124E+03  0.96995384696E+03  0.79964440280E+03 0.  0.
        3    1    3    3  502    0 -0.40660074799E+01 -0.38758051783E+03 -0.15550292485E+03  0.41763184752E+03  0.10100000352E+00 0.  1.
       -3    1    3    3    0  502  0.40660074799E+01  0.38758051783E+03 -0.39347730639E+03  0.55232199944E+03  0.10100000352E+00 0. -1.
</event>
<event>
 5   0  0.4392552E-04  0.7996163E+03  0.7818609E-02  0.9560573E-01
        1   -1    0    0  501    0  0.00000000000E+00  0.00000000000E+00  0.75614722561E+03  0.75614722563E+03  0.50400001928E-02 0. -1.
       -1   -1    0    0    0  501  0.00000000000E+00  0.00000000000E+00 -0.21139605274E+03  0.21139605280E+03  0.50400001928E-02 0.  1.
    10030    2    1    2    0    0  0.00000000000E+00  0.00000000000E+00  0.54475117287E+03  0.96754327843E+03  0.79961625502E+03 0.  0.
        5    1    3    3  502    0 -0.10740235576E+03 -0.22366847973E+03 -0.10692253220E+03  0.27021726950E+03  0.46999998093E+01 0.  1.
       -5    1    3    3    0  502  0.10740235576E+03  0.22366847973E+03  0.65167370507E+03  0.69732600893E+03  0.46999998093E+01 0. -1.
</event>
<event>
 5   0  0.2736375E-04  0.7998583E+03  0.7818609E-02  0.9560222E-01
       -4   -1    0    0    0  501  0.00000000000E+00  0.00000000000E+00  0.34767464735E+03  0.34767696690E+03  0.12699999809E+01 0.  1.
        4   -1    0    0  501    0  0.00000000000E+00  0.00000000000E+00 -0.46003260051E+03  0.46003435354E+03  0.12699999809E+01 0. -1.
    10030    2    1    2    0    0  0.00000000000E+00  0.00000000000E+00 -0.11235795316E+03  0.80771132044E+03  0.79985827965E+03 0.  0.
        2    1    3    3  502    0  0.33854333412E+03  0.81194029390E+02  0.14257634736E+03  0.37620748839E+03  0.25500000920E-02 0.  1.
       -2    1    3    3    0  502 -0.33854333412E+03 -0.81194029390E+02 -0.25493430052E+03  0.43150383205E+03  0.25500000920E-02 0. -1.
</event>
<event>
 5   0  0.6801147E-04  0.7998968E+03  0.7818609E-02  0.9560167E-01
        2   -1    0    0  501    0  0.00000000000E+00  0.00000000000E+00  0.87816298234E+03  0.87816298234E+03  0.25500000920E-02 0.  1.
       -2   -1    0    0    0  501  0.00000000000E+00  0.00000000000E+00 -0.18215150245E+03  0.18215150247E+03  0.25500000920E-02 0. -1.
    10030    2    1    2    0    0  0.00000000000E+00  0.00000000000E+00  0.69601147989E+03  0.10603144848E+04  0.79989675994E+03 0.  0.
        4    1    3    3  502    0 -0.26941178817E+03  0.13997172434E+03  0.69311681975E+03  0.75669500721E+03  0.12699999809E+01 0.  1.
       -4    1    3    3    0  502  0.26941178817E+03 -0.13997172434E+03  0.28946601384E+01  0.30361947760E+03  0.12699999809E+01 0. -1.
</event>
<event>
 5   0  0.6593118E-04  0.8000624E+03  0.7818609E-02  0.9559927E-01
        2   -1    0    0  501    0  0.00000000000E+00  0.00000000000E+00  0.34973539499E+03  0.34973539500E+03  0.25500000920E-02 0.  1.
       -2   -1    0    0    0  501  0.00000000000E+00  0.00000000000E+00 -0.45756007270E+03  0.45756007271E+03  0.25500000920E-02 0. -1.
    10030    2    1    2    0    0  0.00000000000E+00  0.00000000000E+00 -0.10782467772E+03  0.80729546771E+03  0.80006237948E+03 0.  0.
        1    1    3    3  502    0 -0.16910169243E+03 -0.28007192058E+03 -0.28618746983E+03  0.43467106068E+03  0.50400001928E-02 0. -1.
       -1    1    3    3    0  502  0.16910169243E+03  0.28007192058E+03  0.17836279211E+03  0.37262440703E+03  0.50400001928E-02 0.  1.
</event>
<event>
 5   0  0.4169155E-04  0.8006636E+03  0.7818609E-02  0.9559057E-01
        1   -1    0    0  501    0  0.00000000000E+00  0.00000000000E+00  0.80967048051E+03  0.80967048052E+03  0.50400001928E-02 0.  1.
       -1   -1    0    0    0  501  0.00000000000E+00  0.00000000000E+00 -0.19793924647E+03  0.19793924653E+03  0.50400001928E-02 0. -1.
    10030    2    1    2    0    0  0.00000000000E+00  0.00000000000E+00  0.61173123404E+03  0.10076097271E+04  0.80066363684E+03 0.  0.
        4    1    3    3  502    0  0.26225693817E+03  0.27571711259E+03  0.46236829019E+03  0.59881940221E+03  0.12699999809E+01 0. -1.
       -4    1    3    3    0  502 -0.26225693817E+03 -0.27571711259E+03  0.14936294384E+03  0.40879032484E+03  0.12699999809E+01 0.  1.
</event>
<event>
 5   0  0.4392552E-04  0.8000048E+03  0.7818609E-02  0.9560010E-01
       -1   -1    0    0    0  501  0.00000000000E+00  0.00000000000E+00  0.46419690730E+03  0.46419690733E+03  0.50400001928E-02 0. -1.
        1   -1    0    0  501    0  0.00000000000E+00  0.00000000000E+00 -0.34468545025E+03  0.34468545029E+03  0.50400001928E-02 0.  1.
    10030    2    1    2    0    0  0.00000000000E+00  0.00000000000E+00  0.11951145705E+03  0.80888235762E+03  0.80000480005E+03 0.  0.
        5    1    3    3  502    0  0.52263170419E+02 -0.20010907138E+03  0.40590655905E+03  0.45558457405E+03  0.46999998093E+01 0. -1.
       -5    1    3    3    0  502 -0.52263170419E+02  0.20010907138E+03 -0.28639510200E+03  0.35329778357E+03  0.46999998093E+01 0.  1.
</event>
<event>
 5   0  0.6672462E-04  0.8017683E+03  0.7818609E-02  0.9557461E-01
       -2   -1    0    0    0  501  0.00000000000E+00  0.00000000000E+00  0.12734938485E+03  0.12734938487E+03  0.25500000920E-02 0. -1.
        2   -1    0    0  501    0  0.00000000000E+00  0.00000000000E+00 -0.12619465500E+04  0.12619465500E+04  0.25500000920E-02 0.  1.
    10030    2    1    2    0    0  0.00000000000E+00  0.00000000000E+00 -0.11345971652E+04  0.13892959349E+04  0.80176833780E+03 0.  0.
        5    1    3    3  502    0  0.16919403639E+03  0.31021885762E+03 -0.23933103489E+03  0.42680650866E+03  0.46999998093E+01 0. -1.
       -5    1    3    3    0  502 -0.16919403639E+03 -0.31021885762E+03 -0.89526613028E+03  0.96248942623E+03  0.46999998093E+01 0.  1.
</event>
<event>
 5   0  0.6672462E-04  0.7995568E+03  0.7818609E-02  0.9560659E-01
       -2   -1    0    0    0  501  0.00000000000E+00  0.00000000000E+00  0.30535615684E+03  0.30535615685E+03  0.25500000920E-02 0. -1.
        2   -1    0    0  501    0  0.00000000000E+00  0.00000000000E+00 -0.52339783382E+03  0.52339783382E+03  0.25500000920E-02 0.  1.
    10030    2    1    2    0    0  0.00000000000E+00  0.00000000000E+00 -0.21804167697E+03  0.82875399068E+03  0.79955675481E+03 0.  0.
        5    1    3    3  502    0  0.20138442406E+03  0.15826667354E+03  0.20910140020E+03  0.33068037706E+03  0.46999998093E+01 0. -1.
       -5    1    3    3    0  502 -0.20138442406E+03 -0.15826667354E+03 -0.42714307717E+03  0.49807361362E+03  0.46999998093E+01 0.  1.
</event>
<event>
 5   0  0.6672462E-04  0.8008150E+03  0.7818609E-02  0.9558838E-01
       -2   -1    0    0    0  501  0.00000000000E+00  0.00000000000E+00  0.23833640627E+03  0.23833640629E+03  0.25500000920E-02 0. -1.
        2   -1    0    0  501    0  0.00000000000E+00  0.00000000000E+00 -0.67268856881E+03  0.67268856882E+03  0.25500000920E-02 0.  1.
    10030    2    1    2    0    0  0.00000000000E+00  0.00000000000E+00 -0.43435216254E+03  0.91102497510E+03  0.80081502493E+03 0.  0.
        5    1    3    3  502    0 -0.18055754742E+03  0.25218119822E+02  0.18834612136E+03  0.26217042725E+03  0.46999998093E+01 0. -1.
       -5    1    3    3    0  502  0.18055754742E+03 -0.25218119822E+02 -0.62269828390E+03  0.64885454785E+03  0.46999998093E+01 0.  1.
</event>
<event>
 5   0  0.6801147E-04  0.8002573E+03  0.7818609E-02  0.9559645E-01
       -2   -1    0    0    0  501  0.00000000000E+00  0.00000000000E+00  0.34215322348E+03  0.34215322349E+03  0.25500000920E-02 0. -1.
        2   -1    0    0  501    0  0.00000000000E+00  0.00000000000E+00 -0.46792757878E+03  0.46792757879E+03  0.25500000920E-02 0.  1.
    10030    2    1    2    0    0  0.00000000000E+00  0.00000000000E+00 -0.12577435530E+03  0.81008080228E+03  0.80025728223E+03 0.  0.
        4    1    3    3  502    0  0.19334827532E+03  0.26662145769E+03  0.16712612888E+03  0.36932819162E+03  0.12699999809E+01 0. -1.
       -4    1    3    3    0  502 -0.19334827532E+03 -0.26662145769E+03 -0.29290048419E+03  0.44075261066E+03  0.12699999809E+01 0.  1.
</event>
<event>
 5   0  0.6801147E-04  0.8001501E+03  0.7818609E-02  0.9559800E-01
        2   -1    0    0  501    0  0.00000000000E+00  0.00000000000E+00  0.55332675154E+03  0.55332675155E+03  0.25500000920E-02 0. -1.
       -2   -1    0    0    0  501  0.00000000000E+00  0.00000000000E+00 -0.28926861414E+03  0.28926861415E+03  0.25500000920E-02 0.  1.
    10030    2    1    2    0    0  0.00000000000E+00  0.00000000000E+00  0.26405813740E+03  0.84259536570E+03  0.80015014239E+03 0.  0.
        4    1    3    3  502    0 -0.76272107329E+02 -0.37807618229E+03  0.24396656090E+03  0.45637739833E+03  0.12699999809E+01 0. -1.
       -4    1    3    3    0  502  0.76272107329E+02  0.37807618229E+03  0.20091576497E+02  0.38621796737E+03  0.12699999809E+01 0.  1.
</event>
<event>
 5   0  0.4392552E-04  0.7999129E+03  0.7818609E-02  0.9560143E-01
       -1   -1    0    0    0  501  0.00000000000E+00  0.00000000000E+00  0.13449517819E+03  0.13449517828E+03  0.50400001928E-02 0.  1.
        1   -1    0    0  501    0  0.00000000000E+00  0.00000000000E+00 -0.11893747254E+04  0.11893747254E+04  0.50400001928E-02 0. -1.
    10030    2    1    2    0    0  0.00000000000E+00  0.00000000000E+00 -0.10548795472E+04  0.13238699037E+04  0.79991290950E+03 0.  0.
        5    1    3    3  502    0 -0.24037247175E+03 -0.30222880412E+03 -0.35527100574E+03  0.52474827559E+03  0.46999998093E+01 0.  1.
       -5    1    3    3    0  502  0.24037247175E+03  0.30222880412E+03 -0.69960854147E+03  0.79912162811E+03  0.46999998093E+01 0. -1.
</event>
<event>
 5   0  0.6970013E-04  0.7992647E+03  0.7818609E-02  0.9561082E-01
       -2   -1    0    0    0  501  0.00000000000E+00  0.00000000000E+00  0.71075845265E+02  0.71075845310E+02  0.25500000920E-02 0. -1.
        2   -1    0    0  501    0  0.00000000000E+00  0.00000000000E+00 -0.22469804457E+04  0.22469804457E+04  0.25500000920E-02 0.  1.
    10030    2    1    2    0    0  0.00000000000E+00  0.00000000000E+00 -0.21759046004E+04  0.23180562910E+04  0.79926474844E+03 0.  0.
        3    1    3    3  502    0  0.38307976144E+03 -0.83718272844E+02 -0.86429218199E+03  0.94908368382E+03  0.10100000352E+00 0. -1.
       -3    1    3    3    0  502 -0.38307976144E+03  0.83718272844E+02 -0.13116124185E+04  0.13689726072E+04  0.10100000352E+00 0.  1.
</event>
<event>
 5   0  0.7133039E-04  0.7998969E+03  0.7818609E-02  0.9560166E-01
       -2   -1    0    0    0  501  0.00000000000E+00  0.00000000000E+00  0.71354227819E+02  0.71354227864E+02  0.25500000920E-02 0.  1.
        2   -1    0    0  501    0  0.00000000000E+00  0.00000000000E+00 -0.22417556457E+04  0.22417556457E+04  0.25500000920E-02 0. -1.
    10030    2    1    2    0    0  0.00000000000E+00  0.00000000000E+00 -0.21704014179E+04  0.23131098736E+04  0.79989685113E+03 0.  0.
        2    1    3    3  502    0 -0.49412272780E+02  0.13527224588E+03 -0.62269302155E+01  0.14414897805E+03  0.25500000920E-02 0.  1.
       -2    1    3    3    0  502  0.49412272780E+02 -0.13527224588E+03 -0.21641744877E+04  0.21689608955E+04  0.25500000920E-02 0. -1.
</event>
<event>
 5   0  0.4087283E-04  0.8002335E+03  0.7818609E-02  0.9559679E-01
       -1   -1    0    0    0  501  0.00000000000E+00  0.00000000000E+00  0.32777184833E+03  0.32777184837E+03  0.50400001928E-02 0.  1.
        1   -1    0    0  501    0  0.00000000000E+00  0.00000000000E+00 -0.48842937276E+03  0.48842937279E+03  0.50400001928E-02 0. -1.
    10030    2    1    2    0    0  0.00000000000E+00  0.00000000000E+00 -0.16065752443E+03  0.81620122116E+03  0.80023346172E+03 0.  0.
        1    1    3    3  502    0  0.23176034620E+01 -0.12773065450E+03  0.30641120817E+03  0.33197638456E+03  0.50400001928E-02 0.  1.
       -1    1    3    3    0  502 -0.23176034620E+01  0.12773065450E+03 -0.46706873260E+03  0.48422483660E+03  0.50400001928E-02 0. -1.
</event>
<event>
 5   0  0.6672462E-04  0.8004967E+03  0.7818609E-02  0.9559298E-01
       -2   -1    0    0    0  501  0.00000000000E+00  0.00000000000E+00  0.35358411203E+03  0.35358411204E+03  0.25500000920E-02 0.  1.
        2   -1    0    0  501    0  0.00000000000E+00  0.00000000000E+00 -0.45307112330E+03  0.45307112331E+03  0.25500000920E-02 0. -1.
    10030    2    1    2    0    0  0.00000000000E+00  0.00000000000E+00 -0.99487011271E+02  0.80665523535E+03  0.80049672286E+03 0.  0.
        5    1    3    3  502    0 -0.25158449630E+03 -0.31060629384E+03 -0.70038767055E+02  0.40583068815E+03  0.46999998093E+01 0. -1.
       -5    1    3    3    0  502  0.25158449630E+03  0.31060629384E+03 -0.29448244216E+02  0.40082454720E+03  0.46999998093E+01 0.  1.
</event>
<event>
 5   0  0.7133039E-04  0.7998152E+03  0.7818609E-02  0.9560285E-01
       -2   -1    0    0    0  501  0.00000000000E+00  0.00000000000E+00  0.95526480973E+02  0.95526481007E+02  0.25500000920E-02 0.  1.
        2   -1    0    0  501    0  0.00000000000E+00  0.00000000000E+00 -0.16741543843E+04  0.16741543843E+04  0.25500000920E-02 0. -1.
    10030    2    1    2    0    0  0.00000000000E+00  0.00000000000E+00 -0.15786279034E+04  0.17696808653E+04  0.79981517108E+03 0.  0.
        2    1    3    3  502    0  0.17778485081E+03 -0.33140705599E+03 -0.48846387168E+03  0.61646982399E+03  0.25500000920E-02 0. -1.
       -2    1    3    3    0  502 -0.17778485081E+03  0.33140705599E+03 -0.10901640317E+04  0.11532110414E+04  0.25500000920E-02 0.  1.
</event>
<event>
 5   0  0.4087283E-04  0.8005098E+03  0.7818609E-02  0.9559279E-01
        1   -1    0    0  501    0  0.00000000000E+00  0.00000000000E+00  0.19249220270E+03  0.19249220277E+03  0.50400001928E-02 0. -1.
       -1   -1    0    0    0  501  0.00000000000E+00  0.00000000000E+00 -0.83226220799E+03  0.83226220801E+03  0.50400001928E-02 0.  1.
    10030    2    1    2    0    0  0.00000000000E+00  0.00000000000E+00 -0.63977000529E+03  0.10247544108E+04  0.80050980177E+03 0.  0.
        1    1    3    3  502    0  0.60931252872E+02 -0.18603486797E+03 -0.76679866748E+03  0.79139230862E+03  0.50400001928E-02 0.  1.
       -1    1    3    3    0  502 -0.60931252872E+02  0.18603486797E+03  0.12702866218E+03  0.23336210215E+03  0.50400001928E-02 0. -1.
</event>
<event>
 5   0  0.6672462E-04  0.8002033E+03  0.7818609E-02  0.9559723E-01
        2   -1    0    0  501    0  0.00000000000E+00  0.00000000000E+00  0.11996188511E+04  0.11996188511E+04  0.25500000920E-02 0. -1.
       -2   -1    0    0    0  501  0.00000000000E+00  0.00000000000E+00 -0.13344349128E+03  0.13344349130E+03  0.25500000920E-02 0.  1.
    10030    2    1    2    0    0  0.00000000000E+00  0.00000000000E+00  0.10661753598E+04  0.13330623424E+04  0.80020329344E+03 0.  0.
        5    1    3    3  502    0 -0.23697900081E+03 -0.98149481561E+02  0.21606486649E+02  0.25745154460E+03  0.46999998093E+01 0.  1.
       -5    1    3    3    0  502  0.23697900081E+03  0.98149481561E+02  0.10445688731E+04  0.10756107978E+04  0.46999998093E+01 0. -1.
</event>
<event>
 5   0  0.6672462E-04  0.7999686E+03  0.7818609E-02  0.9560063E-01
        2   -1    0    0  501    0  0.00000000000E+00  0.00000000000E+00  0.17867156239E+04  0.17867156239E+04  0.25500000920E-02 0.  1.
       -2   -1    0    0    0  501  0.00000000000E+00  0.00000000000E+00 -0.89542752770E+02  0.89542752806E+02  0.25500000920E-02 0. -1.
    10030    2    1    2    0    0  0.00000000000E+00  0.00000000000E+00  0.16971728711E+04  0.18762583767E+04  0.79996858793E+03 0.  0.
        5    1    3    3  502    0 -0.38537143312E+03 -0.10620689763E+03  0.81762172857E+03  0.91012000725E+03  0.46999998093E+01 0.  1.
       -5    1    3    3    0  502  0.38537143312E+03  0.10620689763E+03  0.87955114256E+03  0.96613836946E+03  0.46999998093E+01 0. -1.
</event>
<event>
 5   0  0.6970013E-04  0.7999139E+03  0.7818609E-02  0.9560142E-01
       -2   -1    0    0    0  501  0.00000000000E+00  0.00000000000E+00  0.24562302403E+03  0.24562302404E+03  0.25500000920E-02 0. -1.
        2   -1    0    0  501    0  0.00000000000E+00  0.00000000000E+00 -0.65126451642E+03  0.65126451643E+03  0.25500000920E-02 0.  1.
    10030    2    1    2    0    0  0.00000000000E+00  0.00000000000E+00 -0.40564149240E+03  0.89688754047E+03  0.79991389530E+03 0.  0.
        3    1    3    3  502    0 -0.91027811957E+02 -0.13865454376E+03  0.20524294381E+03  0.26388600046E+03  0.10100000352E+00 0. -1.
       -3    1    3    3    0  502  0.91027811957E+02  0.13865454376E+03 -0.61088443621E+03  0.63300154001E+03  0.10100000352E+00 0.  1.
</event>
<event>
 5   0  0.2736375E-04  0.8001009E+03  0.7818609E-02  0.9559871E-01
        4   -1    0    0  501    0  0.00000000000E+00  0.00000000000E+00  0.59279150616E+03  0.59279286659E+03  0.12699999809E+01 0.  1.
       -4   -1    0    0    0  501  0.00000000000E+00  0.00000000000E+00 -0.26997429860E+03  0.26997728572E+03  0.12699999809E+01 0. -1.
    10030    2    1    2    0    0  0.00000000000E+00  0.00000000000E+00  0.32281720756E+03  0.86277015231E+03  0.80010086003E+03 0.  0.
        1    1    3    3  502    0  0.33668093788E+03 -0.61806616702E+02  0.38466712501E+03  0.51492029373E+03  0.50400001928E-02 0.  1.
       -1    1    3    3    0  502 -0.33668093788E+03  0.61806616702E+02 -0.61849917453E+02  0.34784985858E+03  0.50400001928E-02 0. -1.
</event>
<event>
 5   0  0.4392552E-04  0.7994862E+03  0.7818609E-02  0.9560761E-01
       -1   -1    0    0    0  501  0.00000000000E+00  0.00000000000E+00  0.16800212412E+03  0.16800212420E+03  0.50400001928E-02 0. -1.
        1   -1    0    0  501    0  0.00000000000E+00  0.00000000000E+00 -0.95114591680E+03  0.95114591682E+03  0.50400001928E-02 0.  1.
    10030    2    1    2    0    0  0.00000000000E+00  0.00000000000E+00 -0.78314379268E+03  0.11191480410E+04  0.79948617104E+03 0.  0.
        5    1    3    3  502    0 -0.28578074823E+03 -0.17499096908E+02 -0.11321048626E+01  0.28635681607E+03  0.46999998093E+01 0. -1.
       -5    1    3    3    0  502  0.28578074823E+03  0.17499096908E+02 -0.78201168782E+03  0.83279122494E+03  0.46999998093E+01 0.  1.
</event>
<event>
 5   0  0.7133039E-04  0.8000646E+03  0.7818609E-02  0.9559924E-01
        2   -1    0    0  501    0  0.00000000000E+00  0.00000000000E+00  0.81609768128E+03  0.81609768129E+03  0.25500000920E-02 0. -1.
       -2   -1    0    0    0  501  0.00000000000E+00  0.00000000000E+00 -0.19608661252E+03  0.19608661254E+03  0.25500000920E-02 0.  1.
    10030    2    1    2    0    0  0.00000000000E+00  0.00000000000E+00  0.62001106876E+03  0.10121842938E+04  0.80006457194E+03 0.  0.
        2    1    3    3  502    0  0.11913740970E+03  0.31601450463E+03  0.58124779341E+03  0.67224094406E+03  0.25500000920E-02 0. -1.
       -2    1    3    3    0  502 -0.11913740970E+03 -0.31601450463E+03  0.38763275356E+02  0.33994334976E+03  0.25500000920E-02 0.  1.
</event>
<event>
 5   0  0.6593118E-04  0.7991293E+03  0.7818609E-02  0.9561278E-01
       -2   -1    0    0    0  501  0.00000000000E+00  0.00000000000E+00  0.36453334742E+03  0.36453334742E+03  0.25500000920E-02 0. -1.
        2   -1    0    0  501    0  0.00000000000E+00  0.00000000000E+00 -0.43796244142E+03  0.43796244142E+03  0.25500000920E-02 0.  1.
    10030    2    1    2    0    0  0.00000000000E+00  0.00000000000E+00 -0.73429094001E+02  0.80249578885E+03  0.79912931324E+03 0.  0.
        1    1    3    3  502    0  0.39776340553E+03 -0.18379055255E+02 -0.69996257181E+02  0.40429320115E+03  0.50400001928E-02 0.  1.
       -1    1    3    3    0  502 -0.39776340553E+03  0.18379055255E+02 -0.34328368201E+01  0.39820258770E+03  0.50400001928E-02 0. -1.
</event>
<event>
 5   0  0.4104786E-04  0.7997771E+03  0.7818609E-02  0.9560340E-01
        1   -1    0    0  501    0  0.00000000000E+00  0.00000000000E+00  0.41057297064E+03  0.41057297067E+03  0.50400001928E-02 0. -1.
       -1   -1    0    0    0  501  0.00000000000E+00  0.00000000000E+00 -0.38948214679E+03  0.38948214683E+03  0.50400001928E-02 0.  1.
    10030    2    1    2    0    0  0.00000000000E+00  0.00000000000E+00  0.21090823842E+02  0.80005511749E+03  0.79977707405E+03 0.  0.
        2    1    3    3  502    0 -0.11771341962E+03 -0.35875918508E+03  0.14229632456E+03  0.40350073857E+03  0.25500000920E-02 0. -1.
       -2    1    3    3    0  502  0.11771341962E+03  0.35875918508E+03 -0.12120550072E+03  0.39655437893E+03  0.25500000920E-02 0.  1.
</event>
<event>
 5   0  0.4087283E-04  0.8007551E+03  0.7818609E-02  0.9558925E-01
       -1   -1    0    0    0  501  0.00000000000E+00  0.00000000000E+00  0.47645148267E+03  0.47645148270E+03  0.50400001928E-02 0. -1.
        1   -1    0    0  501    0  0.00000000000E+00  0.00000000000E+00 -0.33645014162E+03  0.33645014166E+03  0.50400001928E-02 0.  1.
    10030    2    1    2    0    0  0.00000000000E+00  0.00000000000E+00  0.14000134105E+03  0.81290162435E+03  0.80075506579E+03 0.  0.
        1    1    3    3  502    0  0.28629965868E+03  0.27631038359E+03  0.24745924528E+02  0.39865684924E+03  0.50400001928E-02 0.  1.
       -1    1    3    3    0  502 -0.28629965868E+03 -0.27631038359E+03  0.11525541652E+03  0.41424477511E+03  0.50400001928E-02 0. -1.
</event>
<event>
 5   0  0.7133039E-04  0.8008946E+03  0.7818609E-02  0.9558723E-01
        2   -1    0    0  501    0  0.00000000000E+00  0.00000000000E+00  0.14099659060E+04  0.14099659060E+04  0.25500000920E-02 0. -1.
       -2   -1    0    0    0  501  0.00000000000E+00  0.00000000000E+00 -0.11373184698E+03  0.11373184700E+03  0.25500000920E-02 0.  1.
    10030    2    1    2    0    0  0.00000000000E+00  0.00000000000E+00  0.12962340590E+04  0.15236977530E+04  0.80089456656E+03 0.  0.
        2    1    3    3  502    0  0.40285674149E+02 -0.37848115656E+03  0.41135688036E+03  0.56043322924E+03  0.25500000920E-02 0. -1.
       -2    1    3    3    0  502 -0.40285674149E+02  0.37848115656E+03  0.88487717868E+03  0.96326452378E+03  0.25500000920E-02 0.  1.
</event>
<event>
 5   0  0.4087283E-04  0.7997062E+03  0.7818609E-02  0.9560442E-01
       -1   -1    0    0    0  501  0.00000000000E+00  0.00000000000E+00  0.71480847263E+03  0.71480847264E+03  0.50400001928E-02 0.  1.
        1   -1    0    0  501    0  0.00000000000E+00  0.00000000000E+00 -0.22367180554E+03  0.22367180559E+03  0.50400001928E-02 0. -1.
    10030    2    1    2    0    0  0.00000000000E+00  0.00000000000E+00  0.49113666709E+03  0.93848027824E+03  0.79970620035E+03 0.  0.
        1    1    3    3  502    0  0.10027797551E+03 -0.38116720695E+03  0.32462628890E+03  0.51061368910E+03  0.50400001928E-02 0.  1.
       -1    1    3    3    0  502 -0.10027797551E+03  0.38116720695E+03  0.16651037819E+03  0.42786658913E+03  0.50400001928E-02 0. -1.
</event>
<event>
 5   0  0.4087283E-04  0.7998393E+03  0.7818609E-02  0.9560250E-01
        1   -1    0    0  501    0  0.00000000000E+00  0.00000000000E+00  0.70917135518E+03  0.70917135519E+03  0.50400001928E-02 0.  1.
       -1   -1    0    0    0  501  0.00000000000E+00  0.00000000000E+00 -0.22552477152E+03  0.22552477157E+03  0.50400001928E-02 0. -1.
    10030    2    1    2    0    0  0.00000000000E+00  0.00000000000E+00  0.48364658366E+03  0.93469612677E+03  0.79983925355E+03 0.  0.
        1    1    3    3  502    0  0.38735934356E+03  0.98951931746E+02  0.25333046227E+03  0.47330230189E+03  0.50400001928E-02 0.  1.
       -1    1    3    3    0  502 -0.38735934356E+03 -0.98951931746E+02  0.23031612138E+03  0.46139382487E+03  0.50400001928E-02 0. -1.
</event>
<event>
 5   0  0.4104786E-04  0.8001097E+03  0.7818609E-02  0.9559858E-01
       -1   -1    0    0    0  501  0.00000000000E+00  0.00000000000E+00  0.81554989790E+03  0.81554989792E+03  0.50400001928E-02 0. -1.
        1   -1    0    0  501    0  0.00000000000E+00  0.00000000000E+00 -0.19624045300E+03  0.19624045306E+03  0.50400001928E-02 0.  1.
    10030    2    1    2    0    0  0.00000000000E+00  0.00000000000E+00  0.61930944490E+03  0.10117903510E+04  0.80010969610E+03 0.  0.
        2    1    3    3  502    0 -0.33091098088E+03  0.19964071998E+03  0.44037294383E+03  0.58590683901E+03  0.25500000920E-02 0. -1.
       -2    1    3    3    0  502  0.33091098088E+03 -0.19964071998E+03  0.17893650108E+03  0.42588351197E+03  0.25500000920E-02 0.  1.
</event>
<event>
 5   0  0.6801147E-04  0.8000051E+03  0.7818609E-02  0.9560010E-01
       -2   -1    0    0    0  501  0.00000000000E+00  0.00000000000E+00  0.15675871377E+03  0.15675871379E+03  0.25500000920E-02 0.  1.
        2   -1    0    0  501    0  0.00000000000E+00  0.00000000000E+00 -0.10206900099E+04  0.10206900099E+04  0.25500000920E-02 0. -1.
    10030    2    1    2    0    0  0.00000000000E+00  0.00000000000E+00 -0.86393129612E+03  0.11774487237E+04  0.80000513280E+03 0.  0.
        4    1    3    3  502    0  0.18579708504E+03 -0.33153349405E+03 -0.61558976989E+03  0.72345517634E+03  0.12699999809E+01 0. -1.
       -4    1    3    3    0  502 -0.18579708504E+03  0.33153349405E+03 -0.24834152623E+03  0.45399354735E+03  0.12699999809E+01 0.  1.
</event>
<event>
 5   0  0.6672462E-04  0.7995593E+03  0.7818609E-02  0.9560655E-01
        2   -1    0    0  501    0  0.00000000000E+00  0.00000000000E+00  0.62246440415E+03  0.62246440416E+03  0.25500000920E-02 0.  1.
       -2   -1    0    0    0  501  0.00000000000E+00  0.00000000000E+00 -0.25675971384E+03  0.25675971385E+03  0.25500000920E-02 0. -1.
    10030    2    1    2    0    0  0.00000000000E+00  0.00000000000E+00  0.36570469031E+03  0.87922411800E+03  0.79955933436E+03 0.  0.
        5    1    3    3  502    0  0.57603042385E+02  0.38980507377E+03  0.10879543116E+03  0.40880880845E+03  0.46999998093E+01 0. -1.
       -5    1    3    3    0  502 -0.57603042385E+02 -0.38980507377E+03  0.25690925915E+03  0.47041530955E+03  0.46999998093E+01 0.  1.
</event>
<event>
 5   0  0.6801147E-04  0.7994114E+03  0.7818609E-02  0.9560869E-01
       -2   -1    0    0    0  501  0.00000000000E+00  0.00000000000E+00  0.14191031958E+03  0.14191031961E+03  0.25500000920E-02 0. -1.
        2   -1    0    0  501    0  0.00000000000E+00  0.00000000000E+00 -0.11258141045E+04  0.11258141045E+04  0.25500000920E-02 0.  1.
    10030    2    1    2    0    0  0.00000000000E+00  0.00000000000E+00 -0.98390378490E+03  0.12677244241E+04  0.79941138190E+03 0.  0.
        4    1    3    3  502    0  0.29603893153E+03  0.19949781310E+03 -0.20683620705E+03  0.41257878746E+03  0.12699999809E+01 0.  1.
       -4    1    3    3    0  502 -0.29603893153E+03 -0.19949781310E+03 -0.77706757785E+03  0.85514563664E+03  0.12699999809E+01 0. -1.
</event>
<event>
 5   0  0.6593118E-04  0.7997883E+03  0.7818609E-02  0.9560324E-01
        2   -1    0    0  501    0  0.00000000000E+00  0.00000000000E+00  0.12434973281E+04  0.12434973281E+04  0.25500000920E-02 0. -1.
       -2   -1    0    0    0  501  0.00000000000E+00  0.00000000000E+00 -0.12860125380E+03  0.12860125383E+03  0.25500000920E-02 0.  1.
    10030    2    1    2    0    0  0.00000000000E+00  0.00000000000E+00  0.11148960743E+04  0.13720985820E+04  0.79978826077E+03 0.  0.
        1    1    3    3  502    0 -0.25301869229E+02  0.33911922171E+02  0.12396464644E+04  0.12403683162E+04  0.50400001928E-02 0. -1.
       -1    1    3    3    0  502  0.25301869229E+02 -0.33911922171E+02 -0.12475039012E+03  0.13173026574E+03  0.50400001928E-02 0.  1.
</event>
<event>
 5   0  0.6672462E-04  0.7998882E+03  0.7818609E-02  0.9560179E-01
        2   -1    0    0  501    0  0.00000000000E+00  0.00000000000E+00  0.23875121658E+04  0.23875121658E+04  0.25500000920E-02 0. -1.
       -2   -1    0    0    0  501  0.00000000000E+00  0.00000000000E+00 -0.66996640853E+02  0.66996640901E+02  0.25500000920E-02 0.  1.
    10030    2    1    2    0    0  0.00000000000E+00  0.00000000000E+00  0.23205155249E+04  0.24545088067E+04  0.79988823010E+03 0.  0.
        5    1    3    3  502    0 -0.86498363298E+02 -0.21572818467E+03  0.21588980434E+04  0.21713782417E+04  0.46999998093E+01 0. -1.
       -5    1    3    3    0  502  0.86498363298E+02  0.21572818467E+03  0.16161748149E+03  0.28313056500E+03  0.46999998093E+01 0.  1.
</event>
<event>
 5   0  0.6970013E-04  0.7998149E+03  0.7818609E-02  0.9560285E-01
       -2   -1    0    0    0  501  0.00000000000E+00  0.00000000000E+00  0.28910814980E+04  0.28910814980E+04  0.25500000920E-02 0.  1.
        2   -1    0    0  501    0  0.00000000000E+00  0.00000000000E+00 -0.55317002415E+02  0.55317002474E+02  0.25500000920E-02 0. -1.
    10030    2    1    2    0    0  0.00000000000E+00  0.00000000000E+00  0.28357644956E+04  0.29463985004E+04  0.79981488432E+03 0.  0.
        3    1    3    3  502    0  0.39373360611E+01 -0.39527164049E+03  0.11946889425E+04  0.12583866067E+04  0.10100000352E+00 0. -1.
       -3    1    3    3    0  502 -0.39373360611E+01  0.39527164049E+03  0.16410755530E+04  0.16880118937E+04  0.10100000352E+00 0.  1.
</event>
<event>
 5   0  0.6801147E-04  0.7995311E+03  0.7818609E-02  0.9560696E-01
       -2   -1    0    0    0  501  0.00000000000E+00  0.00000000000E+00  0.21563387876E+03  0.21563387877E+03  0.25500000920E-02 0.  1.
        2   -1    0    0  501    0  0.00000000000E+00  0.00000000000E+00 -0.74112887264E+03  0.74112887265E+03  0.25500000920E-02 0. -1.
    10030    2    1    2    0    0  0.00000000000E+00  0.00000000000E+00 -0.52549499388E+03  0.95676275142E+03  0.79953109627E+03 0.  0.
        4    1    3    3  502    0  0.16461105269E+03  0.34923878925E+03 -0.38679824570E+03  0.54651534870E+03  0.12699999809E+01 0. -1.
       -4    1    3    3    0  502 -0.16461105269E+03 -0.34923878925E+03 -0.13869674818E+03  0.41024740272E+03  0.12699999809E+01 0.  1.
</event>
<event>
 5   0  0.4086111E-04  0.8002625E+03  0.7818609E-02  0.9559637E-01
       -1   -1    0    0    0  501  0.00000000000E+00  0.00000000000E+00  0.10038669525E+03  0.10038669538E+03  0.50400001928E-02 0. -1.
        1   -1    0    0  501    0  0.00000000000E+00  0.00000000000E+00 -0.15948828273E+04  0.15948828273E+04  0.50400001928E-02 0.  1.
    10030    2    1    2    0    0  0.00000000000E+00  0.00000000000E+00 -0.14944961320E+04  0.16952695227E+04  0.80026249808E+03 0.  0.
        3    1    3    3  502    0  0.18165479622E+02  0.33117584147E+03 -0.27309924126E+03  0.42964011498E+03  0.10100000352E+00 0. -1.
       -3    1    3    3    0  502 -0.18165479622E+02 -0.33117584147E+03 -0.12213968908E+04  0.12656294077E+04  0.10100000352E+00 0.  1.
</event>
<event>
 5   0  0.4104786E-04  0.8009739E+03  0.7818609E-02  0.9558608E-01
        1   -1    0    0  501    0  0.00000000000E+00  0.00000000000E+00  0.27753427348E+03  0.27753427353E+03  0.50400001928E-02 0.  1.
       -1   -1    0    0    0  501  0.00000000000E+00  0.00000000000E+00 -0.57790993798E+03  0.57790993800E+03  0.50400001928E-02 0. -1.
    10030    2    1    2    0    0  0.00000000000E+00  0.00000000000E+00 -0.30037566450E+03  0.85544421152E+03  0.80097394415E+03 0.  0.
        2    1    3    3  502    0  0.89657121800E+02  0.10517243147E+03  0.25126015496E+03  0.28676001344E+03  0.25500000920E-02 0.  1.
       -2    1    3    3    0  502 -0.89657121800E+02 -0.10517243147E+03 -0.55163581946E+03  0.56868419808E+03  0.25500000920E-02 0. -1.
</event>
<event>
 5   0  0.4086111E-04  0.7998496E+03  0.7818609E-02  0.9560235E-01
       -1   -1    0    0    0  501  0.00000000000E+00  0.00000000000E+00  0.23764309141E+03  0.23764309146E+03  0.50400001928E-02 0. -1.
        1   -1    0    0  501    0  0.00000000000E+00  0.00000000000E+00 -0.67302543927E+03  0.67302543929E+03  0.50400001928E-02 0.  1.
    10030    2    1    2    0    0  0.00000000000E+00  0.00000000000E+00 -0.43538234787E+03  0.91066853075E+03  0.79984960091E+03 0.  0.
        3    1    3    3  502    0  0.14160592947E+03 -0.25188777165E+03  0.97092901477E+02  0.30483885986E+03  0.10100000352E+00 0. -1.
       -3    1    3    3    0  502 -0.14160592947E+03  0.25188777165E+03 -0.53247524934E+03  0.60582967089E+03  0.10100000352E+00 0.  1.
</event>
<event>
 5   0  0.6801147E-04  0.7986030E+03  0.7818609E-02  0.9562041E-01
       -2   -1    0    0    0  501  0.00000000000E+00  0.00000000000E+00  0.24514033317E+03  0.24514033318E+03  0.25500000920E-02 0. -1.
        2   -1    0    0  501    0  0.00000000000E+00  0.00000000000E+00 -0.65040990870E+03  0.65040990871E+03  0.25500000920E-02 0.  1.
    10030    2    1    2    0    0  0.00000000000E+00  0.00000000000E+00 -0.40526957554E+03  0.89555024189E+03  0.79860303461E+03 0.  0.
        4    1    3    3  502    0  0.37333934003E+03  0.49180944676E+02 -0.35156977297E+03  0.51517370498E+03  0.12699999809E+01 0.  1.
       -4    1    3    3    0  502 -0.37333934003E+03 -0.49180944676E+02 -0.53699802566E+02  0.38037653691E+03  0.12699999809E+01 0. -1.
</event>
<event>
 5   0  0.4087283E-04  0.7992304E+03  0.7818609E-02  0.9561132E-01
       -1   -1    0    0    0  501  0.00000000000E+00  0.00000000000E+00  0.14727130813E+03  0.14727130821E+03  0.50400001928E-02 0. -1.
        1   -1    0    0  501    0  0.00000000000E+00  0.00000000000E+00 -0.10843409792E+04  0.10843409793E+04  0.50400001928E-02 0.  1.
    10030    2    1    2    0    0  0.00000000000E+00  0.00000000000E+00 -0.93706967112E+03  0.12316122875E+04  0.79923041616E+03 0.  0.
        1    1    3    3  502    0 -0.31409336027E+01  0.39632628848E+03 -0.54723023013E+03  0.67568137254E+03  0.50400001928E-02 0.  1.
       -1    1    3    3    0  502  0.31409336027E+01 -0.39632628848E+03 -0.38983944099E+03  0.55593091493E+03  0.50400001928E-02 0. -1.
</event>
<event>
 5   0  0.4392552E-04  0.8020242E+03  0.7818609E-02  0.9557092E-01
       -1   -1    0    0    0  501  0.00000000000E+00  0.00000000000E+00  0.26647060405E+03  0.26647060410E+03  0.50400001928E-02 0.  1.
        1   -1    0    0  501    0  0.00000000000E+00  0.00000000000E+00 -0.60348385100E+03  0.60348385103E+03  0.50400001928E-02 0. -1.
    10030    2    1    2    0    0  0.00000000000E+00  0.00000000000E+00 -0.33701324695E+03  0.86995445512E+03  0.80202420498E+03 0.  0.
        5    1    3    3  502    0 -0.35592392642E+03  0.16789080320E+03 -0.25196113793E+03  0.46730682450E+03  0.46999998093E+01 0. -1.
       -5    1    3    3    0  502  0.35592392642E+03 -0.16789080320E+03 -0.85052109026E+02  0.40264763062E+03  0.46999998093E+01 0.  1.
</event>
<event>
 5   0  0.4087283E-04  0.7999348E+03  0.7818609E-02  0.9560112E-01
        1   -1    0    0  501    0  0.00000000000E+00  0.00000000000E+00  0.15334021086E+04  0.15334021086E+04  0.50400001928E-02 0. -1.
       -1   -1    0    0    0  501  0.00000000000E+00  0.00000000000E+00 -0.10432613064E+03  0.10432613076E+03  0.50400001928E-02 0.  1.
    10030    2    1    2    0    0  0.00000000000E+00  0.00000000000E+00  0.14290759780E+04  0.16377282394E+04  0.79993476936E+03 0.  0.
        1    1    3    3  502    0  0.13709115266E+03  0.36400282416E+03  0.52377510957E+03  0.65240509315E+03  0.50400001928E-02 0.  1.
       -1    1    3    3    0  502 -0.13709115266E+03 -0.36400282416E+03  0.90530086840E+03  0.98532314623E+03  0.50400001928E-02 0. -1.
</event>
<event>
 5   0  0.4104786E-04  0.8008155E+03  0.7818609E-02  0.9558837E-01
       -1   -1    0    0    0  501  0.00000000000E+00  0.00000000000E+00  0.58693051274E+03  0.58693051276E+03  0.50400001928E-02 0. -1.
        1   -1    0    0  501    0  0.00000000000E+00  0.00000000000E+00 -0.27316071983E+03  0.27316071988E+03  0.50400001928E-02 0.  1.
    10030    2    1    2    0    0  0.00000000000E+00  0.00000000000E+00  0.31376979291E+03  0.86009123264E+03  0.80081548781E+03 0.  0.
        2    1    3    3  502    0  0.58747553581E+01 -0.24982231437E+03 -0.17913152408E+03  0.30746350097E+03  0.25500000920E-02 0.  1.
       -2    1    3    3    0  502 -0.58747553581E+01  0.24982231437E+03  0.49290131699E+03  0.55262773166E+03  0.25500000920E-02 0. -1.
</event>
<event>
 5   0  0.6672462E-04  0.7994338E+03  0.7818609E-02  0.9560837E-01
        2   -1    0    0  501    0  0.00000000000E+00  0.00000000000E+00  0.94614294159E+03  0.94614294160E+03  0.25500000920E-02 0. -1.
       -2   -1    0    0    0  501  0.00000000000E+00  0.00000000000E+00 -0.16886835574E+03  0.16886835575E+03  0.25500000920E-02 0.  1.
    10030    2    1    2    0    0  0.00000000000E+00  0.00000000000E+00  0.77727458586E+03  0.11150112973E+04  0.79943380677E+03 0.  0.
        5    1    3    3  502    0 -0.10302220270E+03  0.30894377336E+03  0.71182160300E+03  0.78279749223E+03  0.46999998093E+01 0. -1.
       -5    1    3    3    0  502  0.10302220270E+03 -0.30894377336E+03  0.65452982860E+02  0.33221380512E+03  0.46999998093E+01 0.  1.
</event>
<event>
 5   0  0.6801147E-04  0.8002105E+03  0.7818609E-02  0.9559712E-01
        2   -1    0    0  501    0  0.00000000000E+00  0.00000000000E+00  0.14006785129E+04  0.14006785129E+04  0.25500000920E-02 0.  1.
       -2   -1    0    0    0  501  0.00000000000E+00  0.00000000000E+00 -0.11429048548E+03  0.11429048551E+03  0.25500000920E-02 0. -1.
    10030    2    1    2    0    0  0.00000000000E+00  0.00000000000E+00  0.12863880274E+04  0.15149689984E+04  0.80021054045E+03 0.  0.
        4    1    3    3  502    0  0.23277531133E+03 -0.42866486266E+02  0.32472922234E+02  0.23890999307E+03  0.12699999809E+01 0. -1.
       -4    1    3    3    0  502 -0.23277531133E+03  0.42866486266E+02  0.12539151052E+04  0.12760590053E+04  0.12699999809E+01 0.  1.
</event>
<event>
 5   0  0.4086111E-04  0.8000020E+03  0.7818609E-02  0.9560014E-01
       -1   -1    0    0    0  501  0.00000000000E+00  0.00000000000E+00  0.20185441072E+03  0.20185441079E+03  0.50400001928E-02 0.  1.
        1   -1    0    0  501    0  0.00000000000E+00  0.00000000000E+00 -0.79265454154E+03  0.79265454155E+03  0.50400001928E-02 0. -1.
    10030    2    1    2    0    0  0.00000000000E+00  0.00000000000E+00 -0.59080013081E+03  0.99450895234E+03  0.80000203857E+03 0.  0.
        3    1    3    3  502    0  0.37931913623E+03 -0.12669969090E+03 -0.28537865184E+03  0.49130113363E+03  0.10100000352E+00 0.  1.
       -3    1    3    3    0  502 -0.37931913623E+03  0.12669969090E+03 -0.30542147898E+03  0.50320781871E+03  0.10100000352E+00 0. -1.
</event>
<event>
 5   0  0.2736375E-04  0.8000572E+03  0.7818609E-02  0.9559934E-01
        4   -1    0    0  501    0  0.00000000000E+00  0.00000000000E+00  0.30853637759E+03  0.30853899137E+03  0.12699999809E+01 0. -1.
       -4   -1    0    0    0  501  0.00000000000E+00  0.00000000000E+00 -0.51864599388E+03  0.51864754879E+03  0.12699999809E+01 0.  1.
    10030    2    1    2    0    0  0.00000000000E+00  0.00000000000E+00 -0.21010961629E+03  0.82718654017E+03  0.80005719881E+03 0.  0.
        3    1    3    3  502    0  0.65841434470E+02 -0.11350383492E+03  0.28565436167E+03  0.31435114057E+03  0.10100000352E+00 0. -1.
       -3    1    3    3    0  502 -0.65841434470E+02  0.11350383492E+03 -0.49576397796E+03  0.51283539960E+03  0.10100000352E+00 0.  1.
</event>
<event>
 5   0  0.6801147E-04  0.8008197E+03  0.7818609E-02  0.9558831E-01
        2   -1    0    0  501    0  0.00000000000E+00  0.00000000000E+00  0.96369950057E+03  0.96369950058E+03  0.25500000920E-02 0.  1.
       -2   -1    0    0    0  501  0.00000000000E+00  0.00000000000E+00 -0.16636726704E+03  0.16636726706E+03  0.25500000920E-02 0. -1.
    10030    2    1    2    0    0  0.00000000000E+00  0.00000000000E+00  0.79733223353E+03  0.11300667676E+04  0.80081971048E+03 0.  0.
        4    1    3    3  502    0  0.27820779262E+03  0.26368016047E+03  0.56201488212E+03  0.68028607477E+03  0.12699999809E+01 0.  1.
       -4    1    3    3    0  502 -0.27820779262E+03 -0.26368016047E+03  0.23531735141E+03  0.44978069287E+03  0.12699999809E+01 0. -1.
</event>
<event>
 5   0  0.4169155E-04  0.7992041E+03  0.7818609E-02  0.9561170E-01
        1   -1    0    0  501    0  0.00000000000E+00  0.00000000000E+00  0.19767728339E+04  0.19767728339E+04  0.50400001928E-02 0. -1.
       -1   -1    0    0    0  501  0.00000000000E+00  0.00000000000E+00 -0.80779040787E+02  0.80779040944E+02  0.50400001928E-02 0.  1.
    10030    2    1    2    0    0  0.00000000000E+00  0.00000000000E+00  0.18959937931E+04  0.20575518748E+04  0.79920413799E+03 0.  0.
        4    1    3    3  502    0 -0.19140118151E+03 -0.12696445758E+03  0.10614759889E+03  0.25302828187E+03  0.12699999809E+01 0.  1.
       -4    1    3    3    0  502  0.19140118151E+03  0.12696445758E+03  0.17898461942E+04  0.18045235930E+04  0.12699999809E+01 0. -1.
</event>
<event>
 5   0  0.6593118E-04  0.8005640E+03  0.7818609E-02  0.9559201E-01
       -2   -1    0    0    0  501  0.00000000000E+00  0.00000000000E+00  0.23894469811E+03  0.23894469813E+03  0.25500000920E-02 0.  1.
        2   -1    0    0  501    0  0.00000000000E+00  0.00000000000E+00 -0.67055546570E+03  0.67055546570E+03  0.25500000920E-02 0. -1.
    10030    2    1    2    0    0  0.00000000000E+00  0.00000000000E+00 -0.43161076758E+03  0.90950016383E+03  0.80056398452E+03 0.  0.
        1    1    3    3  502    0 -0.81611433297E+02  0.35187782254E+03 -0.19862222579E+02  0.36176364653E+03  0.50400001928E-02 0.  1.
       -1    1    3    3    0  502  0.81611433297E+02 -0.35187782254E+03 -0.41174854501E+03  0.54773651730E+03  0.50400001928E-02 0. -1.
</event>
<event>
 5   0  0.4169155E-04  0.8000221E+03  0.7818609E-02  0.9559985E-01
       -1   -1    0    0    0  501  0.00000000000E+00  0.00000000000E+00  0.17691581254E+03  0.17691581261E+03  0.50400001928E-02 0.  1.
        1   -1    0    0  501    0  0.00000000000E+00  0.00000000000E+00 -0.90443500945E+03  0.90443500946E+03  0.50400001928E-02 0. -1.
    10030    2    1    2    0    0  0.00000000000E+00  0.00000000000E+00 -0.72751919690E+03  0.10813508221E+04  0.80002213628E+03 0.  0.
        4    1    3    3  502    0 -0.30089727194E+03 -0.21080034857E+03 -0.14991110427E+03  0.39680084085E+03  0.12699999809E+01 0.  1.
       -4    1    3    3    0  502  0.30089727194E+03  0.21080034857E+03 -0.57760809263E+03  0.68454998122E+03  0.12699999809E+01 0. -1.
</event>
<event>
 5   0  0.4087283E-04  0.7983583E+03  0.7818609E-02  0.9562396E-01
       -1   -1    0    0    0  501  0.00000000000E+00  0.00000000000E+00  0.24433273856E+03  0.24433273861E+03  0.50400001928E-02 0.  1.
        1   -1    0    0  501    0  0.00000000000E+00  0.00000000000E+00 -0.65215981134E+03  0.65215981136E+03  0.50400001928E-02 0. -1.
    10030    2    1    2    0    0  0.00000000000E+00  0.00000000000E+00 -0.40782707278E+03  0.89649254997E+03  0.79835829729E+03 0.  0.
        1    1    3    3  502    0  0.32372291515E+03  0.17908833597E+02 -0.46540384165E+03  0.56720189348E+03  0.50400001928E-02 0. -1.
       -1    1    3    3    0  502 -0.32372291515E+03 -0.17908833597E+02  0.57576768864E+02  0.32929065650E+03  0.50400001928E-02 0.  1.
</event>
<event>
 5   0  0.6970013E-04  0.8001534E+03  0.7818609E-02  0.9559795E-01
       -2   -1    0    0    0  501  0.00000000000E+00  0.00000000000E+00  0.19830375717E+03  0.19830375719E+03  0.25500000920E-02 0.  1.
        2   -1    0    0  501    0  0.00000000000E+00  0.00000000000E+00 -0.80715243683E+03  0.80715243683E+03  0.25500000920E-02 0. -1.
    10030    2    1    2    0    0  0.00000000000E+00  0.00000000000E+00 -0.60884867966E+03  0.10054561940E+04  0.80015338740E+03 0.  0.
        3    1    3    3  502    0 -0.74833286746E+02 -0.32910928733E+03 -0.57436497289E+03  0.66618921943E+03  0.10100000352E+00 0. -1.
       -3    1    3    3    0  502  0.74833286746E+02  0.32910928733E+03 -0.34483706776E+02  0.33926697459E+03  0.10100000352E+00 0.  1.
</event>
<event>
 5   0  0.4392552E-04  0.7991051E+03  0.7818609E-02  0.9561313E-01
        1   -1    0    0  501    0  0.00000000000E+00  0.00000000000E+00  0.20768253473E+03  0.20768253479E+03  0.50400001928E-02 0. -1.
       -1   -1    0    0    0  501  0.00000000000E+00  0.00000000000E+00 -0.76868391935E+03  0.76868391937E+03  0.50400001928E-02 0.  1.
    10030    2    1    2    0    0  0.00000000000E+00  0.00000000000E+00 -0.56100138462E+03  0.97636645416E+03  0.79910506147E+03 0.  0.
        5    1    3    3  502    0  0.48944888047E+02  0.34688047079E+03 -0.45800655565E+02  0.35332910031E+03  0.46999998093E+01 0. -1.
       -5    1    3    3    0  502 -0.48944888047E+02 -0.34688047079E+03 -0.51520072905E+03  0.62303735385E+03  0.46999998093E+01 0.  1.
</event>
<event>
 5   0  0.6970013E-04  0.8000760E+03  0.7818609E-02  0.9559907E-01
        2   -1    0    0  501    0  0.00000000000E+00  0.00000000000E+00  0.32049668780E+03  0.32049668781E+03  0.25500000920E-02 0. -1.
       -2   -1    0    0    0  501  0.00000000000E+00  0.00000000000E+00 -0.49931999268E+03  0.49931999268E+03  0.25500000920E-02 0.  1.
    10030    2    1    2    0    0  0.00000000000E+00  0.00000000000E+00 -0.17882330488E+03  0.81981668049E+03  0.80007600592E+03 0.  0.
        3    1    3    3  502    0  0.21242945103E+03  0.29524072869E+03  0.81241971123E+02  0.37268435386E+03  0.10100000352E+00 0.  1.
       -3    1    3    3    0  502 -0.21242945103E+03 -0.29524072869E+03 -0.26006527600E+03  0.44713232663E+03  0.10100000352E+00 0. -1.
</event>
<event>
 5   0  0.6801147E-04  0.7971684E+03  0.7818609E-02  0.9564125E-01
       -2   -1    0    0    0  501  0.00000000000E+00  0.00000000000E+00  0.19980627643E+03  0.19980627645E+03  0.25500000920E-02 0. -1.
        2   -1    0    0  501    0  0.00000000000E+00  0.00000000000E+00 -0.79511698712E+03  0.79511698713E+03  0.25500000920E-02 0.  1.
    10030    2    1    2    0    0  0.00000000000E+00  0.00000000000E+00 -0.59531071069E+03  0.99492326357E+03  0.79716840011E+03 0.  0.
        4    1    3    3  502    0 -0.35706827820E+03 -0.17325650521E+03 -0.34354944115E+03  0.52492228311E+03  0.12699999809E+01 0.  1.
       -4    1    3    3    0  502  0.35706827820E+03  0.17325650521E+03 -0.25176126954E+03  0.47000098046E+03  0.12699999809E+01 0. -1.
</event>
<event>
 5   0  0.6970013E-04  0.7993283E+03  0.7818609E-02  0.9560990E-01
        2   -1    0    0  501    0  0.00000000000E+00  0.00000000000E+00  0.87940378404E+03  0.87940378405E+03  0.25500000920E-02 0. -1.
       -2   -1    0    0    0  501  0.00000000000E+00  0.00000000000E+00 -0.18163605095E+03  0.18163605097E+03  0.25500000920E-02 0.  1.
    10030    2    1    2    0    0  0.00000000000E+00  0.00000000000E+00  0.69776773309E+03  0.10610398350E+04  0.79932829434E+03 0.  0.
        3    1    3    3  502    0 -0.15547285365E+03  0.14842070045E+03  0.79614746962E+03  0.82465223951E+03  0.10100000352E+00 0. -1.
       -3    1    3    3    0  502  0.15547285365E+03 -0.14842070045E+03 -0.98379736533E+02  0.23638759550E+03  0.10100000352E+00 0.  1.
</event>
<event>
 5   0  0.6593118E-04  0.7999228E+03  0.7818609E-02  0.9560129E-01
       -2   -1    0    0    0  501  0.00000000000E+00  0.00000000000E+00  0.39973417718E+03  0.39973417719E+03  0.25500000920E-02 0. -1.
        2   -1    0    0  501    0  0.00000000000E+00  0.00000000000E+00 -0.40018870660E+03  0.40018870660E+03  0.25500000920E-02 0.  1.
    10030    2    1    2    0    0  0.00000000000E+00  0.00000000000E+00 -0.45452941435E+00  0.79992288379E+03  0.79992275466E+03 0.  0.
        1    1    3    3  502    0 -0.19745768606E+03  0.34778934083E+03  0.44780470244E+01  0.39995876826E+03  0.50400001928E-02 0.  1.
       -1    1    3    3    0  502  0.19745768606E+03 -0.34778934083E+03 -0.49325764387E+01  0.39996411553E+03  0.50400001928E-02 0. -1.
</event>
<event>
 5   0  0.2736375E-04  0.7967521E+03  0.7818609E-02  0.9564730E-01
       -4   -1    0    0    0  501  0.00000000000E+00  0.00000000000E+00  0.13551535809E+03  0.13552130894E+03  0.12699999809E+01 0.  1.
        4   -1    0    0  501    0  0.00000000000E+00  0.00000000000E+00 -0.11710786732E+04  0.11710793618E+04  0.12699999809E+01 0. -1.
    10030    2    1    2    0    0  0.00000000000E+00  0.00000000000E+00 -0.10355633151E+04  0.13066006708E+04  0.79675211533E+03 0.  0.
        3    1    3    3  502    0  0.56812637450E+02  0.28136130088E+03 -0.97079915436E+03  0.10123452305E+04  0.10100000352E+00 0. -1.
       -3    1    3    3    0  502 -0.56812637450E+02 -0.28136130088E+03 -0.64764160733E+02  0.29425544027E+03  0.10100000352E+00 0.  1.
</event>
<event>
 5   0  0.4169155E-04  0.7999797E+03  0.7818609E-02  0.9560047E-01
        1   -1    0    0  501    0  0.00000000000E+00  0.00000000000E+00  0.59827823245E+03  0.59827823247E+03  0.50400001928E-02 0.  1.
       -1   -1    0    0    0  501  0.00000000000E+00  0.00000000000E+00 -0.26742049698E+03  0.26742049702E+03  0.50400001928E-02 0. -1.
    10030    2    1    2    0    0  0.00000000000E+00  0.00000000000E+00  0.33085773548E+03  0.86569872950E+03  0.79997965545E+03 0.  0.
        4    1    3    3  502    0 -0.28852175011E+03  0.14959062212E+03  0.41775364306E+03  0.52928430328E+03  0.12699999809E+01 0.  1.
       -4    1    3    3    0  502  0.28852175011E+03 -0.14959062212E+03 -0.86895907580E+02  0.33641442622E+03  0.12699999809E+01 0. -1.
</event>
<event>
 5   0  0.6672462E-04  0.7999492E+03  0.7818609E-02  0.9560091E-01
       -2   -1    0    0    0  501  0.00000000000E+00  0.00000000000E+00  0.86218446416E+02  0.86218446454E+02  0.25500000920E-02 0.  1.
        2   -1    0    0  501    0  0.00000000000E+00  0.00000000000E+00 -0.18555158778E+04  0.18555158778E+04  0.25500000920E-02 0. -1.
    10030    2    1    2    0    0  0.00000000000E+00  0.00000000000E+00 -0.17692974313E+04  0.19417343242E+04  0.79994923919E+03 0.  0.
        5    1    3    3  502    0 -0.70956088112E+02 -0.38013480804E+03 -0.63686720418E+03  0.74509003784E+03  0.46999998093E+01 0.  1.
       -5    1    3    3    0  502  0.70956088112E+02  0.38013480804E+03 -0.11324302272E+04  0.11966442864E+04  0.46999998093E+01 0. -1.
</event>
<event>
 5   0  0.4087283E-04  0.8002793E+03  0.7818609E-02  0.9559613E-01
       -1   -1    0    0    0  501  0.00000000000E+00  0.00000000000E+00  0.21543792045E+03  0.21543792051E+03  0.50400001928E-02 0.  1.
        1   -1    0    0  501    0  0.00000000000E+00  0.00000000000E+00 -0.74319207652E+03  0.74319207653E+03  0.50400001928E-02 0. -1.
    10030    2    1    2    0    0  0.00000000000E+00  0.00000000000E+00 -0.52775415606E+03  0.95862999705E+03  0.80027933998E+03 0.  0.
        1    1    3    3  502    0 -0.77559002091E+02 -0.15483531648E+03  0.16822406068E+03  0.24143054623E+03  0.50400001928E-02 0.  1.
       -1    1    3    3    0  502  0.77559002091E+02  0.15483531648E+03 -0.69597821675E+03  0.71719945081E+03  0.50400001928E-02 0. -1.
</event>
<event>
 5   0  0.4169155E-04  0.8000074E+03  0.7818609E-02  0.9560006E-01
       -1   -1    0    0    0  501  0.00000000000E+00  0.00000000000E+00  0.22003843049E+03  0.22003843055E+03  0.50400001928E-02 0.  1.
        1   -1    0    0  501    0  0.00000000000E+00  0.00000000000E+00 -0.72715924173E+03  0.72715924175E+03  0.50400001928E-02 0. -1.
    10030    2    1    2    0    0  0.00000000000E+00  0.00000000000E+00 -0.50712081124E+03  0.94719767230E+03  0.80000744572E+03 0.  0.
        4    1    3    3  502    0 -0.21903094791E+03 -0.32686002182E+03 -0.16826955149E+03  0.42793490728E+03  0.12699999809E+01 0.  1.
       -4    1    3    3    0  502  0.21903094791E+03  0.32686002182E+03 -0.33885125974E+03  0.51926276502E+03  0.12699999809E+01 0. -1.
</event>
<event>
 5   0  0.4392552E-04  0.7997619E+03  0.7818609E-02  0.9560362E-01
       -1   -1    0    0    0  501  0.00000000000E+00  0.00000000000E+00  0.26103424952E+03  0.26103424957E+03  0.50400001928E-02 0.  1.
        1   -1    0    0  501    0  0.00000000000E+00  0.00000000000E+00 -0.61258160690E+03  0.61258160692E+03  0.50400001928E-02 0. -1.
    10030    2    1    2    0    0  0.00000000000E+00  0.00000000000E+00 -0.35154735738E+03  0.87361585649E+03  0.79976191471E+03 0.  0.
        5    1    3    3  502    0  0.25908791777E+02  0.25580358580E+03  0.15873356409E+03  0.30220055322E+03  0.46999998093E+01 0.  1.
       -5    1    3    3    0  502 -0.25908791777E+02 -0.25580358580E+03 -0.51028092147E+03  0.57141530327E+03  0.46999998093E+01 0. -1.
</event>
<event>
 5   0  0.6801147E-04  0.7995965E+03  0.7818609E-02  0.9560601E-01
       -2   -1    0    0    0  501  0.00000000000E+00  0.00000000000E+00  0.43967536539E+03  0.43967536540E+03  0.25500000920E-02 0. -1.
        2   -1    0    0  501    0  0.00000000000E+00  0.00000000000E+00 -0.36353784030E+03  0.36353784030E+03  0.25500000920E-02 0.  1.
    10030    2    1    2    0    0  0.00000000000E+00  0.00000000000E+00  0.76137525096E+02  0.80321320570E+03  0.79959648016E+03 0.  0.
        4    1    3    3  502    0 -0.62898798903E+02  0.38349268227E+03  0.13237697974E+03  0.41054618975E+03  0.12699999809E+01 0. -1.
       -4    1    3    3    0  502  0.62898798903E+02 -0.38349268227E+03 -0.56239454643E+02  0.39266701595E+03  0.12699999809E+01 0.  1.
</event>
<event>
 5   0  0.4087283E-04  0.7998917E+03  0.7818609E-02  0.9560174E-01
        1   -1    0    0  501    0  0.00000000000E+00  0.00000000000E+00  0.74009390341E+03  0.74009390343E+03  0.50400001928E-02 0.  1.
       -1   -1    0    0    0  501  0.00000000000E+00  0.00000000000E+00 -0.21613027239E+03  0.21613027245E+03  0.50400001928E-02 0. -1.
    10030    2    1    2    0    0  0.00000000000E+00  0.00000000000E+00  0.52396363102E+03  0.95622417588E+03  0.79989173511E+03 0.  0.
        1    1    3    3  502    0  0.15083074266E+03 -0.24354093863E+03 -0.71661303587E+02  0.29529213363E+03  0.50400001928E-02 0. -1.
       -1    1    3    3    0  502 -0.15083074266E+03  0.24354093863E+03  0.59562493461E+03  0.66093204225E+03  0.50400001928E-02 0.  1.
</event>
<event>
 5   0  0.7133039E-04  0.7996508E+03  0.7818609E-02  0.9560523E-01
       -2   -1    0    0    0  501  0.00000000000E+00  0.00000000000E+00  0.85207104621E+02  0.85207104659E+02  0.25500000920E-02 0.  1.
        2   -1    0    0  501    0  0.00000000000E+00  0.00000000000E+00 -0.18761386225E+04  0.18761386225E+04  0.25500000920E-02 0. -1.
    10030    2    1    2    0    0  0.00000000000E+00  0.00000000000E+00 -0.17909315179E+04  0.19613457271E+04  0.79965077360E+03 0.  0.
        2    1    3    3  502    0  0.31992618799E+02 -0.50214253258E+02 -0.18652041587E+04  0.18661542145E+04  0.25500000920E-02 0. -1.
       -2    1    3    3    0  502 -0.31992618799E+02  0.50214253258E+02  0.74272640827E+02  0.95191512593E+02  0.25500000920E-02 0.  1.
</event>
<event>
 5   0  0.6672462E-04  0.8000146E+03  0.7818609E-02  0.9559996E-01
       -2   -1    0    0    0  501  0.00000000000E+00  0.00000000000E+00  0.10323510439E+03  0.10323510442E+03  0.25500000920E-02 0. -1.
        2   -1    0    0  501    0  0.00000000000E+00  0.00000000000E+00 -0.15499168402E+04  0.15499168402E+04  0.25500000920E-02 0.  1.
    10030    2    1    2    0    0  0.00000000000E+00  0.00000000000E+00 -0.14466817358E+04  0.16531519446E+04  0.80001456690E+03 0.  0.
        5    1    3    3  502    0  0.33009441438E+03 -0.10260618812E+03 -0.30751939108E+03  0.46268846769E+03  0.46999998093E+01 0. -1.
       -5    1    3    3    0  502 -0.33009441438E+03  0.10260618812E+03 -0.11391623447E+04  0.11904634769E+04  0.46999998093E+01 0.  1.
</event>
<event>
 5   0  0.4086111E-04  0.7998613E+03  0.7818609E-02  0.9560218E-01
       -1   -1    0    0    0  501  0.00000000000E+00  0.00000000000E+00  0.41050974492E+03  0.41050974495E+03  0.50400001928E-02 0.  1.
        1   -1    0    0  501    0  0.00000000000E+00  0.00000000000E+00 -0.38962421894E+03  0.38962421897E+03  0.50400001928E-02 0. -1.
    10030    2    1    2    0    0  0.00000000000E+00  0.00000000000E+00  0.20885525978E+02  0.80013396392E+03  0.79986133487E+03 0.  0.
        3    1    3    3  502    0 -0.16059304510E+03 -0.20543302167E+03  0.31378146695E+03  0.40798489154E+03  0.10100000352E+00 0.  1.
       -3    1    3    3    0  502  0.16059304510E+03  0.20543302167E+03 -0.29289594097E+03  0.39214907237E+03  0.10100000352E+00 0. -1.
</event>
<event>
 5   0  0.2736375E-04  0.8001039E+03  0.7818609E-02  0.9559867E-01
        3   -1    0    0  501    0  0.00000000000E+00  0.00000000000E+00  0.28212113916E+03  0.28212115724E+03  0.10100000352E+00 0. -1.
       -3   -1    0    0    0  501  0.00000000000E+00  0.00000000000E+00 -0.56727954917E+03  0.56727955816E+03  0.10100000352E+00 0.  1.
    10030    2    1    2    0    0  0.00000000000E+00  0.00000000000E+00 -0.28515841000E+03  0.84940071540E+03  0.80010390358E+03 0.  0.
        4    1    3    3  502    0  0.20119516713E+03  0.30708065843E+02  0.22304973442E+03  0.30195244246E+03  0.12699999809E+01 0. -1.
       -4    1    3    3    0  502 -0.20119516713E+03 -0.30708065843E+02 -0.50820814442E+03  0.54744827294E+03  0.12699999809E+01 0.  1.
</event>
<event>
 5   0  0.4086111E-04  0.7999151E+03  0.7818609E-02  0.9560140E-01
       -1   -1    0    0    0  501  0.00000000000E+00  0.00000000000E+00  0.12036555521E+03  0.12036555531E+03  0.50400001928E-02 0.  1.
        1   -1    0    0  501    0  0.00000000000E+00  0.00000000000E+00 -0.13290017862E+04  0.13290017862E+04  0.50400001928E-02 0. -1.
    10030    2    1    2    0    0  0.00000000000E+00  0.00000000000E+00 -0.12086362310E+04  0.14493673415E+04  0.79991509037E+03 0.  0.
        3    1    3    3  502    0  0.12820232358E+03 -0.19900092640E+03 -0.20197429778E+02  0.23758188241E+03  0.10100000352E+00 0.  1.
       -3    1    3    3    0  502 -0.12820232358E+03  0.19900092640E+03 -0.11884388012E+04  0.12117854591E+04  0.10100000352E+00 0. -1.
</event>
<event>
 5   0  0.7133039E-04  0.8003775E+03  0.7818609E-02  0.9559471E-01
       -2   -1    0    0    0  501  0.00000000000E+00  0.00000000000E+00  0.77710678558E+02  0.77710678600E+02  0.25500000920E-02 0.  1.
        2   -1    0    0  501    0  0.00000000000E+00  0.00000000000E+00 -0.20608626082E+04  0.20608626082E+04  0.25500000920E-02 0. -1.
    10030    2    1    2    0    0  0.00000000000E+00  0.00000000000E+00 -0.19831519296E+04  0.21385732868E+04  0.80037749029E+03 0.  0.
        2    1    3    3  502    0  0.23197050874E+03 -0.11909021864E+03 -0.18043498124E+03  0.31709553696E+03  0.25500000920E-02 0.  1.
       -2    1    3    3    0  502 -0.23197050874E+03  0.11909021864E+03 -0.18027169484E+04  0.18214777498E+04  0.25500000920E-02 0. -1.
</event>
<event>
 5   0  0.4169155E-04  0.7997440E+03  0.7818609E-02  0.9560388E-01
        1   -1    0    0  501    0  0.00000000000E+00  0.00000000000E+00  0.68527791275E+03  0.68527791277E+03  0.50400001928E-02 0.  1.
       -1   -1    0    0    0  501  0.00000000000E+00  0.00000000000E+00 -0.23333252476E+03  0.23333252481E+03  0.50400001928E-02 0. -1.
    10030    2    1    2    0    0  0.00000000000E+00  0.00000000000E+00  0.45194538800E+03  0.91861043758E+03  0.79974402299E+03 0.  0.
        4    1    3    3  502    0  0.38944683387E+03  0.89774039074E+02  0.24085170247E+03  0.46662551365E+03  0.12699999809E+01 0. -1.
       -4    1    3    3    0  502 -0.38944683387E+03 -0.89774039074E+02  0.21109368552E+03  0.45198492394E+03  0.12699999809E+01 0.  1.
</event>
<event>
 5   0  0.6970013E-04  0.7999878E+03  0.7818609E-02  0.9560035E-01
       -2   -1    0    0    0  501  0.00000000000E+00  0.00000000000E+00  0.24571424094E+03  0.24571424095E+03  0.25500000920E-02 0.  1.
        2   -1    0    0  501    0  0.00000000000E+00  0.00000000000E+00 -0.65114310675E+03  0.65114310676E+03  0.25500000920E-02 0. -1.
    10030    2    1    2    0    0  0.00000000000E+00  0.00000000000E+00 -0.40542886581E+03  0.89685734771E+03  0.79998783548E+03 0.  0.
        3    1    3    3  502    0 -0.94524232849E+02 -0.28792912225E+03  0.89967277024E+02  0.31612043776E+03  0.10100000352E+00 0.  1.
       -3    1    3    3    0  502  0.94524232849E+02  0.28792912225E+03 -0.49539614283E+03  0.58073690995E+03  0.10100000352E+00 0. -1.
</event>
<event>
 5   0  0.6672462E-04  0.8001652E+03  0.7818609E-02  0.9559778E-01
       -2   -1    0    0    0  501  0.00000000000E+00  0.00000000000E+00  0.24947120034E+03  0.24947120035E+03  0.25500000920E-02 0. -1.
        2   -1    0    0  501    0  0.00000000000E+00  0.00000000000E+00 -0.64162156816E+03  0.64162156816E+03  0.25500000920E-02 0.  1.
    10030    2    1    2    0    0  0.00000000000E+00  0.00000000000E+00 -0.39215036782E+03  0.89109276851E+03  0.80016523988E+03 0.  0.
        5    1    3    3  502    0  0.25338198605E+03 -0.27755333481E+03 -0.34879251169E+03  0.51275392805E+03  0.46999998093E+01 0.  1.
       -5    1    3    3    0  502 -0.25338198605E+03  0.27755333481E+03 -0.43357856133E+02  0.37833884047E+03  0.46999998093E+01 0. -1.
</event>
<event>
 5   0  0.6593118E-04  0.7996039E+03  0.7818609E-02  0.9560591E-01
       -2   -1    0    0    0  501  0.00000000000E+00  0.00000000000E+00  0.22131489824E+03  0.22131489825E+03  0.25500000920E-02 0.  1.
        2   -1    0    0  501    0  0.00000000000E+00  0.00000000000E+00 -0.72223609476E+03  0.72223609477E+03  0.25500000920E-02 0. -1.
    10030    2    1    2    0    0  0.00000000000E+00  0.00000000000E+00 -0.50092119652E+03  0.94355099302E+03  0.79960392152E+03 0.  0.
        1    1    3    3  502    0  0.28312266414E+02 -0.33138333951E+03  0.11347929914E+02  0.33278413074E+03  0.50400001928E-02 0.  1.
       -1    1    3    3    0  502 -0.28312266414E+02  0.33138333951E+03 -0.51226912644E+03  0.61076686228E+03  0.50400001928E-02 0. -1.
</event>
<event>
 5   0  0.4169155E-04  0.8008048E+03  0.7818609E-02  0.9558853E-01
        1   -1    0    0  501    0  0.00000000000E+00  0.00000000000E+00  0.66316714982E+03  0.66316714984E+03  0.50400001928E-02 0. -1.
       -1   -1    0    0    0  501  0.00000000000E+00  0.00000000000E+00 -0.24175212180E+03  0.24175212185E+03  0.50400001928E-02 0.  1.
    10030    2    1    2    0    0  0.00000000000E+00  0.00000000000E+00  0.42141502803E+03  0.90491927169E+03  0.80080475925E+03 0.  0.
        4    1    3    3  502    0  0.20790129199E+03  0.33244352705E+03  0.11905238804E+03  0.40977643891E+03  0.12699999809E+01 0. -1.
       -4    1    3    3    0  502 -0.20790129199E+03 -0.33244352705E+03  0.30236263999E+03  0.49514283278E+03  0.12699999809E+01 0.  1.
</event>
<event>
 5   0  0.6593118E-04  0.8019469E+03  0.7818609E-02  0.9557203E-01
       -2   -1    0    0    0  501  0.00000000000E+00  0.00000000000E+00  0.77158265138E+02  0.77158265180E+02  0.25500000920E-02 0. -1.
        2   -1    0    0  501    0  0.00000000000E+00  0.00000000000E+00 -0.20837649814E+04  0.20837649814E+04  0.25500000920E-02 0.  1.
    10030    2    1    2    0    0  0.00000000000E+00  0.00000000000E+00 -0.20066067163E+04  0.21609232466E+04  0.80194685851E+03 0.  0.
        1    1    3    3  502    0  0.31212146568E+03 -0.25136284742E+03 -0.96749455848E+03  0.10472100129E+04  0.50400001928E-02 0. -1.
       -1    1    3    3    0  502 -0.31212146568E+03  0.25136284742E+03 -0.10391121578E+04  0.11137132337E+04  0.50400001928E-02 0.  1.
</event>
<event>
 5   0  0.4169155E-04  0.7996530E+03  0.7818609E-02  0.9560520E-01
       -1   -1    0    0    0  501  0.00000000000E+00  0.00000000000E+00  0.15399358629E+03  0.15399358637E+03  0.50400001928E-02 0.  1.
        1   -1    0    0  501    0  0.00000000000E+00  0.00000000000E+00 -0.10381030634E+04  0.10381030634E+04  0.50400001928E-02 0. -1.
    10030    2    1    2    0    0  0.00000000000E+00  0.00000000000E+00 -0.88410947713E+03  0.11920966498E+04  0.79965295905E+03 0.  0.
        4    1    3    3  502    0  0.45927791118E+02 -0.21502837500E+03  0.55765719694E+02  0.22684354177E+03  0.12699999809E+01 0.  1.
       -4    1    3    3    0  502 -0.45927791118E+02  0.21502837500E+03 -0.93987519682E+03  0.96525310802E+03  0.12699999809E+01 0. -1.
</event>
<event>
 5   0  0.6801147E-04  0.7995959E+03  0.7818609E-02  0.9560602E-01
        2   -1    0    0  501    0  0.00000000000E+00  0.00000000000E+00  0.11641946033E+04  0.11641946033E+04  0.25500000920E-02 0. -1.
       -2   -1    0    0    0  501  0.00000000000E+00  0.00000000000E+00 -0.13729525451E+03  0.13729525453E+03  0.25500000920E-02 0.  1.
    10030    2    1    2    0    0  0.00000000000E+00  0.00000000000E+00  0.10268993488E+04  0.13014898578E+04  0.79959588386E+03 0.  0.
        4    1    3    3  502    0 -0.17707492046E+03  0.24730369582E+03  0.91122349118E+02  0.31752092975E+03  0.12699999809E+01 0.  1.
       -4    1    3    3    0  502  0.17707492046E+03 -0.24730369582E+03  0.93577699965E+03  0.98396892807E+03  0.12699999809E+01 0. -1.
</event>
<event>
 5   0  0.4087283E-04  0.8001255E+03  0.7818609E-02  0.9559835E-01
       -1   -1    0    0    0  501  0.00000000000E+00  0.00000000000E+00  0.32297357540E+03  0.32297357544E+03  0.50400001928E-02 0. -1.
        1   -1    0    0  501    0  0.00000000000E+00  0.00000000000E+00 -0.49555205284E+03  0.49555205287E+03  0.50400001928E-02 0.  1.
    10030    2    1    2    0    0  0.00000000000E+00  0.00000000000E+00 -0.17257847744E+03  0.81852562831E+03  0.80012553598E+03 0.  0.
        1    1    3    3  502    0 -0.16317587823E+03 -0.22373651431E+03 -0.38166045567E+03  0.47153907422E+03  0.50400001928E-02 0.  1.
       -1    1    3    3    0  502  0.16317587823E+03  0.22373651431E+03  0.20908197823E+03  0.34698655409E+03  0.50400001928E-02 0. -1.
</event>
<event>
 5   0  0.6672462E-04  0.8001907E+03  0.7818609E-02  0.9559741E-01
       -2   -1    0    0    0  501  0.00000000000E+00  0.00000000000E+00  0.11424848900E+03  0.11424848903E+03  0.25500000920E-02 0. -1.
        2   -1    0    0  501    0  0.00000000000E+00  0.00000000000E+00 -0.14011238667E+04  0.14011238667E+04  0.25500000920E-02 0.  1.
    10030    2    1    2    0    0  0.00000000000E+00  0.00000000000E+00 -0.12868753777E+04  0.15153723557E+04  0.80019068900E+03 0.  0.
        5    1    3    3  502    0  0.16494396840E+03 -0.34990624891E+03 -0.83668792574E+03  0.92179697918E+03  0.46999998093E+01 0. -1.
       -5    1    3    3    0  502 -0.16494396840E+03  0.34990624891E+03 -0.45018745193E+03  0.59357537652E+03  0.46999998093E+01 0.  1.
</event>
<event>
 5   0  0.6672462E-04  0.8001976E+03  0.7818609E-02  0.9559731E-01
       -2   -1    0    0    0  501  0.00000000000E+00  0.00000000000E+00  0.39781127142E+03  0.39781127143E+03  0.25500000920E-02 0. -1.
        2   -1    0    0  501    0  0.00000000000E+00  0.00000000000E+00 -0.40239943932E+03  0.40239943933E+03  0.25500000920E-02 0.  1.
    10030    2    1    2    0    0  0.00000000000E+00  0.00000000000E+00 -0.45881678970E+01  0.80021071076E+03  0.80019755706E+03 0.  0.
        5    1    3    3  502    0 -0.31059958097E+03 -0.21060608845E+03  0.13638017684E+03  0.39931023882E+03  0.46999998093E+01 0.  1.
       -5    1    3    3    0  502  0.31059958097E+03  0.21060608845E+03 -0.14096834473E+03  0.40090047195E+03  0.46999998093E+01 0. -1.
</event>
<event>
 5   0  0.7133039E-04  0.7998636E+03  0.7818609E-02  0.9560215E-01
        2   -1    0    0  501    0  0.00000000000E+00  0.00000000000E+00  0.31597739793E+03  0.31597739794E+03  0.25500000920E-02 0.  1.
       -2   -1    0    0    0  501  0.00000000000E+00  0.00000000000E+00 -0.50619267238E+03  0.50619267238E+03  0.25500000920E-02 0. -1.
    10030    2    1    2    0    0  0.00000000000E+00  0.00000000000E+00 -0.19021527445E+03  0.82217007032E+03  0.79986359706E+03 0.  0.
        2    1    3    3  502    0  0.16914401166E+03 -0.36215659373E+03 -0.10883478633E+03  0.41426091510E+03  0.25500000920E-02 0. -1.
       -2    1    3    3    0  502 -0.16914401166E+03  0.36215659373E+03 -0.81380488115E+02  0.40790915522E+03  0.25500000920E-02 0.  1.
</event>
<event>
 5   0  0.7133039E-04  0.7996956E+03  0.7818609E-02  0.9560458E-01
        2   -1    0    0  501    0  0.00000000000E+00  0.00000000000E+00  0.17315017954E+04  0.17315017954E+04  0.25500000920E-02 0. -1.
       -2   -1    0    0    0  501  0.00000000000E+00  0.00000000000E+00 -0.92335033787E+02  0.92335033822E+02  0.25500000920E-02 0.  1.
    10030    2    1    2    0    0  0.00000000000E+00  0.00000000000E+00  0.16391667617E+04  0.18238368293E+04  0.79969563415E+03 0.  0.
        2    1    3    3  502    0 -0.21011661034E+03  0.12417338683E+03  0.15419105119E+04  0.15611073142E+04  0.25500000920E-02 0. -1.
       -2    1    3    3    0  502  0.21011661034E+03 -0.12417338683E+03  0.97256249773E+02  0.26272951502E+03  0.25500000920E-02 0.  1.
</event>
<event>
 5   0  0.6593118E-04  0.8000942E+03  0.7818609E-02  0.9559881E-01
       -2   -1    0    0    0  501  0.00000000000E+00  0.00000000000E+00  0.14953393424E+03  0.14953393426E+03  0.25500000920E-02 0.  1.
        2   -1    0    0  501    0  0.00000000000E+00  0.00000000000E+00 -0.10702432905E+04  0.10702432905E+04  0.25500000920E-02 0. -1.
    10030    2    1    2    0    0  0.00000000000E+00  0.00000000000E+00 -0.92070935626E+03  0.12197772248E+04  0.80009421903E+03 0.  0.
        1    1    3    3  502    0 -0.36728405437E+03  0.15674885218E+03 -0.49674976290E+03  0.63736026407E+03  0.50400001928E-02 0.  1.
       -1    1    3    3    0  502  0.36728405437E+03 -0.15674885218E+03 -0.42395959336E+03  0.58241696068E+03  0.50400001928E-02 0. -1.
</event>
<event>
 5   0  0.4086111E-04  0.8002705E+03  0.7818609E-02  0.9559626E-01
       -1   -1    0    0    0  501  0.00000000000E+00  0.00000000000E+00  0.16913610864E+03  0.16913610872E+03  0.50400001928E-02 0. -1.
        1   -1    0    0  501    0  0.00000000000E+00  0.00000000000E+00 -0.94662360586E+03  0.94662360588E+03  0.50400001928E-02 0.  1.
    10030    2    1    2    0    0  0.00000000000E+00  0.00000000000E+00 -0.77748749722E+03  0.11157597146E+04  0.80027053699E+03 0.  0.
        3    1    3    3  502    0 -0.20974860756E+03 -0.30273153079E+03 -0.60682957799E+03  0.70984717020E+03  0.10100000352E+00 0. -1.
       -3    1    3    3    0  502  0.20974860756E+03  0.30273153079E+03 -0.17065791923E+03  0.40591254440E+03  0.10100000352E+00 0.  1.
</event>
<event>
 5   0  0.4086111E-04  0.8001142E+03  0.7818609E-02  0.9559852E-01
       -1   -1    0    0    0  501  0.00000000000E+00  0.00000000000E+00  0.19018419709E+03  0.19018419716E+03  0.50400001928E-02 0. -1.
        1   -1    0    0  501    0  0.00000000000E+00  0.00000000000E+00 -0.84152991361E+03  0.84152991363E+03  0.50400001928E-02 0.  1.
    10030    2    1    2    0    0  0.00000000000E+00  0.00000000000E+00 -0.65134571652E+03  0.10317141108E+04  0.80011421933E+03 0.  0.
        3    1    3    3  502    0 -0.83659188999E+02  0.34443575556E+03 -0.86476279662E+02  0.36484655234E+03  0.10100000352E+00 0. -1.
       -3    1    3    3    0  502  0.83659188999E+02 -0.34443575556E+03 -0.56486943686E+03  0.66686755845E+03  0.10100000352E+00 0.  1.
</event>
<event>
 5   0  0.2736375E-04  0.7997131E+03  0.7818609E-02  0.9560432E-01
        3   -1    0    0  501    0  0.00000000000E+00  0.00000000000E+00  0.31898492347E+03  0.31898493946E+03  0.10100000352E+00 0.  1.
       -3   -1    0    0    0  501  0.00000000000E+00  0.00000000000E+00 -0.50123135957E+03  0.50123136975E+03  0.10100000352E+00 0. -1.
    10030    2    1    2    0    0  0.00000000000E+00  0.00000000000E+00 -0.18224643611E+03  0.82021630920E+03  0.79971309256E+03 0.  0.
        2    1    3    3  502    0 -0.24203329980E+03  0.14493725409E+03 -0.38175791176E+03  0.47468518939E+03  0.25500000920E-02 0. -1.
       -2    1    3    3    0  502  0.24203329980E+03 -0.14493725409E+03  0.19951147565E+03  0.34553111981E+03  0.25500000920E-02 0.  1.
</event>
<event>
 5   0  0.6970013E-04  0.7999982E+03  0.7818609E-02  0.9560020E-01
        2   -1    0    0  501    0  0.00000000000E+00  0.00000000000E+00  0.22299066195E+03  0.22299066196E+03  0.25500000920E-02 0.  1.
       -2   -1    0    0    0  501  0.00000000000E+00  0.00000000000E+00 -0.71751560970E+03  0.71751560970E+03  0.25500000920E-02 0. -1.
    10030    2    1    2    0    0  0.00000000000E+00  0.00000000000E+00 -0.49452494775E+03  0.94050627166E+03  0.79999820193E+03 0.  0.
        3    1    3    3  502    0  0.25494786567E+03  0.30789082456E+03 -0.26405787873E+03  0.47908428025E+03  0.10100000352E+00 0.  1.
       -3    1    3    3    0  502 -0.25494786567E+03 -0.30789082456E+03 -0.23046706902E+03  0.46142199142E+03  0.10100000352E+00 0. -1.
</event>
<event>
 5   0  0.4169155E-04  0.7988301E+03  0.7818609E-02  0.9561712E-01
       -1   -1    0    0    0  501  0.00000000000E+00  0.00000000000E+00  0.76415852750E+03  0.76415852752E+03  0.50400001928E-02 0.  1.
        1   -1    0    0  501    0  0.00000000000E+00  0.00000000000E+00 -0.20876869574E+03  0.20876869580E+03  0.50400001928E-02 0. -1.
    10030    2    1    2    0    0  0.00000000000E+00  0.00000000000E+00  0.55538983177E+03  0.97292722332E+03  0.79883009248E+03 0.  0.
        4    1    3    3  502    0 -0.27724436690E+03 -0.15114762130E+03  0.57558206682E+03  0.65651075463E+03  0.12699999809E+01 0.  1.
       -4    1    3    3    0  502  0.27724436690E+03  0.15114762130E+03 -0.20192235052E+02  0.31641646869E+03  0.12699999809E+01 0. -1.
</event>
<event>
 5   0  0.7133039E-04  0.7998832E+03  0.7818609E-02  0.9560186E-01
        2   -1    0    0  501    0  0.00000000000E+00  0.00000000000E+00  0.10046439446E+04  0.10046439446E+04  0.25500000920E-02 0.  1.
       -2   -1    0    0    0  501  0.00000000000E+00  0.00000000000E+00 -0.15921388371E+03  0.15921388373E+03  0.25500000920E-02 0. -1.
    10030    2    1    2    0    0  0.00000000000E+00  0.00000000000E+00  0.84543006089E+03  0.11638578283E+04  0.79988315191E+03 0.  0.
        2    1    3    3  502    0  0.13955419634E+03 -0.32991164273E+03  0.16391428176E+03  0.39393521992E+03  0.25500000920E-02 0. -1.
       -2    1    3    3    0  502 -0.13955419634E+03  0.32991164273E+03  0.68151577913E+03  0.76992260841E+03  0.25500000920E-02 0.  1.
</event>
<event>
 5   0  0.4169155E-04  0.8001013E+03  0.7818609E-02  0.9559870E-01
       -1   -1    0    0    0  501  0.00000000000E+00  0.00000000000E+00  0.25272459839E+03  0.25272459844E+03  0.50400001928E-02 0.  1.
        1   -1    0    0  501    0  0.00000000000E+00  0.00000000000E+00 -0.63326061852E+03  0.63326061854E+03  0.50400001928E-02 0. -1.
    10030    2    1    2    0    0  0.00000000000E+00  0.00000000000E+00 -0.38053602013E+03  0.88598521698E+03  0.80010133239E+03 0.  0.
        4    1    3    3  502    0 -0.27458342084E+03  0.16556414414E+03 -0.45517815959E+03  0.55677312317E+03  0.12699999809E+01 0. -1.
       -4    1    3    3    0  502  0.27458342084E+03 -0.16556414414E+03  0.74642139459E+02  0.32921209381E+03  0.12699999809E+01 0.  1.
</event>
<event>
 5   0  0.4087283E-04  0.8024553E+03  0.7818609E-02  0.9556470E-01
       -1   -1    0    0    0  501  0.00000000000E+00  0.00000000000E+00  0.62094603927E+03  0.62094603929E+03  0.50400001928E-02 0. -1.
        1   -1    0    0  501    0  0.00000000000E+00  0.00000000000E+00 -0.25925542775E+03  0.25925542780E+03  0.50400001928E-02 0.  1.
    10030    2    1    2    0    0  0.00000000000E+00  0.00000000000E+00  0.36169061151E+03  0.88020146709E+03  0.80245530979E+03 0.  0.
        1    1    3    3  502    0 -0.15985324266E+03  0.21307220326E+03  0.50996722508E+03  0.57534284880E+03  0.50400001928E-02 0. -1.
       -1    1    3    3    0  502  0.15985324266E+03 -0.21307220326E+03 -0.14827661356E+03  0.30485861829E+03  0.50400001928E-02 0.  1.
</event>
<event>
 5   0  0.4104786E-04  0.7994130E+03  0.7818609E-02  0.9560867E-01
        1   -1    0    0  501    0  0.00000000000E+00  0.00000000000E+00  0.11070891183E+04  0.11070891183E+04  0.50400001928E-02 0. -1.
       -1   -1    0    0    0  501  0.00000000000E+00  0.00000000000E+00 -0.14431112578E+03  0.14431112587E+03  0.50400001928E-02 0.  1.
    10030    2    1    2    0    0  0.00000000000E+00  0.00000000000E+00  0.96277799248E+03  0.12514002441E+04  0.79941297728E+03 0.  0.
        2    1    3    3  502    0  0.71135117086E+02  0.80858465782E+02  0.10839496323E+04  0.10892865104E+04  0.25500000920E-02 0. -1.
       -2    1    3    3    0  502 -0.71135117086E+02 -0.80858465782E+02 -0.12117163981E+03  0.16211373375E+03  0.25500000920E-02 0.  1.
</event>
<event>
 5   0  0.4086111E-04  0.8003154E+03  0.7818609E-02  0.9559561E-01
        1   -1    0    0  501    0  0.00000000000E+00  0.00000000000E+00  0.66758221048E+03  0.66758221050E+03  0.50400001928E-02 0.  1.
       -1   -1    0    0    0  501  0.00000000000E+00  0.00000000000E+00 -0.23985989862E+03  0.23985989867E+03  0.50400001928E-02 0. -1.
    10030    2    1    2    0    0  0.00000000000E+00  0.00000000000E+00  0.42772231186E+03  0.90744210917E+03  0.80031544120E+03 0.  0.
        3    1    3    3  502    0  0.29523000602E+03 -0.95844897052E+02  0.50021118621E+03  0.58869197528E+03  0.10100000352E+00 0.  1.
       -3    1    3    3    0  502 -0.29523000602E+03  0.95844897052E+02 -0.72488874356E+02  0.31875013389E+03  0.10100000352E+00 0. -1.
</event>
<event>
 5   0  0.6801147E-04  0.8002190E+03  0.7818609E-02  0.9559700E-01
       -2   -1    0    0    0  501  0.00000000000E+00  0.00000000000E+00  0.18704895741E+03  0.18704895743E+03  0.25500000920E-02 0.  1.
        2   -1    0    0  501    0  0.00000000000E+00  0.00000000000E+00 -0.85585941917E+03  0.85585941918E+03  0.25500000920E-02 0. -1.
    10030    2    1    2    0    0  0.00000000000E+00  0.00000000000E+00 -0.66881046176E+03  0.10429083766E+04  0.80021900017E+03 0.  0.
        4    1    3    3  502    0  0.88799428927E+02 -0.34456985952E+03 -0.57284566066E+03  0.67436450864E+03  0.12699999809E+01 0. -1.
       -4    1    3    3    0  502 -0.88799428927E+02  0.34456985952E+03 -0.95964801097E+02  0.36854386797E+03  0.12699999809E+01 0.  1.
</event>
<event>
 5   0  0.6801147E-04  0.8008624E+03  0.7818609E-02  0.9558770E-01
       -2   -1    0    0    0  501  0.00000000000E+00  0.00000000000E+00  0.18855828024E+03  0.18855828025E+03  0.25500000920E-02 0. -1.
        2   -1    0    0  501    0  0.00000000000E+00  0.00000000000E+00 -0.85037454369E+03  0.85037454370E+03  0.25500000920E-02 0.  1.
    10030    2    1    2    0    0  0.00000000000E+00  0.00000000000E+00 -0.66181626345E+03  0.10389328240E+04  0.80086243894E+03 0.  0.
        4    1    3    3  502    0 -0.19271461672E+03 -0.20491250907E+03  0.38791461960E+02  0.28396205784E+03  0.12699999809E+01 0. -1.
       -4    1    3    3    0  502  0.19271461672E+03  0.20491250907E+03 -0.70060772541E+03  0.75497076611E+03  0.12699999809E+01 0.  1.
</event>
<event>
 5   0  0.4104786E-04  0.8004436E+03  0.7818609E-02  0.9559375E-01
        1   -1    0    0  501    0  0.00000000000E+00  0.00000000000E+00  0.28274844568E+04  0.28274844568E+04  0.50400001928E-02 0.  1.
       -1   -1    0    0    0  501  0.00000000000E+00  0.00000000000E+00 -0.56650171644E+02  0.56650171868E+02  0.50400001928E-02 0. -1.
    10030    2    1    2    0    0  0.00000000000E+00  0.00000000000E+00  0.27708342851E+04  0.28841346286E+04  0.80044357734E+03 0.  0.
        2    1    3    3  502    0 -0.12549996591E+03  0.35546479062E+03  0.18697993362E+04  0.19074210381E+04  0.25500000920E-02 0. -1.
       -2    1    3    3    0  502  0.12549996591E+03 -0.35546479062E+03  0.90103494888E+03  0.97671359053E+03  0.25500000920E-02 0.  1.
</event>
<event>
 5   0  0.6801147E-04  0.7999991E+03  0.7818609E-02  0.9560018E-01
       -2   -1    0    0    0  501  0.00000000000E+00  0.00000000000E+00  0.25756470311E+03  0.25756470312E+03  0.25500000920E-02 0. -1.
        2   -1    0    0  501    0  0.00000000000E+00  0.00000000000E+00 -0.62120176702E+03  0.62120176702E+03  0.25500000920E-02 0.  1.
    10030    2    1    2    0    0  0.00000000000E+00  0.00000000000E+00 -0.36363706390E+03  0.87876647015E+03  0.79999912175E+03 0.  0.
        4    1    3    3  502    0 -0.28700348339E+03  0.21024824402E+03 -0.38263753757E+03  0.52248293910E+03  0.12699999809E+01 0.  1.
       -4    1    3    3    0  502  0.28700348339E+03 -0.21024824402E+03  0.19000473668E+02  0.35628353104E+03  0.12699999809E+01 0. -1.
</event>
<event>
 5   0  0.6593118E-04  0.7999127E+03  0.7818609E-02  0.9560143E-01
        2   -1    0    0  501    0  0.00000000000E+00  0.00000000000E+00  0.56944661647E+03  0.56944661648E+03  0.25500000920E-02 0.  1.
       -2   -1    0    0    0  501  0.00000000000E+00  0.00000000000E+00 -0.28091322336E+03  0.28091322337E+03  0.25500000920E-02 0. -1.
    10030    2    1    2    0    0  0.00000000000E+00  0.00000000000E+00  0.28853339312E+03  0.85035983985E+03  0.79991270666E+03 0.  0.
        1    1    3    3  502    0 -0.23636732323E+03  0.18631263046E+03 -0.13575213310E+03  0.33016745664E+03  0.50400001928E-02 0. -1.
       -1    1    3    3    0  502  0.23636732323E+03 -0.18631263046E+03  0.42428552622E+03  0.52019238320E+03  0.50400001928E-02 0.  1.
</event>
<event>
 5   0  0.2736375E-04  0.7998105E+03  0.7818609E-02  0.9560291E-01
        3   -1    0    0  501    0  0.00000000000E+00  0.00000000000E+00  0.46325259220E+03  0.46325260321E+03  0.10100000352E+00 0. -1.
       -3   -1    0    0    0  501  0.00000000000E+00  0.00000000000E+00 -0.34522028291E+03  0.34522029768E+03  0.10100000352E+00 0.  1.
    10030    2    1    2    0    0  0.00000000000E+00  0.00000000000E+00  0.11803230929E+03  0.80847290089E+03  0.79981048095E+03 0.  0.
        3    1    3    3  502    0  0.90470586991E+02 -0.18828225036E+03 -0.28568902015E+03  0.35391151344E+03  0.10100000352E+00 0.  1.
       -3    1    3    3    0  502 -0.90470586991E+02  0.18828225036E+03  0.40372132944E+03  0.45456138745E+03  0.10100000352E+00 0. -1.
</event>
<event>
 5   0  0.6801147E-04  0.8020624E+03  0.7818609E-02  0.9557037E-01
       -2   -1    0    0    0  501  0.00000000000E+00  0.00000000000E+00  0.15061020323E+03  0.15061020325E+03  0.25500000920E-02 0.  1.
        2   -1    0    0  501    0  0.00000000000E+00  0.00000000000E+00 -0.10678295070E+04  0.10678295070E+04  0.25500000920E-02 0. -1.
    10030    2    1    2    0    0  0.00000000000E+00  0.00000000000E+00 -0.91721930378E+03  0.12184397103E+04  0.80206238929E+03 0.  0.
        4    1    3    3  502    0 -0.36146569800E+03 -0.32122148398E+02 -0.19930857497E+03  0.41402270977E+03  0.12699999809E+01 0.  1.
       -4    1    3    3    0  502  0.36146569800E+03  0.32122148398E+02 -0.71791072881E+03  0.80441700049E+03  0.12699999809E+01 0. -1.
</event>
<event>
 5   0  0.4086111E-04  0.8002933E+03  0.7818609E-02  0.9559593E-01
        1   -1    0    0  501    0  0.00000000000E+00  0.00000000000E+00  0.70537906502E+03  0.70537906503E+03  0.50400001928E-02 0. -1.
       -1   -1    0    0    0  501  0.00000000000E+00  0.00000000000E+00 -0.22699472515E+03  0.22699472520E+03  0.50400001928E-02 0.  1.
    10030    2    1    2    0    0  0.00000000000E+00  0.00000000000E+00  0.47838433987E+03  0.93237379024E+03  0.80029326380E+03 0.  0.
        3    1    3    3  502    0 -0.31530765798E+03  0.19250627710E+03  0.60064713250E+02  0.37427979625E+03  0.10100000352E+00 0.  1.
       -3    1    3    3    0  502  0.31530765798E+03 -0.19250627710E+03  0.41831962662E+03  0.55809399398E+03  0.10100000352E+00 0. -1.
</event>
<event>
 5   0  0.6672462E-04  0.8000098E+03  0.7818609E-02  0.9560003E-01
       -2   -1    0    0    0  501  0.00000000000E+00  0.00000000000E+00  0.10421056226E+03  0.10421056229E+03  0.25500000920E-02 0.  1.
        2   -1    0    0  501    0  0.00000000000E+00  0.00000000000E+00 -0.15353907477E+04  0.15353907477E+04  0.25500000920E-02 0. -1.
    10030    2    1    2    0    0  0.00000000000E+00  0.00000000000E+00 -0.14311801855E+04  0.16396013100E+04  0.80000983277E+03 0.  0.
        5    1    3    3  502    0 -0.40461715723E+02  0.27950920573E+03 -0.13511664803E+03  0.31311522656E+03  0.46999998093E+01 0.  1.
       -5    1    3    3    0  502  0.40461715723E+02 -0.27950920573E+03 -0.12960635375E+04  0.13264860835E+04  0.46999998093E+01 0. -1.
</event>
<event>
 5   0  0.4086111E-04  0.8000512E+03  0.7818609E-02  0.9559943E-01
        1   -1    0    0  501    0  0.00000000000E+00  0.00000000000E+00  0.12682853335E+04  0.12682853335E+04  0.50400001928E-02 0.  1.
       -1   -1    0    0    0  501  0.00000000000E+00  0.00000000000E+00 -0.12617071544E+03  0.12617071555E+03  0.50400001928E-02 0. -1.
    10030    2    1    2    0    0  0.00000000000E+00  0.00000000000E+00  0.11421146180E+04  0.13944560490E+04  0.80005116834E+03 0.  0.
        3    1    3    3  502    0 -0.38149713900E+03  0.89327494700E+02  0.71158981685E+03  0.81232970278E+03  0.10100000352E+00 0. -1.
       -3    1    3    3    0  502  0.38149713900E+03 -0.89327494700E+02  0.43052480119E+03  0.58212634627E+03  0.10100000352E+00 0.  1.
</event>
<event>
 5   0  0.4086111E-04  0.8001150E+03  0.7818609E-02  0.9559851E-01
       -1   -1    0    0    0  501  0.00000000000E+00  0.00000000000E+00  0.12921972049E+03  0.12921972059E+03  0.50400001928E-02 0. -1.
        1   -1    0    0  501    0  0.00000000000E+00  0.00000000000E+00 -0.12385570926E+04  0.12385570926E+04  0.50400001928E-02 0.  1.
    10030    2    1    2    0    0  0.00000000000E+00  0.00000000000E+00 -0.11093373721E+04  0.13677768132E+04  0.80011499520E+03 0.  0.
        3    1    3    3  502    0 -0.25402224279E+03 -0.27373682913E+03 -0.30939120962E+03  0.48495575288E+03  0.10100000352E+00 0. -1.
       -3    1    3    3    0  502  0.25402224279E+03  0.27373682913E+03 -0.79994616247E+03  0.88282106030E+03  0.10100000352E+00 0.  1.
</event>
<event>
 5   0  0.6970013E-04  0.8006544E+03  0.7818609E-02  0.9559070E-01
        2   -1    0    0  501    0  0.00000000000E+00  0.00000000000E+00  0.77392980366E+03  0.77392980367E+03  0.25500000920E-02 0. -1.
       -2   -1    0    0    0  501  0.00000000000E+00  0.00000000000E+00 -0.20707546742E+03  0.20707546744E+03  0.25500000920E-02 0.  1.
    10030    2    1    2    0    0  0.00000000000E+00  0.00000000000E+00  0.56685433624E+03  0.98100527111E+03  0.80065442197E+03 0.  0.
        3    1    3    3  502    0 -0.24865561572E+03 -0.26876788298E+03  0.48173704783E+03  0.60509204556E+03  0.10100000352E+00 0. -1.
       -3    1    3    3    0  502  0.24865561572E+03  0.26876788298E+03  0.85117288409E+02  0.37591322554E+03  0.10100000352E+00 0.  1.
</event>
<event>
 5   0  0.4087283E-04  0.7987645E+03  0.7818609E-02  0.9561807E-01
       -1   -1    0    0    0  501  0.00000000000E+00  0.00000000000E+00  0.13002112967E+03  0.13002112977E+03  0.50400001928E-02 0. -1.
        1   -1    0    0  501    0  0.00000000000E+00  0.00000000000E+00 -0.12267712593E+04  0.12267712593E+04  0.50400001928E-02 0.  1.
    10030    2    1    2    0    0  0.00000000000E+00  0.00000000000E+00 -0.10967501296E+04  0.13567923891E+04  0.79876450861E+03 0.  0.
        1    1    3    3  502    0 -0.85790487648E+02  0.19186412244E+03  0.28489614497E+02  0.21209315738E+03  0.50400001928E-02 0. -1.
       -1    1    3    3    0  502  0.85790487648E+02 -0.19186412244E+03 -0.11252397441E+04  0.11446992317E+04  0.50400001928E-02 0.  1.
</event>
<event>
 5   0  0.4169155E-04  0.8006393E+03  0.7818609E-02  0.9559092E-01
        1   -1    0    0  501    0  0.00000000000E+00  0.00000000000E+00  0.36813430290E+03  0.36813430294E+03  0.50400001928E-02 0.  1.
       -1   -1    0    0    0  501  0.00000000000E+00  0.00000000000E+00 -0.43531888100E+03  0.43531888103E+03  0.50400001928E-02 0. -1.
    10030    2    1    2    0    0  0.00000000000E+00  0.00000000000E+00 -0.67184578097E+02  0.80345318397E+03  0.80063927664E+03 0.  0.
        4    1    3    3  502    0 -0.12654478662E+03 -0.37656145547E+02 -0.41283932949E+03  0.43343914589E+03  0.12699999809E+01 0. -1.
       -4    1    3    3    0  502  0.12654478662E+03  0.37656145547E+02  0.34565475139E+03  0.37001403808E+03  0.12699999809E+01 0.  1.
</event>
<event>
 5   0  0.4392552E-04  0.8001665E+03  0.7818609E-02  0.9559776E-01
       -1   -1    0    0    0  501  0.00000000000E+00  0.00000000000E+00  0.13386035971E+03  0.13386035980E+03  0.50400001928E-02 0. -1.
        1   -1    0    0  501    0  0.00000000000E+00  0.00000000000E+00 -0.11957728746E+04  0.11957728747E+04  0.50400001928E-02 0.  1.
    10030    2    1    2    0    0  0.00000000000E+00  0.00000000000E+00 -0.10619125149E+04  0.13296332345E+04  0.80016645068E+03 0.  0.
        5    1    3    3  502    0  0.18837486254E+03  0.32761976945E+03 -0.74904200995E+03  0.83899095636E+03  0.46999998093E+01 0.  1.
       -5    1    3    3    0  502 -0.18837486254E+03 -0.32761976945E+03 -0.31287050498E+03  0.49064227810E+03  0.46999998093E+01 0. -1.
</event>
<event>
 5   0  0.2736375E-04  0.8001749E+03  0.7818609E-02  0.9559764E-01
        3   -1    0    0  501    0  0.00000000000E+00  0.00000000000E+00  0.23233372717E+03  0.23233374912E+03  0.10100000352E+00 0.  1.
       -3   -1    0    0    0  501  0.00000000000E+00  0.00000000000E+00 -0.68896557299E+03  0.68896558039E+03  0.10100000352E+00 0. -1.
    10030    2    1    2    0    0  0.00000000000E+00  0.00000000000E+00 -0.45663184582E+03  0.92129932951E+03  0.80017486335E+03 0.  0.
        5    1    3    3  502    0 -0.16076867087E+03 -0.12426330401E+03  0.16846502890E+03  0.26398956460E+03  0.46999998093E+01 0.  1.
       -5    1    3    3    0  502  0.16076867087E+03  0.12426330401E+03 -0.62509687472E+03  0.65730976491E+03  0.46999998093E+01 0. -1.
</event>
<event>
 5   0  0.4169155E-04  0.8004547E+03  0.7818609E-02  0.9559359E-01
        1   -1    0    0  501    0  0.00000000000E+00  0.00000000000E+00  0.15176893426E+04  0.15176893426E+04  0.50400001928E-02 0.  1.
       -1   -1    0    0    0  501  0.00000000000E+00  0.00000000000E+00 -0.10554328109E+03  0.10554328121E+03  0.50400001928E-02 0. -1.
    10030    2    1    2    0    0  0.00000000000E+00  0.00000000000E+00  0.14121460615E+04  0.16232326238E+04  0.80045465331E+03 0.  0.
        4    1    3    3  502    0 -0.15702070592E+03  0.15777223528E+03  0.31567021010E+02  0.22482364206E+03  0.12699999809E+01 0. -1.
       -4    1    3    3    0  502  0.15702070592E+03 -0.15777223528E+03  0.13805790405E+04  0.13984089818E+04  0.12699999809E+01 0.  1.
</event>
<event>
 5   0  0.4087283E-04  0.7998877E+03  0.7818609E-02  0.9560180E-01
       -1   -1    0    0    0  501  0.00000000000E+00  0.00000000000E+00  0.16134232390E+03  0.16134232398E+03  0.50400001928E-02 0. -1.
        1   -1    0    0  501    0  0.00000000000E+00  0.00000000000E+00 -0.99140181337E+03  0.99140181339E+03  0.50400001928E-02 0.  1.
    10030    2    1    2    0    0  0.00000000000E+00  0.00000000000E+00 -0.83005948947E+03  0.11527441374E+04  0.79988767347E+03 0.  0.
        1    1    3    3  502    0  0.13880159265E+03  0.23230398638E+03  0.93686077305E+01  0.27077443573E+03  0.50400001928E-02 0. -1.
       -1    1    3    3    0  502 -0.13880159265E+03 -0.23230398638E+03 -0.83942809720E+03  0.88196970164E+03  0.50400001928E-02 0.  1.
</event>
<event>
 5   0  0.6801147E-04  0.8001815E+03  0.7818609E-02  0.9559754E-01
       -2   -1    0    0    0  501  0.00000000000E+00  0.00000000000E+00  0.27371554512E+03  0.27371554513E+03  0.25500000920E-02 0. -1.
        2   -1    0    0  501    0  0.00000000000E+00  0.00000000000E+00 -0.58481368721E+03  0.58481368721E+03  0.25500000920E-02 0.  1.
    10030    2    1    2    0    0  0.00000000000E+00  0.00000000000E+00 -0.31109814208E+03  0.85852923235E+03  0.80018147241E+03 0.  0.
        4    1    3    3  502    0 -0.31211673428E+03 -0.97171522234E+02 -0.40304648630E+03  0.51894820895E+03  0.12699999809E+01 0.  1.
       -4    1    3    3    0  502  0.31211673428E+03  0.97171522234E+02  0.91948344217E+02  0.33958102340E+03  0.12699999809E+01 0. -1.
</event>
<event>
 5   0  0.4169155E-04  0.7997060E+03  0.7818609E-02  0.9560443E-01
        1   -1    0    0  501    0  0.00000000000E+00  0.00000000000E+00  0.44180141397E+03  0.44180141400E+03  0.50400001928E-02 0. -1.
       -1   -1    0    0    0  501  0.00000000000E+00  0.00000000000E+00 -0.36188753929E+03  0.36188753933E+03  0.50400001928E-02 0.  1.
    10030    2    1    2    0    0  0.00000000000E+00  0.00000000000E+00  0.79913874677E+02  0.80368895333E+03  0.79970601244E+03 0.  0.
        4    1    3    3  502    0  0.34672827694E+02  0.13629929597E+03 -0.33620809937E+03  0.36444094452E+03  0.12699999809E+01 0.  1.
       -4    1    3    3    0  502 -0.34672827694E+02 -0.13629929597E+03  0.41612197404E+03  0.43924800881E+03  0.12699999809E+01 0. -1.
</event>
<event>
 5   0  0.4169155E-04  0.8000320E+03  0.7818609E-02  0.9559971E-01
        1   -1    0    0  501    0  0.00000000000E+00  0.00000000000E+00  0.91454309175E+03  0.91454309176E+03  0.50400001928E-02 0. -1.
       -1   -1    0    0    0  501  0.00000000000E+00  0.00000000000E+00 -0.17496473820E+03  0.17496473827E+03  0.50400001928E-02 0.  1.
    10030    2    1    2    0    0  0.00000000000E+00  0.00000000000E+00  0.73957835355E+03  0.10895078300E+04  0.80003198102E+03 0.  0.
        4    1    3    3  502    0  0.15121204160E+03  0.25224595753E+03  0.53954444071E+00  0.29410033768E+03  0.12699999809E+01 0.  1.
       -4    1    3    3    0  502 -0.15121204160E+03 -0.25224595753E+03  0.73903880911E+03  0.79540749235E+03  0.12699999809E+01 0. -1.
</event>
<event>
 5   0  0.4086111E-04  0.8000424E+03  0.7818609E-02  0.9559956E-01
        1   -1    0    0  501    0  0.00000000000E+00  0.00000000000E+00  0.11791048725E+04  0.11791048725E+04  0.50400001928E-02 0.  1.
       -1   -1    0    0    0  501  0.00000000000E+00  0.00000000000E+00 -0.13571055233E+03  0.13571055242E+03  0.50400001928E-02 0. -1.
    10030    2    1    2    0    0  0.00000000000E+00  0.00000000000E+00  0.10433943202E+04  0.13148154249E+04  0.80004243279E+03 0.  0.
        3    1    3    3  502    0  0.33415533640E+03  0.11210043432E+03  0.21078574635E+03  0.41067863018E+03  0.10100000352E+00 0. -1.
       -3    1    3    3    0  502 -0.33415533640E+03 -0.11210043432E+03  0.83260857382E+03  0.90413679475E+03  0.10100000352E+00 0.  1.
</event>
<event>
 5   0  0.4086111E-04  0.8003821E+03  0.7818609E-02  0.9559464E-01
        1   -1    0    0  501    0  0.00000000000E+00  0.00000000000E+00  0.63170609641E+03  0.63170609643E+03  0.50400001928E-02 0.  1.
       -1   -1    0    0    0  501  0.00000000000E+00  0.00000000000E+00 -0.25352434936E+03  0.25352434941E+03  0.50400001928E-02 0. -1.
    10030    2    1    2    0    0  0.00000000000E+00  0.00000000000E+00  0.37818174705E+03  0.88523044584E+03  0.80038210153E+03 0.  0.
        3    1    3    3  502    0  0.25952564449E+03  0.17484043590E+03 -0.86813969463E+02  0.32474515188E+03  0.10100000352E+00 0. -1.
       -3    1    3    3    0  502 -0.25952564449E+03 -0.17484043590E+03  0.46499571651E+03  0.56048529396E+03  0.10100000352E+00 0.  1.
</event>
<event>
 5   0  0.2736375E-04  0.8001266E+03  0.7818609E-02  0.9559834E-01
       -3   -1    0    0    0  501  0.00000000000E+00  0.00000000000E+00  0.33775848029E+03  0.33775849539E+03  0.10100000352E+00 0.  1.
        3   -1    0    0  501    0  0.00000000000E+00  0.00000000000E+00 -0.47386121035E+03  0.47386122112E+03  0.10100000352E+00 0. -1.
    10030    2    1    2    0    0  0.00000000000E+00  0.00000000000E+00 -0.13610273007E+03  0.81161971651E+03  0.80012662191E+03 0.  0.
        3    1    3    3  502    0  0.60630355052E+02 -0.13067684486E+03  0.31053639218E+03  0.34232344180E+03  0.10100000352E+00 0.  1.
       -3    1    3    3    0  502 -0.60630355052E+02  0.13067684486E+03 -0.44663912224E+03  0.46929627471E+03  0.10100000352E+00 0. -1.
</event>
<event>
 5   0  0.6801147E-04  0.8005810E+03  0.7818609E-02  0.9559176E-01
        2   -1    0    0  501    0  0.00000000000E+00  0.00000000000E+00  0.21344234133E+04  0.21344234133E+04  0.25500000920E-02 0.  1.
       -2   -1    0    0    0  501  0.00000000000E+00  0.00000000000E+00 -0.75070623377E+02  0.75070623420E+02  0.25500000920E-02 0. -1.
    10030    2    1    2    0    0  0.00000000000E+00  0.00000000000E+00  0.20593527900E+04  0.22094940368E+04  0.80058102960E+03 0.  0.
        4    1    3    3  502    0  0.47197489937E+02 -0.72601964746E+02  0.21082577098E+04  0.21100357419E+04  0.12699999809E+01 0.  1.
       -4    1    3    3    0  502 -0.47197489937E+02  0.72601964746E+02 -0.48904919795E+02  0.99458294885E+02  0.12699999809E+01 0. -1.
</event>
<event>
 5   0  0.4104786E-04  0.7991353E+03  0.7818609E-02  0.9561270E-01
       -1   -1    0    0    0  501  0.00000000000E+00  0.00000000000E+00  0.44259357069E+03  0.44259357072E+03  0.50400001928E-02 0.  1.
        1   -1    0    0  501    0  0.00000000000E+00  0.00000000000E+00 -0.36072443960E+03  0.36072443964E+03  0.50400001928E-02 0. -1.
    10030    2    1    2    0    0  0.00000000000E+00  0.00000000000E+00  0.81869131091E+02  0.80331801036E+03  0.79913532717E+03 0.  0.
        2    1    3    3  502    0  0.66873061560E+02 -0.34108280043E+03  0.23905707160E+03  0.42185040785E+03  0.25500000920E-02 0.  1.
       -2    1    3    3    0  502 -0.66873061560E+02  0.34108280043E+03 -0.15718794051E+03  0.38146760251E+03  0.25500000920E-02 0. -1.
</event>
<event>
 5   0  0.4169155E-04  0.8000295E+03  0.7818609E-02  0.9559974E-01
       -1   -1    0    0    0  501  0.00000000000E+00  0.00000000000E+00  0.72975065167E+03  0.72975065168E+03  0.50400001928E-02 0. -1.
        1   -1    0    0  501    0  0.00000000000E+00  0.00000000000E+00 -0.21926914369E+03  0.21926914374E+03  0.50400001928E-02 0.  1.
    10030    2    1    2    0    0  0.00000000000E+00  0.00000000000E+00  0.51048150798E+03  0.94901979543E+03  0.80002950079E+03 0.  0.
        4    1    3    3  502    0  0.36169347571E+03  0.11301207157E+03  0.10325364179E+03  0.39275542789E+03  0.12699999809E+01 0.  1.
       -4    1    3    3    0  502 -0.36169347571E+03 -0.11301207157E+03  0.40722786619E+03  0.55626436754E+03  0.12699999809E+01 0. -1.
</event>
<event>
 5   0  0.6801147E-04  0.8004912E+03  0.7818609E-02  0.9559306E-01
        2   -1    0    0  501    0  0.00000000000E+00  0.00000000000E+00  0.42780311751E+03  0.42780311752E+03  0.25500000920E-02 0.  1.
       -2   -1    0    0    0  501  0.00000000000E+00  0.00000000000E+00 -0.37446323484E+03  0.37446323485E+03  0.25500000920E-02 0. -1.
    10030    2    1    2    0    0  0.00000000000E+00  0.00000000000E+00  0.53339882669E+02  0.80226635237E+03  0.80049119737E+03 0.  0.
        4    1    3    3  502    0  0.34462397780E+03 -0.15371857130E+03 -0.10704196494E+03  0.39224313939E+03  0.12699999809E+01 0. -1.
       -4    1    3    3    0  502 -0.34462397780E+03  0.15371857130E+03  0.16038184761E+03  0.41002321298E+03  0.12699999809E+01 0.  1.
</event>
<event>
 5   0  0.6672462E-04  0.8001079E+03  0.7818609E-02  0.9559861E-01
        2   -1    0    0  501    0  0.00000000000E+00  0.00000000000E+00  0.66313676090E+03  0.66313676090E+03  0.25500000920E-02 0. -1.
       -2   -1    0    0    0  501  0.00000000000E+00  0.00000000000E+00 -0.24134263941E+03  0.24134263942E+03  0.25500000920E-02 0.  1.
    10030    2    1    2    0    0  0.00000000000E+00  0.00000000000E+00  0.42179412149E+03  0.90447940033E+03  0.80010793315E+03 0.  0.
        5    1    3    3  502    0 -0.20145775175E+03 -0.68706632953E+02  0.59377531290E+03  0.63079080475E+03  0.46999998093E+01 0. -1.
       -5    1    3    3    0  502  0.20145775175E+03  0.68706632953E+02 -0.17198119141E+03  0.27368859557E+03  0.46999998093E+01 0.  1.
</event>
<event>
 5   0  0.4169155E-04  0.8009315E+03  0.7818609E-02  0.9558670E-01
        1   -1    0    0  501    0  0.00000000000E+00  0.00000000000E+00  0.23150401947E+03  0.23150401952E+03  0.50400001928E-02 0. -1.
       -1   -1    0    0    0  501  0.00000000000E+00  0.00000000000E+00 -0.69274311968E+03  0.69274311969E+03  0.50400001928E-02 0.  1.
    10030    2    1    2    0    0  0.00000000000E+00  0.00000000000E+00 -0.46123910021E+03  0.92424713922E+03  0.80093149944E+03 0.  0.
        4    1    3    3  502    0 -0.25018996773E+03 -0.81428356611E+02 -0.57900548288E+03  0.63598314389E+03  0.12699999809E+01 0.  1.
       -4    1    3    3    0  502  0.25018996773E+03  0.81428356611E+02  0.11776638267E+03  0.28826399532E+03  0.12699999809E+01 0. -1.
</event>
<event>
 5   0  0.6801147E-04  0.7992430E+03  0.7818609E-02  0.9561113E-01
        2   -1    0    0  501    0  0.00000000000E+00  0.00000000000E+00  0.10904860433E+04  0.10904860433E+04  0.25500000920E-02 0.  1.
       -2   -1    0    0    0  501  0.00000000000E+00  0.00000000000E+00 -0.14644602114E+03  0.14644602117E+03  0.25500000920E-02 0. -1.
    10030    2    1    2    0    0  0.00000000000E+00  0.00000000000E+00  0.94404002216E+03  0.12369320645E+04  0.79924299727E+03 0.  0.
        4    1    3    3  502    0  0.27615862823E+03 -0.28547676228E+03  0.54010092759E+03  0.67042612914E+03  0.12699999809E+01 0. -1.
       -4    1    3    3    0  502 -0.27615862823E+03  0.28547676228E+03  0.40393909457E+03  0.56650593534E+03  0.12699999809E+01 0.  1.
</event>
<event>
 5   0  0.6970013E-04  0.8005592E+03  0.7818609E-02  0.9559208E-01
        2   -1    0    0  501    0  0.00000000000E+00  0.00000000000E+00  0.63605205432E+03  0.63605205433E+03  0.25500000920E-02 0. -1.
       -2   -1    0    0    0  501  0.00000000000E+00  0.00000000000E+00 -0.25190354799E+03  0.25190354801E+03  0.25500000920E-02 0.  1.
    10030    2    1    2    0    0  0.00000000000E+00  0.00000000000E+00  0.38414850633E+03  0.88795560233E+03  0.80055922754E+03 0.  0.
        3    1    3    3  502    0  0.16033293105E+03 -0.27550232055E+03 -0.76462864528E+02  0.32780292442E+03  0.10100000352E+00 0.  1.
       -3    1    3    3    0  502 -0.16033293105E+03  0.27550232055E+03  0.46061137086E+03  0.56015267791E+03  0.10100000352E+00 0. -1.
</event>
<event>
 5   0  0.4392552E-04  0.7999443E+03  0.7818609E-02  0.9560098E-01
        1   -1    0    0  501    0  0.00000000000E+00  0.00000000000E+00  0.52581330110E+03  0.52581330112E+03  0.50400001928E-02 0. -1.
       -1   -1    0    0    0  501  0.00000000000E+00  0.00000000000E+00 -0.30424812536E+03  0.30424812540E+03  0.50400001928E-02 0.  1.
    10030    2    1    2    0    0  0.00000000000E+00  0.00000000000E+00  0.22156517574E+03  0.83006142652E+03  0.79994427600E+03 0.  0.
        5    1    3    3  502    0 -0.34092700265E+03 -0.11023567679E+03 -0.73593651629E+02  0.36581585687E+03  0.46999998093E+01 0.  1.
       -5    1    3    3    0  502  0.34092700265E+03  0.11023567679E+03  0.29515882737E+03  0.46424556966E+03  0.46999998093E+01 0. -1.
</event>
<event>
 5   0  0.7133039E-04  0.8005056E+03  0.7818609E-02  0.9559286E-01
       -2   -1    0    0    0  501  0.00000000000E+00  0.00000000000E+00  0.91796138821E+02  0.91796138857E+02  0.25500000920E-02 0. -1.
        2   -1    0    0  501    0  0.00000000000E+00  0.00000000000E+00 -0.17451965979E+04  0.17451965979E+04  0.25500000920E-02 0.  1.
    10030    2    1    2    0    0  0.00000000000E+00  0.00000000000E+00 -0.16534004591E+04  0.18369927368E+04  0.80050561324E+03 0.  0.
        2    1    3    3  502    0  0.42468690697E+02  0.33883499539E+03 -0.34759123173E+03  0.48727036456E+03  0.25500000920E-02 0. -1.
       -2    1    3    3    0  502 -0.42468690697E+02 -0.33883499539E+03 -0.13058092274E+04  0.13497223722E+04  0.25500000920E-02 0.  1.
</event>
<event>
 5   0  0.4392552E-04  0.7996954E+03  0.7818609E-02  0.9560458E-01
       -1   -1    0    0    0  501  0.00000000000E+00  0.00000000000E+00  0.10263360709E+03  0.10263360721E+03  0.50400001928E-02 0.  1.
        1   -1    0    0  501    0  0.00000000000E+00  0.00000000000E+00 -0.15577567178E+04  0.15577567178E+04  0.50400001928E-02 0. -1.
    10030    2    1    2    0    0  0.00000000000E+00  0.00000000000E+00 -0.14551231107E+04  0.16603903250E+04  0.79969541956E+03 0.  0.
        5    1    3    3  502    0 -0.40491292973E+02  0.25677267009E+02  0.96585592150E+02  0.10793393098E+03  0.46999998093E+01 0.  1.
       -5    1    3    3    0  502  0.40491292973E+02 -0.25677267009E+02 -0.15517087028E+04  0.15524563940E+04  0.46999998093E+01 0. -1.
</event>
<event>
 5   0  0.7133039E-04  0.7995640E+03  0.7818609E-02  0.9560648E-01
       -2   -1    0    0    0  501  0.00000000000E+00  0.00000000000E+00  0.94901090982E+02  0.94901091016E+02  0.25500000920E-02 0. -1.
        2   -1    0    0  501    0  0.00000000000E+00  0.00000000000E+00 -0.16841288067E+04  0.16841288067E+04  0.25500000920E-02 0.  1.
    10030    2    1    2    0    0  0.00000000000E+00  0.00000000000E+00 -0.15892277157E+04  0.17790298977E+04  0.79956403405E+03 0.  0.
        2    1    3    3  502    0 -0.24865448879E+03  0.28299617679E+03 -0.10923797871E+04  0.11555126525E+04  0.25500000920E-02 0.  1.
       -2    1    3    3    0  502  0.24865448879E+03 -0.28299617679E+03 -0.49684792862E+03  0.62351724519E+03  0.25500000920E-02 0. -1.
</event>
<event>
 5   0  0.4086111E-04  0.7999128E+03  0.7818609E-02  0.9560143E-01
        1   -1    0    0  501    0  0.00000000000E+00  0.00000000000E+00  0.97342423841E+03  0.97342423843E+03  0.50400001928E-02 0. -1.
       -1   -1    0    0    0  501  0.00000000000E+00  0.00000000000E+00 -0.16433237564E+03  0.16433237571E+03  0.50400001928E-02 0.  1.
    10030    2    1    2    0    0  0.00000000000E+00  0.00000000000E+00  0.80909186278E+03  0.11377566141E+04  0.79991278938E+03 0.  0.
        3    1    3    3  502    0  0.89444621493E+02  0.18738245587E+03 -0.81666306269E+02  0.22311862509E+03  0.10100000352E+00 0.  1.
       -3    1    3    3    0  502 -0.89444621493E+02 -0.18738245587E+03  0.89075816905E+03  0.91463798905E+03  0.10100000352E+00 0. -1.
</event>
<event>
 5   0  0.6970013E-04  0.7998960E+03  0.7818609E-02  0.9560168E-01
        2   -1    0    0  501    0  0.00000000000E+00  0.00000000000E+00  0.14776515113E+04  0.14776515113E+04  0.25500000920E-02 0.  1.
       -2   -1    0    0    0  501  0.00000000000E+00  0.00000000000E+00 -0.10825178303E+03  0.10825178306E+03  0.25500000920E-02 0. -1.
    10030    2    1    2    0    0  0.00000000000E+00  0.00000000000E+00  0.13693997283E+04  0.15859032944E+04  0.79989602030E+03 0.  0.
        3    1    3    3  502    0  0.48634606681E+02 -0.39374213499E+03  0.58438144313E+03  0.70632844705E+03  0.10100000352E+00 0.  1.
       -3    1    3    3    0  502 -0.48634606681E+02  0.39374213499E+03  0.78501828519E+03  0.87957484736E+03  0.10100000352E+00 0. -1.
</event>
<event>
 5   0  0.4104786E-04  0.8000536E+03  0.7818609E-02  0.9559940E-01
       -1   -1    0    0    0  501  0.00000000000E+00  0.00000000000E+00  0.15664573905E+03  0.15664573913E+03  0.50400001928E-02 0.  1.
        1   -1    0    0  501    0  0.00000000000E+00  0.00000000000E+00 -0.10215498228E+04  0.10215498228E+04  0.50400001928E-02 0. -1.
    10030    2    1    2    0    0  0.00000000000E+00  0.00000000000E+00 -0.86490408378E+03  0.11781955620E+04  0.80005356576E+03 0.  0.
        2    1    3    3  502    0  0.44136300228E+02 -0.10637778545E+03  0.13170238126E+03  0.17495646164E+03  0.25500000920E-02 0.  1.
       -2    1    3    3    0  502 -0.44136300228E+02  0.10637778545E+03 -0.99660646504E+03  0.10032391003E+04  0.25500000920E-02 0. -1.
</event>
<event>
 5   0  0.4087283E-04  0.7997121E+03  0.7818609E-02  0.9560434E-01
        1   -1    0    0  501    0  0.00000000000E+00  0.00000000000E+00  0.13239545836E+03  0.13239545845E+03  0.50400001928E-02 0.  1.
       -1   -1    0    0    0  501  0.00000000000E+00  0.00000000000E+00 -0.12076308910E+04  0.12076308910E+04  0.50400001928E-02 0. -1.
    10030    2    1    2    0    0  0.00000000000E+00  0.00000000000E+00 -0.10752354326E+04  0.13400263495E+04  0.79971206171E+03 0.  0.
        1    1    3    3  502    0 -0.33002649922E+03 -0.12581699543E+03 -0.22352002570E+03  0.41798158863E+03  0.50400001928E-02 0.  1.
       -1    1    3    3    0  502  0.33002649922E+03  0.12581699543E+03 -0.85171540693E+03  0.92204476082E+03  0.50400001928E-02 0. -1.
</event>
<event>
 5   0  0.7133039E-04  0.8007050E+03  0.7818609E-02  0.9558997E-01
        2   -1    0    0  501    0  0.00000000000E+00  0.00000000000E+00  0.43845894552E+03  0.43845894553E+03  0.25500000920E-02 0. -1.
       -2   -1    0    0    0  501  0.00000000000E+00  0.00000000000E+00 -0.36555792815E+03  0.36555792816E+03  0.25500000920E-02 0.  1.
    10030    2    1    2    0    0  0.00000000000E+00  0.00000000000E+00  0.72901017372E+02  0.80401687368E+03  0.80070504859E+03 0.  0.
        2    1    3    3  502    0 -0.23951997806E+03  0.14836342751E+02  0.35823220714E+03  0.43118470659E+03  0.25500000920E-02 0. -1.
       -2    1    3    3    0  502  0.23951997806E+03 -0.14836342751E+02 -0.28533118977E+03  0.37283216709E+03  0.25500000920E-02 0.  1.
</event>
<event>
 5   0  0.4086111E-04  0.8000456E+03  0.7818609E-02  0.9559951E-01
        1   -1    0    0  501    0  0.00000000000E+00  0.00000000000E+00  0.11315317318E+04  0.11315317318E+04  0.50400001928E-02 0. -1.
       -1   -1    0    0    0  501  0.00000000000E+00  0.00000000000E+00 -0.14141735895E+03  0.14141735904E+03  0.50400001928E-02 0.  1.
    10030    2    1    2    0    0  0.00000000000E+00  0.00000000000E+00  0.99011437288E+03  0.12729490909E+04  0.80004557156E+03 0.  0.
        3    1    3    3  502    0  0.11232584337E+03  0.31093644460E+03  0.13672613902E+03  0.35776055535E+03  0.10100000352E+00 0.  1.
       -3    1    3    3    0  502 -0.11232584337E+03 -0.31093644460E+03  0.85338823386E+03  0.91518853553E+03  0.10100000352E+00 0. -1.
</event>
<event>
 5   0  0.6801147E-04  0.8000386E+03  0.7818609E-02  0.9559961E-01
       -2   -1    0    0    0  501  0.00000000000E+00  0.00000000000E+00  0.41366745177E+03  0.41366745178E+03  0.25500000920E-02 0.  1.
        2   -1    0    0  501    0  0.00000000000E+00  0.00000000000E+00 -0.38682144201E+03  0.38682144202E+03  0.25500000920E-02 0. -1.
    10030    2    1    2    0    0  0.00000000000E+00  0.00000000000E+00  0.26846009763E+02  0.80048889380E+03  0.80003859961E+03 0.  0.
        4    1    3    3  502    0 -0.33880022895E+03 -0.80751485664E+02  0.21027577785E+03  0.40684630173E+03  0.12699999809E+01 0.  1.
       -4    1    3    3    0  502  0.33880022895E+03  0.80751485664E+02 -0.18342976809E+03  0.39364259208E+03  0.12699999809E+01 0. -1.
</event>
<event>
 5   0  0.6970013E-04  0.8001541E+03  0.7818609E-02  0.9559794E-01
        2   -1    0    0  501    0  0.00000000000E+00  0.00000000000E+00  0.85775850817E+03  0.85775850818E+03  0.25500000920E-02 0.  1.
       -2   -1    0    0    0  501  0.00000000000E+00  0.00000000000E+00 -0.18660456332E+03  0.18660456333E+03  0.25500000920E-02 0. -1.
    10030    2    1    2    0    0  0.00000000000E+00  0.00000000000E+00  0.67115394485E+03  0.10443630715E+04  0.80015411480E+03 0.  0.
        3    1    3    3  502    0  0.30880518930E+03 -0.18647014831E+03  0.10977363563E+03  0.37707031496E+03  0.10100000352E+00 0. -1.
       -3    1    3    3    0  502 -0.30880518930E+03  0.18647014831E+03  0.56138030923E+03  0.66729275655E+03  0.10100000352E+00 0.  1.
</event>
<event>
 5   0  0.6672462E-04  0.7993209E+03  0.7818609E-02  0.9561001E-01
        2   -1    0    0  501    0  0.00000000000E+00  0.00000000000E+00  0.17518327339E+04  0.17518327339E+04  0.25500000920E-02 0. -1.
       -2   -1    0    0    0  501  0.00000000000E+00  0.00000000000E+00 -0.91177936159E+02  0.91177936194E+02  0.25500000920E-02 0.  1.
    10030    2    1    2    0    0  0.00000000000E+00  0.00000000000E+00  0.16606547977E+04  0.18430106701E+04  0.79932094481E+03 0.  0.
        5    1    3    3  502    0  0.18921236307E+03 -0.10223497055E+03  0.53696202317E+02  0.22171756737E+03  0.46999998093E+01 0.  1.
       -5    1    3    3    0  502 -0.18921236307E+03  0.10223497055E+03  0.16069585954E+04  0.16212931027E+04  0.46999998093E+01 0. -1.
</event>
<event>
 5   0  0.4169155E-04  0.7995438E+03  0.7818609E-02  0.9560678E-01
        1   -1    0    0  501    0  0.00000000000E+00  0.00000000000E+00  0.17105930445E+04  0.17105930445E+04  0.50400001928E-02 0.  1.
       -1   -1    0    0    0  501  0.00000000000E+00  0.00000000000E+00 -0.93428159663E+02  0.93428159799E+02  0.50400001928E-02 0. -1.
    10030    2    1    2    0    0  0.00000000000E+00  0.00000000000E+00  0.16171648848E+04  0.18040212043E+04  0.79954377043E+03 0.  0.
        4    1    3    3  502    0  0.17616388104E+03 -0.14173106187E+03  0.15524630881E+04  0.15688418211E+04  0.12699999809E+01 0.  1.
       -4    1    3    3    0  502 -0.17616388104E+03  0.14173106187E+03  0.64701796755E+02  0.23517938320E+03  0.12699999809E+01 0. -1.
</event>
<event>
 5   0  0.4087283E-04  0.7985293E+03  0.7818609E-02  0.9562148E-01
       -1   -1    0    0    0  501  0.00000000000E+00  0.00000000000E+00  0.56274123812E+03  0.56274123815E+03  0.50400001928E-02 0. -1.
        1   -1    0    0  501    0  0.00000000000E+00  0.00000000000E+00 -0.28327806642E+03  0.28327806646E+03  0.50400001928E-02 0.  1.
    10030    2    1    2    0    0  0.00000000000E+00  0.00000000000E+00  0.27946317170E+03  0.84601930461E+03  0.79852927275E+03 0.  0.
        1    1    3    3  502    0  0.14231490020E+03  0.33965955996E+03  0.30314495604E+03  0.47698953017E+03  0.50400001928E-02 0. -1.
       -1    1    3    3    0  502 -0.14231490020E+03 -0.33965955996E+03 -0.23681784339E+02  0.36902977444E+03  0.50400001928E-02 0.  1.
</event>
<event>
 5   0  0.4392552E-04  0.8002056E+03  0.7818609E-02  0.9559720E-01
       -1   -1    0    0    0  501  0.00000000000E+00  0.00000000000E+00  0.42794068520E+03  0.42794068523E+03  0.50400001928E-02 0. -1.
        1   -1    0    0  501    0  0.00000000000E+00  0.00000000000E+00 -0.37407582722E+03  0.37407582725E+03  0.50400001928E-02 0.  1.
    10030    2    1    2    0    0  0.00000000000E+00  0.00000000000E+00  0.53864857980E+02  0.80201651248E+03  0.80020563818E+03 0.  0.
        5    1    3    3  502    0  0.18458055563E+03 -0.18162577201E+03 -0.27872044589E+03  0.38048006456E+03  0.46999998093E+01 0.  1.
       -5    1    3    3    0  502 -0.18458055563E+03  0.18162577201E+03  0.33258530387E+03  0.42153644792E+03  0.46999998093E+01 0. -1.
</event>
<event>
 5   0  0.6801147E-04  0.8002454E+03  0.7818609E-02  0.9559662E-01
        2   -1    0    0  501    0  0.00000000000E+00  0.00000000000E+00  0.26469059621E+03  0.26469059623E+03  0.25500000920E-02 0.  1.
       -2   -1    0    0    0  501  0.00000000000E+00  0.00000000000E+00 -0.60485025243E+03  0.60485025243E+03  0.25500000920E-02 0. -1.
    10030    2    1    2    0    0  0.00000000000E+00  0.00000000000E+00 -0.34015965621E+03  0.86954084866E+03  0.80024539722E+03 0.  0.
        4    1    3    3  502    0 -0.32327981153E+03  0.19243781726E+03 -0.31808960022E+03  0.49267104312E+03  0.12699999809E+01 0. -1.
       -4    1    3    3    0  502  0.32327981153E+03 -0.19243781726E+03 -0.22070055990E+02  0.37686980554E+03  0.12699999809E+01 0.  1.
</event>
<event>
 5   0  0.6593118E-04  0.7989724E+03  0.7818609E-02  0.9561506E-01
        2   -1    0    0  501    0  0.00000000000E+00  0.00000000000E+00  0.54203798044E+03  0.54203798044E+03  0.25500000920E-02 0.  1.
       -2   -1    0    0    0  501  0.00000000000E+00  0.00000000000E+00 -0.29442439495E+03  0.29442439496E+03  0.25500000920E-02 0. -1.
    10030    2    1    2    0    0  0.00000000000E+00  0.00000000000E+00  0.24761358548E+03  0.83646237541E+03  0.79897235106E+03 0.  0.
        1    1    3    3  502    0 -0.93928434194E+02 -0.23617480368E+03  0.44646988889E+03  0.51374745776E+03  0.50400001928E-02 0.  1.
       -1    1    3    3    0  502  0.93928434194E+02  0.23617480368E+03 -0.19885630340E+03  0.32271491765E+03  0.50400001928E-02 0. -1.
</event>
<event>
 5   0  0.6672462E-04  0.7994373E+03  0.7818609E-02  0.9560832E-01
        2   -1    0    0  501    0  0.00000000000E+00  0.00000000000E+00  0.20621324315E+03  0.20621324316E+03  0.25500000920E-02 0. -1.
       -2   -1    0    0    0  501  0.00000000000E+00  0.00000000000E+00 -0.77480477911E+03  0.77480477912E+03  0.25500000920E-02 0.  1.
    10030    2    1    2    0    0  0.00000000000E+00  0.00000000000E+00 -0.56859153597E+03  0.98101802228E+03  0.79943731791E+03 0.  0.
        5    1    3    3  502    0  0.83256984081E+02 -0.19462155052E+03  0.13174419325E+03  0.24937501033E+03  0.46999998093E+01 0. -1.
       -5    1    3    3    0  502 -0.83256984081E+02  0.19462155052E+03 -0.70033572921E+03  0.73164301195E+03  0.46999998093E+01 0.  1.
</event>
<event>
 5   0  0.6801147E-04  0.7998656E+03  0.7818609E-02  0.9560212E-01
       -2   -1    0    0    0  501  0.00000000000E+00  0.00000000000E+00  0.57905593950E+03  0.57905593950E+03  0.25500000920E-02 0. -1.
        2   -1    0    0  501    0  0.00000000000E+00  0.00000000000E+00 -0.27621896089E+03  0.27621896090E+03  0.25500000920E-02 0.  1.
    10030    2    1    2    0    0  0.00000000000E+00  0.00000000000E+00  0.30283697860E+03  0.85527490041E+03  0.79986556349E+03 0.  0.
        4    1    3    3  502    0 -0.10033487646E+02 -0.19405536701E+03  0.52518489996E+03  0.55998120360E+03  0.12699999809E+01 0. -1.
       -4    1    3    3    0  502  0.10033487646E+02  0.19405536701E+03 -0.22234792136E+03  0.29529369680E+03  0.12699999809E+01 0.  1.
</event>
<event>
 5   0  0.7133039E-04  0.7999418E+03  0.7818609E-02  0.9560101E-01
        2   -1    0    0  501    0  0.00000000000E+00  0.00000000000E+00  0.62666610133E+03  0.62666610134E+03  0.25500000920E-02 0. -1.
       -2   -1    0    0    0  501  0.00000000000E+00  0.00000000000E+00 -0.25528223651E+03  0.25528223652E+03  0.25500000920E-02 0.  1.
    10030    2    1    2    0    0  0.00000000000E+00  0.00000000000E+00  0.37138386482E+03  0.88194833786E+03  0.79994180763E+03 0.  0.
        2    1    3    3  502    0 -0.35069608253E+03 -0.28163440216E+02 -0.24063807639E+02  0.35264711612E+03  0.25500000920E-02 0.  1.
       -2    1    3    3    0  502  0.35069608253E+03  0.28163440216E+02  0.39544767246E+03  0.52930122173E+03  0.25500000920E-02 0. -1.
</event>
<event>
 5   0  0.6672462E-04  0.8002711E+03  0.7818609E-02  0.9559625E-01
       -2   -1    0    0    0  501  0.00000000000E+00  0.00000000000E+00  0.14339847467E+03  0.14339847469E+03  0.25500000920E-02 0. -1.
        2   -1    0    0  501    0  0.00000000000E+00  0.00000000000E+00 -0.11165281915E+04  0.11165281915E+04  0.25500000920E-02 0.  1.
    10030    2    1    2    0    0  0.00000000000E+00  0.00000000000E+00 -0.97312971678E+03  0.12599266662E+04  0.80027105308E+03 0.  0.
        5    1    3    3  502    0 -0.66113110649E+02  0.34169452928E+03 -0.79732052324E+03  0.86998172482E+03  0.46999998093E+01 0.  1.
       -5    1    3    3    0  502  0.66113110649E+02 -0.34169452928E+03 -0.17580919354E+03  0.38994494133E+03  0.46999998093E+01 0. -1.
</event>
<event>
 5   0  0.6672462E-04  0.7999451E+03  0.7818609E-02  0.9560097E-01
       -2   -1    0    0    0  501  0.00000000000E+00  0.00000000000E+00  0.28589496499E+03  0.28589496500E+03  0.25500000920E-02 0. -1.
        2   -1    0    0  501    0  0.00000000000E+00  0.00000000000E+00 -0.55956922625E+03  0.55956922626E+03  0.25500000920E-02 0.  1.
    10030    2    1    2    0    0  0.00000000000E+00  0.00000000000E+00 -0.27367426126E+03  0.84546419126E+03  0.79994505900E+03 0.  0.
        5    1    3    3  502    0 -0.38585645037E+03 -0.95648850193E+02 -0.18317278610E+03  0.43773081043E+03  0.46999998093E+01 0. -1.
       -5    1    3    3    0  502  0.38585645037E+03  0.95648850193E+02 -0.90501475153E+02  0.40773338082E+03  0.46999998093E+01 0.  1.
</event>
<event>
 5   0  0.2736375E-04  0.8000087E+03  0.7818609E-02  0.9560004E-01
        4   -1    0    0  501    0  0.00000000000E+00  0.00000000000E+00  0.70861616862E+03  0.70861730668E+03  0.12699999809E+01 0. -1.
       -4   -1    0    0    0  501  0.00000000000E+00  0.00000000000E+00 -0.22579402161E+03  0.22579759320E+03  0.12699999809E+01 0.  1.
    10030    2    1    2    0    0  0.00000000000E+00  0.00000000000E+00  0.48282214701E+03  0.93441489988E+03  0.80000873712E+03 0.  0.
        3    1    3    3  502    0  0.23117461527E+03 -0.60190774612E+01  0.62262777811E+03  0.66418618799E+03  0.10100000352E+00 0. -1.
       -3    1    3    3    0  502 -0.23117461527E+03  0.60190774612E+01 -0.13980563110E+03  0.27022871189E+03  0.10100000352E+00 0.  1.
</event>
<event>
 5   0  0.4104786E-04  0.8002496E+03  0.7818609E-02  0.9559656E-01
        1   -1    0    0  501    0  0.00000000000E+00  0.00000000000E+00  0.12793763529E+04  0.12793763529E+04  0.50400001928E-02 0.  1.
       -1   -1    0    0    0  501  0.00000000000E+00  0.00000000000E+00 -0.12513898167E+03  0.12513898177E+03  0.50400001928E-02 0. -1.
    10030    2    1    2    0    0  0.00000000000E+00  0.00000000000E+00  0.11542373713E+04  0.14045153347E+04  0.80024959622E+03 0.  0.
        2    1    3    3  502    0 -0.15868399513E+03  0.35774154439E+03  0.72333235953E+03  0.82241675885E+03  0.25500000920E-02 0. -1.
       -2    1    3    3    0  502  0.15868399513E+03 -0.35774154439E+03  0.43090501174E+03  0.58209857588E+03  0.25500000920E-02 0.  1.
</event>
<event>
 5   0  0.2736375E-04  0.8000494E+03  0.7818609E-02  0.9559946E-01
        4   -1    0    0  501    0  0.00000000000E+00  0.00000000000E+00  0.28125270520E+03  0.28125557253E+03  0.12699999809E+01 0. -1.
       -4   -1    0    0    0  501  0.00000000000E+00  0.00000000000E+00 -0.56894716009E+03  0.56894857753E+03  0.12699999809E+01 0.  1.
    10030    2    1    2    0    0  0.00000000000E+00  0.00000000000E+00 -0.28769445489E+03  0.85020415006E+03  0.80004937186E+03 0.  0.
        2    1    3    3  502    0 -0.28068121000E+03  0.12927311622E+03 -0.41379186804E+03  0.51644669646E+03  0.25500000920E-02 0.  1.
       -2    1    3    3    0  502  0.28068121000E+03 -0.12927311622E+03  0.12609741315E+03  0.33375745360E+03  0.25500000920E-02 0. -1.
</event>
<event>
 5   0  0.4086111E-04  0.7999857E+03  0.7818609E-02  0.9560038E-01
       -1   -1    0    0    0  501  0.00000000000E+00  0.00000000000E+00  0.16545847746E+03  0.16545847753E+03  0.50400001928E-02 0. -1.
        1   -1    0    0  501    0  0.00000000000E+00  0.00000000000E+00 -0.96697548843E+03  0.96697548844E+03  0.50400001928E-02 0.  1.
    10030    2    1    2    0    0  0.00000000000E+00  0.00000000000E+00 -0.80151701097E+03  0.11324339660E+04  0.79998573013E+03 0.  0.
        3    1    3    3  502    0 -0.20196091392E+03 -0.33376173543E+03 -0.27566544223E+03  0.47767829449E+03  0.10100000352E+00 0.  1.
       -3    1    3    3    0  502  0.20196091392E+03  0.33376173543E+03 -0.52585156874E+03  0.65475567148E+03  0.10100000352E+00 0. -1.
</event>
<event>
 5   0  0.6970013E-04  0.7982368E+03  0.7818609E-02  0.9562573E-01
        2   -1    0    0  501    0  0.00000000000E+00  0.00000000000E+00  0.92768846765E+03  0.92768846765E+03  0.25500000920E-02 0.  1.
       -2   -1    0    0    0  501  0.00000000000E+00  0.00000000000E+00 -0.17171229064E+03  0.17171229066E+03  0.25500000920E-02 0. -1.
    10030    2    1    2    0    0  0.00000000000E+00  0.00000000000E+00  0.75597617701E+03  0.10994007583E+04  0.79823683652E+03 0.  0.
        3    1    3    3  502    0  0.11909238420E+03  0.42853924207E+02  0.89931610140E+03  0.90817890046E+03  0.10100000352E+00 0.  1.
       -3    1    3    3    0  502 -0.11909238420E+03 -0.42853924207E+02 -0.14333992439E+03  0.19122185786E+03  0.10100000352E+00 0. -1.
</event>
<event>
 5   0  0.4087283E-04  0.7997903E+03  0.7818609E-02  0.9560321E-01
        1   -1    0    0  501    0  0.00000000000E+00  0.00000000000E+00  0.21262432631E+04  0.21262432631E+04  0.50400001928E-02 0.  1.
       -1   -1    0    0    0  501  0.00000000000E+00  0.00000000000E+00 -0.75210648084E+02  0.75210648253E+02  0.50400001928E-02 0. -1.
    10030    2    1    2    0    0  0.00000000000E+00  0.00000000000E+00  0.20510326150E+04  0.22014539113E+04  0.79979030750E+03 0.  0.
        1    1    3    3  502    0 -0.25102720083E+03 -0.28161585889E+03  0.13906194638E+04  0.14408832848E+04  0.50400001928E-02 0. -1.
       -1    1    3    3    0  502  0.25102720083E+03  0.28161585889E+03  0.66041315125E+03  0.76057062650E+03  0.50400001928E-02 0.  1.
</event>
<event>
 5   0  0.4104786E-04  0.7999915E+03  0.7818609E-02  0.9560029E-01
       -1   -1    0    0    0  501  0.00000000000E+00  0.00000000000E+00  0.95548515844E+02  0.95548515977E+02  0.50400001928E-02 0.  1.
        1   -1    0    0  501    0  0.00000000000E+00  0.00000000000E+00 -0.16745063476E+04  0.16745063476E+04  0.50400001928E-02 0. -1.
    10030    2    1    2    0    0  0.00000000000E+00  0.00000000000E+00 -0.15789578318E+04  0.17700548636E+04  0.79999149097E+03 0.  0.
        2    1    3    3  502    0 -0.16728310446E+03  0.29741046703E+03 -0.12512695955E+04  0.12969626917E+04  0.25500000920E-02 0. -1.
       -2    1    3    3    0  502  0.16728310446E+03 -0.29741046703E+03 -0.32768823623E+03  0.47309217190E+03  0.25500000920E-02 0.  1.
</event>
<event>
 5   0  0.4392552E-04  0.8008110E+03  0.7818609E-02  0.9558844E-01
       -1   -1    0    0    0  501  0.00000000000E+00  0.00000000000E+00  0.12821398304E+03  0.12821398314E+03  0.50400001928E-02 0. -1.
        1   -1    0    0  501    0  0.00000000000E+00  0.00000000000E+00 -0.12504453169E+04  0.12504453169E+04  0.50400001928E-02 0.  1.
    10030    2    1    2    0    0  0.00000000000E+00  0.00000000000E+00 -0.11222313339E+04  0.13786593001E+04  0.80081102573E+03 0.  0.
        5    1    3    3  502    0 -0.17958633873E+03  0.31698611017E+03 -0.27525561626E+03  0.45663901649E+03  0.46999998093E+01 0. -1.
       -5    1    3    3    0  502  0.17958633873E+03 -0.31698611017E+03 -0.84697571762E+03  0.92202028358E+03  0.46999998093E+01 0.  1.
</event>
<event>
 5   0  0.7133039E-04  0.7999856E+03  0.7818609E-02  0.9560038E-01
        2   -1    0    0  501    0  0.00000000000E+00  0.00000000000E+00  0.18837027326E+04  0.18837027326E+04  0.25500000920E-02 0.  1.
       -2   -1    0    0    0  501  0.00000000000E+00  0.00000000000E+00 -0.84936024481E+02  0.84936024520E+02  0.25500000920E-02 0. -1.
    10030    2    1    2    0    0  0.00000000000E+00  0.00000000000E+00  0.17987667081E+04  0.19686387571E+04  0.79998555349E+03 0.  0.
        2    1    3    3  502    0  0.97482037664E+02 -0.11825168794E+03  0.18085907454E+04  0.18150720905E+04  0.25500000920E-02 0.  1.
       -2    1    3    3    0  502 -0.97482037664E+02  0.11825168794E+03 -0.98240373242E+01  0.15356666658E+03  0.25500000920E-02 0. -1.
</event>
<event>
 5   0  0.6801147E-04  0.7999304E+03  0.7818609E-02  0.9560118E-01
       -2   -1    0    0    0  501  0.00000000000E+00  0.00000000000E+00  0.12129961916E+03  0.12129961918E+03  0.25500000920E-02 0. -1.
        2   -1    0    0  501    0  0.00000000000E+00  0.00000000000E+00 -0.13188183262E+04  0.13188183262E+04  0.25500000920E-02 0.  1.
    10030    2    1    2    0    0  0.00000000000E+00  0.00000000000E+00 -0.11975187070E+04  0.14401179453E+04  0.79993039878E+03 0.  0.
        4    1    3    3  502    0  0.27876328096E+02  0.26373636568E+02  0.11797397996E+03  0.12406502820E+03  0.12699999809E+01 0. -1.
       -4    1    3    3    0  502 -0.27876328096E+02 -0.26373636568E+02 -0.13154926870E+04  0.13160529171E+04  0.12699999809E+01 0.  1.
</event>
<event>
 5   0  0.4086111E-04  0.7997873E+03  0.7818609E-02  0.9560325E-01
        1   -1    0    0  501    0  0.00000000000E+00  0.00000000000E+00  0.61551670863E+03  0.61551670865E+03  0.50400001928E-02 0. -1.
       -1   -1    0    0    0  501  0.00000000000E+00  0.00000000000E+00 -0.25980601122E+03  0.25980601127E+03  0.50400001928E-02 0.  1.
    10030    2    1    2    0    0  0.00000000000E+00  0.00000000000E+00  0.35571069741E+03  0.87532271992E+03  0.79978732408E+03 0.  0.
        3    1    3    3  502    0 -0.26025571644E+03 -0.29934941981E+03  0.23335800541E+03  0.46021634257E+03  0.10100000352E+00 0. -1.
       -3    1    3    3    0  502  0.26025571644E+03  0.29934941981E+03  0.12235269200E+03  0.41510637735E+03  0.10100000352E+00 0.  1.
</event>
<event>
 5   0  0.7133039E-04  0.8001077E+03  0.7818609E-02  0.9559861E-01
        2   -1    0    0  501    0  0.00000000000E+00  0.00000000000E+00  0.31812807475E+03  0.31812807476E+03  0.25500000920E-02 0.  1.
       -2   -1    0    0    0  501  0.00000000000E+00  0.00000000000E+00 -0.50307752382E+03  0.50307752383E+03  0.25500000920E-02 0. -1.
    10030    2    1    2    0    0  0.00000000000E+00  0.00000000000E+00 -0.18494944907E+03  0.82120559858E+03  0.80010770302E+03 0.  0.
        2    1    3    3  502    0 -0.10670064474E+03  0.21741385685E+03  0.23433837127E+03  0.33699893916E+03  0.25500000920E-02 0.  1.
       -2    1    3    3    0  502  0.10670064474E+03 -0.21741385685E+03 -0.41928782034E+03  0.48420665942E+03  0.25500000920E-02 0. -1.
</event>
<event>
 5   0  0.4392552E-04  0.8002676E+03  0.7818609E-02  0.9559630E-01
       -1   -1    0    0    0  501  0.00000000000E+00  0.00000000000E+00  0.73355429057E+03  0.73355429058E+03  0.50400001928E-02 0. -1.
        1   -1    0    0  501    0  0.00000000000E+00  0.00000000000E+00 -0.21826205223E+03  0.21826205229E+03  0.50400001928E-02 0.  1.
    10030    2    1    2    0    0  0.00000000000E+00  0.00000000000E+00  0.51529223834E+03  0.95181634287E+03  0.80026761753E+03 0.  0.
        5    1    3    3  502    0 -0.10225862000E+03  0.22327964893E+03  0.63333415333E+03  0.67929733311E+03  0.46999998093E+01 0. -1.
       -5    1    3    3    0  502  0.10225862000E+03 -0.22327964893E+03 -0.11804191499E+03  0.27251900977E+03  0.46999998093E+01 0.  1.
</event>
<event>
 5   0  0.2736375E-04  0.8012594E+03  0.7818609E-02  0.9558196E-01
        3   -1    0    0  501    0  0.00000000000E+00  0.00000000000E+00  0.23292180540E+03  0.23292182730E+03  0.10100000352E+00 0. -1.
       -3   -1    0    0    0  501  0.00000000000E+00  0.00000000000E+00 -0.68909032570E+03  0.68909033310E+03  0.10100000352E+00 0.  1.
    10030    2    1    2    0    0  0.00000000000E+00  0.00000000000E+00 -0.45616852030E+03  0.92201216039E+03  0.80125944924E+03 0.  0.
        2    1    3    3  502    0  0.21685046056E+03 -0.52442943741E+02 -0.61099339410E+03  0.65045162175E+03  0.25500000920E-02 0.  1.
       -2    1    3    3    0  502 -0.21685046056E+03  0.52442943741E+02  0.15482487381E+03  0.27156053864E+03  0.25500000920E-02 0. -1.
</event>
<event>
 5   0  0.4169155E-04  0.8002753E+03  0.7818609E-02  0.9559619E-01
        1   -1    0    0  501    0  0.00000000000E+00  0.00000000000E+00  0.74943440337E+03  0.74943440338E+03  0.50400001928E-02 0. -1.
       -1   -1    0    0    0  501  0.00000000000E+00  0.00000000000E+00 -0.21364127949E+03  0.21364127955E+03  0.50400001928E-02 0.  1.
    10030    2    1    2    0    0  0.00000000000E+00  0.00000000000E+00  0.53579312387E+03  0.96307568293E+03  0.80027526481E+03 0.  0.
        4    1    3    3  502    0 -0.36075009328E+03 -0.17212591972E+03  0.24568846116E+03  0.46918268818E+03  0.12699999809E+01 0. -1.
       -4    1    3    3    0  502  0.36075009328E+03  0.17212591972E+03  0.29010466272E+03  0.49389299476E+03  0.12699999809E+01 0.  1.
</event>
<event>
 5   0  0.4104786E-04  0.7999412E+03  0.7818609E-02  0.9560102E-01
        1   -1    0    0  501    0  0.00000000000E+00  0.00000000000E+00  0.23024611095E+03  0.23024611100E+03  0.50400001928E-02 0. -1.
       -1   -1    0    0    0  501  0.00000000000E+00  0.00000000000E+00 -0.69480638292E+03  0.69480638294E+03  0.50400001928E-02 0.  1.
    10030    2    1    2    0    0  0.00000000000E+00  0.00000000000E+00 -0.46456027198E+03  0.92505249394E+03  0.79994116674E+03 0.  0.
        2    1    3    3  502    0 -0.35902523216E+03 -0.76821923911E+02 -0.48795597899E+02  0.37038052824E+03  0.25500000920E-02 0. -1.
       -2    1    3    3    0  502  0.35902523216E+03  0.76821923911E+02 -0.41576467408E+03  0.55467196570E+03  0.25500000920E-02 0.  1.
</event>
<event>
 5   0  0.4392552E-04  0.8005646E+03  0.7818609E-02  0.9559200E-01
       -1   -1    0    0    0  501  0.00000000000E+00  0.00000000000E+00  0.23871675271E+03  0.23871675276E+03  0.50400001928E-02 0. -1.
        1   -1    0    0  501    0  0.00000000000E+00  0.00000000000E+00 -0.67119682962E+03  0.67119682964E+03  0.50400001928E-02 0.  1.
    10030    2    1    2    0    0  0.00000000000E+00  0.00000000000E+00 -0.43248007692E+03  0.90991358240E+03  0.80056461982E+03 0.  0.
        5    1    3    3  502    0  0.18655081114E+03  0.33463975612E+03 -0.84577669546E+02  0.39237793477E+03  0.46999998093E+01 0. -1.
       -5    1    3    3    0  502 -0.18655081114E+03 -0.33463975612E+03 -0.34790240737E+03  0.51753564763E+03  0.46999998093E+01 0.  1.
</event>
<event>
 5   0  0.4087283E-04  0.8008369E+03  0.7818609E-02  0.9558807E-01
        1   -1    0    0  501    0  0.00000000000E+00  0.00000000000E+00  0.44054905313E+03  0.44054905316E+03  0.50400001928E-02 0.  1.
       -1   -1    0    0    0  501  0.00000000000E+00  0.00000000000E+00 -0.36394341610E+03  0.36394341613E+03  0.50400001928E-02 0. -1.
    10030    2    1    2    0    0  0.00000000000E+00  0.00000000000E+00  0.76605637030E+02  0.80449246929E+03  0.80083688072E+03 0.  0.
        1    1    3    3  502    0  0.12946602136E+03  0.13911831422E+03  0.39235961114E+03  0.43596034283E+03  0.50400001928E-02 0.  1.
       -1    1    3    3    0  502 -0.12946602136E+03 -0.13911831422E+03 -0.31575397411E+03  0.36853212646E+03  0.50400001928E-02 0. -1.
</event>
<event>
 5   0  0.6970013E-04  0.8002762E+03  0.7818609E-02  0.9559617E-01
       -2   -1    0    0    0  501  0.00000000000E+00  0.00000000000E+00  0.26629174286E+03  0.26629174287E+03  0.25500000920E-02 0.  1.
        2   -1    0    0  501    0  0.00000000000E+00  0.00000000000E+00 -0.60125975633E+03  0.60125975634E+03  0.25500000920E-02 0. -1.
    10030    2    1    2    0    0  0.00000000000E+00  0.00000000000E+00 -0.33496801348E+03  0.86755149921E+03  0.80027622339E+03 0.  0.
        3    1    3    3  502    0 -0.10503572446E+03 -0.10386293963E+03  0.23565191672E+03  0.27812200505E+03  0.10100000352E+00 0.  1.
       -3    1    3    3    0  502  0.10503572446E+03  0.10386293963E+03 -0.57061993019E+03  0.58942949415E+03  0.10100000352E+00 0. -1.
</event>
<event>
 5   0  0.6970013E-04  0.8002374E+03  0.7818609E-02  0.9559673E-01
        2   -1    0    0  501    0  0.00000000000E+00  0.00000000000E+00  0.36656576802E+03  0.36656576803E+03  0.25500000920E-02 0.  1.
       -2   -1    0    0    0  501  0.00000000000E+00  0.00000000000E+00 -0.43674287802E+03  0.43674287803E+03  0.25500000920E-02 0. -1.
    10030    2    1    2    0    0  0.00000000000E+00  0.00000000000E+00 -0.70177110003E+02  0.80330864605E+03  0.80023743605E+03 0.  0.
        3    1    3    3  502    0  0.27875825809E+03  0.26491930132E+03  0.75818838907E+02  0.39196544389E+03  0.10100000352E+00 0. -1.
       -3    1    3    3    0  502 -0.27875825809E+03 -0.26491930132E+03 -0.14599594891E+03  0.41134320216E+03  0.10100000352E+00 0.  1.
</event>
<event>
 5   0  0.4392552E-04  0.7997702E+03  0.7818609E-02  0.9560350E-01
        1   -1    0    0  501    0  0.00000000000E+00  0.00000000000E+00  0.10000816484E+04  0.10000816484E+04  0.50400001928E-02 0. -1.
       -1   -1    0    0    0  501  0.00000000000E+00  0.00000000000E+00 -0.15989504369E+03  0.15989504377E+03  0.50400001928E-02 0.  1.
    10030    2    1    2    0    0  0.00000000000E+00  0.00000000000E+00  0.84018660474E+03  0.11599766922E+04  0.79977021431E+03 0.  0.
        5    1    3    3  502    0  0.74547024314E+02 -0.28841171933E+03  0.80696204897E+03  0.86020254426E+03  0.46999998093E+01 0. -1.
       -5    1    3    3    0  502 -0.74547024314E+02  0.28841171933E+03  0.33224555769E+02  0.29977414796E+03  0.46999998093E+01 0.  1.
</event>
<event>
 5   0  0.4087283E-04  0.8001213E+03  0.7818609E-02  0.9559841E-01
        1   -1    0    0  501    0  0.00000000000E+00  0.00000000000E+00  0.22039048679E+03  0.22039048684E+03  0.50400001928E-02 0. -1.
       -1   -1    0    0    0  501  0.00000000000E+00  0.00000000000E+00 -0.72620438722E+03  0.72620438723E+03  0.50400001928E-02 0.  1.
    10030    2    1    2    0    0  0.00000000000E+00  0.00000000000E+00 -0.50581390043E+03  0.94659487408E+03  0.80012133690E+03 0.  0.
        1    1    3    3  502    0  0.15433628513E+02 -0.25562260688E+03  0.11071436537E+03  0.27899603001E+03  0.50400001928E-02 0. -1.
       -1    1    3    3    0  502 -0.15433628513E+02  0.25562260688E+03 -0.61652826580E+03  0.66759884406E+03  0.50400001928E-02 0.  1.
</event>
<event>
 5   0  0.4086111E-04  0.7997314E+03  0.7818609E-02  0.9560406E-01
       -1   -1    0    0    0  501  0.00000000000E+00  0.00000000000E+00  0.35926085979E+03  0.35926085982E+03  0.50400001928E-02 0.  1.
        1   -1    0    0  501    0  0.00000000000E+00  0.00000000000E+00 -0.44505983484E+03  0.44505983487E+03  0.50400001928E-02 0. -1.
    10030    2    1    2    0    0  0.00000000000E+00  0.00000000000E+00 -0.85798975057E+02  0.80432069470E+03  0.79973140228E+03 0.  0.
        3    1    3    3  502    0 -0.10446818217E+03 -0.30231892167E+03 -0.28423951673E+03  0.42790471434E+03  0.10100000352E+00 0. -1.
       -3    1    3    3    0  502  0.10446818217E+03  0.30231892167E+03  0.19844054168E+03  0.37641598035E+03  0.10100000352E+00 0.  1.
</event>
<event>
 5   0  0.7133039E-04  0.7997938E+03  0.7818609E-02  0.9560316E-01
        2   -1    0    0  501    0  0.00000000000E+00  0.00000000000E+00  0.17094323847E+03  0.17094323849E+03  0.25500000920E-02 0.  1.
       -2   -1    0    0    0  501  0.00000000000E+00  0.00000000000E+00 -0.93550071642E+03  0.93550071642E+03  0.25500000920E-02 0. -1.
    10030    2    1    2    0    0  0.00000000000E+00  0.00000000000E+00 -0.76455747795E+03  0.11064439549E+04  0.79979377860E+03 0.  0.
        2    1    3    3  502    0 -0.24185875525E+03 -0.11003522791E+03  0.31160263402E+02  0.26753386869E+03  0.25500000920E-02 0.  1.
       -2    1    3    3    0  502  0.24185875525E+03  0.11003522791E+03 -0.79571774135E+03  0.83891008623E+03  0.25500000920E-02 0. -1.
</event>
<event>
 5   0  0.7133039E-04  0.7999940E+03  0.7818609E-02  0.9560026E-01
       -2   -1    0    0    0  501  0.00000000000E+00  0.00000000000E+00  0.38617160805E+03  0.38617160805E+03  0.25500000920E-02 0. -1.
        2   -1    0    0  501    0  0.00000000000E+00  0.00000000000E+00 -0.41431736123E+03  0.41431736123E+03  0.25500000920E-02 0.  1.
    10030    2    1    2    0    0  0.00000000000E+00  0.00000000000E+00 -0.28145753179E+02  0.80048896929E+03  0.79999400406E+03 0.  0.
        2    1    3    3  502    0 -0.33643122936E+03 -0.17886748184E+03  0.10773186610E+03  0.39596174452E+03  0.25500000920E-02 0. -1.
       -2    1    3    3    0  502  0.33643122936E+03  0.17886748184E+03 -0.13587761928E+03  0.40452722476E+03  0.25500000920E-02 0.  1.
</event>
<event>
 5   0  0.4169155E-04  0.7993362E+03  0.7818609E-02  0.9560978E-01
       -1   -1    0    0    0  501  0.00000000000E+00  0.00000000000E+00  0.22099545497E+03  0.22099545503E+03  0.50400001928E-02 0. -1.
        1   -1    0    0  501    0  0.00000000000E+00  0.00000000000E+00 -0.72279579797E+03  0.72279579799E+03  0.50400001928E-02 0.  1.
    10030    2    1    2    0    0  0.00000000000E+00  0.00000000000E+00 -0.50180034300E+03  0.94379125302E+03  0.79933619024E+03 0.  0.
        4    1    3    3  502    0 -0.96413808745E+02  0.27101001385E+03 -0.57851702542E+03  0.64608483322E+03  0.12699999809E+01 0.  1.
       -4    1    3    3    0  502  0.96413808745E+02 -0.27101001385E+03  0.76716682413E+02  0.29770641979E+03  0.12699999809E+01 0. -1.
</event>
<event>
 5   0  0.6593118E-04  0.8000520E+03  0.7818609E-02  0.9559942E-01
        2   -1    0    0  501    0  0.00000000000E+00  0.00000000000E+00  0.16068294323E+04  0.16068294323E+04  0.25500000920E-02 0. -1.
       -2   -1    0    0    0  501  0.00000000000E+00  0.00000000000E+00 -0.99587910976E+02  0.99587911008E+02  0.25500000920E-02 0.  1.
    10030    2    1    2    0    0  0.00000000000E+00  0.00000000000E+00  0.15072415213E+04  0.17064173433E+04  0.80005196452E+03 0.  0.
        1    1    3    3  502    0 -0.11941608438E+03 -0.23865590208E+03  0.11802178054E+03  0.29179784358E+03  0.50400001928E-02 0.  1.
       -1    1    3    3    0  502  0.11941608438E+03  0.23865590208E+03  0.13892197407E+04  0.14146194997E+04  0.50400001928E-02 0. -1.
</event>
<event>
 5   0  0.4392552E-04  0.7998936E+03  0.7818609E-02  0.9560171E-01
       -1   -1    0    0    0  501  0.00000000000E+00  0.00000000000E+00  0.36324924726E+03  0.36324924729E+03  0.50400001928E-02 0.  1.
        1   -1    0    0  501    0  0.00000000000E+00  0.00000000000E+00 -0.44035179079E+03  0.44035179082E+03  0.50400001928E-02 0. -1.
    10030    2    1    2    0    0  0.00000000000E+00  0.00000000000E+00 -0.77102543533E+02  0.80360103811E+03  0.79989363432E+03 0.  0.
        5    1    3    3  502    0 -0.31630736343E+03 -0.99568791846E+02 -0.26312946868E+03  0.42334796534E+03  0.46999998093E+01 0. -1.
       -5    1    3    3    0  502  0.31630736343E+03  0.99568791846E+02  0.18602692515E+03  0.38025307277E+03  0.46999998093E+01 0.  1.
</event>
<event>
 5   0  0.6672462E-04  0.8005466E+03  0.7818609E-02  0.9559226E-01
        2   -1    0    0  501    0  0.00000000000E+00  0.00000000000E+00  0.41000446477E+03  0.41000446477E+03  0.25500000920E-02 0.  1.
       -2   -1    0    0    0  501  0.00000000000E+00  0.00000000000E+00 -0.39077314289E+03  0.39077314290E+03  0.25500000920E-02 0. -1.
    10030    2    1    2    0    0  0.00000000000E+00  0.00000000000E+00  0.19231321874E+02  0.80077760767E+03  0.80054664649E+03 0.  0.
        5    1    3    3  502    0  0.12427206055E+03  0.37842226882E+03 -0.29761731532E+02  0.39944312391E+03  0.46999998093E+01 0.  1.
       -5    1    3    3    0  502 -0.12427206055E+03 -0.37842226882E+03  0.48993053407E+02  0.40133448376E+03  0.46999998093E+01 0. -1.
</event>
<event>
 5   0  0.6672462E-04  0.7996839E+03  0.7818609E-02  0.9560475E-01
        2   -1    0    0  501    0  0.00000000000E+00  0.00000000000E+00  0.66449729237E+03  0.66449729238E+03  0.25500000920E-02 0.  1.
       -2   -1    0    0    0  501  0.00000000000E+00  0.00000000000E+00 -0.24059328285E+03  0.24059328287E+03  0.25500000920E-02 0. -1.
    10030    2    1    2    0    0  0.00000000000E+00  0.00000000000E+00  0.42390400952E+03  0.90509057524E+03  0.79968390012E+03 0.  0.
        5    1    3    3  502    0 -0.33075103592E+03  0.58407698528E+02  0.45743693235E+03  0.56751946582E+03  0.46999998093E+01 0.  1.
       -5    1    3    3    0  502  0.33075103592E+03 -0.58407698528E+02 -0.33532922825E+02  0.33757110943E+03  0.46999998093E+01 0. -1.
</event>
<event>
 5   0  0.2736375E-04  0.8003099E+03  0.7818609E-02  0.9559569E-01
       -3   -1    0    0    0  501  0.00000000000E+00  0.00000000000E+00  0.11255287809E+03  0.11255292340E+03  0.10100000352E+00 0.  1.
        3   -1    0    0  501    0  0.00000000000E+00  0.00000000000E+00 -0.14226553606E+04  0.14226553642E+04  0.10100000352E+00 0. -1.
    10030    2    1    2    0    0  0.00000000000E+00  0.00000000000E+00 -0.13101024825E+04  0.15352082876E+04  0.80030992221E+03 0.  0.
        3    1    3    3  502    0 -0.21402372369E+03 -0.33652248119E+03 -0.71781253723E+03  0.82116282395E+03  0.10100000352E+00 0. -1.
       -3    1    3    3    0  502  0.21402372369E+03  0.33652248119E+03 -0.59228994527E+03  0.71404546362E+03  0.10100000352E+00 0.  1.
</event>
<event>
 5   0  0.7133039E-04  0.8018201E+03  0.7818609E-02  0.9557386E-01
       -2   -1    0    0    0  501  0.00000000000E+00  0.00000000000E+00  0.22355429062E+03  0.22355429064E+03  0.25500000920E-02 0.  1.
        2   -1    0    0  501    0  0.00000000000E+00  0.00000000000E+00 -0.71897015821E+03  0.71897015821E+03  0.25500000920E-02 0. -1.
    10030    2    1    2    0    0  0.00000000000E+00  0.00000000000E+00 -0.49541586759E+03  0.94252444885E+03  0.80182008881E+03 0.  0.
        2    1    3    3  502    0 -0.14624467297E+03  0.37122643977E+03 -0.20169434167E+03  0.44707625908E+03  0.25500000920E-02 0.  1.
       -2    1    3    3    0  502  0.14624467297E+03 -0.37122643977E+03 -0.29372152591E+03  0.49544818978E+03  0.25500000920E-02 0. -1.
</event>
<event>
 5   0  0.4392552E-04  0.7999197E+03  0.7818609E-02  0.9560133E-01
        1   -1    0    0  501    0  0.00000000000E+00  0.00000000000E+00  0.34487267842E+03  0.34487267846E+03  0.50400001928E-02 0.  1.
       -1   -1    0    0    0  501  0.00000000000E+00  0.00000000000E+00 -0.46384615160E+03  0.46384615163E+03  0.50400001928E-02 0. -1.
    10030    2    1    2    0    0  0.00000000000E+00  0.00000000000E+00 -0.11897347318E+03  0.80871883008E+03  0.79991965772E+03 0.  0.
        5    1    3    3  502    0 -0.27357517568E+03 -0.28538735890E+03  0.16470368824E+01  0.39536581048E+03  0.46999998093E+01 0. -1.
       -5    1    3    3    0  502  0.27357517568E+03  0.28538735890E+03 -0.12062051006E+03  0.41335301960E+03  0.46999998093E+01 0.  1.
</event>
<event>
 5   0  0.6970013E-04  0.8010243E+03  0.7818609E-02  0.9558536E-01
        2   -1    0    0  501    0  0.00000000000E+00  0.00000000000E+00  0.18838951671E+04  0.18838951671E+04  0.25500000920E-02 0.  1.
       -2   -1    0    0    0  501  0.00000000000E+00  0.00000000000E+00 -0.85148032981E+02  0.85148033019E+02  0.25500000920E-02 0. -1.
    10030    2    1    2    0    0  0.00000000000E+00  0.00000000000E+00  0.17987471342E+04  0.19690432002E+04  0.80102426396E+03 0.  0.
        3    1    3    3  502    0  0.39187182818E+02  0.31362655429E+03  0.29468346078E+03  0.43212915096E+03  0.10100000352E+00 0. -1.
       -3    1    3    3    0  502 -0.39187182818E+02 -0.31362655429E+03  0.15040636734E+04  0.15369140492E+04  0.10100000352E+00 0.  1.
</event>
<event>
 5   0  0.4086111E-04  0.8000177E+03  0.7818609E-02  0.9559992E-01
        1   -1    0    0  501    0  0.00000000000E+00  0.00000000000E+00  0.88596030879E+03  0.88596030880E+03  0.50400001928E-02 0.  1.
       -1   -1    0    0    0  501  0.00000000000E+00  0.00000000000E+00 -0.18060297061E+03  0.18060297068E+03  0.50400001928E-02 0. -1.
    10030    2    1    2    0    0  0.00000000000E+00  0.00000000000E+00  0.70535733818E+03  0.10665632795E+04  0.80001765893E+03 0.  0.
        3    1    3    3  502    0  0.30525243322E+03  0.10176129463E+03  0.66949394673E+03  0.74280317984E+03  0.10100000352E+00 0.  1.
       -3    1    3    3    0  502 -0.30525243322E+03 -0.10176129463E+03  0.35863391450E+02  0.32376009964E+03  0.10100000352E+00 0. -1.
</event>
<event>
 5   0  0.6801147E-04  0.8000704E+03  0.7818609E-02  0.9559915E-01
        2   -1    0    0  501    0  0.00000000000E+00  0.00000000000E+00  0.88804681734E+03  0.88804681734E+03  0.25500000920E-02 0. -1.
       -2   -1    0    0    0  501  0.00000000000E+00  0.00000000000E+00 -0.18020237470E+03  0.18020237472E+03  0.25500000920E-02 0.  1.
    10030    2    1    2    0    0  0.00000000000E+00  0.00000000000E+00  0.70784444264E+03  0.10682491921E+04  0.80007036026E+03 0.  0.
        4    1    3    3  502    0  0.18733732732E+03  0.25306538603E+03  0.68339111191E+03  0.75243763100E+03  0.12699999809E+01 0. -1.
       -4    1    3    3    0  502 -0.18733732732E+03 -0.25306538603E+03  0.24453330726E+02  0.31581156105E+03  0.12699999809E+01 0.  1.
</event>
<event>
 5   0  0.4104786E-04  0.7997527E+03  0.7818609E-02  0.9560375E-01
       -1   -1    0    0    0  501  0.00000000000E+00  0.00000000000E+00  0.12997989918E+03  0.12997989928E+03  0.50400001928E-02 0. -1.
        1   -1    0    0  501    0  0.00000000000E+00  0.00000000000E+00 -0.12301985263E+04  0.12301985263E+04  0.50400001928E-02 0.  1.
    10030    2    1    2    0    0  0.00000000000E+00  0.00000000000E+00 -0.11002186271E+04  0.13601784256E+04  0.79975266299E+03 0.  0.
        2    1    3    3  502    0 -0.19882816442E+03 -0.15963696238E+03 -0.10739965070E+04  0.11038501237E+04  0.25500000920E-02 0.  1.
       -2    1    3    3    0  502  0.19882816442E+03  0.15963696238E+03 -0.26222120141E+02  0.25632830182E+03  0.25500000920E-02 0. -1.
</event>
<event>
 5   0  0.4087283E-04  0.7999987E+03  0.7818609E-02  0.9560019E-01
       -1   -1    0    0    0  501  0.00000000000E+00  0.00000000000E+00  0.20427450095E+03  0.20427450102E+03  0.50400001928E-02 0.  1.
        1   -1    0    0  501    0  0.00000000000E+00  0.00000000000E+00 -0.78325727788E+03  0.78325727789E+03  0.50400001928E-02 0. -1.
    10030    2    1    2    0    0  0.00000000000E+00  0.00000000000E+00 -0.57898277692E+03  0.98753177891E+03  0.79999872399E+03 0.  0.
        1    1    3    3  502    0  0.22755679936E+03 -0.30751609265E+03 -0.43371883766E+03  0.57832540524E+03  0.50400001928E-02 0. -1.
       -1    1    3    3    0  502 -0.22755679936E+03  0.30751609265E+03 -0.14526393926E+03  0.40920637367E+03  0.50400001928E-02 0.  1.
</event>
<event>
 5   0  0.6672462E-04  0.8000724E+03  0.7818609E-02  0.9559912E-01
        2   -1    0    0  501    0  0.00000000000E+00  0.00000000000E+00  0.18257182409E+04  0.18257182409E+04  0.25500000920E-02 0. -1.
       -2   -1    0    0    0  501  0.00000000000E+00  0.00000000000E+00 -0.87652601938E+02  0.87652601975E+02  0.25500000920E-02 0.  1.
    10030    2    1    2    0    0  0.00000000000E+00  0.00000000000E+00  0.17380656390E+04  0.19133708429E+04  0.80007238237E+03 0.  0.
        5    1    3    3  502    0  0.88283723506E+02  0.34035890588E+03  0.41296067902E+03  0.54239912708E+03  0.46999998093E+01 0.  1.
       -5    1    3    3    0  502 -0.88283723506E+02 -0.34035890588E+03  0.13251049600E+04  0.13709717158E+04  0.46999998093E+01 0. -1.
</event>
<event>
 5   0  0.4392552E-04  0.8000700E+03  0.7818609E-02  0.9559916E-01
       -1   -1    0    0    0  501  0.00000000000E+00  0.00000000000E+00  0.20024838392E+03  0.20024838398E+03  0.50400001928E-02 0. -1.
        1   -1    0    0  501    0  0.00000000000E+00  0.00000000000E+00 -0.79914761548E+03  0.79914761549E+03  0.50400001928E-02 0.  1.
    10030    2    1    2    0    0  0.00000000000E+00  0.00000000000E+00 -0.59889923156E+03  0.99939599948E+03  0.80007004332E+03 0.  0.
        5    1    3    3  502    0  0.39422855015E+03  0.56936886701E+02 -0.34531126486E+03  0.52718110594E+03  0.46999998093E+01 0. -1.
       -5    1    3    3    0  502 -0.39422855015E+03 -0.56936886701E+02 -0.25358796669E+03  0.47221489353E+03  0.46999998093E+01 0.  1.
</event>
<event>
 5   0  0.6970013E-04  0.8000684E+03  0.7818609E-02  0.9559918E-01
       -2   -1    0    0    0  501  0.00000000000E+00  0.00000000000E+00  0.21860095351E+03  0.21860095352E+03  0.25500000920E-02 0. -1.
        2   -1    0    0  501    0  0.00000000000E+00  0.00000000000E+00 -0.73205245521E+03  0.73205245521E+03  0.25500000920E-02 0.  1.
    10030    2    1    2    0    0  0.00000000000E+00  0.00000000000E+00 -0.51345150170E+03  0.95065340874E+03  0.80006840892E+03 0.  0.
        3    1    3    3  502    0 -0.11300139310E+03  0.47105034170E+01  0.19920813666E+03  0.22907508725E+03  0.10100000352E+00 0. -1.
       -3    1    3    3    0  502  0.11300139310E+03 -0.47105034170E+01 -0.71265963836E+03  0.72157832149E+03  0.10100000352E+00 0.  1.
</event>
<event>
 5   0  0.6593118E-04  0.7998714E+03  0.7818609E-02  0.9560203E-01
        2   -1    0    0  501    0  0.00000000000E+00  0.00000000000E+00  0.37456365876E+03  0.37456365877E+03  0.25500000920E-02 0. -1.
       -2   -1    0    0    0  501  0.00000000000E+00  0.00000000000E+00 -0.42702638132E+03  0.42702638133E+03  0.25500000920E-02 0.  1.
    10030    2    1    2    0    0  0.00000000000E+00  0.00000000000E+00 -0.52462722560E+02  0.80159004010E+03  0.79987139912E+03 0.  0.
        1    1    3    3  502    0  0.22375361092E+03 -0.11155909051E+03  0.28658906937E+03  0.38032144797E+03  0.50400001928E-02 0. -1.
       -1    1    3    3    0  502 -0.22375361092E+03  0.11155909051E+03 -0.33905179193E+03  0.42126859213E+03  0.50400001928E-02 0.  1.
</event>
<event>
 5   0  0.4104786E-04  0.8016463E+03  0.7818609E-02  0.9557637E-01
       -1   -1    0    0    0  501  0.00000000000E+00  0.00000000000E+00  0.90064769282E+03  0.90064769284E+03  0.50400001928E-02 0.  1.
        1   -1    0    0  501    0  0.00000000000E+00  0.00000000000E+00 -0.17838184028E+03  0.17838184035E+03  0.50400001928E-02 0. -1.
    10030    2    1    2    0    0  0.00000000000E+00  0.00000000000E+00  0.72226585254E+03  0.10790295332E+04  0.80164628843E+03 0.  0.
        2    1    3    3  502    0  0.23092540372E+03  0.29826864431E+03  0.54355903634E+03  0.66162463094E+03  0.25500000920E-02 0.  1.
       -2    1    3    3    0  502 -0.23092540372E+03 -0.29826864431E+03  0.17870681620E+03  0.41740490226E+03  0.25500000920E-02 0. -1.
</event>
<event>
 5   0  0.2736375E-04  0.7997427E+03  0.7818609E-02  0.9560390E-01
        4   -1    0    0  501    0  0.00000000000E+00  0.00000000000E+00  0.47914800595E+03  0.47914968904E+03  0.12699999809E+01 0.  1.
       -4   -1    0    0    0  501  0.00000000000E+00  0.00000000000E+00 -0.33370780839E+03  0.33371022502E+03  0.12699999809E+01 0. -1.
    10030    2    1    2    0    0  0.00000000000E+00  0.00000000000E+00  0.14544019756E+03  0.81285991406E+03  0.79974270163E+03 0.  0.
        5    1    3    3  502    0 -0.24353747046E+03  0.88455534267E+02 -0.23680741738E+03  0.35104803658E+03  0.46999998093E+01 0. -1.
       -5    1    3    3    0  502  0.24353747046E+03 -0.88455534267E+02  0.38224761494E+03  0.46181187748E+03  0.46999998093E+01 0.  1.
</event>
<event>
 5   0  0.6970013E-04  0.7995721E+03  0.7818609E-02  0.9560637E-01
       -2   -1    0    0    0  501  0.00000000000E+00  0.00000000000E+00  0.28776678549E+03  0.28776678551E+03  0.25500000920E-02 0.  1.
        2   -1    0    0  501    0  0.00000000000E+00  0.00000000000E+00 -0.55541122978E+03  0.55541122978E+03  0.25500000920E-02 0. -1.
    10030    2    1    2    0    0  0.00000000000E+00  0.00000000000E+00 -0.26764444428E+03  0.84317801529E+03  0.79957214616E+03 0.  0.
        3    1    3    3  502    0  0.55659134988E+02 -0.33497360026E+03  0.88691581721E+02  0.35095791634E+03  0.10100000352E+00 0. -1.
       -3    1    3    3    0  502 -0.55659134988E+02  0.33497360026E+03 -0.35633602600E+03  0.49222009894E+03  0.10100000352E+00 0.  1.
</event>
<event>
 5   0  0.6970013E-04  0.7993621E+03  0.7818609E-02  0.9560941E-01
       -2   -1    0    0    0  501  0.00000000000E+00  0.00000000000E+00  0.16585254501E+03  0.16585254503E+03  0.25500000920E-02 0. -1.
        2   -1    0    0  501    0  0.00000000000E+00  0.00000000000E+00 -0.96317459627E+03  0.96317459628E+03  0.25500000920E-02 0.  1.
    10030    2    1    2    0    0  0.00000000000E+00  0.00000000000E+00 -0.79732205126E+03  0.11290271413E+04  0.79936214095E+03 0.  0.
        3    1    3    3  502    0  0.18424155777E+03  0.80572616894E+02  0.89199500674E+02  0.21998513433E+03  0.10100000352E+00 0. -1.
       -3    1    3    3    0  502 -0.18424155777E+03 -0.80572616894E+02 -0.88652155194E+03  0.90904200698E+03  0.10100000352E+00 0.  1.
</event>
<event>
 5   0  0.4169155E-04  0.8000382E+03  0.7818609E-02  0.9559962E-01
       -1   -1    0    0    0  501  0.00000000000E+00  0.00000000000E+00  0.12645250161E+03  0.12645250171E+03  0.50400001928E-02 0.  1.
        1   -1    0    0  501    0  0.00000000000E+00  0.00000000000E+00 -0.12654179644E+04  0.12654179644E+04  0.50400001928E-02 0. -1.
    10030    2    1    2    0    0  0.00000000000E+00  0.00000000000E+00 -0.11389654628E+04  0.13918704661E+04  0.80003816723E+03 0.  0.
        4    1    3    3  502    0 -0.10424411662E+03  0.30294835363E+03 -0.15277919797E+03  0.35494737223E+03  0.12699999809E+01 0.  1.
       -4    1    3    3    0  502  0.10424411662E+03 -0.30294835363E+03 -0.98618626483E+03  0.10369230939E+04  0.12699999809E+01 0. -1.
</event>
<event>
 5   0  0.4169155E-04  0.8000039E+03  0.7818609E-02  0.9560012E-01
       -1   -1    0    0    0  501  0.00000000000E+00  0.00000000000E+00  0.10700557654E+03  0.10700557665E+03  0.50400001928E-02 0.  1.
        1   -1    0    0  501    0  0.00000000000E+00  0.00000000000E+00 -0.14952635768E+04  0.14952635768E+04  0.50400001928E-02 0. -1.
    10030    2    1    2    0    0  0.00000000000E+00  0.00000000000E+00 -0.13882580003E+04  0.16022691535E+04  0.80000385301E+03 0.  0.
        4    1    3    3  502    0  0.34800746843E+03  0.28232493162E+02 -0.10850326488E+04  0.11398261857E+04  0.12699999809E+01 0. -1.
       -4    1    3    3    0  502 -0.34800746843E+03 -0.28232493162E+02 -0.30322535145E+03  0.46244296774E+03  0.12699999809E+01 0.  1.
</event>
<event>
 5   0  0.4087283E-04  0.8002292E+03  0.7818609E-02  0.9559685E-01
        1   -1    0    0  501    0  0.00000000000E+00  0.00000000000E+00  0.91705742416E+03  0.91705742417E+03  0.50400001928E-02 0.  1.
       -1   -1    0    0    0  501  0.00000000000E+00  0.00000000000E+00 -0.17457106319E+03  0.17457106326E+03  0.50400001928E-02 0. -1.
    10030    2    1    2    0    0  0.00000000000E+00  0.00000000000E+00  0.74248636097E+03  0.10916284874E+04  0.80022919114E+03 0.  0.
        1    1    3    3  502    0  0.95940372257E+02 -0.24756093954E+03  0.77957780789E+03  0.82354874318E+03  0.50400001928E-02 0.  1.
       -1    1    3    3    0  502 -0.95940372257E+02  0.24756093954E+03 -0.37091446926E+02  0.26807974425E+03  0.50400001928E-02 0. -1.
</event>
<event>
 5   0  0.4087283E-04  0.8017721E+03  0.7818609E-02  0.9557456E-01
        1   -1    0    0  501    0  0.00000000000E+00  0.00000000000E+00  0.60272787781E+03  0.60272787783E+03  0.50400001928E-02 0. -1.
       -1   -1    0    0    0  501  0.00000000000E+00  0.00000000000E+00 -0.26663713841E+03  0.26663713846E+03  0.50400001928E-02 0.  1.
    10030    2    1    2    0    0  0.00000000000E+00  0.00000000000E+00  0.33609073940E+03  0.86936501629E+03  0.80177212875E+03 0.  0.
        1    1    3    3  502    0  0.37049335349E+03  0.11220984578E+03  0.55083635610E+02  0.39101225224E+03  0.50400001928E-02 0.  1.
       -1    1    3    3    0  502 -0.37049335349E+03 -0.11220984578E+03  0.28100710378E+03  0.47835276405E+03  0.50400001928E-02 0. -1.
</event>
<event>
 5   0  0.4104786E-04  0.8000543E+03  0.7818609E-02  0.9559939E-01
       -1   -1    0    0    0  501  0.00000000000E+00  0.00000000000E+00  0.18019182912E+03  0.18019182919E+03  0.50400001928E-02 0.  1.
        1   -1    0    0  501    0  0.00000000000E+00  0.00000000000E+00 -0.88806308899E+03  0.88806308901E+03  0.50400001928E-02 0. -1.
    10030    2    1    2    0    0  0.00000000000E+00  0.00000000000E+00 -0.70787125987E+03  0.10682549182E+04  0.80005427923E+03 0.  0.
        2    1    3    3  502    0  0.77700843519E+02  0.17053141208E+03  0.11795619646E+03  0.22143181316E+03  0.25500000920E-02 0.  1.
       -2    1    3    3    0  502 -0.77700843519E+02 -0.17053141208E+03 -0.82582745633E+03  0.84682310504E+03  0.25500000920E-02 0. -1.
</event>
<event>
 5   0  0.4392552E-04  0.8000852E+03  0.7818609E-02  0.9559894E-01
        1   -1    0    0  501    0  0.00000000000E+00  0.00000000000E+00  0.85045333362E+03  0.85045333363E+03  0.50400001928E-02 0.  1.
       -1   -1    0    0    0  501  0.00000000000E+00  0.00000000000E+00 -0.18817503360E+03  0.18817503366E+03  0.50400001928E-02 0. -1.
    10030    2    1    2    0    0  0.00000000000E+00  0.00000000000E+00  0.66227830002E+03  0.10386283673E+04  0.80008520713E+03 0.  0.
        5    1    3    3  502    0  0.26470129870E+03 -0.29608063072E+03  0.39314490655E+03  0.55885197053E+03  0.46999998093E+01 0.  1.
       -5    1    3    3    0  502 -0.26470129870E+03  0.29608063072E+03  0.26913339348E+03  0.47977639677E+03  0.46999998093E+01 0. -1.
</event>
<event>
 5   0  0.2736375E-04  0.7999852E+03  0.7818609E-02  0.9560039E-01
       -3   -1    0    0    0  501  0.00000000000E+00  0.00000000000E+00  0.22327781630E+03  0.22327783914E+03  0.10100000352E+00 0. -1.
        3   -1    0    0  501    0  0.00000000000E+00  0.00000000000E+00 -0.71656946964E+03  0.71656947676E+03  0.10100000352E+00 0.  1.
    10030    2    1    2    0    0  0.00000000000E+00  0.00000000000E+00 -0.49329165334E+03  0.93984731590E+03  0.79998520109E+03 0.  0.
        3    1    3    3  502    0 -0.78520330991E+02  0.38289309127E+03 -0.14680933345E+03  0.41752311590E+03  0.10100000352E+00 0. -1.
       -3    1    3    3    0  502  0.78520330991E+02 -0.38289309127E+03 -0.34648231989E+03  0.52232420001E+03  0.10100000352E+00 0.  1.
</event>
<event>
 5   0  0.4104786E-04  0.7999450E+03  0.7818609E-02  0.9560097E-01
       -1   -1    0    0    0  501  0.00000000000E+00  0.00000000000E+00  0.85050274959E+03  0.85050274961E+03  0.50400001928E-02 0. -1.
        1   -1    0    0  501    0  0.00000000000E+00  0.00000000000E+00 -0.18809813546E+03  0.18809813553E+03  0.50400001928E-02 0.  1.
    10030    2    1    2    0    0  0.00000000000E+00  0.00000000000E+00  0.66240461413E+03  0.10386008851E+04  0.79994495172E+03 0.  0.
        2    1    3    3  502    0 -0.22114355765E+03 -0.30650293529E+03  0.16127608187E+03  0.41092395528E+03  0.25500000920E-02 0.  1.
       -2    1    3    3    0  502  0.22114355765E+03  0.30650293529E+03  0.50112853226E+03  0.62767692986E+03  0.25500000920E-02 0. -1.
</event>
<event>
 5   0  0.6593118E-04  0.8002701E+03  0.7818609E-02  0.9559626E-01
        2   -1    0    0  501    0  0.00000000000E+00  0.00000000000E+00  0.21003731948E+03  0.21003731950E+03  0.25500000920E-02 0. -1.
       -2   -1    0    0    0  501  0.00000000000E+00  0.00000000000E+00 -0.76228384548E+03  0.76228384548E+03  0.25500000920E-02 0.  1.
    10030    2    1    2    0    0  0.00000000000E+00  0.00000000000E+00 -0.55224652600E+03  0.97232116498E+03  0.80027009340E+03 0.  0.
        1    1    3    3  502    0 -0.70031706053E+02 -0.15852082331E+03  0.16207401534E+03  0.23727890287E+03  0.50400001928E-02 0. -1.
       -1    1    3    3    0  502  0.70031706053E+02  0.15852082331E+03 -0.71432054134E+03  0.73504226210E+03  0.50400001928E-02 0.  1.
</event>
<event>
 5   0  0.6593118E-04  0.7993332E+03  0.7818609E-02  0.9560983E-01
       -2   -1    0    0    0  501  0.00000000000E+00  0.00000000000E+00  0.39541806799E+03  0.39541806800E+03  0.25500000920E-02 0.  1.
        2   -1    0    0  501    0  0.00000000000E+00  0.00000000000E+00 -0.40396074565E+03  0.40396074566E+03  0.25500000920E-02 0. -1.
    10030    2    1    2    0    0  0.00000000000E+00  0.00000000000E+00 -0.85426776616E+01  0.79937881365E+03  0.79933316607E+03 0.  0.
        1    1    3    3  502    0 -0.16084517479E+03  0.36585196753E+03 -0.80853690643E+01  0.39973016601E+03  0.50400001928E-02 0. -1.
       -1    1    3    3    0  502  0.16084517479E+03 -0.36585196753E+03 -0.45730859731E+00  0.39964864764E+03  0.50400001928E-02 0.  1.
</event>
<event>
 5   0  0.7133039E-04  0.8000129E+03  0.7818609E-02  0.9559998E-01
        2   -1    0    0  501    0  0.00000000000E+00  0.00000000000E+00  0.21800968792E+04  0.21800968792E+04  0.25500000920E-02 0. -1.
       -2   -1    0    0    0  501  0.00000000000E+00  0.00000000000E+00 -0.73393601348E+02  0.73393601392E+02  0.25500000920E-02 0.  1.
    10030    2    1    2    0    0  0.00000000000E+00  0.00000000000E+00  0.21067032778E+04  0.22534904806E+04  0.80001290315E+03 0.  0.
        2    1    3    3  502    0  0.11771120278E+03  0.57357204786E+02 -0.11313721918E+02  0.13142973982E+03  0.25500000920E-02 0.  1.
       -2    1    3    3    0  502 -0.11771120278E+03 -0.57357204786E+02  0.21180169997E+04  0.21220607407E+04  0.25500000920E-02 0. -1.
</event>
<event>
 5   0  0.4104786E-04  0.7996351E+03  0.7818609E-02  0.9560545E-01
        1   -1    0    0  501    0  0.00000000000E+00  0.00000000000E+00  0.84705189516E+03  0.84705189517E+03  0.50400001928E-02 0.  1.
       -1   -1    0    0    0  501  0.00000000000E+00  0.00000000000E+00 -0.18871814398E+03  0.18871814404E+03  0.50400001928E-02 0. -1.
    10030    2    1    2    0    0  0.00000000000E+00  0.00000000000E+00  0.65833375118E+03  0.10357700392E+04  0.79963507064E+03 0.  0.
        2    1    3    3  502    0 -0.12319423819E+03 -0.28211004693E+03  0.65963724474E+03  0.72793144839E+03  0.25500000920E-02 0.  1.
       -2    1    3    3    0  502  0.12319423819E+03  0.28211004693E+03 -0.13034935602E+01  0.30783859083E+03  0.25500000920E-02 0. -1.
</event>
<event>
 5   0  0.4169155E-04  0.7992481E+03  0.7818609E-02  0.9561106E-01
        1   -1    0    0  501    0  0.00000000000E+00  0.00000000000E+00  0.29858232253E+03  0.29858232257E+03  0.50400001928E-02 0.  1.
       -1   -1    0    0    0  501  0.00000000000E+00  0.00000000000E+00 -0.53485880569E+03  0.53485880572E+03  0.50400001928E-02 0. -1.
    10030    2    1    2    0    0  0.00000000000E+00  0.00000000000E+00 -0.23627648316E+03  0.83344112829E+03  0.79924810780E+03 0.  0.
        4    1    3    3  502    0 -0.75983329334E+02  0.27459984456E+03  0.17406251016E+03  0.33388308030E+03  0.12699999809E+01 0.  1.
       -4    1    3    3    0  502  0.75983329334E+02 -0.27459984456E+03 -0.41033899332E+03  0.49955804799E+03  0.12699999809E+01 0. -1.
</event>
<event>
 5   0  0.4087283E-04  0.7998445E+03  0.7818609E-02  0.9560242E-01
        1   -1    0    0  501    0  0.00000000000E+00  0.00000000000E+00  0.12330651051E+04  0.12330651051E+04  0.50400001928E-02 0.  1.
       -1   -1    0    0    0  501  0.00000000000E+00  0.00000000000E+00 -0.12970749662E+03  0.12970749671E+03  0.50400001928E-02 0. -1.
    10030    2    1    2    0    0  0.00000000000E+00  0.00000000000E+00  0.11033576084E+04  0.13627726018E+04  0.79984445492E+03 0.  0.
        1    1    3    3  502    0 -0.16778268994E+03  0.17857801350E+03  0.10901882403E+04  0.11173860287E+04  0.50400001928E-02 0.  1.
       -1    1    3    3    0  502  0.16778268994E+03 -0.17857801350E+03  0.13169368170E+02  0.24538657305E+03  0.50400001928E-02 0. -1.
</event>
<event>
 5   0  0.4104786E-04  0.8001598E+03  0.7818609E-02  0.9559786E-01
        1   -1    0    0  501    0  0.00000000000E+00  0.00000000000E+00  0.91085211167E+03  0.91085211168E+03  0.50400001928E-02 0.  1.
       -1   -1    0    0    0  501  0.00000000000E+00  0.00000000000E+00 -0.17572985232E+03  0.17572985239E+03  0.50400001928E-02 0. -1.
    10030    2    1    2    0    0  0.00000000000E+00  0.00000000000E+00  0.73512225935E+03  0.10865819641E+04  0.80015975184E+03 0.  0.
        2    1    3    3  502    0  0.84817938554E+02  0.38901763132E+03  0.42076645528E+03  0.57928681159E+03  0.25500000920E-02 0.  1.
       -2    1    3    3    0  502 -0.84817938554E+02 -0.38901763132E+03  0.31435580407E+03  0.50729515249E+03  0.25500000920E-02 0. -1.
</event>
<event>
 5   0  0.2736375E-04  0.7987686E+03  0.7818609E-02  0.9561801E-01
       -4   -1    0    0    0  501  0.00000000000E+00  0.00000000000E+00  0.22065493929E+03  0.22065859406E+03  0.12699999809E+01 0.  1.
        4   -1    0    0  501    0  0.00000000000E+00  0.00000000000E+00 -0.72287328127E+03  0.72287439689E+03  0.12699999809E+01 0. -1.
    10030    2    1    2    0    0  0.00000000000E+00  0.00000000000E+00 -0.50221834198E+03  0.94353299095E+03  0.79876857850E+03 0.  0.
        1    1    3    3  502    0  0.85551508431E+02  0.38834216774E+03 -0.20724239965E+03  0.44841734141E+03  0.50400001928E-02 0.  1.
       -1    1    3    3    0  502 -0.85551508431E+02 -0.38834216774E+03 -0.29497594232E+03  0.49511564954E+03  0.50400001928E-02 0. -1.
</event>
<event>
 5   0  0.6970013E-04  0.8003413E+03  0.7818609E-02  0.9559523E-01
        2   -1    0    0  501    0  0.00000000000E+00  0.00000000000E+00  0.40067311769E+03  0.40067311769E+03  0.25500000920E-02 0.  1.
       -2   -1    0    0    0  501  0.00000000000E+00  0.00000000000E+00 -0.39966878081E+03  0.39966878081E+03  0.25500000920E-02 0. -1.
    10030    2    1    2    0    0  0.00000000000E+00  0.00000000000E+00  0.10043368808E+01  0.80034189851E+03  0.80034126834E+03 0.  0.
        3    1    3    3  502    0 -0.37728499229E+03  0.11460115916E+03 -0.67755743214E+02  0.40008529344E+03  0.10100000352E+00 0.  1.
       -3    1    3    3    0  502  0.37728499229E+03 -0.11460115916E+03  0.68760080095E+02  0.40025660507E+03  0.10100000352E+00 0. -1.
</event>
<event>
 5   0  0.6593118E-04  0.7999789E+03  0.7818609E-02  0.9560048E-01
       -2   -1    0    0    0  501  0.00000000000E+00  0.00000000000E+00  0.33026549718E+03  0.33026549719E+03  0.25500000920E-02 0. -1.
        2   -1    0    0  501    0  0.00000000000E+00  0.00000000000E+00 -0.48443318712E+03  0.48443318712E+03  0.25500000920E-02 0.  1.
    10030    2    1    2    0    0  0.00000000000E+00  0.00000000000E+00 -0.15416768994E+03  0.81469868431E+03  0.79997891822E+03 0.  0.
        1    1    3    3  502    0  0.21898922276E+03  0.30784980518E+03  0.56725512059E+02  0.38202822668E+03  0.50400001928E-02 0. -1.
       -1    1    3    3    0  502 -0.21898922276E+03 -0.30784980518E+03 -0.21089320200E+03  0.43267045763E+03  0.50400001928E-02 0.  1.
</event>
<event>
 5   0  0.6970013E-04  0.7996522E+03  0.7818609E-02  0.9560521E-01
        2   -1    0    0  501    0  0.00000000000E+00  0.00000000000E+00  0.15713264623E+04  0.15713264623E+04  0.25500000920E-02 0. -1.
       -2   -1    0    0    0  501  0.00000000000E+00  0.00000000000E+00 -0.10173627130E+03  0.10173627133E+03  0.25500000920E-02 0.  1.
    10030    2    1    2    0    0  0.00000000000E+00  0.00000000000E+00  0.14695901910E+04  0.16730627336E+04  0.79965216260E+03 0.  0.
        3    1    3    3  502    0  0.10044386016E+03  0.13492022779E+03  0.14936993468E+04  0.15031401085E+04  0.10100000352E+00 0. -1.
       -3    1    3    3    0  502 -0.10044386016E+03 -0.13492022779E+03 -0.24109155873E+02  0.16992262506E+03  0.10100000352E+00 0.  1.
</event>
<event>
 5   0  0.4169155E-04  0.8006486E+03  0.7818609E-02  0.9559079E-01
        1   -1    0    0  501    0  0.00000000000E+00  0.00000000000E+00  0.44991121810E+03  0.44991121813E+03  0.50400001928E-02 0. -1.
       -1   -1    0    0    0  501  0.00000000000E+00  0.00000000000E+00 -0.35620257682E+03  0.35620257685E+03  0.50400001928E-02 0.  1.
    10030    2    1    2    0    0  0.00000000000E+00  0.00000000000E+00  0.93708641287E+02  0.80611379498E+03  0.80064857523E+03 0.  0.
        4    1    3    3  502    0  0.64550992165E+02 -0.28595916187E+03 -0.22762064435E+03  0.37114989355E+03  0.12699999809E+01 0.  1.
       -4    1    3    3    0  502 -0.64550992165E+02  0.28595916187E+03  0.32132928564E+03  0.43496390144E+03  0.12699999809E+01 0. -1.
</event>
<event>
 5   0  0.7133039E-04  0.7998594E+03  0.7818609E-02  0.9560221E-01
       -2   -1    0    0    0  501  0.00000000000E+00  0.00000000000E+00  0.46542307658E+03  0.46542307659E+03  0.25500000920E-02 0. -1.
        2   -1    0    0  501    0  0.00000000000E+00  0.00000000000E+00 -0.34365244204E+03  0.34365244205E+03  0.25500000920E-02 0.  1.
    10030    2    1    2    0    0  0.00000000000E+00  0.00000000000E+00  0.12177063454E+03  0.80907551864E+03  0.79985942979E+03 0.  0.
        2    1    3    3  502    0 -0.99992455414E+02 -0.39894597212E+02  0.45049038047E+03  0.46317561780E+03  0.25500000920E-02 0. -1.
       -2    1    3    3    0  502  0.99992455414E+02  0.39894597212E+02 -0.32871974593E+03  0.34589990083E+03  0.25500000920E-02 0.  1.
</event>
<event>
 5   0  0.7133039E-04  0.7995660E+03  0.7818609E-02  0.9560646E-01
        2   -1    0    0  501    0  0.00000000000E+00  0.00000000000E+00  0.50444877898E+03  0.50444877899E+03  0.25500000920E-02 0. -1.
       -2   -1    0    0    0  501  0.00000000000E+00  0.00000000000E+00 -0.31683381452E+03  0.31683381453E+03  0.25500000920E-02 0.  1.
    10030    2    1    2    0    0  0.00000000000E+00  0.00000000000E+00  0.18761496446E+03  0.82128259352E+03  0.79956595946E+03 0.  0.
        2    1    3    3  502    0 -0.19962136435E+03 -0.72699886288E+02 -0.25405354232E+03  0.33117542926E+03  0.25500000920E-02 0.  1.
       -2    1    3    3    0  502  0.19962136435E+03  0.72699886288E+02  0.44166850678E+03  0.49010716426E+03  0.25500000920E-02 0. -1.
</event>
<event>
 5   0  0.4169155E-04  0.8001163E+03  0.7818609E-02  0.9559849E-01
       -1   -1    0    0    0  501  0.00000000000E+00  0.00000000000E+00  0.36367494594E+03  0.36367494597E+03  0.50400001928E-02 0.  1.
        1   -1    0    0  501    0  0.00000000000E+00  0.00000000000E+00 -0.44008127412E+03  0.44008127415E+03  0.50400001928E-02 0. -1.
    10030    2    1    2    0    0  0.00000000000E+00  0.00000000000E+00 -0.76406328181E+02  0.80375622012E+03  0.80011632554E+03 0.  0.
        4    1    3    3  502    0  0.37190464656E+02 -0.39157093377E+03 -0.11156960831E+03  0.40885243943E+03  0.12699999809E+01 0. -1.
       -4    1    3    3    0  502 -0.37190464656E+02  0.39157093377E+03  0.35163280131E+02  0.39490378069E+03  0.12699999809E+01 0.  1.
</event>
<event>
 5   0  0.4104786E-04  0.8001835E+03  0.7818609E-02  0.9559752E-01
       -1   -1    0    0    0  501  0.00000000000E+00  0.00000000000E+00  0.25753393841E+03  0.25753393846E+03  0.50400001928E-02 0. -1.
        1   -1    0    0  501    0  0.00000000000E+00  0.00000000000E+00 -0.62156239902E+03  0.62156239904E+03  0.50400001928E-02 0.  1.
    10030    2    1    2    0    0  0.00000000000E+00  0.00000000000E+00 -0.36402846060E+03  0.87909633750E+03  0.80018351050E+03 0.  0.
        2    1    3    3  502    0  0.25164645105E+03 -0.24053112660E+02 -0.52270804712E+03  0.58062741158E+03  0.25500000920E-02 0.  1.
       -2    1    3    3    0  502 -0.25164645105E+03  0.24053112660E+02  0.15867958652E+03  0.29846892592E+03  0.25500000920E-02 0. -1.
</event>
<event>
 5   0  0.4392552E-04  0.7999409E+03  0.7818609E-02  0.9560103E-01
       -1   -1    0    0    0  501  0.00000000000E+00  0.00000000000E+00  0.15996648853E+03  0.15996648861E+03  0.50400001928E-02 0.  1.
        1   -1    0    0  501    0  0.00000000000E+00  0.00000000000E+00 -0.10000618174E+04  0.10000618174E+04  0.50400001928E-02 0. -1.
    10030    2    1    2    0    0  0.00000000000E+00  0.00000000000E+00 -0.84009532888E+03  0.11600283060E+04  0.79994094108E+03 0.  0.
        5    1    3    3  502    0 -0.16456816787E+03  0.33223984432E+03 -0.63751242496E+03  0.73750266305E+03  0.46999998093E+01 0. -1.
       -5    1    3    3    0  502  0.16456816787E+03 -0.33223984432E+03 -0.20258290393E+03  0.42252564300E+03  0.46999998093E+01 0.  1.
</event>
<event>
 5   0  0.6801147E-04  0.7999991E+03  0.7818609E-02  0.9560018E-01
        2   -1    0    0  501    0  0.00000000000E+00  0.00000000000E+00  0.14978077965E+04  0.14978077965E+04  0.25500000920E-02 0.  1.
       -2   -1    0    0    0  501  0.00000000000E+00  0.00000000000E+00 -0.10682253179E+03  0.10682253182E+03  0.25500000920E-02 0. -1.
    10030    2    1    2    0    0  0.00000000000E+00  0.00000000000E+00  0.13909852647E+04  0.16046303283E+04  0.79999905246E+03 0.  0.
        4    1    3    3  502    0 -0.94143501969E+02 -0.34936530667E+03  0.35345456164E+03  0.50581701881E+03  0.12699999809E+01 0. -1.
       -4    1    3    3    0  502  0.94143501969E+02  0.34936530667E+03  0.10375307031E+04  0.10988133095E+04  0.12699999809E+01 0.  1.
</event>
<event>
 5   0  0.4392552E-04  0.8000683E+03  0.7818609E-02  0.9559918E-01
       -1   -1    0    0    0  501  0.00000000000E+00  0.00000000000E+00  0.34165923214E+03  0.34165923218E+03  0.50400001928E-02 0.  1.
        1   -1    0    0  501    0  0.00000000000E+00  0.00000000000E+00 -0.46838285969E+03  0.46838285972E+03  0.50400001928E-02 0. -1.
    10030    2    1    2    0    0  0.00000000000E+00  0.00000000000E+00 -0.12672362755E+03  0.81004209190E+03  0.80006831763E+03 0.  0.
        5    1    3    3  502    0  0.12744015930E+03 -0.14225390540E+02  0.32025716564E+03  0.34500738845E+03  0.46999998093E+01 0.  1.
       -5    1    3    3    0  502 -0.12744015930E+03  0.14225390540E+02 -0.44698079319E+03  0.46503470346E+03  0.46999998093E+01 0. -1.
</event>
<event>
 5   0  0.6593118E-04  0.8003809E+03  0.7818609E-02  0.9559466E-01
       -2   -1    0    0    0  501  0.00000000000E+00  0.00000000000E+00  0.13374381559E+03  0.13374381562E+03  0.25500000920E-02 0.  1.
        2   -1    0    0  501    0  0.00000000000E+00  0.00000000000E+00 -0.11974563131E+04  0.11974563131E+04  0.25500000920E-02 0. -1.
    10030    2    1    2    0    0  0.00000000000E+00  0.00000000000E+00 -0.10637124975E+04  0.13312001288E+04  0.80038085020E+03 0.  0.
        1    1    3    3  502    0 -0.13083800569E+02  0.37650915104E+03 -0.30734129382E+03  0.48619851663E+03  0.50400001928E-02 0.  1.
       -1    1    3    3    0  502  0.13083800569E+02 -0.37650915104E+03 -0.75637120371E+03  0.84500161212E+03  0.50400001928E-02 0. -1.
</event>
<event>
 5   0  0.4392552E-04  0.7999911E+03  0.7818609E-02  0.9560030E-01
        1   -1    0    0  501    0  0.00000000000E+00  0.00000000000E+00  0.65393174111E+03  0.65393174113E+03  0.50400001928E-02 0.  1.
       -1   -1    0    0    0  501  0.00000000000E+00  0.00000000000E+00 -0.24466843355E+03  0.24466843360E+03  0.50400001928E-02 0. -1.
    10030    2    1    2    0    0  0.00000000000E+00  0.00000000000E+00  0.40926330756E+03  0.89860017473E+03  0.79999113689E+03 0.  0.
        5    1    3    3  502    0  0.95886356418E+02  0.76775615752E+02 -0.22292537399E+03  0.25457120985E+03  0.46999998093E+01 0. -1.
       -5    1    3    3    0  502 -0.95886356418E+02 -0.76775615752E+02  0.63218868155E+03  0.64402896487E+03  0.46999998093E+01 0.  1.
</event>
<event>
 5   0  0.4087283E-04  0.8000518E+03  0.7818609E-02  0.9559942E-01
        1   -1    0    0  501    0  0.00000000000E+00  0.00000000000E+00  0.22844982193E+04  0.22844982193E+04  0.50400001928E-02 0. -1.
       -1   -1    0    0    0  501  0.00000000000E+00  0.00000000000E+00 -0.70046333779E+02  0.70046333961E+02  0.50400001928E-02 0.  1.
    10030    2    1    2    0    0  0.00000000000E+00  0.00000000000E+00  0.22144518855E+04  0.23545445533E+04  0.80005181084E+03 0.  0.
        1    1    3    3  502    0 -0.19572390114E+03  0.34867179746E+03  0.11421543081E+04  0.12101224448E+04  0.50400001928E-02 0.  1.
       -1    1    3    3    0  502  0.19572390114E+03 -0.34867179746E+03  0.10722975774E+04  0.11444221085E+04  0.50400001928E-02 0. -1.
</event>
<event>
 5   0  0.4087283E-04  0.7998341E+03  0.7818609E-02  0.9560257E-01
        1   -1    0    0  501    0  0.00000000000E+00  0.00000000000E+00  0.10342571325E+04  0.10342571325E+04  0.50400001928E-02 0. -1.
       -1   -1    0    0    0  501  0.00000000000E+00  0.00000000000E+00 -0.15463623428E+03  0.15463623436E+03  0.50400001928E-02 0.  1.
    10030    2    1    2    0    0  0.00000000000E+00  0.00000000000E+00  0.87962089822E+03  0.11888933669E+04  0.79983405355E+03 0.  0.
        1    1    3    3  502    0 -0.15569477637E+03 -0.22640527442E+03  0.87172734682E+03  0.91400699062E+03  0.50400001928E-02 0. -1.
       -1    1    3    3    0  502  0.15569477637E+03  0.22640527442E+03  0.78935514008E+01  0.27488637626E+03  0.50400001928E-02 0.  1.
</event>
<event>
 5   0  0.4392552E-04  0.7998333E+03  0.7818609E-02  0.9560258E-01
        1   -1    0    0  501    0  0.00000000000E+00  0.00000000000E+00  0.58788079596E+03  0.58788079598E+03  0.50400001928E-02 0. -1.
       -1   -1    0    0    0  501  0.00000000000E+00  0.00000000000E+00 -0.27205061664E+03  0.27205061669E+03  0.50400001928E-02 0.  1.
    10030    2    1    2    0    0  0.00000000000E+00  0.00000000000E+00  0.31583017932E+03  0.85993141267E+03  0.79983331534E+03 0.  0.
        5    1    3    3  502    0 -0.20080583349E+03 -0.32213411423E+03  0.29313428990E+03  0.47962816038E+03  0.46999998093E+01 0. -1.
       -5    1    3    3    0  502  0.20080583349E+03  0.32213411423E+03  0.22695889417E+02  0.38030325230E+03  0.46999998093E+01 0.  1.
</event>
<event>
 5   0  0.6801147E-04  0.7999778E+03  0.7818609E-02  0.9560049E-01
        2   -1    0    0  501    0  0.00000000000E+00  0.00000000000E+00  0.72777088761E+03  0.72777088762E+03  0.25500000920E-02 0. -1.
       -2   -1    0    0    0  501  0.00000000000E+00  0.00000000000E+00 -0.21983720998E+03  0.21983720999E+03  0.25500000920E-02 0.  1.
    10030    2    1    2    0    0  0.00000000000E+00  0.00000000000E+00  0.50793367763E+03  0.94760809761E+03  0.79997780331E+03 0.  0.
        4    1    3    3  502    0  0.23034671649E+02 -0.37133839571E+03  0.42792417901E+03  0.56704807213E+03  0.12699999809E+01 0. -1.
       -4    1    3    3    0  502 -0.23034671649E+02  0.37133839571E+03  0.80009498623E+02  0.38056002548E+03  0.12699999809E+01 0.  1.
</event>
<event>
 5   0  0.6970013E-04  0.7998043E+03  0.7818609E-02  0.9560300E-01
       -2   -1    0    0    0  501  0.00000000000E+00  0.00000000000E+00  0.34287968884E+03  0.34287968885E+03  0.25500000920E-02 0.  1.
        2   -1    0    0  501    0  0.00000000000E+00  0.00000000000E+00 -0.46640766088E+03  0.46640766089E+03  0.25500000920E-02 0. -1.
    10030    2    1    2    0    0  0.00000000000E+00  0.00000000000E+00 -0.12352797204E+03  0.80928734974E+03  0.79980426016E+03 0.  0.
        3    1    3    3  502    0 -0.25463712493E+03  0.30175782749E+03  0.24219702857E+01  0.39484646128E+03  0.10100000352E+00 0.  1.
       -3    1    3    3    0  502  0.25463712493E+03 -0.30175782749E+03 -0.12594994233E+03  0.41444088845E+03  0.10100000352E+00 0. -1.
</event>
<event>
 5   0  0.7133039E-04  0.7997106E+03  0.7818609E-02  0.9560436E-01
       -2   -1    0    0    0  501  0.00000000000E+00  0.00000000000E+00  0.30090236895E+03  0.30090236896E+03  0.25500000920E-02 0.  1.
        2   -1    0    0  501    0  0.00000000000E+00  0.00000000000E+00 -0.53134934141E+03  0.53134934141E+03  0.25500000920E-02 0. -1.
    10030    2    1    2    0    0  0.00000000000E+00  0.00000000000E+00 -0.23044697245E+03  0.83225171037E+03  0.79971063661E+03 0.  0.
        2    1    3    3  502    0  0.13125465643E+03 -0.37410037621E+03 -0.16935342137E+03  0.43111420489E+03  0.25500000920E-02 0. -1.
       -2    1    3    3    0  502 -0.13125465643E+03  0.37410037621E+03 -0.61093551084E+02  0.40113750549E+03  0.25500000920E-02 0.  1.
</event>
<event>
 5   0  0.6593118E-04  0.8017355E+03  0.7818609E-02  0.9557508E-01
        2   -1    0    0  501    0  0.00000000000E+00  0.00000000000E+00  0.23305652137E+04  0.23305652137E+04  0.25500000920E-02 0.  1.
       -2   -1    0    0    0  501  0.00000000000E+00  0.00000000000E+00 -0.68951061768E+02  0.68951061815E+02  0.25500000920E-02 0. -1.
    10030    2    1    2    0    0  0.00000000000E+00  0.00000000000E+00  0.22616141520E+04  0.23995162755E+04  0.80173548272E+03 0.  0.
        1    1    3    3  502    0  0.28042700141E+03  0.27099631334E+03  0.85298829798E+03  0.93790582762E+03  0.50400001928E-02 0. -1.
       -1    1    3    3    0  502 -0.28042700141E+03 -0.27099631334E+03  0.14086258540E+04  0.14616104479E+04  0.50400001928E-02 0.  1.
</event>
<event>
 5   0  0.6672462E-04  0.7998559E+03  0.7818609E-02  0.9560226E-01
        2   -1    0    0  501    0  0.00000000000E+00  0.00000000000E+00  0.41395056525E+03  0.41395056526E+03  0.25500000920E-02 0. -1.
       -2   -1    0    0    0  501  0.00000000000E+00  0.00000000000E+00 -0.38638033786E+03  0.38638033787E+03  0.25500000920E-02 0.  1.
    10030    2    1    2    0    0  0.00000000000E+00  0.00000000000E+00  0.27570227392E+02  0.80033090313E+03  0.79985588519E+03 0.  0.
        5    1    3    3  502    0 -0.15434554837E+03  0.33835681678E+03 -0.13331370830E+03  0.39509811260E+03  0.46999998093E+01 0.  1.
       -5    1    3    3    0  502  0.15434554837E+03 -0.33835681678E+03  0.16088393569E+03  0.40523279053E+03  0.46999998093E+01 0. -1.
</event>
<event>
 5   0  0.6970013E-04  0.7998829E+03  0.7818609E-02  0.9560187E-01
        2   -1    0    0  501    0  0.00000000000E+00  0.00000000000E+00  0.20917740368E+04  0.20917740368E+04  0.25500000920E-02 0.  1.
       -2   -1    0    0    0  501  0.00000000000E+00  0.00000000000E+00 -0.76467704909E+02  0.76467704952E+02  0.25500000920E-02 0. -1.
    10030    2    1    2    0    0  0.00000000000E+00  0.00000000000E+00  0.20153063319E+04  0.21682417418E+04  0.79988289101E+03 0.  0.
        3    1    3    3  502    0 -0.30642200857E+03  0.25367521575E+03  0.11196672778E+04  0.11882341460E+04  0.10100000352E+00 0.  1.
       -3    1    3    3    0  502  0.30642200857E+03 -0.25367521575E+03  0.89563905410E+03  0.98000759581E+03  0.10100000352E+00 0. -1.
</event>
<event>
 5   0  0.4087283E-04  0.7992896E+03  0.7818609E-02  0.9561046E-01
        1   -1    0    0  501    0  0.00000000000E+00  0.00000000000E+00  0.14002682863E+03  0.14002682873E+03  0.50400001928E-02 0.  1.
       -1   -1    0    0    0  501  0.00000000000E+00  0.00000000000E+00 -0.11406098265E+04  0.11406098265E+04  0.50400001928E-02 0. -1.
    10030    2    1    2    0    0  0.00000000000E+00  0.00000000000E+00 -0.10005829978E+04  0.12806366552E+04  0.79928962654E+03 0.  0.
        1    1    3    3  502    0 -0.64305587622E+02 -0.16149760354E+03 -0.10768660229E+04  0.10908057186E+04  0.50400001928E-02 0. -1.
       -1    1    3    3    0  502  0.64305587622E+02  0.16149760354E+03  0.76283025033E+02  0.18983093658E+03  0.50400001928E-02 0.  1.
</event>
<event>
 5   0  0.4086111E-04  0.7949700E+03  0.7818609E-02  0.9567326E-01
       -1   -1    0    0    0  501  0.00000000000E+00  0.00000000000E+00  0.23780921073E+03  0.23780921078E+03  0.50400001928E-02 0.  1.
        1   -1    0    0  501    0  0.00000000000E+00  0.00000000000E+00 -0.66437436704E+03  0.66437436706E+03  0.50400001928E-02 0. -1.
    10030    2    1    2    0    0  0.00000000000E+00  0.00000000000E+00 -0.42656515631E+03  0.90218357784E+03  0.79497004695E+03 0.  0.
        3    1    3    3  502    0 -0.21626816038E+03  0.28276361198E+03 -0.12609855134E+02  0.35621088711E+03  0.10100000352E+00 0.  1.
       -3    1    3    3    0  502  0.21626816038E+03 -0.28276361198E+03 -0.41395530117E+03  0.54597269073E+03  0.10100000352E+00 0. -1.
</event>
<event>
 5   0  0.4392552E-04  0.8000164E+03  0.7818609E-02  0.9559993E-01
        1   -1    0    0  501    0  0.00000000000E+00  0.00000000000E+00  0.72715807138E+03  0.72715807140E+03  0.50400001928E-02 0.  1.
       -1   -1    0    0    0  501  0.00000000000E+00  0.00000000000E+00 -0.22004370171E+03  0.22004370177E+03  0.50400001928E-02 0. -1.
    10030    2    1    2    0    0  0.00000000000E+00  0.00000000000E+00  0.50711436967E+03  0.94720177317E+03  0.80001638431E+03 0.  0.
        5    1    3    3  502    0 -0.11672555264E+03  0.37958066637E+03  0.31006813039E+03  0.50385580517E+03  0.46999998093E+01 0.  1.
       -5    1    3    3    0  502  0.11672555264E+03 -0.37958066637E+03  0.19704623929E+03  0.44334596800E+03  0.46999998093E+01 0. -1.
</event>
<event>
 5   0  0.4086111E-04  0.7992435E+03  0.7818609E-02  0.9561113E-01
       -1   -1    0    0    0  501  0.00000000000E+00  0.00000000000E+00  0.18578639951E+03  0.18578639957E+03  0.50400001928E-02 0.  1.
        1   -1    0    0  501    0  0.00000000000E+00  0.00000000000E+00 -0.85957603444E+03  0.85957603446E+03  0.50400001928E-02 0. -1.
    10030    2    1    2    0    0  0.00000000000E+00  0.00000000000E+00 -0.67378963494E+03  0.10453624340E+04  0.79924348376E+03 0.  0.
        3    1    3    3  502    0 -0.37866779760E+02 -0.11960180281E+03 -0.83315251852E+03  0.84254472497E+03  0.10100000352E+00 0. -1.
       -3    1    3    3    0  502  0.37866779760E+02  0.11960180281E+03  0.15936288359E+03  0.20281770907E+03  0.10100000352E+00 0.  1.
</event>
<event>
 5   0  0.7133039E-04  0.7996658E+03  0.7818609E-02  0.9560501E-01
       -2   -1    0    0    0  501  0.00000000000E+00  0.00000000000E+00  0.16208126336E+03  0.16208126338E+03  0.25500000920E-02 0.  1.
        2   -1    0    0  501    0  0.00000000000E+00  0.00000000000E+00 -0.98633461805E+03  0.98633461805E+03  0.25500000920E-02 0. -1.
    10030    2    1    2    0    0  0.00000000000E+00  0.00000000000E+00 -0.82425335468E+03  0.11484158814E+04  0.79966583272E+03 0.  0.
        2    1    3    3  502    0  0.32618544198E+03  0.17780405785E+03 -0.62443518646E+03  0.72658827932E+03  0.25500000920E-02 0. -1.
       -2    1    3    3    0  502 -0.32618544198E+03 -0.17780405785E+03 -0.19981816822E+03  0.42182760211E+03  0.25500000920E-02 0.  1.
</event>
<event>
 5   0  0.6970013E-04  0.8001387E+03  0.7818609E-02  0.9559816E-01
        2   -1    0    0  501    0  0.00000000000E+00  0.00000000000E+00  0.39072382673E+03  0.39072382674E+03  0.25500000920E-02 0. -1.
       -2   -1    0    0    0  501  0.00000000000E+00  0.00000000000E+00 -0.40963841772E+03  0.40963841772E+03  0.25500000920E-02 0.  1.
    10030    2    1    2    0    0  0.00000000000E+00  0.00000000000E+00 -0.18914590984E+02  0.80036224446E+03  0.80013871336E+03 0.  0.
        3    1    3    3  502    0  0.30695770881E+03 -0.21725158006E+03 -0.14600255857E+03  0.40340803332E+03  0.10100000352E+00 0.  1.
       -3    1    3    3    0  502 -0.30695770881E+03  0.21725158006E+03  0.12708796758E+03  0.39695421114E+03  0.10100000352E+00 0. -1.
</event>
<event>
 5   0  0.4086111E-04  0.8010626E+03  0.7818609E-02  0.9558480E-01
        1   -1    0    0  501    0  0.00000000000E+00  0.00000000000E+00  0.41674581778E+03  0.41674581782E+03  0.50400001928E-02 0.  1.
       -1   -1    0    0    0  501  0.00000000000E+00  0.00000000000E+00 -0.38494761392E+03  0.38494761395E+03  0.50400001928E-02 0. -1.
    10030    2    1    2    0    0  0.00000000000E+00  0.00000000000E+00  0.31798203867E+02  0.80169343177E+03  0.80106256483E+03 0.  0.
        3    1    3    3  502    0 -0.11286175110E+03  0.37861756706E+03  0.81801254155E+02  0.40346064533E+03  0.10100000352E+00 0.  1.
       -3    1    3    3    0  502  0.11286175110E+03 -0.37861756706E+03 -0.50003050288E+02  0.39823278643E+03  0.10100000352E+00 0. -1.
</event>
<event>
 5   0  0.4104786E-04  0.7996506E+03  0.7818609E-02  0.9560523E-01
        1   -1    0    0  501    0  0.00000000000E+00  0.00000000000E+00  0.12487033205E+04  0.12487033206E+04  0.50400001928E-02 0. -1.
       -1   -1    0    0    0  501  0.00000000000E+00  0.00000000000E+00 -0.12802100567E+03  0.12802100577E+03  0.50400001928E-02 0.  1.
    10030    2    1    2    0    0  0.00000000000E+00  0.00000000000E+00  0.11206823149E+04  0.13767243263E+04  0.79965056106E+03 0.  0.
        2    1    3    3  502    0  0.18802733542E+03 -0.18290154609E+03  0.40831206098E+02  0.26547022776E+03  0.25500000920E-02 0.  1.
       -2    1    3    3    0  502 -0.18802733542E+03  0.18290154609E+03  0.10798511088E+04  0.11112540986E+04  0.25500000920E-02 0. -1.
</event>
<event>
 5   0  0.7133039E-04  0.8000530E+03  0.7818609E-02  0.9559940E-01
       -2   -1    0    0    0  501  0.00000000000E+00  0.00000000000E+00  0.13859857572E+03  0.13859857574E+03  0.25500000920E-02 0.  1.
        2   -1    0    0  501    0  0.00000000000E+00  0.00000000000E+00 -0.11545660478E+04  0.11545660478E+04  0.25500000920E-02 0. -1.
    10030    2    1    2    0    0  0.00000000000E+00  0.00000000000E+00 -0.10159674721E+04  0.12931646235E+04  0.80005302278E+03 0.  0.
        2    1    3    3  502    0 -0.52938883353E+01 -0.35234152358E+03 -0.20194855220E+03  0.40614750058E+03  0.25500000920E-02 0.  1.
       -2    1    3    3    0  502  0.52938883353E+01  0.35234152358E+03 -0.81401891988E+03  0.88701712296E+03  0.25500000920E-02 0. -1.
</event>
<event>
 5   0  0.4104786E-04  0.7999216E+03  0.7818609E-02  0.9560131E-01
        1   -1    0    0  501    0  0.00000000000E+00  0.00000000000E+00  0.39510542599E+03  0.39510542603E+03  0.50400001928E-02 0. -1.
       -1   -1    0    0    0  501  0.00000000000E+00  0.00000000000E+00 -0.40487587044E+03  0.40487587047E+03  0.50400001928E-02 0.  1.
    10030    2    1    2    0    0  0.00000000000E+00  0.00000000000E+00 -0.97704444420E+01  0.79998129649E+03  0.79992162938E+03 0.  0.
        2    1    3    3  502    0  0.71347858153E+02 -0.22357601415E+03 -0.32877957371E+03  0.40394648044E+03  0.25500000920E-02 0.  1.
       -2    1    3    3    0  502 -0.71347858153E+02  0.22357601415E+03  0.31900912927E+03  0.39603481605E+03  0.25500000920E-02 0. -1.
</event>
<event>
 5   0  0.2736375E-04  0.7993983E+03  0.7818609E-02  0.9560889E-01
        3   -1    0    0  501    0  0.00000000000E+00  0.00000000000E+00  0.13444601078E+03  0.13444604871E+03  0.10100000352E+00 0. -1.
       -3   -1    0    0    0  501  0.00000000000E+00  0.00000000000E+00 -0.11882789639E+04  0.11882789682E+04  0.10100000352E+00 0.  1.
    10030    2    1    2    0    0  0.00000000000E+00  0.00000000000E+00 -0.10538329531E+04  0.13227250169E+04  0.79939825949E+03 0.  0.
        2    1    3    3  502    0  0.21442866486E+03 -0.24006769053E+03 -0.13484016983E+03  0.34898999951E+03  0.25500000920E-02 0. -1.
       -2    1    3    3    0  502 -0.21442866486E+03  0.24006769053E+03 -0.91899278332E+03  0.97373501742E+03  0.25500000920E-02 0.  1.
</event>
<event>
 5   0  0.6593118E-04  0.8003332E+03  0.7818609E-02  0.9559535E-01
        2   -1    0    0  501    0  0.00000000000E+00  0.00000000000E+00  0.73127642208E+03  0.73127642208E+03  0.25500000920E-02 0.  1.
       -2   -1    0    0    0  501  0.00000000000E+00  0.00000000000E+00 -0.21897783060E+03  0.21897783061E+03  0.25500000920E-02 0. -1.
    10030    2    1    2    0    0  0.00000000000E+00  0.00000000000E+00  0.51229859148E+03  0.95025425270E+03  0.80033324180E+03 0.  0.
        1    1    3    3  502    0  0.18589018270E+03 -0.31665792829E+03  0.67271876885E+02  0.37330002548E+03  0.50400001928E-02 0. -1.
       -1    1    3    3    0  502 -0.18589018270E+03  0.31665792829E+03  0.44502671459E+03  0.57695422722E+03  0.50400001928E-02 0.  1.
</event>
<event>
 5   0  0.4104786E-04  0.8000502E+03  0.7818609E-02  0.9559944E-01
        1   -1    0    0  501    0  0.00000000000E+00  0.00000000000E+00  0.55493817818E+03  0.55493817820E+03  0.50400001928E-02 0. -1.
       -1   -1    0    0    0  501  0.00000000000E+00  0.00000000000E+00 -0.28835661260E+03  0.28835661264E+03  0.50400001928E-02 0.  1.
    10030    2    1    2    0    0  0.00000000000E+00  0.00000000000E+00  0.26658156558E+03  0.84329479085E+03  0.80005023165E+03 0.  0.
        2    1    3    3  502    0  0.24361623080E+03  0.15569913536E+03  0.42469193465E+03  0.51376485674E+03  0.25500000920E-02 0. -1.
       -2    1    3    3    0  502 -0.24361623080E+03 -0.15569913536E+03 -0.15811036907E+03  0.32952993411E+03  0.25500000920E-02 0.  1.
</event>
<event>
 5   0  0.4087283E-04  0.7940381E+03  0.7818609E-02  0.9568687E-01
        1   -1    0    0  501    0  0.00000000000E+00  0.00000000000E+00  0.46836125837E+03  0.46836125839E+03  0.50400001928E-02 0.  1.
       -1   -1    0    0    0  501  0.00000000000E+00  0.00000000000E+00 -0.33654389294E+03  0.33654389298E+03  0.50400001928E-02 0. -1.
    10030    2    1    2    0    0  0.00000000000E+00  0.00000000000E+00  0.13181736542E+03  0.80490515138E+03  0.79403808781E+03 0.  0.
        1    1    3    3  502    0 -0.30355915909E+03 -0.22959909227E+03 -0.48598404489E+02  0.38370002760E+03  0.50400001928E-02 0. -1.
       -1    1    3    3    0  502  0.30355915909E+03  0.22959909227E+03  0.18041576991E+03  0.42120512378E+03  0.50400001928E-02 0.  1.
</event>
<event>
 5   0  0.4104786E-04  0.7999012E+03  0.7818609E-02  0.9560160E-01
       -1   -1    0    0    0  501  0.00000000000E+00  0.00000000000E+00  0.25715986964E+03  0.25715986969E+03  0.50400001928E-02 0. -1.
        1   -1    0    0  501    0  0.00000000000E+00  0.00000000000E+00 -0.62202742236E+03  0.62202742239E+03  0.50400001928E-02 0.  1.
    10030    2    1    2    0    0  0.00000000000E+00  0.00000000000E+00 -0.36486755273E+03  0.87918729207E+03  0.79990122109E+03 0.  0.
        2    1    3    3  502    0  0.26815074412E+03  0.29657137252E+03 -0.17138282201E+03  0.43500743931E+03  0.25500000920E-02 0. -1.
       -2    1    3    3    0  502 -0.26815074412E+03 -0.29657137252E+03 -0.19348473072E+03  0.44417985276E+03  0.25500000920E-02 0.  1.
</event>
<event>
 5   0  0.6593118E-04  0.7985134E+03  0.7818609E-02  0.9562171E-01
       -2   -1    0    0    0  501  0.00000000000E+00  0.00000000000E+00  0.12797092890E+03  0.12797092893E+03  0.25500000920E-02 0. -1.
        2   -1    0    0  501    0  0.00000000000E+00  0.00000000000E+00 -0.12456414484E+04  0.12456414484E+04  0.25500000920E-02 0.  1.
    10030    2    1    2    0    0  0.00000000000E+00  0.00000000000E+00 -0.11176705195E+04  0.13736123773E+04  0.79851335179E+03 0.  0.
        1    1    3    3  502    0  0.11170766620E+03 -0.18942111399E+03  0.14403167266E+02  0.22037788539E+03  0.50400001928E-02 0. -1.
       -1    1    3    3    0  502 -0.11170766620E+03  0.18942111399E+03 -0.11320736867E+04  0.11532344919E+04  0.50400001928E-02 0.  1.
</event>
<event>
 5   0  0.6672462E-04  0.7998857E+03  0.7818609E-02  0.9560183E-01
       -2   -1    0    0    0  501  0.00000000000E+00  0.00000000000E+00  0.21983172001E+03  0.21983172002E+03  0.25500000920E-02 0.  1.
        2   -1    0    0  501    0  0.00000000000E+00  0.00000000000E+00 -0.72762155785E+03  0.72762155785E+03  0.25500000920E-02 0. -1.
    10030    2    1    2    0    0  0.00000000000E+00  0.00000000000E+00 -0.50778983784E+03  0.94745327787E+03  0.79988573830E+03 0.  0.
        5    1    3    3  502    0  0.29280486833E+03 -0.14331175742E+03  0.20484909384E+02  0.32667211733E+03  0.46999998093E+01 0.  1.
       -5    1    3    3    0  502 -0.29280486833E+03  0.14331175742E+03 -0.52827474722E+03  0.62078116054E+03  0.46999998093E+01 0. -1.
</event>
<event>
 5   0  0.4086111E-04  0.7995759E+03  0.7818609E-02  0.9560631E-01
       -1   -1    0    0    0  501  0.00000000000E+00  0.00000000000E+00  0.25795173941E+03  0.25795173946E+03  0.50400001928E-02 0. -1.
        1   -1    0    0  501    0  0.00000000000E+00  0.00000000000E+00 -0.61961352120E+03  0.61961352122E+03  0.50400001928E-02 0.  1.
    10030    2    1    2    0    0  0.00000000000E+00  0.00000000000E+00 -0.36166178179E+03  0.87756526068E+03  0.79957585152E+03 0.  0.
        3    1    3    3  502    0  0.63672360865E+02  0.31054152000E+03 -0.44818948417E+03  0.54896632784E+03  0.10100000352E+00 0.  1.
       -3    1    3    3    0  502 -0.63672360865E+02 -0.31054152000E+03  0.86527702379E+02  0.32859893283E+03  0.10100000352E+00 0. -1.
</event>
<event>
 5   0  0.6801147E-04  0.7998527E+03  0.7818609E-02  0.9560230E-01
       -2   -1    0    0    0  501  0.00000000000E+00  0.00000000000E+00  0.11454788454E+03  0.11454788457E+03  0.25500000920E-02 0. -1.
        2   -1    0    0  501    0  0.00000000000E+00  0.00000000000E+00 -0.13962813499E+04  0.13962813499E+04  0.25500000920E-02 0.  1.
    10030    2    1    2    0    0  0.00000000000E+00  0.00000000000E+00 -0.12817334653E+04  0.15108292344E+04  0.79985267362E+03 0.  0.
        4    1    3    3  502    0  0.18715379433E+03  0.35031412181E+03 -0.55241256738E+03  0.68037326827E+03  0.12699999809E+01 0. -1.
       -4    1    3    3    0  502 -0.18715379433E+03 -0.35031412181E+03 -0.72932089795E+03  0.83045596617E+03  0.12699999809E+01 0.  1.
</event>
<event>
 5   0  0.4169155E-04  0.7997431E+03  0.7818609E-02  0.9560389E-01
        1   -1    0    0  501    0  0.00000000000E+00  0.00000000000E+00  0.35704005189E+03  0.35704005192E+03  0.50400001928E-02 0.  1.
       -1   -1    0    0    0  501  0.00000000000E+00  0.00000000000E+00 -0.44784126416E+03  0.44784126419E+03  0.50400001928E-02 0. -1.
    10030    2    1    2    0    0  0.00000000000E+00  0.00000000000E+00 -0.90801212273E+02  0.80488131611E+03  0.79974312930E+03 0.  0.
        4    1    3    3  502    0  0.32845841820E+02 -0.17749821456E+03 -0.40449995441E+03  0.44295179367E+03  0.12699999809E+01 0. -1.
       -4    1    3    3    0  502 -0.32845841820E+02  0.17749821456E+03  0.31369874214E+03  0.36192952244E+03  0.12699999809E+01 0.  1.
</event>
<event>
 5   0  0.4392552E-04  0.7999480E+03  0.7818609E-02  0.9560092E-01
       -1   -1    0    0    0  501  0.00000000000E+00  0.00000000000E+00  0.12643732643E+03  0.12643732653E+03  0.50400001928E-02 0. -1.
        1   -1    0    0  501    0  0.00000000000E+00  0.00000000000E+00 -0.12652845332E+04  0.12652845332E+04  0.50400001928E-02 0.  1.
    10030    2    1    2    0    0  0.00000000000E+00  0.00000000000E+00 -0.11388472068E+04  0.13917218598E+04  0.79994798237E+03 0.  0.
        5    1    3    3  502    0  0.12309697823E+03  0.36316467427E+03 -0.76714285224E+03  0.85765476296E+03  0.46999998093E+01 0.  1.
       -5    1    3    3    0  502 -0.12309697823E+03 -0.36316467427E+03 -0.37170435455E+03  0.53406709679E+03  0.46999998093E+01 0. -1.
</event>
<event>
 5   0  0.4104786E-04  0.7998380E+03  0.7818609E-02  0.9560252E-01
       -1   -1    0    0    0  501  0.00000000000E+00  0.00000000000E+00  0.37007785842E+03  0.37007785845E+03  0.50400001928E-02 0. -1.
        1   -1    0    0  501    0  0.00000000000E+00  0.00000000000E+00 -0.43216640270E+03  0.43216640273E+03  0.50400001928E-02 0.  1.
    10030    2    1    2    0    0  0.00000000000E+00  0.00000000000E+00 -0.62088544279E+02  0.80224426118E+03  0.79983802564E+03 0.  0.
        2    1    3    3  502    0  0.18760699507E+03  0.11945779164E+03 -0.36441244202E+03  0.42692268209E+03  0.25500000920E-02 0.  1.
       -2    1    3    3    0  502 -0.18760699507E+03 -0.11945779164E+03  0.30232389774E+03  0.37532157909E+03  0.25500000920E-02 0. -1.
</event>
<event>
 5   0  0.4104786E-04  0.8002359E+03  0.7818609E-02  0.9559676E-01
       -1   -1    0    0    0  501  0.00000000000E+00  0.00000000000E+00  0.14152575580E+03  0.14152575589E+03  0.50400001928E-02 0.  1.
        1   -1    0    0  501    0  0.00000000000E+00  0.00000000000E+00 -0.11312030999E+04  0.11312031000E+04  0.50400001928E-02 0. -1.
    10030    2    1    2    0    0  0.00000000000E+00  0.00000000000E+00 -0.98967734415E+03  0.12727288558E+04  0.80023589958E+03 0.  0.
        2    1    3    3  502    0  0.23066169107E+03 -0.14637323596E+03 -0.29884049133E+02  0.27481447620E+03  0.25500000920E-02 0.  1.
       -2    1    3    3    0  502 -0.23066169107E+03  0.14637323596E+03 -0.95979329501E+03  0.99791437964E+03  0.25500000920E-02 0. -1.
</event>
<event>
 5   0  0.4392552E-04  0.8002557E+03  0.7818609E-02  0.9559647E-01
       -1   -1    0    0    0  501  0.00000000000E+00  0.00000000000E+00  0.87676780296E+02  0.87676780441E+02  0.50400001928E-02 0.  1.
        1   -1    0    0  501    0  0.00000000000E+00  0.00000000000E+00 -0.18260514182E+04  0.18260514182E+04  0.50400001928E-02 0. -1.
    10030    2    1    2    0    0  0.00000000000E+00  0.00000000000E+00 -0.17383746379E+04  0.19137281987E+04  0.80025573200E+03 0.  0.
        5    1    3    3  502    0  0.15626093249E+03  0.63867110751E+02 -0.17211167328E+01  0.16888321142E+03  0.46999998093E+01 0.  1.
       -5    1    3    3    0  502 -0.15626093249E+03 -0.63867110751E+02 -0.17366535212E+04  0.17448449873E+04  0.46999998093E+01 0. -1.
</event>
<event>
 5   0  0.4392552E-04  0.8000816E+03  0.7818609E-02  0.9559899E-01
       -1   -1    0    0    0  501  0.00000000000E+00  0.00000000000E+00  0.52759474923E+03  0.52759474926E+03  0.50400001928E-02 0.  1.
        1   -1    0    0  501    0  0.00000000000E+00  0.00000000000E+00 -0.30332491628E+03  0.30332491632E+03  0.50400001928E-02 0. -1.
    10030    2    1    2    0    0  0.00000000000E+00  0.00000000000E+00  0.22426983295E+03  0.83091966558E+03  0.80008157876E+03 0.  0.
        5    1    3    3  502    0  0.26418092128E+03  0.25067377651E+03 -0.59717050995E+02  0.36907603224E+03  0.46999998093E+01 0. -1.
       -5    1    3    3    0  502 -0.26418092128E+03 -0.25067377651E+03  0.28398688395E+03  0.46184363333E+03  0.46999998093E+01 0.  1.
</event>
<event>
 5   0  0.4104786E-04  0.7995399E+03  0.7818609E-02  0.9560683E-01
        1   -1    0    0  501    0  0.00000000000E+00  0.00000000000E+00  0.71517693563E+03  0.71517693565E+03  0.50400001928E-02 0.  1.
       -1   -1    0    0    0  501  0.00000000000E+00  0.00000000000E+00 -0.22346357944E+03  0.22346357950E+03  0.50400001928E-02 0. -1.
    10030    2    1    2    0    0  0.00000000000E+00  0.00000000000E+00  0.49171335619E+03  0.93864051515E+03  0.79953986269E+03 0.  0.
        2    1    3    3  502    0 -0.52644622579E+02  0.38868594658E+03  0.15516541405E+03  0.42181100872E+03  0.25500000920E-02 0. -1.
       -2    1    3    3    0  502  0.52644622579E+02 -0.38868594658E+03  0.33654794214E+03  0.51682950643E+03  0.25500000920E-02 0.  1.
</event>
<event>
 5   0  0.2736375E-04  0.8003781E+03  0.7818609E-02  0.9559470E-01
       -4   -1    0    0    0  501  0.00000000000E+00  0.00000000000E+00  0.18119188823E+03  0.18119633898E+03  0.12699999809E+01 0. -1.
        4   -1    0    0  501    0  0.00000000000E+00  0.00000000000E+00 -0.88386083902E+03  0.88386175144E+03  0.12699999809E+01 0.  1.
    10030    2    1    2    0    0  0.00000000000E+00  0.00000000000E+00 -0.70266895080E+03  0.10650580904E+04  0.80037808663E+03 0.  0.
        3    1    3    3  502    0  0.35856267335E+03 -0.14207210977E+03 -0.49341109923E+03  0.62626368100E+03  0.10100000352E+00 0. -1.
       -3    1    3    3    0  502 -0.35856267335E+03  0.14207210977E+03 -0.20925785157E+03  0.43879440942E+03  0.10100000352E+00 0.  1.
</event>
<event>
 5   0  0.2736375E-04  0.7999264E+03  0.7818609E-02  0.9560124E-01
        4   -1    0    0  501    0  0.00000000000E+00  0.00000000000E+00  0.16484268666E+03  0.16484757883E+03  0.12699999809E+01 0.  1.
       -4   -1    0    0    0  501  0.00000000000E+00  0.00000000000E+00 -0.97042403711E+03  0.97042486814E+03  0.12699999809E+01 0. -1.
    10030    2    1    2    0    0  0.00000000000E+00  0.00000000000E+00 -0.80558135045E+03  0.11352724470E+04  0.79992638202E+03 0.  0.
        2    1    3    3  502    0 -0.15076507849E+02  0.39700933999E+03 -0.33733953990E+03  0.52119255781E+03  0.25500000920E-02 0.  1.
       -2    1    3    3    0  502  0.15076507849E+02 -0.39700933999E+03 -0.46824181055E+03  0.61407988916E+03  0.25500000920E-02 0. -1.
</event>
<event>
 5   0  0.6593118E-04  0.7999574E+03  0.7818609E-02  0.9560079E-01
       -2   -1    0    0    0  501  0.00000000000E+00  0.00000000000E+00  0.21042677553E+03  0.21042677554E+03  0.25500000920E-02 0. -1.
        2   -1    0    0  501    0  0.00000000000E+00  0.00000000000E+00 -0.76027852824E+03  0.76027852825E+03  0.25500000920E-02 0.  1.
    10030    2    1    2    0    0  0.00000000000E+00  0.00000000000E+00 -0.54985175271E+03  0.97070530379E+03  0.79995739689E+03 0.  0.
        1    1    3    3  502    0  0.15976384806E+03 -0.33458607822E+03 -0.92865954275E+02  0.38222560925E+03  0.50400001928E-02 0. -1.
       -1    1    3    3    0  502 -0.15976384806E+03  0.33458607822E+03 -0.45698579844E+03  0.58847969454E+03  0.50400001928E-02 0.  1.
</event>
<event>
 5   0  0.4392552E-04  0.8001748E+03  0.7818609E-02  0.9559764E-01
        1   -1    0    0  501    0  0.00000000000E+00  0.00000000000E+00  0.13817952171E+04  0.13817952171E+04  0.50400001928E-02 0. -1.
       -1   -1    0    0    0  501  0.00000000000E+00  0.00000000000E+00 -0.11584200264E+03  0.11584200275E+03  0.50400001928E-02 0.  1.
    10030    2    1    2    0    0  0.00000000000E+00  0.00000000000E+00  0.12659532144E+04  0.14976372198E+04  0.80017479407E+03 0.  0.
        5    1    3    3  502    0  0.12260572271E+02 -0.21092243598E+03 -0.28549047947E+01  0.21135003220E+03  0.46999998093E+01 0.  1.
       -5    1    3    3    0  502 -0.12260572271E+02  0.21092243598E+03  0.12688081192E+04  0.12862871876E+04  0.46999998093E+01 0. -1.
</event>
<event>
 5   0  0.4104786E-04  0.7999253E+03  0.7818609E-02  0.9560125E-01
       -1   -1    0    0    0  501  0.00000000000E+00  0.00000000000E+00  0.47297332200E+03  0.47297332203E+03  0.50400001928E-02 0.  1.
        1   -1    0    0  501    0  0.00000000000E+00  0.00000000000E+00 -0.33822225162E+03  0.33822225166E+03  0.50400001928E-02 0. -1.
    10030    2    1    2    0    0  0.00000000000E+00  0.00000000000E+00  0.13475107038E+03  0.81119557369E+03  0.79992525138E+03 0.  0.
        2    1    3    3  502    0  0.11605776929E+03  0.25808052585E+03  0.35401523627E+03  0.45321269968E+03  0.25500000920E-02 0.  1.
       -2    1    3    3    0  502 -0.11605776929E+03 -0.25808052585E+03 -0.21926416589E+03  0.35798287401E+03  0.25500000920E-02 0. -1.
</event>
<event>
 5   0  0.4087283E-04  0.7998813E+03  0.7818609E-02  0.9560189E-01
        1   -1    0    0  501    0  0.00000000000E+00  0.00000000000E+00  0.21755162046E+03  0.21755162052E+03  0.50400001928E-02 0. -1.
       -1   -1    0    0    0  501  0.00000000000E+00  0.00000000000E+00 -0.73523937347E+03  0.73523937349E+03  0.50400001928E-02 0.  1.
    10030    2    1    2    0    0  0.00000000000E+00  0.00000000000E+00 -0.51768775301E+03  0.95279099401E+03  0.79988128409E+03 0.  0.
        1    1    3    3  502    0 -0.99481169458E+01  0.39500509648E+03 -0.33250882836E+03  0.51642048007E+03  0.50400001928E-02 0.  1.
       -1    1    3    3    0  502  0.99481169458E+01 -0.39500509648E+03 -0.18517892466E+03  0.43637051394E+03  0.50400001928E-02 0. -1.
</event>
<event>
 5   0  0.6672462E-04  0.7973442E+03  0.7818609E-02  0.9563869E-01
        2   -1    0    0  501    0  0.00000000000E+00  0.00000000000E+00  0.11234680995E+04  0.11234680995E+04  0.25500000920E-02 0. -1.
       -2   -1    0    0    0  501  0.00000000000E+00  0.00000000000E+00 -0.14147216122E+03  0.14147216124E+03  0.25500000920E-02 0.  1.
    10030    2    1    2    0    0  0.00000000000E+00  0.00000000000E+00  0.98199593831E+03  0.12649402608E+04  0.79734424213E+03 0.  0.
        5    1    3    3  502    0 -0.30551792682E+03 -0.24722187644E+03  0.59691610575E+03  0.71469629011E+03  0.46999998093E+01 0. -1.
       -5    1    3    3    0  502  0.30551792682E+03  0.24722187644E+03  0.38507983256E+03  0.55024397066E+03  0.46999998093E+01 0.  1.
</event>
<event>
 5   0  0.6672462E-04  0.8000172E+03  0.7818609E-02  0.9559992E-01
        2   -1    0    0  501    0  0.00000000000E+00  0.00000000000E+00  0.46707970003E+03  0.46707970004E+03  0.25500000920E-02 0. -1.
       -2   -1    0    0    0  501  0.00000000000E+00  0.00000000000E+00 -0.34256864697E+03  0.34256864698E+03  0.25500000920E-02 0.  1.
    10030    2    1    2    0    0  0.00000000000E+00  0.00000000000E+00  0.12451105306E+03  0.80964834702E+03  0.80001715200E+03 0.  0.
        5    1    3    3  502    0 -0.25819900065E+02 -0.82450110436E+02 -0.33298425609E+03  0.34404257404E+03  0.46999998093E+01 0.  1.
       -5    1    3    3    0  502  0.25819900065E+02  0.82450110436E+02  0.45749530914E+03  0.46560577298E+03  0.46999998093E+01 0. -1.
</event>
<event>
 5   0  0.6801147E-04  0.7999127E+03  0.7818609E-02  0.9560144E-01
        2   -1    0    0  501    0  0.00000000000E+00  0.00000000000E+00  0.49780207656E+03  0.49780207657E+03  0.25500000920E-02 0.  1.
       -2   -1    0    0    0  501  0.00000000000E+00  0.00000000000E+00 -0.32134270211E+03  0.32134270212E+03  0.25500000920E-02 0. -1.
    10030    2    1    2    0    0  0.00000000000E+00  0.00000000000E+00  0.17645937445E+03  0.81914477868E+03  0.79991265624E+03 0.  0.
        4    1    3    3  502    0 -0.29211750568E+02  0.26716326572E+02 -0.31932951345E+03  0.32177638126E+03  0.12699999809E+01 0. -1.
       -4    1    3    3    0  502  0.29211750568E+02 -0.26716326572E+02  0.49578888791E+03  0.49736839742E+03  0.12699999809E+01 0.  1.
</event>
<event>
 5   0  0.4392552E-04  0.7999270E+03  0.7818609E-02  0.9560123E-01
        1   -1    0    0  501    0  0.00000000000E+00  0.00000000000E+00  0.50609126165E+03  0.50609126168E+03  0.50400001928E-02 0.  1.
       -1   -1    0    0    0  501  0.00000000000E+00  0.00000000000E+00 -0.31609078237E+03  0.31609078241E+03  0.50400001928E-02 0. -1.
    10030    2    1    2    0    0  0.00000000000E+00  0.00000000000E+00  0.19000047929E+03  0.82218204408E+03  0.79992695384E+03 0.  0.
        5    1    3    3  502    0 -0.20126706957E+03  0.31447888820E+03 -0.52316683385E+02  0.37704711877E+03  0.46999998093E+01 0. -1.
       -5    1    3    3    0  502  0.20126706957E+03 -0.31447888820E+03  0.24231716267E+03  0.44513492532E+03  0.46999998093E+01 0.  1.
</event>
<event>
 5   0  0.7133039E-04  0.7998252E+03  0.7818609E-02  0.9560270E-01
       -2   -1    0    0    0  501  0.00000000000E+00  0.00000000000E+00  0.91700018727E+02  0.91700018762E+02  0.25500000920E-02 0. -1.
        2   -1    0    0  501    0  0.00000000000E+00  0.00000000000E+00 -0.17440571000E+04  0.17440571000E+04  0.25500000920E-02 0.  1.
    10030    2    1    2    0    0  0.00000000000E+00  0.00000000000E+00 -0.16523570813E+04  0.18357571188E+04  0.79982515281E+03 0.  0.
        2    1    3    3  502    0  0.20835175423E+03  0.13211001560E+03 -0.15485884634E+04  0.15681166215E+04  0.25500000920E-02 0.  1.
       -2    1    3    3    0  502 -0.20835175423E+03 -0.13211001560E+03 -0.10376861790E+03  0.26764049727E+03  0.25500000920E-02 0. -1.
</event>
<event>
 5   0  0.4104786E-04  0.7999959E+03  0.7818609E-02  0.9560023E-01
       -1   -1    0    0    0  501  0.00000000000E+00  0.00000000000E+00  0.27165315156E+03  0.27165315160E+03  0.50400001928E-02 0.  1.
        1   -1    0    0  501    0  0.00000000000E+00  0.00000000000E+00 -0.58898028060E+03  0.58898028062E+03  0.50400001928E-02 0. -1.
    10030    2    1    2    0    0  0.00000000000E+00  0.00000000000E+00 -0.31732712904E+03  0.86063343223E+03  0.79999587364E+03 0.  0.
        2    1    3    3  502    0  0.36513388310E+03  0.40866133486E+02  0.11453830406E+02  0.36759214313E+03  0.25500000920E-02 0.  1.
       -2    1    3    3    0  502 -0.36513388310E+03 -0.40866133486E+02 -0.32878095945E+03  0.49304128910E+03  0.25500000920E-02 0. -1.
</event>
<event>
 5   0  0.7133039E-04  0.7979081E+03  0.7818609E-02  0.9563050E-01
       -2   -1    0    0    0  501  0.00000000000E+00  0.00000000000E+00  0.17604670090E+03  0.17604670092E+03  0.25500000920E-02 0. -1.
        2   -1    0    0  501    0  0.00000000000E+00  0.00000000000E+00 -0.90410293726E+03  0.90410293726E+03  0.25500000920E-02 0.  1.
    10030    2    1    2    0    0  0.00000000000E+00  0.00000000000E+00 -0.72805623636E+03  0.10801496382E+04  0.79790811348E+03 0.  0.
        2    1    3    3  502    0 -0.26645968547E+03 -0.70119328664E+02  0.26556342783E+02  0.27680809883E+03  0.25500000920E-02 0. -1.
       -2    1    3    3    0  502  0.26645968547E+03  0.70119328664E+02 -0.75461257914E+03  0.80334153934E+03  0.25500000920E-02 0.  1.
</event>
<event>
 5   0  0.4392552E-04  0.7948759E+03  0.7818609E-02  0.9567464E-01
       -1   -1    0    0    0  501  0.00000000000E+00  0.00000000000E+00  0.30060350558E+03  0.30060350562E+03  0.50400001928E-02 0.  1.
        1   -1    0    0  501    0  0.00000000000E+00  0.00000000000E+00 -0.52546598192E+03  0.52546598194E+03  0.50400001928E-02 0. -1.
    10030    2    1    2    0    0  0.00000000000E+00  0.00000000000E+00 -0.22486247633E+03  0.82606948757E+03  0.79487588026E+03 0.  0.
        5    1    3    3  502    0 -0.30111626090E+03 -0.15199431168E+02 -0.38149855345E+03  0.48627693918E+03  0.46999998093E+01 0. -1.
       -5    1    3    3    0  502  0.30111626090E+03  0.15199431168E+02  0.15663607712E+03  0.33979254839E+03  0.46999998093E+01 0.  1.
</event>
<event>
 5   0  0.6801147E-04  0.7994896E+03  0.7818609E-02  0.9560756E-01
        2   -1    0    0  501    0  0.00000000000E+00  0.00000000000E+00  0.11608720889E+04  0.11608720889E+04  0.25500000920E-02 0.  1.
       -2   -1    0    0    0  501  0.00000000000E+00  0.00000000000E+00 -0.13765161671E+03  0.13765161673E+03  0.25500000920E-02 0. -1.
    10030    2    1    2    0    0  0.00000000000E+00  0.00000000000E+00  0.10232204722E+04  0.12985237056E+04  0.79948963680E+03 0.  0.
        4    1    3    3  502    0  0.20053160808E+03  0.82958859430E+02  0.10568624997E+04  0.10789138308E+04  0.12699999809E+01 0.  1.
       -4    1    3    3    0  502 -0.20053160808E+03 -0.82958859430E+02 -0.33642027502E+02  0.21960987480E+03  0.12699999809E+01 0. -1.
</event>
<event>
 5   0  0.4087283E-04  0.7996316E+03  0.7818609E-02  0.9560550E-01
        1   -1    0    0  501    0  0.00000000000E+00  0.00000000000E+00  0.62759095128E+03  0.62759095130E+03  0.50400001928E-02 0. -1.
       -1   -1    0    0    0  501  0.00000000000E+00  0.00000000000E+00 -0.25470839456E+03  0.25470839461E+03  0.50400001928E-02 0.  1.
    10030    2    1    2    0    0  0.00000000000E+00  0.00000000000E+00  0.37288255672E+03  0.88229934591E+03  0.79963162437E+03 0.  0.
        1    1    3    3  502    0  0.33188900755E+03 -0.19887509313E+03  0.75272749964E+02  0.39416697339E+03  0.50400001928E-02 0.  1.
       -1    1    3    3    0  502 -0.33188900755E+03  0.19887509313E+03  0.29760980675E+03  0.48813237252E+03  0.50400001928E-02 0. -1.
</event>
<event>
 5   0  0.4392552E-04  0.7997405E+03  0.7818609E-02  0.9560393E-01
       -1   -1    0    0    0  501  0.00000000000E+00  0.00000000000E+00  0.40264175778E+03  0.40264175781E+03  0.50400001928E-02 0. -1.
        1   -1    0    0  501    0  0.00000000000E+00  0.00000000000E+00 -0.39711786147E+03  0.39711786150E+03  0.50400001928E-02 0.  1.
    10030    2    1    2    0    0  0.00000000000E+00  0.00000000000E+00  0.55238963043E+01  0.79975961931E+03  0.79974054246E+03 0.  0.
        5    1    3    3  502    0  0.84213664687E+02 -0.16640026259E+03 -0.35093159585E+03  0.39743686754E+03  0.46999998093E+01 0.  1.
       -5    1    3    3    0  502 -0.84213664687E+02  0.16640026259E+03  0.35645549216E+03  0.40232275178E+03  0.46999998093E+01 0. -1.
</event>
<event>
 5   0  0.4169155E-04  0.8000274E+03  0.7818609E-02  0.9559977E-01
       -1   -1    0    0    0  501  0.00000000000E+00  0.00000000000E+00  0.15853071730E+03  0.15853071738E+03  0.50400001928E-02 0. -1.
        1   -1    0    0  501    0  0.00000000000E+00  0.00000000000E+00 -0.10093372441E+04  0.10093372441E+04  0.50400001928E-02 0.  1.
    10030    2    1    2    0    0  0.00000000000E+00  0.00000000000E+00 -0.85080652678E+03  0.11678679615E+04  0.80002739291E+03 0.  0.
        4    1    3    3  502    0 -0.17049508627E+02  0.57146226983E+02  0.15200206778E+03  0.16328692082E+03  0.12699999809E+01 0. -1.
       -4    1    3    3    0  502  0.17049508627E+02 -0.57146226983E+02 -0.10028085946E+04  0.10045810406E+04  0.12699999809E+01 0.  1.
</event>
<event>
 5   0  0.7133039E-04  0.8001980E+03  0.7818609E-02  0.9559731E-01
        2   -1    0    0  501    0  0.00000000000E+00  0.00000000000E+00  0.78255494052E+03  0.78255494052E+03  0.25500000920E-02 0.  1.
       -2   -1    0    0    0  501  0.00000000000E+00  0.00000000000E+00 -0.20455969485E+03  0.20455969486E+03  0.25500000920E-02 0. -1.
    10030    2    1    2    0    0  0.00000000000E+00  0.00000000000E+00  0.57799524567E+03  0.98711463538E+03  0.80019797511E+03 0.  0.
        2    1    3    3  502    0  0.44007684781E+02 -0.39081323299E+03  0.37971072748E+03  0.54667348204E+03  0.25500000920E-02 0.  1.
       -2    1    3    3    0  502 -0.44007684781E+02  0.39081323299E+03  0.19828451819E+03  0.44044115334E+03  0.25500000920E-02 0. -1.
</event>
<event>
 5   0  0.6970013E-04  0.7988314E+03  0.7818609E-02  0.9561710E-01
       -2   -1    0    0    0  501  0.00000000000E+00  0.00000000000E+00  0.20761144408E+03  0.20761144410E+03  0.25500000920E-02 0.  1.
        2   -1    0    0  501    0  0.00000000000E+00  0.00000000000E+00 -0.76842055735E+03  0.76842055735E+03  0.25500000920E-02 0. -1.
    10030    2    1    2    0    0  0.00000000000E+00  0.00000000000E+00 -0.56080911327E+03  0.97603200145E+03  0.79883140044E+03 0.  0.
        3    1    3    3  502    0  0.13153688154E+03  0.13554070356E+03  0.14960080177E+03  0.24094323734E+03  0.10100000352E+00 0.  1.
       -3    1    3    3    0  502 -0.13153688154E+03 -0.13554070356E+03 -0.71040991504E+03  0.73508876411E+03  0.10100000352E+00 0. -1.
</event>
<event>
 5   0  0.4086111E-04  0.7998723E+03  0.7818609E-02  0.9560202E-01
        1   -1    0    0  501    0  0.00000000000E+00  0.00000000000E+00  0.10768397664E+04  0.10768397664E+04  0.50400001928E-02 0.  1.
       -1   -1    0    0    0  501  0.00000000000E+00  0.00000000000E+00 -0.14853547454E+03  0.14853547463E+03  0.50400001928E-02 0. -1.
    10030    2    1    2    0    0  0.00000000000E+00  0.00000000000E+00  0.92830429189E+03  0.12253752411E+04  0.79987225423E+03 0.  0.
        3    1    3    3  502    0 -0.14174646736E+03 -0.15574765495E+03  0.98501867598E+03  0.10072791049E+04  0.10100000352E+00 0.  1.
       -3    1    3    3    0  502  0.14174646736E+03  0.15574765495E+03 -0.56714384087E+02  0.21809613613E+03  0.10100000352E+00 0. -1.
</event>
<event>
 5   0  0.6672462E-04  0.7998307E+03  0.7818609E-02  0.9560262E-01
       -2   -1    0    0    0  501  0.00000000000E+00  0.00000000000E+00  0.85705678544E+02  0.85705678582E+02  0.25500000920E-02 0. -1.
        2   -1    0    0  501    0  0.00000000000E+00  0.00000000000E+00 -0.18660639792E+04  0.18660639792E+04  0.25500000920E-02 0.  1.
    10030    2    1    2    0    0  0.00000000000E+00  0.00000000000E+00 -0.17803583007E+04  0.19517696578E+04  0.79983068105E+03 0.  0.
        5    1    3    3  502    0  0.24709241125E+03 -0.87035230109E+02 -0.16274367649E+04  0.16483938561E+04  0.46999998093E+01 0.  1.
       -5    1    3    3    0  502 -0.24709241125E+03  0.87035230109E+02 -0.15292153578E+03  0.30337580174E+03  0.46999998093E+01 0. -1.
</event>
<event>
 5   0  0.6672462E-04  0.8005371E+03  0.7818609E-02  0.9559240E-01
        2   -1    0    0  501    0  0.00000000000E+00  0.00000000000E+00  0.11357643478E+04  0.11357643478E+04  0.25500000920E-02 0. -1.
       -2   -1    0    0    0  501  0.00000000000E+00  0.00000000000E+00 -0.14106352433E+03  0.14106352436E+03  0.25500000920E-02 0.  1.
    10030    2    1    2    0    0  0.00000000000E+00  0.00000000000E+00  0.99470082349E+03  0.12768278722E+04  0.80053712402E+03 0.  0.
        5    1    3    3  502    0  0.16599411880E+03 -0.20869500922E+03  0.97340154388E+03  0.10092771225E+04  0.46999998093E+01 0. -1.
       -5    1    3    3    0  502 -0.16599411880E+03  0.20869500922E+03  0.21299279610E+02  0.26755074969E+03  0.46999998093E+01 0.  1.
</event>
<event>
 5   0  0.6672462E-04  0.7997028E+03  0.7818609E-02  0.9560447E-01
       -2   -1    0    0    0  501  0.00000000000E+00  0.00000000000E+00  0.15534278524E+03  0.15534278526E+03  0.25500000920E-02 0.  1.
        2   -1    0    0  501    0  0.00000000000E+00  0.00000000000E+00 -0.10292150889E+04  0.10292150889E+04  0.25500000920E-02 0. -1.
    10030    2    1    2    0    0  0.00000000000E+00  0.00000000000E+00 -0.87387230364E+03  0.11845578741E+04  0.79970279113E+03 0.  0.
        5    1    3    3  502    0 -0.14968375579E+03  0.27711951085E+03 -0.80175213571E+03  0.86141106747E+03  0.46999998093E+01 0. -1.
       -5    1    3    3    0  502  0.14968375579E+03 -0.27711951085E+03 -0.72120167923E+02  0.32314680667E+03  0.46999998093E+01 0.  1.
</event>
<event>
 5   0  0.4169155E-04  0.7998345E+03  0.7818609E-02  0.9560257E-01
       -1   -1    0    0    0  501  0.00000000000E+00  0.00000000000E+00  0.45275394530E+03  0.45275394533E+03  0.50400001928E-02 0. -1.
        1   -1    0    0  501    0  0.00000000000E+00  0.00000000000E+00 -0.35324666700E+03  0.35324666703E+03  0.50400001928E-02 0.  1.
    10030    2    1    2    0    0  0.00000000000E+00  0.00000000000E+00  0.99507278304E+02  0.80600061236E+03  0.79983453832E+03 0.  0.
        4    1    3    3  502    0 -0.18352359557E+03 -0.92991784405E+02 -0.29582424838E+03  0.36033592789E+03  0.12699999809E+01 0.  1.
       -4    1    3    3    0  502  0.18352359557E+03  0.92991784405E+02  0.39533152668E+03  0.44566468447E+03  0.12699999809E+01 0. -1.
</event>
<event>
 5   0  0.6801147E-04  0.7999740E+03  0.7818609E-02  0.9560055E-01
        2   -1    0    0  501    0  0.00000000000E+00  0.00000000000E+00  0.14804767333E+04  0.14804767333E+04  0.25500000920E-02 0.  1.
       -2   -1    0    0    0  501  0.00000000000E+00  0.00000000000E+00 -0.10806627393E+03  0.10806627396E+03  0.25500000920E-02 0. -1.
    10030    2    1    2    0    0  0.00000000000E+00  0.00000000000E+00  0.13724104593E+04  0.15885430072E+04  0.79997401014E+03 0.  0.
        4    1    3    3  502    0  0.19808568993E+03  0.44799747720E+02  0.19357510915E+01  0.20310174294E+03  0.12699999809E+01 0. -1.
       -4    1    3    3    0  502 -0.19808568993E+03 -0.44799747720E+02  0.13704747082E+04  0.13854412643E+04  0.12699999809E+01 0.  1.
</event>
<event>
 5   0  0.4169155E-04  0.8000367E+03  0.7818609E-02  0.9559964E-01
        1   -1    0    0  501    0  0.00000000000E+00  0.00000000000E+00  0.30869363189E+03  0.30869363193E+03  0.50400001928E-02 0. -1.
       -1   -1    0    0    0  501  0.00000000000E+00  0.00000000000E+00 -0.51836084805E+03  0.51836084808E+03  0.50400001928E-02 0.  1.
    10030    2    1    2    0    0  0.00000000000E+00  0.00000000000E+00 -0.20966721616E+03  0.82705448001E+03  0.80003673127E+03 0.  0.
        4    1    3    3  502    0  0.18356599061E+03  0.31818249970E+03 -0.26853700298E+03  0.45502781332E+03  0.12699999809E+01 0.  1.
       -4    1    3    3    0  502 -0.18356599061E+03 -0.31818249970E+03  0.58869786823E+02  0.37202666669E+03  0.12699999809E+01 0. -1.
</event>
<event>
 5   0  0.2736375E-04  0.8003319E+03  0.7818609E-02  0.9559537E-01
        3   -1    0    0  501    0  0.00000000000E+00  0.00000000000E+00  0.86069728112E+03  0.86069728704E+03  0.10100000352E+00 0. -1.
       -3   -1    0    0    0  501  0.00000000000E+00  0.00000000000E+00 -0.18605002548E+03  0.18605005289E+03  0.10100000352E+00 0.  1.
    10030    2    1    2    0    0  0.00000000000E+00  0.00000000000E+00  0.67464725564E+03  0.10467473399E+04  0.80033185250E+03 0.  0.
        1    1    3    3  502    0  0.30715923435E+03  0.62869411984E+02  0.66254820971E+03  0.73298669048E+03  0.50400001928E-02 0. -1.
       -1    1    3    3    0  502 -0.30715923435E+03 -0.62869411984E+02  0.12099045929E+02  0.31376064945E+03  0.50400001928E-02 0.  1.
</event>
<event>
 5   0  0.4087283E-04  0.8030140E+03  0.7818609E-02  0.9555665E-01
        1   -1    0    0  501    0  0.00000000000E+00  0.00000000000E+00  0.60746718842E+03  0.60746718844E+03  0.50400001928E-02 0. -1.
       -1   -1    0    0    0  501  0.00000000000E+00  0.00000000000E+00 -0.26537709825E+03  0.26537709830E+03  0.50400001928E-02 0.  1.
    10030    2    1    2    0    0  0.00000000000E+00  0.00000000000E+00  0.34209009017E+03  0.87284428674E+03  0.80301402174E+03 0.  0.
        1    1    3    3  502    0  0.22278537050E+03 -0.11429100489E+03 -0.17011525497E+03  0.30271266096E+03  0.50400001928E-02 0.  1.
       -1    1    3    3    0  502 -0.22278537050E+03  0.11429100489E+03  0.51220534514E+03  0.57013162578E+03  0.50400001928E-02 0. -1.
</event>
<event>
 5   0  0.4104786E-04  0.7998110E+03  0.7818609E-02  0.9560291E-01
        1   -1    0    0  501    0  0.00000000000E+00  0.00000000000E+00  0.11308097228E+03  0.11308097239E+03  0.50400001928E-02 0. -1.
       -1   -1    0    0    0  501  0.00000000000E+00  0.00000000000E+00 -0.14142467784E+04  0.14142467784E+04  0.50400001928E-02 0.  1.
    10030    2    1    2    0    0  0.00000000000E+00  0.00000000000E+00 -0.13011658061E+04  0.15273277508E+04  0.79981097976E+03 0.  0.
        2    1    3    3  502    0  0.33995086703E+03 -0.20772924955E+03 -0.58425676135E+03  0.70715910253E+03  0.25500000920E-02 0. -1.
       -2    1    3    3    0  502 -0.33995086703E+03  0.20772924955E+03 -0.71690904476E+03  0.82016864826E+03  0.25500000920E-02 0.  1.
</event>
<event>
 5   0  0.6801147E-04  0.8002151E+03  0.7818609E-02  0.9559706E-01
        2   -1    0    0  501    0  0.00000000000E+00  0.00000000000E+00  0.38228387614E+03  0.38228387615E+03  0.25500000920E-02 0. -1.
       -2   -1    0    0    0  501  0.00000000000E+00  0.00000000000E+00 -0.41876228235E+03  0.41876228236E+03  0.25500000920E-02 0.  1.
    10030    2    1    2    0    0  0.00000000000E+00  0.00000000000E+00 -0.36478406208E+02  0.80104615850E+03  0.80021514228E+03 0.  0.
        4    1    3    3  502    0 -0.99789219676E+02  0.22303037733E+03  0.29892419653E+03  0.38607994735E+03  0.12699999809E+01 0. -1.
       -4    1    3    3    0  502  0.99789219676E+02 -0.22303037733E+03 -0.33540260274E+03  0.41496621115E+03  0.12699999809E+01 0.  1.
</event>
<event>
 5   0  0.4169155E-04  0.7997663E+03  0.7818609E-02  0.9560355E-01
        1   -1    0    0  501    0  0.00000000000E+00  0.00000000000E+00  0.98320275950E+03  0.98320275952E+03  0.50400001928E-02 0.  1.
       -1   -1    0    0    0  501  0.00000000000E+00  0.00000000000E+00 -0.16263840988E+03  0.16263840996E+03  0.50400001928E-02 0. -1.
    10030    2    1    2    0    0  0.00000000000E+00  0.00000000000E+00  0.82056434962E+03  0.11458411695E+04  0.79976629949E+03 0.  0.
        4    1    3    3  502    0 -0.37273332655E+03  0.14361922823E+03  0.43702093376E+03  0.59206885147E+03  0.12699999809E+01 0.  1.
       -4    1    3    3    0  502  0.37273332655E+03 -0.14361922823E+03  0.38354341587E+03  0.55377231801E+03  0.12699999809E+01 0. -1.
</event>
<event>
 5   0  0.4087283E-04  0.7997242E+03  0.7818609E-02  0.9560416E-01
       -1   -1    0    0    0  501  0.00000000000E+00  0.00000000000E+00  0.37822821518E+03  0.37822821521E+03  0.50400001928E-02 0.  1.
        1   -1    0    0  501    0  0.00000000000E+00  0.00000000000E+00 -0.42273342939E+03  0.42273342943E+03  0.50400001928E-02 0. -1.
    10030    2    1    2    0    0  0.00000000000E+00  0.00000000000E+00 -0.44505214214E+02  0.80096164464E+03  0.79972422878E+03 0.  0.
        1    1    3    3  502    0 -0.40434023748E+02 -0.39290404716E+03 -0.84648360586E+02  0.40394782526E+03  0.50400001928E-02 0. -1.
       -1    1    3    3    0  502  0.40434023748E+02  0.39290404716E+03  0.40143146372E+02  0.39701381938E+03  0.50400001928E-02 0.  1.
</event>
<event>
 5   0  0.6593118E-04  0.8002837E+03  0.7818609E-02  0.9559607E-01
        2   -1    0    0  501    0  0.00000000000E+00  0.00000000000E+00  0.98474037974E+03  0.98474037974E+03  0.25500000920E-02 0. -1.
       -2   -1    0    0    0  501  0.00000000000E+00  0.00000000000E+00 -0.16259461593E+03  0.16259461595E+03  0.25500000920E-02 0.  1.
    10030    2    1    2    0    0  0.00000000000E+00  0.00000000000E+00  0.82214576381E+03  0.11473349957E+04  0.80028365933E+03 0.  0.
        1    1    3    3  502    0  0.92980471272E+02 -0.70792980859E+01  0.96894549669E+03  0.97342224142E+03  0.50400001928E-02 0. -1.
       -1    1    3    3    0  502 -0.92980471272E+02  0.70792980859E+01 -0.14679973288E+03  0.17391275427E+03  0.50400001928E-02 0.  1.
</event>
<event>
 5   0  0.6672462E-04  0.7990972E+03  0.7818609E-02  0.9561325E-01
       -2   -1    0    0    0  501  0.00000000000E+00  0.00000000000E+00  0.15406992935E+03  0.15406992937E+03  0.25500000920E-02 0. -1.
        2   -1    0    0  501    0  0.00000000000E+00  0.00000000000E+00 -0.10361469101E+04  0.10361469101E+04  0.25500000920E-02 0.  1.
    10030    2    1    2    0    0  0.00000000000E+00  0.00000000000E+00 -0.88207698079E+03  0.11902168395E+04  0.79909719372E+03 0.  0.
        5    1    3    3  502    0  0.36067877217E+03  0.16433721977E+03 -0.36625238840E+03  0.53968398207E+03  0.46999998093E+01 0. -1.
       -5    1    3    3    0  502 -0.36067877217E+03 -0.16433721977E+03 -0.51582459239E+03  0.65053285744E+03  0.46999998093E+01 0.  1.
</event>
<event>
 5   0  0.4169155E-04  0.7998663E+03  0.7818609E-02  0.9560211E-01
        1   -1    0    0  501    0  0.00000000000E+00  0.00000000000E+00  0.21831967469E+03  0.21831967475E+03  0.50400001928E-02 0.  1.
       -1   -1    0    0    0  501  0.00000000000E+00  0.00000000000E+00 -0.73262525278E+03  0.73262525280E+03  0.50400001928E-02 0. -1.
    10030    2    1    2    0    0  0.00000000000E+00  0.00000000000E+00 -0.51430557809E+03  0.95094492755E+03  0.79986625606E+03 0.  0.
        4    1    3    3  502    0  0.35786753217E+03  0.16295260551E+03 -0.17042017532E+03  0.42856431405E+03  0.12699999809E+01 0.  1.
       -4    1    3    3    0  502 -0.35786753217E+03 -0.16295260551E+03 -0.34388540277E+03  0.52238061350E+03  0.12699999809E+01 0. -1.
</event>
<event>
 5   0  0.6801147E-04  0.7998342E+03  0.7818609E-02  0.9560257E-01
        2   -1    0    0  501    0  0.00000000000E+00  0.00000000000E+00  0.15074949576E+04  0.15074949576E+04  0.25500000920E-02 0.  1.
       -2   -1    0    0    0  501  0.00000000000E+00  0.00000000000E+00 -0.10609234095E+03  0.10609234098E+03  0.25500000920E-02 0. -1.
    10030    2    1    2    0    0  0.00000000000E+00  0.00000000000E+00  0.14014026167E+04  0.16135872986E+04  0.79983415542E+03 0.  0.
        4    1    3    3  502    0  0.31298380616E+03  0.21879004639E+03  0.46111315182E+03  0.59871103130E+03  0.12699999809E+01 0. -1.
       -4    1    3    3    0  502 -0.31298380616E+03 -0.21879004639E+03  0.94028946483E+03  0.10148762673E+04  0.12699999809E+01 0.  1.
</event>
<event>
 5   0  0.7133039E-04  0.7995835E+03  0.7818609E-02  0.9560620E-01
        2   -1    0    0  501    0  0.00000000000E+00  0.00000000000E+00  0.84104908641E+03  0.84104908641E+03  0.25500000920E-02 0.  1.
       -2   -1    0    0    0  501  0.00000000000E+00  0.00000000000E+00 -0.19004056875E+03  0.19004056877E+03  0.25500000920E-02 0. -1.
    10030    2    1    2    0    0  0.00000000000E+00  0.00000000000E+00  0.65100851765E+03  0.10310896552E+04  0.79958350843E+03 0.  0.
        2    1    3    3  502    0 -0.74738963574E+02 -0.25303986901E+03 -0.61824783978E+02  0.27099334292E+03  0.25500000920E-02 0. -1.
       -2    1    3    3    0  502  0.74738963574E+02  0.25303986901E+03  0.71283330163E+03  0.76009631226E+03  0.25500000920E-02 0.  1.
</event>
<event>
 5   0  0.4087283E-04  0.7999165E+03  0.7818609E-02  0.9560138E-01
       -1   -1    0    0    0  501  0.00000000000E+00  0.00000000000E+00  0.19132415099E+03  0.19132415106E+03  0.50400001928E-02 0.  1.
        1   -1    0    0  501    0  0.00000000000E+00  0.00000000000E+00 -0.83610250783E+03  0.83610250785E+03  0.50400001928E-02 0. -1.
    10030    2    1    2    0    0  0.00000000000E+00  0.00000000000E+00 -0.64477835684E+03  0.10274266589E+04  0.79991650189E+03 0.  0.
        1    1    3    3  502    0 -0.67325275283E+01  0.81031179976E+02  0.18059631601E+03  0.19805657887E+03  0.50400001928E-02 0.  1.
       -1    1    3    3    0  502  0.67325275283E+01 -0.81031179976E+02 -0.82537467285E+03  0.82937008003E+03  0.50400001928E-02 0. -1.
</event>
<event>
 5   0  0.7133039E-04  0.8002196E+03  0.7818609E-02  0.9559699E-01
       -2   -1    0    0    0  501  0.00000000000E+00  0.00000000000E+00  0.11631877347E+03  0.11631877350E+03  0.25500000920E-02 0.  1.
        2   -1    0    0  501    0  0.00000000000E+00  0.00000000000E+00 -0.13762856740E+04  0.13762856740E+04  0.25500000920E-02 0. -1.
    10030    2    1    2    0    0  0.00000000000E+00  0.00000000000E+00 -0.12599669005E+04  0.14926044475E+04  0.80021962378E+03 0.  0.
        2    1    3    3  502    0 -0.32265494568E+03  0.55655142935E+02 -0.10589251902E+04  0.11083890415E+04  0.25500000920E-02 0. -1.
       -2    1    3    3    0  502  0.32265494568E+03 -0.55655142935E+02 -0.20104171036E+03  0.38421540602E+03  0.25500000920E-02 0.  1.
</event>
<event>
 5   0  0.4104786E-04  0.7995845E+03  0.7818609E-02  0.9560619E-01
       -1   -1    0    0    0  501  0.00000000000E+00  0.00000000000E+00  0.92739636076E+02  0.92739636213E+02  0.50400001928E-02 0.  1.
        1   -1    0    0  501    0  0.00000000000E+00  0.00000000000E+00 -0.17234686380E+04  0.17234686380E+04  0.50400001928E-02 0. -1.
    10030    2    1    2    0    0  0.00000000000E+00  0.00000000000E+00 -0.16307290019E+04  0.18162082742E+04  0.79958452814E+03 0.  0.
        2    1    3    3  502    0 -0.11981538787E+03  0.36176164147E+03 -0.10898860623E+04  0.11545903348E+04  0.25500000920E-02 0. -1.
       -2    1    3    3    0  502  0.11981538787E+03 -0.36176164147E+03 -0.54084293960E+03  0.66161793940E+03  0.25500000920E-02 0.  1.
</event>
<event>
 5   0  0.4169155E-04  0.7998279E+03  0.7818609E-02  0.9560266E-01
        1   -1    0    0  501    0  0.00000000000E+00  0.00000000000E+00  0.27317320214E+03  0.27317320219E+03  0.50400001928E-02 0.  1.
       -1   -1    0    0    0  501  0.00000000000E+00  0.00000000000E+00 -0.58545705561E+03  0.58545705563E+03  0.50400001928E-02 0. -1.
    10030    2    1    2    0    0  0.00000000000E+00  0.00000000000E+00 -0.31228385346E+03  0.85863025782E+03  0.79982792806E+03 0.  0.
        4    1    3    3  502    0 -0.38701503633E+03  0.28457370578E+02 -0.52398099990E+02  0.39158349566E+03  0.12699999809E+01 0.  1.
       -4    1    3    3    0  502  0.38701503633E+03 -0.28457370578E+02 -0.25988575347E+03  0.46704676216E+03  0.12699999809E+01 0. -1.
</event>
<event>
 5   0  0.6593118E-04  0.7997269E+03  0.7818609E-02  0.9560412E-01
       -2   -1    0    0    0  501  0.00000000000E+00  0.00000000000E+00  0.10819780029E+03  0.10819780032E+03  0.25500000920E-02 0.  1.
        2   -1    0    0  501    0  0.00000000000E+00  0.00000000000E+00 -0.14777637912E+04  0.14777637912E+04  0.25500000920E-02 0. -1.
    10030    2    1    2    0    0  0.00000000000E+00  0.00000000000E+00 -0.13695659909E+04  0.15859615915E+04  0.79972693234E+03 0.  0.
        1    1    3    3  502    0 -0.11872812548E+03  0.17378612019E+03 -0.13590258472E+04  0.13752269764E+04  0.50400001928E-02 0. -1.
       -1    1    3    3    0  502  0.11872812548E+03 -0.17378612019E+03 -0.10540143748E+02  0.21073461512E+03  0.50400001928E-02 0.  1.
</event>
<event>
 5   0  0.7133039E-04  0.7999368E+03  0.7818609E-02  0.9560109E-01
       -2   -1    0    0    0  501  0.00000000000E+00  0.00000000000E+00  0.53085766851E+03  0.53085766851E+03  0.25500000920E-02 0.  1.
        2   -1    0    0  501    0  0.00000000000E+00  0.00000000000E+00 -0.30135144742E+03  0.30135144743E+03  0.25500000920E-02 0. -1.
    10030    2    1    2    0    0  0.00000000000E+00  0.00000000000E+00  0.22950622109E+03  0.83220911594E+03  0.79993681447E+03 0.  0.
        2    1    3    3  502    0  0.31274956254E+03  0.11021690672E+03 -0.11790890942E+03  0.35194114042E+03  0.25500000920E-02 0. -1.
       -2    1    3    3    0  502 -0.31274956254E+03 -0.11021690672E+03  0.34741513051E+03  0.48026797552E+03  0.25500000920E-02 0.  1.
</event>
<event>
 5   0  0.4087283E-04  0.8003850E+03  0.7818609E-02  0.9559460E-01
        1   -1    0    0  501    0  0.00000000000E+00  0.00000000000E+00  0.42588533066E+03  0.42588533069E+03  0.50400001928E-02 0. -1.
       -1   -1    0    0    0  501  0.00000000000E+00  0.00000000000E+00 -0.37604967916E+03  0.37604967919E+03  0.50400001928E-02 0.  1.
    10030    2    1    2    0    0  0.00000000000E+00  0.00000000000E+00  0.49835651503E+02  0.80193500988E+03  0.80038501230E+03 0.  0.
        1    1    3    3  502    0 -0.74527221749E+02  0.14175220628E+03 -0.34254307152E+03  0.37813192227E+03  0.50400001928E-02 0.  1.
       -1    1    3    3    0  502  0.74527221749E+02 -0.14175220628E+03  0.39237872302E+03  0.42380308762E+03  0.50400001928E-02 0. -1.
</event>
<event>
 5   0  0.4104786E-04  0.7998692E+03  0.7818609E-02  0.9560206E-01
        1   -1    0    0  501    0  0.00000000000E+00  0.00000000000E+00  0.61083081372E+03  0.61083081374E+03  0.50400001928E-02 0. -1.
       -1   -1    0    0    0  501  0.00000000000E+00  0.00000000000E+00 -0.26185265975E+03  0.26185265980E+03  0.50400001928E-02 0.  1.
    10030    2    1    2    0    0  0.00000000000E+00  0.00000000000E+00  0.34897815397E+03  0.87268347353E+03  0.79986917245E+03 0.  0.
        2    1    3    3  502    0  0.13131387215E+03  0.24881526675E+03  0.48460984456E+03  0.56035620049E+03  0.25500000920E-02 0. -1.
       -2    1    3    3    0  502 -0.13131387215E+03 -0.24881526675E+03 -0.13563169059E+03  0.31232727304E+03  0.25500000920E-02 0.  1.
</event>
<event>
 5   0  0.6593118E-04  0.7999580E+03  0.7818609E-02  0.9560078E-01
       -2   -1    0    0    0  501  0.00000000000E+00  0.00000000000E+00  0.92238734139E+02  0.92238734175E+02  0.25500000920E-02 0.  1.
        2   -1    0    0  501    0  0.00000000000E+00  0.00000000000E+00 -0.17344469629E+04  0.17344469629E+04  0.25500000920E-02 0. -1.
    10030    2    1    2    0    0  0.00000000000E+00  0.00000000000E+00 -0.16422082288E+04  0.18266856971E+04  0.79995797970E+03 0.  0.
        1    1    3    3  502    0  0.57463173071E+01  0.25349102842E+03 -0.11472876167E+03  0.27830452822E+03  0.50400001928E-02 0.  1.
       -1    1    3    3    0  502 -0.57463173071E+01 -0.25349102842E+03 -0.15274794671E+04  0.15483811688E+04  0.50400001928E-02 0. -1.
</event>
<event>
 5   0  0.4104786E-04  0.7997481E+03  0.7818609E-02  0.9560382E-01
       -1   -1    0    0    0  501  0.00000000000E+00  0.00000000000E+00  0.64910841206E+03  0.64910841208E+03  0.50400001928E-02 0.  1.
        1   -1    0    0  501    0  0.00000000000E+00  0.00000000000E+00 -0.24633676987E+03  0.24633676992E+03  0.50400001928E-02 0. -1.
    10030    2    1    2    0    0  0.00000000000E+00  0.00000000000E+00  0.40277164219E+03  0.89544518200E+03  0.79974813424E+03 0.  0.
        2    1    3    3  502    0  0.18383100666E+03  0.27627081261E+03  0.45119744446E+03  0.56008797059E+03  0.25500000920E-02 0.  1.
       -2    1    3    3    0  502 -0.18383100666E+03 -0.27627081261E+03 -0.48425802266E+02  0.33535721141E+03  0.25500000920E-02 0. -1.
</event>
<event>
 5   0  0.4087283E-04  0.8001703E+03  0.7818609E-02  0.9559771E-01
       -1   -1    0    0    0  501  0.00000000000E+00  0.00000000000E+00  0.16344543016E+03  0.16344543023E+03  0.50400001928E-02 0.  1.
        1   -1    0    0  501    0  0.00000000000E+00  0.00000000000E+00 -0.97933684315E+03  0.97933684316E+03  0.50400001928E-02 0. -1.
    10030    2    1    2    0    0  0.00000000000E+00  0.00000000000E+00 -0.81589141299E+03  0.11427822734E+04  0.80017031099E+03 0.  0.
        1    1    3    3  502    0 -0.10129776105E+03  0.30230426141E+03 -0.75313572383E+03  0.81784015639E+03  0.50400001928E-02 0. -1.
       -1    1    3    3    0  502  0.10129776105E+03 -0.30230426141E+03 -0.62755689162E+02  0.32494211701E+03  0.50400001928E-02 0.  1.
</event>
<event>
 5   0  0.6801147E-04  0.7997460E+03  0.7818609E-02  0.9560385E-01
       -2   -1    0    0    0  501  0.00000000000E+00  0.00000000000E+00  0.15655022546E+03  0.15655022548E+03  0.25500000920E-02 0.  1.
        2   -1    0    0  501    0  0.00000000000E+00  0.00000000000E+00 -0.10213873023E+04  0.10213873023E+04  0.25500000920E-02 0. -1.
    10030    2    1    2    0    0  0.00000000000E+00  0.00000000000E+00 -0.86483707687E+03  0.11779375278E+04  0.79974599086E+03 0.  0.
        4    1    3    3  502    0 -0.26001627240E+02 -0.94471450763E+02  0.13859143699E+03  0.16973549698E+03  0.12699999809E+01 0.  1.
       -4    1    3    3    0  502  0.26001627240E+02  0.94471450763E+02 -0.10034285139E+04  0.10082020308E+04  0.12699999809E+01 0. -1.
</event>
<event>
 5   0  0.6801147E-04  0.8000419E+03  0.7818609E-02  0.9559956E-01
       -2   -1    0    0    0  501  0.00000000000E+00  0.00000000000E+00  0.69070903052E+03  0.69070903052E+03  0.25500000920E-02 0.  1.
        2   -1    0    0  501    0  0.00000000000E+00  0.00000000000E+00 -0.23167029298E+03  0.23167029299E+03  0.25500000920E-02 0. -1.
    10030    2    1    2    0    0  0.00000000000E+00  0.00000000000E+00  0.45903873754E+03  0.92237932352E+03  0.80004190758E+03 0.  0.
        4    1    3    3  502    0  0.38326325424E+03  0.11290440388E+03  0.20713311722E+03  0.45004873916E+03  0.12699999809E+01 0. -1.
       -4    1    3    3    0  502 -0.38326325424E+03 -0.11290440388E+03  0.25190562032E+03  0.47233058436E+03  0.12699999809E+01 0.  1.
</event>
<event>
 5   0  0.6801147E-04  0.8001410E+03  0.7818609E-02  0.9559813E-01
        2   -1    0    0  501    0  0.00000000000E+00  0.00000000000E+00  0.16674405844E+03  0.16674405846E+03  0.25500000920E-02 0.  1.
       -2   -1    0    0    0  501  0.00000000000E+00  0.00000000000E+00 -0.95989276815E+03  0.95989276816E+03  0.25500000920E-02 0. -1.
    10030    2    1    2    0    0  0.00000000000E+00  0.00000000000E+00 -0.79314870971E+03  0.11266368266E+04  0.80014102718E+03 0.  0.
        4    1    3    3  502    0  0.72564444777E+02 -0.26971661284E+02  0.15609424945E+03  0.17424148981E+03  0.12699999809E+01 0.  1.
       -4    1    3    3    0  502 -0.72564444777E+02  0.26971661284E+02 -0.94924295916E+03  0.95239533681E+03  0.12699999809E+01 0. -1.
</event>
<event>
 5   0  0.6970013E-04  0.7994921E+03  0.7818609E-02  0.9560753E-01
        2   -1    0    0  501    0  0.00000000000E+00  0.00000000000E+00  0.46899785875E+03  0.46899785876E+03  0.25500000920E-02 0.  1.
       -2   -1    0    0    0  501  0.00000000000E+00  0.00000000000E+00 -0.34071992244E+03  0.34071992245E+03  0.25500000920E-02 0. -1.
    10030    2    1    2    0    0  0.00000000000E+00  0.00000000000E+00  0.12827793632E+03  0.80971778121E+03  0.79949212395E+03 0.  0.
        3    1    3    3  502    0  0.98187121654E+02 -0.24178814432E+03  0.37082328742E+03  0.45344474668E+03  0.10100000352E+00 0.  1.
       -3    1    3    3    0  502 -0.98187121654E+02  0.24178814432E+03 -0.24254535111E+03  0.35627303453E+03  0.10100000352E+00 0. -1.
</event>
<event>
 5   0  0.4087283E-04  0.8019358E+03  0.7818609E-02  0.9557219E-01
        1   -1    0    0  501    0  0.00000000000E+00  0.00000000000E+00  0.16969301087E+03  0.16969301094E+03  0.50400001928E-02 0.  1.
       -1   -1    0    0    0  501  0.00000000000E+00  0.00000000000E+00 -0.94744761410E+03  0.94744761412E+03  0.50400001928E-02 0. -1.
    10030    2    1    2    0    0  0.00000000000E+00  0.00000000000E+00 -0.77775460323E+03  0.11171406251E+04  0.80193575385E+03 0.  0.
        1    1    3    3  502    0  0.13344182619E+03 -0.27680463227E+03 -0.74770110638E+03  0.80838386299E+03  0.50400001928E-02 0. -1.
       -1    1    3    3    0  502 -0.13344182619E+03  0.27680463227E+03 -0.30053496849E+02  0.30875676207E+03  0.50400001928E-02 0.  1.
</event>
<event>
 5   0  0.7133039E-04  0.8000225E+03  0.7818609E-02  0.9559985E-01
        2   -1    0    0  501    0  0.00000000000E+00  0.00000000000E+00  0.55256355805E+03  0.55256355805E+03  0.25500000920E-02 0. -1.
       -2   -1    0    0    0  501  0.00000000000E+00  0.00000000000E+00 -0.28957575541E+03  0.28957575542E+03  0.25500000920E-02 0.  1.
    10030    2    1    2    0    0  0.00000000000E+00  0.00000000000E+00  0.26298780263E+03  0.84213931348E+03  0.80002252404E+03 0.  0.
        2    1    3    3  502    0 -0.19799837100E+03  0.34756984088E+03  0.13247038304E+03  0.42137459771E+03  0.25500000920E-02 0.  1.
       -2    1    3    3    0  502  0.19799837100E+03 -0.34756984088E+03  0.13051741959E+03  0.42076471576E+03  0.25500000920E-02 0. -1.
</event>
<event>
 5   0  0.6593118E-04  0.7996620E+03  0.7818609E-02  0.9560506E-01
       -2   -1    0    0    0  501  0.00000000000E+00  0.00000000000E+00  0.47266185102E+03  0.47266185102E+03  0.25500000920E-02 0. -1.
        2   -1    0    0  501    0  0.00000000000E+00  0.00000000000E+00 -0.33822241821E+03  0.33822241822E+03  0.25500000920E-02 0.  1.
    10030    2    1    2    0    0  0.00000000000E+00  0.00000000000E+00  0.13443943280E+03  0.81088426925E+03  0.79966201424E+03 0.  0.
        1    1    3    3  502    0 -0.28054652031E+03  0.16680338346E+03 -0.16696525898E+03  0.36661576142E+03  0.50400001928E-02 0.  1.
       -1    1    3    3    0  502  0.28054652031E+03 -0.16680338346E+03  0.30140469178E+03  0.44426850782E+03  0.50400001928E-02 0. -1.
</event>
<event>
 5   0  0.4104786E-04  0.8001706E+03  0.7818609E-02  0.9559770E-01
       -1   -1    0    0    0  501  0.00000000000E+00  0.00000000000E+00  0.95580460480E+03  0.95580460482E+03  0.50400001928E-02 0.  1.
        1   -1    0    0  501    0  0.00000000000E+00  0.00000000000E+00 -0.16746964106E+03  0.16746964114E+03  0.50400001928E-02 0. -1.
    10030    2    1    2    0    0  0.00000000000E+00  0.00000000000E+00  0.78833496374E+03  0.11232742460E+04  0.80017061716E+03 0.  0.
        2    1    3    3  502    0 -0.30609719861E+02  0.17545222061E+03 -0.10875082629E+03  0.20867960823E+03  0.25500000920E-02 0. -1.
       -2    1    3    3    0  502  0.30609719861E+02 -0.17545222061E+03  0.89708579003E+03  0.91459463772E+03  0.25500000920E-02 0.  1.
</event>
<event>
 5   0  0.4104786E-04  0.7999235E+03  0.7818609E-02  0.9560128E-01
        1   -1    0    0  501    0  0.00000000000E+00  0.00000000000E+00  0.39081198498E+03  0.39081198501E+03  0.50400001928E-02 0.  1.
       -1   -1    0    0    0  501  0.00000000000E+00  0.00000000000E+00 -0.40932573331E+03  0.40932573334E+03  0.50400001928E-02 0. -1.
    10030    2    1    2    0    0  0.00000000000E+00  0.00000000000E+00 -0.18513748327E+02  0.80013771835E+03  0.79992350225E+03 0.  0.
        2    1    3    3  502    0  0.37822199889E+03  0.65809541365E+02 -0.12147705225E+03  0.40266543235E+03  0.25500000920E-02 0. -1.
       -2    1    3    3    0  502 -0.37822199889E+03 -0.65809541365E+02  0.10296330393E+03  0.39747228600E+03  0.25500000920E-02 0.  1.
</event>
<event>
 5   0  0.6593118E-04  0.8002628E+03  0.7818609E-02  0.9559637E-01
       -2   -1    0    0    0  501  0.00000000000E+00  0.00000000000E+00  0.15522821949E+03  0.15522821951E+03  0.25500000920E-02 0. -1.
        2   -1    0    0  501    0  0.00000000000E+00  0.00000000000E+00 -0.10314177587E+04  0.10314177587E+04  0.25500000920E-02 0.  1.
    10030    2    1    2    0    0  0.00000000000E+00  0.00000000000E+00 -0.87618953924E+03  0.11866459782E+04  0.80026281245E+03 0.  0.
        1    1    3    3  502    0  0.10783479804E+03 -0.14888731323E+03  0.88900011181E+02  0.20420329998E+03  0.50400001928E-02 0. -1.
       -1    1    3    3    0  502 -0.10783479804E+03  0.14888731323E+03 -0.96508955042E+03  0.98244267826E+03  0.50400001928E-02 0.  1.
</event>
<event>
 5   0  0.6801147E-04  0.8001140E+03  0.7818609E-02  0.9559852E-01
       -2   -1    0    0    0  501  0.00000000000E+00  0.00000000000E+00  0.39303593220E+03  0.39303593221E+03  0.25500000920E-02 0. -1.
        2   -1    0    0  501    0  0.00000000000E+00  0.00000000000E+00 -0.40720353430E+03  0.40720353430E+03  0.25500000920E-02 0.  1.
    10030    2    1    2    0    0  0.00000000000E+00  0.00000000000E+00 -0.14167602093E+02  0.80023946652E+03  0.80011404363E+03 0.  0.
        4    1    3    3  502    0 -0.49323037718E+02 -0.36250292920E+03  0.15481458576E+03  0.39725345133E+03  0.12699999809E+01 0. -1.
       -4    1    3    3    0  502  0.49323037718E+02  0.36250292920E+03 -0.16898218785E+03  0.40298601519E+03  0.12699999809E+01 0.  1.
</event>
<event>
 5   0  0.6801147E-04  0.7996080E+03  0.7818609E-02  0.9560585E-01
       -2   -1    0    0    0  501  0.00000000000E+00  0.00000000000E+00  0.69970886551E+03  0.69970886551E+03  0.25500000920E-02 0.  1.
        2   -1    0    0  501    0  0.00000000000E+00  0.00000000000E+00 -0.22844248066E+03  0.22844248068E+03  0.25500000920E-02 0. -1.
    10030    2    1    2    0    0  0.00000000000E+00  0.00000000000E+00  0.47126638484E+03  0.92815134619E+03  0.79960797642E+03 0.  0.
        4    1    3    3  502    0  0.10075096048E+03 -0.37736710345E+03  0.13656041200E+03  0.41377173155E+03  0.12699999809E+01 0. -1.
       -4    1    3    3    0  502 -0.10075096048E+03  0.37736710345E+03  0.33470597284E+03  0.51437961464E+03  0.12699999809E+01 0.  1.
</event>
<event>
 5   0  0.4086111E-04  0.7997305E+03  0.7818609E-02  0.9560407E-01
       -1   -1    0    0    0  501  0.00000000000E+00  0.00000000000E+00  0.52040050115E+03  0.52040050118E+03  0.50400001928E-02 0. -1.
        1   -1    0    0  501    0  0.00000000000E+00  0.00000000000E+00 -0.30724842853E+03  0.30724842857E+03  0.50400001928E-02 0.  1.
    10030    2    1    2    0    0  0.00000000000E+00  0.00000000000E+00  0.21315207262E+03  0.82764892975E+03  0.79973054516E+03 0.  0.
        3    1    3    3  502    0 -0.25232768895E+03  0.18091044955E+03  0.36735352106E+03  0.48098489893E+03  0.10100000352E+00 0. -1.
       -3    1    3    3    0  502  0.25232768895E+03 -0.18091044955E+03 -0.15420144844E+03  0.34666403082E+03  0.10100000352E+00 0.  1.
</event>
<event>
 5   0  0.2736375E-04  0.8004197E+03  0.7818609E-02  0.9559410E-01
       -3   -1    0    0    0  501  0.00000000000E+00  0.00000000000E+00  0.27255365406E+03  0.27255367277E+03  0.10100000352E+00 0. -1.
        3   -1    0    0  501    0  0.00000000000E+00  0.00000000000E+00 -0.58765651725E+03  0.58765652593E+03  0.10100000352E+00 0.  1.
    10030    2    1    2    0    0  0.00000000000E+00  0.00000000000E+00 -0.31510286320E+03  0.86021019870E+03  0.80041974711E+03 0.  0.
        4    1    3    3  502    0 -0.21988397345E+02  0.39656745790E+03 -0.21038784835E+03  0.44945956204E+03  0.12699999809E+01 0.  1.
       -4    1    3    3    0  502  0.21988397345E+02 -0.39656745790E+03 -0.10471501485E+03  0.41075063666E+03  0.12699999809E+01 0. -1.
</event>
<event>
 5   0  0.4086111E-04  0.7999286E+03  0.7818609E-02  0.9560120E-01
       -1   -1    0    0    0  501  0.00000000000E+00  0.00000000000E+00  0.11473733086E+03  0.11473733097E+03  0.50400001928E-02 0. -1.
        1   -1    0    0  501    0  0.00000000000E+00  0.00000000000E+00 -0.13942405451E+04  0.13942405451E+04  0.50400001928E-02 0.  1.
    10030    2    1    2    0    0  0.00000000000E+00  0.00000000000E+00 -0.12795032142E+04  0.15089778760E+04  0.79992859382E+03 0.  0.
        3    1    3    3  502    0  0.27191680081E+03 -0.75107887658E+02 -0.10489584009E+03  0.30097024574E+03  0.10100000352E+00 0. -1.
       -3    1    3    3    0  502 -0.27191680081E+03  0.75107887658E+02 -0.11746073741E+04  0.12080076303E+04  0.10100000352E+00 0.  1.
</event>
<event>
 5   0  0.7133039E-04  0.7999025E+03  0.7818609E-02  0.9560158E-01
       -2   -1    0    0    0  501  0.00000000000E+00  0.00000000000E+00  0.66612842256E+02  0.66612842305E+02  0.25500000920E-02 0.  1.
        2   -1    0    0  501    0  0.00000000000E+00  0.00000000000E+00 -0.24013538840E+04  0.24013538840E+04  0.25500000920E-02 0. -1.
    10030    2    1    2    0    0  0.00000000000E+00  0.00000000000E+00 -0.23347410418E+04  0.24679667264E+04  0.79990251291E+03 0.  0.
        2    1    3    3  502    0 -0.38434788654E+02 -0.25127372169E+03 -0.21467995611E+03  0.33272090369E+03  0.25500000920E-02 0.  1.
       -2    1    3    3    0  502  0.38434788654E+02  0.25127372169E+03 -0.21200610857E+04  0.21352458227E+04  0.25500000920E-02 0. -1.
</event>
<event>
 5   0  0.4104786E-04  0.8000152E+03  0.7818609E-02  0.9559995E-01
       -1   -1    0    0    0  501  0.00000000000E+00  0.00000000000E+00  0.17156172472E+03  0.17156172480E+03  0.50400001928E-02 0. -1.
        1   -1    0    0  501    0  0.00000000000E+00  0.00000000000E+00 -0.93264439620E+03  0.93264439621E+03  0.50400001928E-02 0.  1.
    10030    2    1    2    0    0  0.00000000000E+00  0.00000000000E+00 -0.76108267148E+03  0.11042061210E+04  0.80001520289E+03 0.  0.
        2    1    3    3  502    0 -0.37425212619E+03 -0.70367237401E+02 -0.21155523850E+03  0.43562807646E+03  0.25500000920E-02 0.  1.
       -2    1    3    3    0  502  0.37425212619E+03  0.70367237401E+02 -0.54952743298E+03  0.66857804455E+03  0.25500000920E-02 0. -1.
</event>
<event>
 5   0  0.4104786E-04  0.8005990E+03  0.7818609E-02  0.9559150E-01
       -1   -1    0    0    0  501  0.00000000000E+00  0.00000000000E+00  0.93207234773E+02  0.93207234909E+02  0.50400001928E-02 0.  1.
        1   -1    0    0  501    0  0.00000000000E+00  0.00000000000E+00 -0.17191765541E+04  0.17191765541E+04  0.50400001928E-02 0. -1.
    10030    2    1    2    0    0  0.00000000000E+00  0.00000000000E+00 -0.16259693193E+04  0.18123837890E+04  0.80059900781E+03 0.  0.
        2    1    3    3  502    0 -0.39309588511E+03  0.45665456751E+02 -0.94937621316E+03  0.10285547642E+04  0.25500000920E-02 0. -1.
       -2    1    3    3    0  502  0.39309588511E+03 -0.45665456751E+02 -0.67659310617E+03  0.78382902483E+03  0.25500000920E-02 0.  1.
</event>
<event>
 5   0  0.4087283E-04  0.7998552E+03  0.7818609E-02  0.9560227E-01
       -1   -1    0    0    0  501  0.00000000000E+00  0.00000000000E+00  0.64596322372E+03  0.64596322374E+03  0.50400001928E-02 0. -1.
        1   -1    0    0  501    0  0.00000000000E+00  0.00000000000E+00 -0.24760248901E+03  0.24760248906E+03  0.50400001928E-02 0.  1.
    10030    2    1    2    0    0  0.00000000000E+00  0.00000000000E+00  0.39836073471E+03  0.89356571280E+03  0.79985524198E+03 0.  0.
        1    1    3    3  502    0 -0.25666456562E+03  0.59207816566E+02 -0.13700818203E+03  0.29690656234E+03  0.50400001928E-02 0.  1.
       -1    1    3    3    0  502  0.25666456562E+03 -0.59207816566E+02  0.53536891674E+03  0.59665915046E+03  0.50400001928E-02 0. -1.
</event>
<event>
 5   0  0.7133039E-04  0.8000690E+03  0.7818609E-02  0.9559917E-01
       -2   -1    0    0    0  501  0.00000000000E+00  0.00000000000E+00  0.11396164390E+03  0.11396164393E+03  0.25500000920E-02 0.  1.
        2   -1    0    0  501    0  0.00000000000E+00  0.00000000000E+00 -0.14042233978E+04  0.14042233978E+04  0.25500000920E-02 0. -1.
    10030    2    1    2    0    0  0.00000000000E+00  0.00000000000E+00 -0.12902617539E+04  0.15181850417E+04  0.80006901412E+03 0.  0.
        2    1    3    3  502    0  0.52226004879E+02  0.39655935951E+01 -0.13976888807E+04  0.13986698999E+04  0.25500000920E-02 0. -1.
       -2    1    3    3    0  502 -0.52226004879E+02 -0.39655935951E+01  0.10742712689E+03  0.11951514179E+03  0.25500000920E-02 0.  1.
</event>
<event>
 5   0  0.6801147E-04  0.8001892E+03  0.7818609E-02  0.9559743E-01
       -2   -1    0    0    0  501  0.00000000000E+00  0.00000000000E+00  0.12877821230E+03  0.12877821232E+03  0.25500000920E-02 0. -1.
        2   -1    0    0  501    0  0.00000000000E+00  0.00000000000E+00 -0.12430340789E+04  0.12430340789E+04  0.25500000920E-02 0.  1.
    10030    2    1    2    0    0  0.00000000000E+00  0.00000000000E+00 -0.11142558666E+04  0.13718122912E+04  0.80018924392E+03 0.  0.
        4    1    3    3  502    0  0.74201849344E+02 -0.88584710485E+02 -0.12137991995E+04  0.12192880197E+04  0.12699999809E+01 0.  1.
       -4    1    3    3    0  502 -0.74201849344E+02  0.88584710485E+02  0.99543332904E+02  0.15252427152E+03  0.12699999809E+01 0. -1.
</event>
<event>
 5   0  0.4087283E-04  0.8000465E+03  0.7818609E-02  0.9559950E-01
       -1   -1    0    0    0  501  0.00000000000E+00  0.00000000000E+00  0.22140965484E+03  0.22140965490E+03  0.50400001928E-02 0.  1.
        1   -1    0    0  501    0  0.00000000000E+00  0.00000000000E+00 -0.72272633884E+03  0.72272633886E+03  0.50400001928E-02 0. -1.
    10030    2    1    2    0    0  0.00000000000E+00  0.00000000000E+00 -0.50131668399E+03  0.94413599376E+03  0.80004647181E+03 0.  0.
        1    1    3    3  502    0  0.29544380684E+03  0.17903375958E+03 -0.48867184027E+03  0.59844824135E+03  0.50400001928E-02 0. -1.
       -1    1    3    3    0  502 -0.29544380684E+03 -0.17903375958E+03 -0.12644843722E+02  0.34568775241E+03  0.50400001928E-02 0.  1.
</event>
<event>
 5   0  0.6593118E-04  0.8031414E+03  0.7818609E-02  0.9555481E-01
        2   -1    0    0  501    0  0.00000000000E+00  0.00000000000E+00  0.31596350465E+03  0.31596350466E+03  0.25500000920E-02 0.  1.
       -2   -1    0    0    0  501  0.00000000000E+00  0.00000000000E+00 -0.51037226915E+03  0.51037226916E+03  0.25500000920E-02 0. -1.
    10030    2    1    2    0    0  0.00000000000E+00  0.00000000000E+00 -0.19440876450E+03  0.82633577382E+03  0.80314135953E+03 0.  0.
        1    1    3    3  502    0  0.97657377907E+02 -0.38901555965E+03 -0.76913224593E+02  0.40839406613E+03  0.50400001928E-02 0.  1.
       -1    1    3    3    0  502 -0.97657377907E+02  0.38901555965E+03 -0.11749553990E+03  0.41794170769E+03  0.50400001928E-02 0. -1.
</event>
<event>
 5   0  0.4104786E-04  0.7997987E+03  0.7818609E-02  0.9560309E-01
       -1   -1    0    0    0  501  0.00000000000E+00  0.00000000000E+00  0.93563022933E+02  0.93563023069E+02  0.50400001928E-02 0. -1.
        1   -1    0    0  501    0  0.00000000000E+00  0.00000000000E+00 -0.17092168191E+04  0.17092168191E+04  0.50400001928E-02 0.  1.
    10030    2    1    2    0    0  0.00000000000E+00  0.00000000000E+00 -0.16156537961E+04  0.18027798421E+04  0.79979870610E+03 0.  0.
        2    1    3    3  502    0 -0.38463857135E+03 -0.51028370963E+02 -0.58965278290E+03  0.70586197632E+03  0.25500000920E-02 0. -1.
       -2    1    3    3    0  502  0.38463857135E+03  0.51028370963E+02 -0.10260010132E+04  0.10969178658E+04  0.25500000920E-02 0.  1.
</event>
<event>
 5   0  0.4169155E-04  0.8000745E+03  0.7818609E-02  0.9559909E-01
        1   -1    0    0  501    0  0.00000000000E+00  0.00000000000E+00  0.14596884795E+03  0.14596884804E+03  0.50400001928E-02 0.  1.
       -1   -1    0    0    0  501  0.00000000000E+00  0.00000000000E+00 -0.10963285820E+04  0.10963285820E+04  0.50400001928E-02 0. -1.
    10030    2    1    2    0    0  0.00000000000E+00  0.00000000000E+00 -0.95035973405E+03  0.12422974300E+04  0.80007454690E+03 0.  0.
        4    1    3    3  502    0 -0.16503038510E+03 -0.43524772725E+02 -0.10369555301E+04  0.10509080922E+04  0.12699999809E+01 0. -1.
       -4    1    3    3    0  502  0.16503038510E+03  0.43524772725E+02  0.86595796084E+02  0.19138933786E+03  0.12699999809E+01 0.  1.
</event>
<event>
 5   0  0.4087283E-04  0.7998809E+03  0.7818609E-02  0.9560190E-01
        1   -1    0    0  501    0  0.00000000000E+00  0.00000000000E+00  0.46194965615E+03  0.46194965617E+03  0.50400001928E-02 0.  1.
       -1   -1    0    0    0  501  0.00000000000E+00  0.00000000000E+00 -0.34625495350E+03  0.34625495353E+03  0.50400001928E-02 0. -1.
    10030    2    1    2    0    0  0.00000000000E+00  0.00000000000E+00  0.11569470265E+03  0.80820460971E+03  0.79988088296E+03 0.  0.
        1    1    3    3  502    0 -0.32663180211E+03 -0.99710043670E+02 -0.15245779616E+03  0.37399706762E+03  0.50400001928E-02 0. -1.
       -1    1    3    3    0  502  0.32663180211E+03  0.99710043670E+02  0.26815249881E+03  0.43420754208E+03  0.50400001928E-02 0.  1.
</event>
<event>
 5   0  0.4087283E-04  0.8015252E+03  0.7818609E-02  0.9557812E-01
        1   -1    0    0  501    0  0.00000000000E+00  0.00000000000E+00  0.84364728243E+03  0.84364728245E+03  0.50400001928E-02 0. -1.
       -1   -1    0    0    0  501  0.00000000000E+00  0.00000000000E+00 -0.19037657281E+03  0.19037657288E+03  0.50400001928E-02 0.  1.
    10030    2    1    2    0    0  0.00000000000E+00  0.00000000000E+00  0.65327070962E+03  0.10340238553E+04  0.80152524186E+03 0.  0.
        1    1    3    3  502    0  0.19666448388E+03 -0.29102507087E+03  0.77688007317E+02  0.35973314776E+03  0.50400001928E-02 0.  1.
       -1    1    3    3    0  502 -0.19666448388E+03  0.29102507087E+03  0.57558270230E+03  0.67429070757E+03  0.50400001928E-02 0. -1.
</event>
<event>
 5   0  0.4087283E-04  0.8001786E+03  0.7818609E-02  0.9559759E-01
       -1   -1    0    0    0  501  0.00000000000E+00  0.00000000000E+00  0.17279585601E+03  0.17279585609E+03  0.50400001928E-02 0. -1.
        1   -1    0    0  501    0  0.00000000000E+00  0.00000000000E+00 -0.92636160142E+03  0.92636160143E+03  0.50400001928E-02 0.  1.
    10030    2    1    2    0    0  0.00000000000E+00  0.00000000000E+00 -0.75356574541E+03  0.10991574575E+04  0.80017859492E+03 0.  0.
        1    1    3    3  502    0 -0.49452254071E+02  0.11806700994E+03  0.14390847636E+03  0.19260060711E+03  0.50400001928E-02 0. -1.
       -1    1    3    3    0  502  0.49452254071E+02 -0.11806700994E+03 -0.89747422176E+03  0.90655685041E+03  0.50400001928E-02 0.  1.
</event>
<event>
 5   0  0.4104786E-04  0.7998433E+03  0.7818609E-02  0.9560244E-01
       -1   -1    0    0    0  501  0.00000000000E+00  0.00000000000E+00  0.20719811632E+03  0.20719811638E+03  0.50400001928E-02 0.  1.
        1   -1    0    0  501    0  0.00000000000E+00  0.00000000000E+00 -0.77190521668E+03  0.77190521670E+03  0.50400001928E-02 0. -1.
    10030    2    1    2    0    0  0.00000000000E+00  0.00000000000E+00 -0.56470710036E+03  0.97910333308E+03  0.79984325193E+03 0.  0.
        2    1    3    3  502    0  0.37298783880E+03  0.40167790790E+02 -0.11271729608E+03  0.39171235384E+03  0.25500000920E-02 0.  1.
       -2    1    3    3    0  502 -0.37298783880E+03 -0.40167790790E+02 -0.45198980428E+03  0.58739097924E+03  0.25500000920E-02 0. -1.
</event>
<event>
 5   0  0.4169155E-04  0.7995519E+03  0.7818609E-02  0.9560666E-01
        1   -1    0    0  501    0  0.00000000000E+00  0.00000000000E+00  0.93754371148E+03  0.93754371150E+03  0.50400001928E-02 0. -1.
       -1   -1    0    0    0  501  0.00000000000E+00  0.00000000000E+00 -0.17046760136E+03  0.17046760143E+03  0.50400001928E-02 0.  1.
    10030    2    1    2    0    0  0.00000000000E+00  0.00000000000E+00  0.76707611013E+03  0.11080113129E+04  0.79955194381E+03 0.  0.
        4    1    3    3  502    0 -0.26039005418E+03 -0.24588544410E+03  0.13736387742E+03  0.38357930034E+03  0.12699999809E+01 0.  1.
       -4    1    3    3    0  502  0.26039005418E+03  0.24588544410E+03  0.62971223271E+03  0.72443201259E+03  0.12699999809E+01 0. -1.
</event>
<event>
 5   0  0.7133039E-04  0.7998855E+03  0.7818609E-02  0.9560183E-01
       -2   -1    0    0    0  501  0.00000000000E+00  0.00000000000E+00  0.17179838062E+03  0.17179838064E+03  0.25500000920E-02 0. -1.
        2   -1    0    0  501    0  0.00000000000E+00  0.00000000000E+00 -0.93105759075E+03  0.93105759075E+03  0.25500000920E-02 0.  1.
    10030    2    1    2    0    0  0.00000000000E+00  0.00000000000E+00 -0.75925921013E+03  0.11028559714E+04  0.79988545773E+03 0.  0.
        2    1    3    3  502    0  0.11929481667E+03 -0.66089957778E+02  0.13874851572E+03  0.19455150070E+03  0.25500000920E-02 0. -1.
       -2    1    3    3    0  502 -0.11929481667E+03  0.66089957778E+02 -0.89800772584E+03  0.90830447070E+03  0.25500000920E-02 0.  1.
</event>
<event>
 5   0  0.2736375E-04  0.7991153E+03  0.7818609E-02  0.9561299E-01
        4   -1    0    0  501    0  0.00000000000E+00  0.00000000000E+00  0.39719283317E+03  0.39719486354E+03  0.12699999809E+01 0. -1.
       -4   -1    0    0    0  501  0.00000000000E+00  0.00000000000E+00 -0.40193245087E+03  0.40193445729E+03  0.12699999809E+01 0.  1.
    10030    2    1    2    0    0  0.00000000000E+00  0.00000000000E+00 -0.47396176913E+01  0.79912932083E+03  0.79911526543E+03 0.  0.
        5    1    3    3  502    0  0.14584951603E+03 -0.15663719109E+03 -0.33974337735E+03  0.40156561532E+03  0.46999998093E+01 0.  1.
       -5    1    3    3    0  502 -0.14584951603E+03  0.15663719109E+03  0.33500375965E+03  0.39756370551E+03  0.46999998093E+01 0. -1.
</event>
<event>
 5   0  0.4086111E-04  0.7990790E+03  0.7818609E-02  0.9561351E-01
       -1   -1    0    0    0  501  0.00000000000E+00  0.00000000000E+00  0.74913986096E+02  0.74913986266E+02  0.50400001928E-02 0.  1.
        1   -1    0    0  501    0  0.00000000000E+00  0.00000000000E+00 -0.21308678062E+04  0.21308678062E+04  0.50400001928E-02 0. -1.
    10030    2    1    2    0    0  0.00000000000E+00  0.00000000000E+00 -0.20559538201E+04  0.22057817925E+04  0.79907897331E+03 0.  0.
        3    1    3    3  502    0 -0.77298317565E+02  0.98943122805E+02  0.19039450987E+02  0.12699323739E+03  0.10100000352E+00 0.  1.
       -3    1    3    3    0  502  0.77298317565E+02 -0.98943122805E+02 -0.20749932711E+04  0.20787885551E+04  0.10100000352E+00 0. -1.
</event>
<event>
 5   0  0.6593118E-04  0.7995254E+03  0.7818609E-02  0.9560704E-01
       -2   -1    0    0    0  501  0.00000000000E+00  0.00000000000E+00  0.47263392038E+03  0.47263392039E+03  0.25500000920E-02 0. -1.
        2   -1    0    0  501    0  0.00000000000E+00  0.00000000000E+00 -0.33812686580E+03  0.33812686581E+03  0.25500000920E-02 0.  1.
    10030    2    1    2    0    0  0.00000000000E+00  0.00000000000E+00  0.13450705458E+03  0.81076078619E+03  0.79952542467E+03 0.  0.
        1    1    3    3  502    0 -0.21508738588E+03  0.23215717516E+03  0.31492055216E+03  0.44646891464E+03  0.50400001928E-02 0. -1.
       -1    1    3    3    0  502  0.21508738588E+03 -0.23215717516E+03 -0.18041349758E+03  0.36429187155E+03  0.50400001928E-02 0.  1.
</event>
<event>
 5   0  0.6593118E-04  0.7996425E+03  0.7818609E-02  0.9560535E-01
       -2   -1    0    0    0  501  0.00000000000E+00  0.00000000000E+00  0.23974070495E+03  0.23974070497E+03  0.25500000920E-02 0.  1.
        2   -1    0    0  501    0  0.00000000000E+00  0.00000000000E+00 -0.66679139166E+03  0.66679139166E+03  0.25500000920E-02 0. -1.
    10030    2    1    2    0    0  0.00000000000E+00  0.00000000000E+00 -0.42705068671E+03  0.90653209663E+03  0.79964251588E+03 0.  0.
        1    1    3    3  502    0  0.37134603394E+03 -0.14471594564E+03 -0.24966896709E+03  0.47029264825E+03  0.50400001928E-02 0. -1.
       -1    1    3    3    0  502 -0.37134603394E+03  0.14471594564E+03 -0.17738171962E+03  0.43623944838E+03  0.50400001928E-02 0.  1.
</event>
<event>
 5   0  0.7133039E-04  0.8000011E+03  0.7818609E-02  0.9560016E-01
       -2   -1    0    0    0  501  0.00000000000E+00  0.00000000000E+00  0.21797860227E+03  0.21797860229E+03  0.25500000920E-02 0. -1.
        2   -1    0    0  501    0  0.00000000000E+00  0.00000000000E+00 -0.73401900008E+03  0.73401900008E+03  0.25500000920E-02 0.  1.
    10030    2    1    2    0    0  0.00000000000E+00  0.00000000000E+00 -0.51604039780E+03  0.95199760237E+03  0.80000108922E+03 0.  0.
        2    1    3    3  502    0  0.15829847758E+02 -0.37436155029E+03 -0.42463349723E+03  0.56631330674E+03  0.25500000920E-02 0. -1.
       -2    1    3    3    0  502 -0.15829847758E+02  0.37436155029E+03 -0.91406900576E+02  0.38568429563E+03  0.25500000920E-02 0.  1.
</event>
<event>
 5   0  0.6672462E-04  0.8002589E+03  0.7818609E-02  0.9559642E-01
       -2   -1    0    0    0  501  0.00000000000E+00  0.00000000000E+00  0.32308206489E+03  0.32308206490E+03  0.25500000920E-02 0. -1.
        2   -1    0    0  501    0  0.00000000000E+00  0.00000000000E+00 -0.49555085063E+03  0.49555085064E+03  0.25500000920E-02 0.  1.
    10030    2    1    2    0    0  0.00000000000E+00  0.00000000000E+00 -0.17246878574E+03  0.81863291554E+03  0.80025893832E+03 0.  0.
        5    1    3    3  502    0  0.26102877545E+03  0.22235730731E+03 -0.29712972712E+03  0.45374768149E+03  0.46999998093E+01 0.  1.
       -5    1    3    3    0  502 -0.26102877545E+03 -0.22235730731E+03  0.12466094138E+03  0.36488523405E+03  0.46999998093E+01 0. -1.
</event>
<event>
 5   0  0.4104786E-04  0.7999007E+03  0.7818609E-02  0.9560161E-01
       -1   -1    0    0    0  501  0.00000000000E+00  0.00000000000E+00  0.26862954166E+03  0.26862954170E+03  0.50400001928E-02 0.  1.
        1   -1    0    0  501    0  0.00000000000E+00  0.00000000000E+00 -0.59546791950E+03  0.59546791952E+03  0.50400001928E-02 0. -1.
    10030    2    1    2    0    0  0.00000000000E+00  0.00000000000E+00 -0.32683837784E+03  0.86409746123E+03  0.79990067963E+03 0.  0.
        2    1    3    3  502    0  0.19272561380E+03  0.73253211404E+00 -0.54199699949E+03  0.57524294544E+03  0.25500000920E-02 0. -1.
       -2    1    3    3    0  502 -0.19272561380E+03 -0.73253211404E+00  0.21515862164E+03  0.28885451579E+03  0.25500000920E-02 0.  1.
</event>
<event>
 5   0  0.6593118E-04  0.8006025E+03  0.7818609E-02  0.9559145E-01
        2   -1    0    0  501    0  0.00000000000E+00  0.00000000000E+00  0.76560437953E+03  0.76560437953E+03  0.25500000920E-02 0.  1.
       -2   -1    0    0    0  501  0.00000000000E+00  0.00000000000E+00 -0.20930010473E+03  0.20930010475E+03  0.25500000920E-02 0. -1.
    10030    2    1    2    0    0  0.00000000000E+00  0.00000000000E+00  0.55630427480E+03  0.97490448428E+03  0.80060246522E+03 0.  0.
        1    1    3    3  502    0 -0.19205843421E+03 -0.17727736950E+03 -0.91052850871E+02  0.27677487163E+03  0.50400001928E-02 0. -1.
       -1    1    3    3    0  502  0.19205843421E+03  0.17727736950E+03  0.64735712567E+03  0.69812961265E+03  0.50400001928E-02 0.  1.
</event>
<event>
 5   0  0.4087283E-04  0.8001806E+03  0.7818609E-02  0.9559756E-01
        1   -1    0    0  501    0  0.00000000000E+00  0.00000000000E+00  0.85288452130E+03  0.85288452132E+03  0.50400001928E-02 0. -1.
       -1   -1    0    0    0  501  0.00000000000E+00  0.00000000000E+00 -0.18768335617E+03  0.18768335623E+03  0.50400001928E-02 0.  1.
    10030    2    1    2    0    0  0.00000000000E+00  0.00000000000E+00  0.66520116513E+03  0.10405678776E+04  0.80018055318E+03 0.  0.
        1    1    3    3  502    0  0.15246433072E+03  0.83931575114E+01  0.81350223768E+03  0.82770870961E+03  0.50400001928E-02 0. -1.
       -1    1    3    3    0  502 -0.15246433072E+03 -0.83931575114E+01 -0.14830107254E+03  0.21285916794E+03  0.50400001928E-02 0.  1.
</event>
<event>
 5   0  0.2736375E-04  0.7997182E+03  0.7818609E-02  0.9560425E-01
       -4   -1    0    0    0  501  0.00000000000E+00  0.00000000000E+00  0.44646364427E+03  0.44646545058E+03  0.12699999809E+01 0.  1.
        4   -1    0    0  501    0  0.00000000000E+00  0.00000000000E+00 -0.35811577803E+03  0.35811802995E+03  0.12699999809E+01 0. -1.
    10030    2    1    2    0    0  0.00000000000E+00  0.00000000000E+00  0.88347866243E+02  0.80458348053E+03  0.79971822017E+03 0.  0.
        4    1    3    3  502    0 -0.39708648123E+03  0.32408797883E+02  0.99420730398E+01  0.39853288631E+03  0.12699999809E+01 0. -1.
       -4    1    3    3    0  502  0.39708648123E+03 -0.32408797883E+02  0.78405793203E+02  0.40605059422E+03  0.12699999809E+01 0.  1.
</event>
<event>
 5   0  0.4087283E-04  0.7993790E+03  0.7818609E-02  0.9560916E-01
       -1   -1    0    0    0  501  0.00000000000E+00  0.00000000000E+00  0.36143109362E+03  0.36143109365E+03  0.50400001928E-02 0. -1.
        1   -1    0    0  501    0  0.00000000000E+00  0.00000000000E+00 -0.44199763054E+03  0.44199763056E+03  0.50400001928E-02 0.  1.
    10030    2    1    2    0    0  0.00000000000E+00  0.00000000000E+00 -0.80566536917E+02  0.80342872422E+03  0.79937897647E+03 0.  0.
        1    1    3    3  502    0 -0.29935557564E+03  0.26311571712E+03 -0.99968101465E+01  0.39867728491E+03  0.50400001928E-02 0. -1.
       -1    1    3    3    0  502  0.29935557564E+03 -0.26311571712E+03 -0.70569726771E+02  0.40475143931E+03  0.50400001928E-02 0.  1.
</event>
<event>
 5   0  0.4392552E-04  0.8000001E+03  0.7818609E-02  0.9560017E-01
       -1   -1    0    0    0  501  0.00000000000E+00  0.00000000000E+00  0.84636820977E+02  0.84636821128E+02  0.50400001928E-02 0. -1.
        1   -1    0    0  501    0  0.00000000000E+00  0.00000000000E+00 -0.18904307338E+04  0.18904307338E+04  0.50400001928E-02 0.  1.
    10030    2    1    2    0    0  0.00000000000E+00  0.00000000000E+00 -0.18057939128E+04  0.19750675549E+04  0.80000011935E+03 0.  0.
        5    1    3    3  502    0 -0.39344890605E+03  0.35698208522E+01 -0.10802955688E+04  0.11497283989E+04  0.46999998093E+01 0.  1.
       -5    1    3    3    0  502  0.39344890605E+03 -0.35698208522E+01 -0.72549834405E+03  0.82533915605E+03  0.46999998093E+01 0. -1.
</event>
<event>
 5   0  0.2736375E-04  0.8002079E+03  0.7818609E-02  0.9559716E-01
       -4   -1    0    0    0  501  0.00000000000E+00  0.00000000000E+00  0.93796141120E+03  0.93796227099E+03  0.12699999809E+01 0.  1.
        4   -1    0    0  501    0  0.00000000000E+00  0.00000000000E+00 -0.17066807641E+03  0.17067280159E+03  0.12699999809E+01 0. -1.
    10030    2    1    2    0    0  0.00000000000E+00  0.00000000000E+00  0.76729333479E+03  0.11086350726E+04  0.80020788708E+03 0.  0.
        1    1    3    3  502    0  0.30576049139E+03 -0.25468360422E+03  0.44127054360E+03  0.59419938490E+03  0.50400001928E-02 0.  1.
       -1    1    3    3    0  502 -0.30576049139E+03  0.25468360422E+03  0.32602279119E+03  0.51443568768E+03  0.50400001928E-02 0. -1.
</event>
<event>
 5   0  0.6593118E-04  0.8000062E+03  0.7818609E-02  0.9560008E-01
        2   -1    0    0  501    0  0.00000000000E+00  0.00000000000E+00  0.67675717439E+03  0.67675717440E+03  0.25500000920E-02 0.  1.
       -2   -1    0    0    0  501  0.00000000000E+00  0.00000000000E+00 -0.23642522332E+03  0.23642522333E+03  0.25500000920E-02 0. -1.
    10030    2    1    2    0    0  0.00000000000E+00  0.00000000000E+00  0.44033195108E+03  0.91318239773E+03  0.80000616521E+03 0.  0.
        1    1    3    3  502    0  0.11186924594E+03  0.35875684805E+03  0.37659832991E+03  0.53202209195E+03  0.50400001928E-02 0.  1.
       -1    1    3    3    0  502 -0.11186924594E+03 -0.35875684805E+03  0.63733621169E+02  0.38116030578E+03  0.50400001928E-02 0. -1.
</event>
<event>
 5   0  0.6970013E-04  0.8000646E+03  0.7818609E-02  0.9559924E-01
       -2   -1    0    0    0  501  0.00000000000E+00  0.00000000000E+00  0.13842308243E+03  0.13842308245E+03  0.25500000920E-02 0.  1.
        2   -1    0    0  501    0  0.00000000000E+00  0.00000000000E+00 -0.11560633087E+04  0.11560633087E+04  0.25500000920E-02 0. -1.
    10030    2    1    2    0    0  0.00000000000E+00  0.00000000000E+00 -0.10176402263E+04  0.12944863912E+04  0.80006461412E+03 0.  0.
        3    1    3    3  502    0 -0.16892666086E+03 -0.30273946422E+03 -0.83176139867E+03  0.90111843531E+03  0.10100000352E+00 0. -1.
       -3    1    3    3    0  502  0.16892666086E+03  0.30273946422E+03 -0.18587882765E+03  0.39336795588E+03  0.10100000352E+00 0.  1.
</event>
<event>
 5   0  0.4087283E-04  0.7994802E+03  0.7818609E-02  0.9560770E-01
       -1   -1    0    0    0  501  0.00000000000E+00  0.00000000000E+00  0.26022473156E+03  0.26022473161E+03  0.50400001928E-02 0. -1.
        1   -1    0    0  501    0  0.00000000000E+00  0.00000000000E+00 -0.61405444999E+03  0.61405445001E+03  0.50400001928E-02 0.  1.
    10030    2    1    2    0    0  0.00000000000E+00  0.00000000000E+00 -0.35382971843E+03  0.87427918162E+03  0.79948021725E+03 0.  0.
        1    1    3    3  502    0 -0.38452999388E+03  0.88830773933E+02 -0.24640479438E+03  0.46526287764E+03  0.50400001928E-02 0.  1.
       -1    1    3    3    0  502  0.38452999388E+03 -0.88830773933E+02 -0.10742492404E+03  0.40901630398E+03  0.50400001928E-02 0. -1.
</event>
<event>
 5   0  0.4104786E-04  0.7998834E+03  0.7818609E-02  0.9560186E-01
        1   -1    0    0  501    0  0.00000000000E+00  0.00000000000E+00  0.43009237879E+03  0.43009237882E+03  0.50400001928E-02 0. -1.
       -1   -1    0    0    0  501  0.00000000000E+00  0.00000000000E+00 -0.37190464933E+03  0.37190464936E+03  0.50400001928E-02 0.  1.
    10030    2    1    2    0    0  0.00000000000E+00  0.00000000000E+00  0.58187729463E+02  0.80199702818E+03  0.79988337984E+03 0.  0.
        2    1    3    3  502    0  0.88690649095E+02 -0.29879888416E+03 -0.22218071667E+03  0.38276765182E+03  0.25500000920E-02 0.  1.
       -2    1    3    3    0  502 -0.88690649095E+02  0.29879888416E+03  0.28036844613E+03  0.41922937636E+03  0.25500000920E-02 0. -1.
</event>
<event>
 5   0  0.2736375E-04  0.7995859E+03  0.7818609E-02  0.9560617E-01
        3   -1    0    0  501    0  0.00000000000E+00  0.00000000000E+00  0.45654406332E+03  0.45654407450E+03  0.10100000352E+00 0. -1.
       -3   -1    0    0    0  501  0.00000000000E+00  0.00000000000E+00 -0.35009632033E+03  0.35009633490E+03  0.10100000352E+00 0.  1.
    10030    2    1    2    0    0  0.00000000000E+00  0.00000000000E+00  0.10644774299E+03  0.80664040940E+03  0.79958591038E+03 0.  0.
        2    1    3    3  502    0  0.26919009476E+03  0.23572261024E+03 -0.12669181657E+03  0.37957775552E+03  0.25500000920E-02 0.  1.
       -2    1    3    3    0  502 -0.26919009476E+03 -0.23572261024E+03  0.23313955956E+03  0.42706265387E+03  0.25500000920E-02 0. -1.
</event>
<event>
 5   0  0.4169155E-04  0.7988968E+03  0.7818609E-02  0.9561615E-01
        1   -1    0    0  501    0  0.00000000000E+00  0.00000000000E+00  0.35274917804E+03  0.35274917808E+03  0.50400001928E-02 0.  1.
       -1   -1    0    0    0  501  0.00000000000E+00  0.00000000000E+00 -0.45232996542E+03  0.45232996545E+03  0.50400001928E-02 0. -1.
    10030    2    1    2    0    0  0.00000000000E+00  0.00000000000E+00 -0.99580787381E+02  0.80507914353E+03  0.79889679817E+03 0.  0.
        4    1    3    3  502    0  0.21725817952E+03  0.33431170136E+03 -0.74309326282E+02  0.40557233523E+03  0.12699999809E+01 0. -1.
       -4    1    3    3    0  502 -0.21725817952E+03 -0.33431170136E+03 -0.25271461099E+02  0.39950680830E+03  0.12699999809E+01 0.  1.
</event>
<event>
 5   0  0.4104786E-04  0.8000020E+03  0.7818609E-02  0.9560014E-01
       -1   -1    0    0    0  501  0.00000000000E+00  0.00000000000E+00  0.11951914634E+04  0.11951914634E+04  0.50400001928E-02 0.  1.
        1   -1    0    0  501    0  0.00000000000E+00  0.00000000000E+00 -0.13387044644E+03  0.13387044653E+03  0.50400001928E-02 0. -1.
    10030    2    1    2    0    0  0.00000000000E+00  0.00000000000E+00  0.10613210169E+04  0.13290619099E+04  0.80000203712E+03 0.  0.
        2    1    3    3  502    0  0.10369371625E+03  0.30524219816E+03  0.92406670274E+03  0.97868506550E+03  0.25500000920E-02 0.  1.
       -2    1    3    3    0  502 -0.10369371625E+03 -0.30524219816E+03  0.13725431418E+03  0.35037684440E+03  0.25500000920E-02 0. -1.
</event>
<event>
 5   0  0.4086111E-04  0.7997322E+03  0.7818609E-02  0.9560405E-01
        1   -1    0    0  501    0  0.00000000000E+00  0.00000000000E+00  0.79175903353E+03  0.79175903355E+03  0.50400001928E-02 0.  1.
       -1   -1    0    0    0  501  0.00000000000E+00  0.00000000000E+00 -0.20194639430E+03  0.20194639436E+03  0.50400001928E-02 0. -1.
    10030    2    1    2    0    0  0.00000000000E+00  0.00000000000E+00  0.58981263923E+03  0.99370542791E+03  0.79973216020E+03 0.  0.
        3    1    3    3  502    0  0.60768961103E+02 -0.26794682861E+03 -0.66084292287E+02  0.28258717855E+03  0.10100000352E+00 0. -1.
       -3    1    3    3    0  502 -0.60768961103E+02  0.26794682861E+03  0.65589693152E+03  0.71111824936E+03  0.10100000352E+00 0.  1.
</event>
<event>
 5   0  0.6593118E-04  0.8002765E+03  0.7818609E-02  0.9559617E-01
        2   -1    0    0  501    0  0.00000000000E+00  0.00000000000E+00  0.89346440950E+03  0.89346440950E+03  0.25500000920E-02 0.  1.
       -2   -1    0    0    0  501  0.00000000000E+00  0.00000000000E+00 -0.17920201256E+03  0.17920201258E+03  0.25500000920E-02 0. -1.
    10030    2    1    2    0    0  0.00000000000E+00  0.00000000000E+00  0.71426239694E+03  0.10726664221E+04  0.80027650308E+03 0.  0.
        1    1    3    3  502    0  0.20582791022E+03 -0.35229358763E+02 -0.10037370611E+03  0.23169185840E+03  0.50400001928E-02 0. -1.
       -1    1    3    3    0  502 -0.20582791022E+03  0.35229358763E+02  0.81463610305E+03  0.84097456368E+03  0.50400001928E-02 0.  1.
</event>
<event>
 5   0  0.4392552E-04  0.8000210E+03  0.7818609E-02  0.9559987E-01
        1   -1    0    0  501    0  0.00000000000E+00  0.00000000000E+00  0.20286844708E+03  0.20286844714E+03  0.50400001928E-02 0.  1.
       -1   -1    0    0    0  501  0.00000000000E+00  0.00000000000E+00 -0.78872990127E+03  0.78872990129E+03  0.50400001928E-02 0. -1.
    10030    2    1    2    0    0  0.00000000000E+00  0.00000000000E+00 -0.58586145420E+03  0.99159834843E+03  0.80002102541E+03 0.  0.
        5    1    3    3  502    0 -0.21886659769E+03  0.19960278379E+03 -0.62607370320E+03  0.69262849402E+03  0.46999998093E+01 0. -1.
       -5    1    3    3    0  502  0.21886659769E+03 -0.19960278379E+03  0.40212249005E+02  0.29896985441E+03  0.46999998093E+01 0.  1.
</event>
<event>
 5   0  0.7133039E-04  0.7999856E+03  0.7818609E-02  0.9560038E-01
       -2   -1    0    0    0  501  0.00000000000E+00  0.00000000000E+00  0.14218197370E+03  0.14218197372E+03  0.25500000920E-02 0. -1.
        2   -1    0    0  501    0  0.00000000000E+00  0.00000000000E+00 -0.11252778386E+04  0.11252778386E+04  0.25500000920E-02 0.  1.
    10030    2    1    2    0    0  0.00000000000E+00  0.00000000000E+00 -0.98309586489E+03  0.12674598123E+04  0.79998556003E+03 0.  0.
        2    1    3    3  502    0  0.12888189409E+03 -0.24962249906E+03 -0.94266397178E+03  0.98363473828E+03  0.25500000920E-02 0.  1.
       -2    1    3    3    0  502 -0.12888189409E+03  0.24962249906E+03 -0.40431893115E+02  0.28382507403E+03  0.25500000920E-02 0. -1.
</event>
<event>
 5   0  0.4104786E-04  0.7995511E+03  0.7818609E-02  0.9560667E-01
        1   -1    0    0  501    0  0.00000000000E+00  0.00000000000E+00  0.25043245804E+03  0.25043245809E+03  0.50400001928E-02 0.  1.
       -1   -1    0    0    0  501  0.00000000000E+00  0.00000000000E+00 -0.63817803897E+03  0.63817803899E+03  0.50400001928E-02 0. -1.
    10030    2    1    2    0    0  0.00000000000E+00  0.00000000000E+00 -0.38774558093E+03  0.88861049708E+03  0.79955111155E+03 0.  0.
        2    1    3    3  502    0  0.79761899128E+02  0.38318982331E+03 -0.10341865169E+03  0.40483554533E+03  0.25500000920E-02 0. -1.
       -2    1    3    3    0  502 -0.79761899128E+02 -0.38318982331E+03 -0.28432692925E+03  0.48377495175E+03  0.25500000920E-02 0.  1.
</event>
<event>
 5   0  0.6970013E-04  0.8001903E+03  0.7818609E-02  0.9559742E-01
        2   -1    0    0  501    0  0.00000000000E+00  0.00000000000E+00  0.29802765529E+03  0.29802765530E+03  0.25500000920E-02 0.  1.
       -2   -1    0    0    0  501  0.00000000000E+00  0.00000000000E+00 -0.53711830925E+03  0.53711830925E+03  0.25500000920E-02 0. -1.
    10030    2    1    2    0    0  0.00000000000E+00  0.00000000000E+00 -0.23909065396E+03  0.83514596455E+03  0.80019025319E+03 0.  0.
        3    1    3    3  502    0 -0.70855629004E+02 -0.39361040061E+03 -0.13128074273E+03  0.42093266830E+03  0.10100000352E+00 0. -1.
       -3    1    3    3    0  502  0.70855629004E+02  0.39361040061E+03 -0.10780991123E+03  0.41421329625E+03  0.10100000352E+00 0.  1.
</event>
<event>
 5   0  0.4087283E-04  0.7999601E+03  0.7818609E-02  0.9560075E-01
        1   -1    0    0  501    0  0.00000000000E+00  0.00000000000E+00  0.44748248578E+03  0.44748248581E+03  0.50400001928E-02 0. -1.
       -1   -1    0    0    0  501  0.00000000000E+00  0.00000000000E+00 -0.35752019298E+03  0.35752019302E+03  0.50400001928E-02 0.  1.
    10030    2    1    2    0    0  0.00000000000E+00  0.00000000000E+00  0.89962292798E+02  0.80500267882E+03  0.79996006075E+03 0.  0.
        1    1    3    3  502    0  0.32517872581E+02  0.23727654466E+03  0.36735416248E+03  0.43852782283E+03  0.50400001928E-02 0. -1.
       -1    1    3    3    0  502 -0.32517872581E+02 -0.23727654466E+03 -0.27739186968E+03  0.36647485599E+03  0.50400001928E-02 0.  1.
</event>
<event>
 5   0  0.6970013E-04  0.7995984E+03  0.7818609E-02  0.9560599E-01
        2   -1    0    0  501    0  0.00000000000E+00  0.00000000000E+00  0.16900561929E+04  0.16900561929E+04  0.25500000920E-02 0. -1.
       -2   -1    0    0    0  501  0.00000000000E+00  0.00000000000E+00 -0.94576372264E+02  0.94576372298E+02  0.25500000920E-02 0.  1.
    10030    2    1    2    0    0  0.00000000000E+00  0.00000000000E+00  0.15954798206E+04  0.17846325652E+04  0.79959835837E+03 0.  0.
        3    1    3    3  502    0 -0.23595000248E+03 -0.39755947493E+02  0.82878444232E+02  0.25322279864E+03  0.10100000352E+00 0.  1.
       -3    1    3    3    0  502  0.23595000248E+03  0.39755947493E+02  0.15126013764E+04  0.15314097666E+04  0.10100000352E+00 0. -1.
</event>
<event>
 5   0  0.4086111E-04  0.8000505E+03  0.7818609E-02  0.9559944E-01
        1   -1    0    0  501    0  0.00000000000E+00  0.00000000000E+00  0.30058031159E+03  0.30058031164E+03  0.50400001928E-02 0.  1.
       -1   -1    0    0    0  501  0.00000000000E+00  0.00000000000E+00 -0.53237080272E+03  0.53237080274E+03  0.50400001928E-02 0. -1.
    10030    2    1    2    0    0  0.00000000000E+00  0.00000000000E+00 -0.23179049112E+03  0.83295111438E+03  0.80005045289E+03 0.  0.
        3    1    3    3  502    0  0.13152345217E+02 -0.61952518415E+02 -0.52711793220E+03  0.53090905377E+03  0.10100000352E+00 0. -1.
       -3    1    3    3    0  502 -0.13152345217E+02  0.61952518415E+02  0.29532744108E+03  0.30204206061E+03  0.10100000352E+00 0.  1.
</event>
<event>
 5   0  0.4392552E-04  0.8001806E+03  0.7818609E-02  0.9559756E-01
        1   -1    0    0  501    0  0.00000000000E+00  0.00000000000E+00  0.61256891466E+03  0.61256891468E+03  0.50400001928E-02 0.  1.
       -1   -1    0    0    0  501  0.00000000000E+00  0.00000000000E+00 -0.26131303207E+03  0.26131303212E+03  0.50400001928E-02 0. -1.
    10030    2    1    2    0    0  0.00000000000E+00  0.00000000000E+00  0.35125588258E+03  0.87388194680E+03  0.80018058080E+03 0.  0.
        5    1    3    3  502    0 -0.21691905362E+03 -0.26824095550E+03  0.39687863944E+03  0.52587244696E+03  0.46999998093E+01 0.  1.
       -5    1    3    3    0  502  0.21691905362E+03  0.26824095550E+03 -0.45622756860E+02  0.34800949983E+03  0.46999998093E+01 0. -1.
</event>
<event>
 5   0  0.4086111E-04  0.7998788E+03  0.7818609E-02  0.9560193E-01
       -1   -1    0    0    0  501  0.00000000000E+00  0.00000000000E+00  0.33552728124E+03  0.33552728128E+03  0.50400001928E-02 0.  1.
        1   -1    0    0  501    0  0.00000000000E+00  0.00000000000E+00 -0.47671684696E+03  0.47671684699E+03  0.50400001928E-02 0. -1.
    10030    2    1    2    0    0  0.00000000000E+00  0.00000000000E+00 -0.14118956572E+03  0.81224412827E+03  0.79987875984E+03 0.  0.
        3    1    3    3  502    0  0.19279947237E+03  0.34446557651E+03 -0.53889675829E+01  0.39478756454E+03  0.10100000352E+00 0. -1.
       -3    1    3    3    0  502 -0.19279947237E+03 -0.34446557651E+03 -0.13580059813E+03  0.41745656373E+03  0.10100000352E+00 0.  1.
</event>
<event>
 5   0  0.6672462E-04  0.7997461E+03  0.7818609E-02  0.9560385E-01
       -2   -1    0    0    0  501  0.00000000000E+00  0.00000000000E+00  0.27029949967E+03  0.27029949968E+03  0.25500000920E-02 0. -1.
        2   -1    0    0  501    0  0.00000000000E+00  0.00000000000E+00 -0.59156034229E+03  0.59156034230E+03  0.25500000920E-02 0.  1.
    10030    2    1    2    0    0  0.00000000000E+00  0.00000000000E+00 -0.32126084262E+03  0.86185984198E+03  0.79974612110E+03 0.  0.
        5    1    3    3  502    0  0.19971193603E+03 -0.27553948658E+03 -0.38686219813E+03  0.51525849474E+03  0.46999998093E+01 0.  1.
       -5    1    3    3    0  502 -0.19971193603E+03  0.27553948658E+03  0.65601355513E+02  0.34660134723E+03  0.46999998093E+01 0. -1.
</event>
<event>
 5   0  0.6593118E-04  0.7970462E+03  0.7818609E-02  0.9564302E-01
       -2   -1    0    0    0  501  0.00000000000E+00  0.00000000000E+00  0.36147485916E+03  0.36147485917E+03  0.25500000920E-02 0.  1.
        2   -1    0    0  501    0  0.00000000000E+00  0.00000000000E+00 -0.43936848864E+03  0.43936848865E+03  0.25500000920E-02 0. -1.
    10030    2    1    2    0    0  0.00000000000E+00  0.00000000000E+00 -0.77893629486E+02  0.80084334782E+03  0.79704620332E+03 0.  0.
        1    1    3    3  502    0  0.79185928233E+02  0.60673928891E+02 -0.42662030315E+03  0.43812854274E+03  0.50400001928E-02 0. -1.
       -1    1    3    3    0  502 -0.79185928233E+02 -0.60673928891E+02  0.34872667366E+03  0.36271480508E+03  0.50400001928E-02 0.  1.
</event>
<event>
 5   0  0.6593118E-04  0.7999168E+03  0.7818609E-02  0.9560138E-01
       -2   -1    0    0    0  501  0.00000000000E+00  0.00000000000E+00  0.21006458469E+03  0.21006458471E+03  0.25500000920E-02 0. -1.
        2   -1    0    0  501    0  0.00000000000E+00  0.00000000000E+00 -0.76151209533E+03  0.76151209534E+03  0.25500000920E-02 0.  1.
    10030    2    1    2    0    0  0.00000000000E+00  0.00000000000E+00 -0.55144751064E+03  0.97157668004E+03  0.79991680081E+03 0.  0.
        1    1    3    3  502    0  0.30684492664E+03 -0.25163897020E+03 -0.33634105829E+03  0.52019351000E+03  0.50400001928E-02 0.  1.
       -1    1    3    3    0  502 -0.30684492664E+03  0.25163897020E+03 -0.21510645235E+03  0.45138317005E+03  0.50400001928E-02 0. -1.
</event>
<event>
 5   0  0.4104786E-04  0.7998626E+03  0.7818609E-02  0.9560216E-01
        1   -1    0    0  501    0  0.00000000000E+00  0.00000000000E+00  0.23083524895E+04  0.23083524895E+04  0.50400001928E-02 0.  1.
       -1   -1    0    0    0  501  0.00000000000E+00  0.00000000000E+00 -0.69289689443E+02  0.69289689626E+02  0.50400001928E-02 0. -1.
    10030    2    1    2    0    0  0.00000000000E+00  0.00000000000E+00  0.22390628001E+04  0.23776421791E+04  0.79986255656E+03 0.  0.
        2    1    3    3  502    0  0.49955643241E+02 -0.14969874252E+03  0.27181085059E+02  0.16013772571E+03  0.25500000920E-02 0. -1.
       -2    1    3    3    0  502 -0.49955643241E+02  0.14969874252E+03  0.22118817150E+04  0.22175044534E+04  0.25500000920E-02 0.  1.
</event>
<event>
 5   0  0.6672462E-04  0.7999134E+03  0.7818609E-02  0.9560142E-01
       -2   -1    0    0    0  501  0.00000000000E+00  0.00000000000E+00  0.51745106001E+03  0.51745106002E+03  0.25500000920E-02 0. -1.
        2   -1    0    0  501    0  0.00000000000E+00  0.00000000000E+00 -0.30914106644E+03  0.30914106645E+03  0.25500000920E-02 0.  1.
    10030    2    1    2    0    0  0.00000000000E+00  0.00000000000E+00  0.20830999357E+03  0.82659212647E+03  0.79991342664E+03 0.  0.
        5    1    3    3  502    0 -0.10788954080E+03 -0.51726921784E+02  0.49849415740E+03  0.51267371926E+03  0.46999998093E+01 0. -1.
       -5    1    3    3    0  502  0.10788954080E+03  0.51726921784E+02 -0.29018416383E+03  0.31391840722E+03  0.46999998093E+01 0.  1.
</event>
<event>
 5   0  0.7133039E-04  0.7999306E+03  0.7818609E-02  0.9560118E-01
       -2   -1    0    0    0  501  0.00000000000E+00  0.00000000000E+00  0.40298080490E+03  0.40298080491E+03  0.25500000920E-02 0.  1.
        2   -1    0    0  501    0  0.00000000000E+00  0.00000000000E+00 -0.39697239873E+03  0.39697239874E+03  0.25500000920E-02 0. -1.
    10030    2    1    2    0    0  0.00000000000E+00  0.00000000000E+00  0.60084061681E+01  0.79995320365E+03  0.79993063892E+03 0.  0.
        2    1    3    3  502    0  0.36816983903E+03  0.12827176882E+02  0.15876061078E+03  0.40114647996E+03  0.25500000920E-02 0.  1.
       -2    1    3    3    0  502 -0.36816983903E+03 -0.12827176882E+02 -0.15275220462E+03  0.39880672369E+03  0.25500000920E-02 0. -1.
</event>
<event>
 5   0  0.4392552E-04  0.8006093E+03  0.7818609E-02  0.9559136E-01
        1   -1    0    0  501    0  0.00000000000E+00  0.00000000000E+00  0.77437687092E+03  0.77437687093E+03  0.50400001928E-02 0.  1.
       -1   -1    0    0    0  501  0.00000000000E+00  0.00000000000E+00 -0.20693257136E+03  0.20693257142E+03  0.50400001928E-02 0. -1.
    10030    2    1    2    0    0  0.00000000000E+00  0.00000000000E+00  0.56744429956E+03  0.98130944235E+03  0.80060926085E+03 0.  0.
        5    1    3    3  502    0  0.73029734028E+02 -0.16655233197E+03  0.72078239612E+03  0.74338575040E+03  0.46999998093E+01 0.  1.
       -5    1    3    3    0  502 -0.73029734028E+02  0.16655233197E+03 -0.15333809657E+03  0.23792369195E+03  0.46999998093E+01 0. -1.
</event>
<event>
 5   0  0.4169155E-04  0.8000082E+03  0.7818609E-02  0.9560005E-01
        1   -1    0    0  501    0  0.00000000000E+00  0.00000000000E+00  0.11877425459E+04  0.11877425460E+04  0.50400001928E-02 0. -1.
       -1   -1    0    0    0  501  0.00000000000E+00  0.00000000000E+00 -0.13471208508E+03  0.13471208518E+03  0.50400001928E-02 0.  1.
    10030    2    1    2    0    0  0.00000000000E+00  0.00000000000E+00  0.10530304609E+04  0.13224546311E+04  0.80000818740E+03 0.  0.
        4    1    3    3  502    0 -0.15357799303E+03  0.35325002994E+03  0.34824700614E+03  0.51927774243E+03  0.12699999809E+01 0.  1.
       -4    1    3    3    0  502  0.15357799303E+03 -0.35325002994E+03  0.70478345472E+03  0.80317688870E+03  0.12699999809E+01 0. -1.
</event>
<event>
 5   0  0.4086111E-04  0.7997317E+03  0.7818609E-02  0.9560406E-01
        1   -1    0    0  501    0  0.00000000000E+00  0.00000000000E+00  0.29428332476E+03  0.29428332480E+03  0.50400001928E-02 0.  1.
       -1   -1    0    0    0  501  0.00000000000E+00  0.00000000000E+00 -0.54332909681E+03  0.54332909683E+03  0.50400001928E-02 0. -1.
    10030    2    1    2    0    0  0.00000000000E+00  0.00000000000E+00 -0.24904577205E+03  0.83761242164E+03  0.79973168770E+03 0.  0.
        3    1    3    3  502    0 -0.89957108261E+02  0.27308646085E+03 -0.41557816170E+03  0.50534514454E+03  0.10100000352E+00 0. -1.
       -3    1    3    3    0  502  0.89957108261E+02 -0.27308646085E+03  0.16653238965E+03  0.33226727710E+03  0.10100000352E+00 0.  1.
</event>
<event>
 5   0  0.4086111E-04  0.8004614E+03  0.7818609E-02  0.9559350E-01
       -1   -1    0    0    0  501  0.00000000000E+00  0.00000000000E+00  0.34858591890E+03  0.34858591894E+03  0.50400001928E-02 0.  1.
        1   -1    0    0  501    0  0.00000000000E+00  0.00000000000E+00 -0.45952689551E+03  0.45952689553E+03  0.50400001928E-02 0. -1.
    10030    2    1    2    0    0  0.00000000000E+00  0.00000000000E+00 -0.11094097660E+03  0.80811281448E+03  0.80046137985E+03 0.  0.
        3    1    3    3  502    0 -0.85615026793E+02  0.22927443277E+03  0.26423925496E+03  0.36016536813E+03  0.10100000352E+00 0.  1.
       -3    1    3    3    0  502  0.85615026793E+02 -0.22927443277E+03 -0.37518023156E+03  0.44794744635E+03  0.10100000352E+00 0. -1.
</event>
<event>
 5   0  0.7133039E-04  0.7999952E+03  0.7818609E-02  0.9560024E-01
        2   -1    0    0  501    0  0.00000000000E+00  0.00000000000E+00  0.60167490323E+03  0.60167490324E+03  0.25500000920E-02 0. -1.
       -2   -1    0    0    0  501  0.00000000000E+00  0.00000000000E+00 -0.26592114584E+03  0.26592114585E+03  0.25500000920E-02 0.  1.
    10030    2    1    2    0    0  0.00000000000E+00  0.00000000000E+00  0.33575375739E+03  0.86759604909E+03  0.79999519923E+03 0.  0.
        2    1    3    3  502    0 -0.17784672537E+03  0.18432502621E+03 -0.16531918697E+03  0.30485341822E+03  0.25500000920E-02 0.  1.
       -2    1    3    3    0  502  0.17784672537E+03 -0.18432502621E+03  0.50107294437E+03  0.56274263087E+03  0.25500000920E-02 0. -1.
</event>
<event>
 5   0  0.7133039E-04  0.7999489E+03  0.7818609E-02  0.9560091E-01
       -2   -1    0    0    0  501  0.00000000000E+00  0.00000000000E+00  0.12302941896E+03  0.12302941899E+03  0.25500000920E-02 0. -1.
        2   -1    0    0  501    0  0.00000000000E+00  0.00000000000E+00 -0.13003358875E+04  0.13003358875E+04  0.25500000920E-02 0.  1.
    10030    2    1    2    0    0  0.00000000000E+00  0.00000000000E+00 -0.11773064685E+04  0.14233653065E+04  0.79994892014E+03 0.  0.
        2    1    3    3  502    0 -0.14065856304E+03 -0.18551382715E+03 -0.11673546988E+04  0.11903433136E+04  0.25500000920E-02 0.  1.
       -2    1    3    3    0  502  0.14065856304E+03  0.18551382715E+03 -0.99517696922E+01  0.23302199284E+03  0.25500000920E-02 0. -1.
</event>
<event>
 5   0  0.4169155E-04  0.7997769E+03  0.7818609E-02  0.9560340E-01
        1   -1    0    0  501    0  0.00000000000E+00  0.00000000000E+00  0.74553246457E+03  0.74553246459E+03  0.50400001928E-02 0. -1.
       -1   -1    0    0    0  501  0.00000000000E+00  0.00000000000E+00 -0.21449205225E+03  0.21449205231E+03  0.50400001928E-02 0.  1.
    10030    2    1    2    0    0  0.00000000000E+00  0.00000000000E+00  0.53104041232E+03  0.96002451690E+03  0.79977693986E+03 0.  0.
        4    1    3    3  502    0  0.33285002945E+03 -0.21368413788E+03  0.33611886053E+03  0.51906411376E+03  0.12699999809E+01 0. -1.
       -4    1    3    3    0  502 -0.33285002945E+03  0.21368413788E+03  0.19492155180E+03  0.44096040315E+03  0.12699999809E+01 0.  1.
</event>
<event>
 5   0  0.4087283E-04  0.8001133E+03  0.7818609E-02  0.9559853E-01
        1   -1    0    0  501    0  0.00000000000E+00  0.00000000000E+00  0.37515755479E+03  0.37515755483E+03  0.50400001928E-02 0. -1.
       -1   -1    0    0    0  501  0.00000000000E+00  0.00000000000E+00 -0.42660830478E+03  0.42660830481E+03  0.50400001928E-02 0.  1.
    10030    2    1    2    0    0  0.00000000000E+00  0.00000000000E+00 -0.51450749986E+02  0.80176585963E+03  0.80011331322E+03 0.  0.
        1    1    3    3  502    0  0.28072756707E+03  0.25581546061E+03 -0.15166634568E+03  0.40896478728E+03  0.50400001928E-02 0.  1.
       -1    1    3    3    0  502 -0.28072756707E+03 -0.25581546061E+03  0.10021559569E+03  0.39280107235E+03  0.50400001928E-02 0. -1.
</event>
<event>
 5   0  0.4169155E-04  0.7998859E+03  0.7818609E-02  0.9560182E-01
        1   -1    0    0  501    0  0.00000000000E+00  0.00000000000E+00  0.89838508770E+03  0.89838508772E+03  0.50400001928E-02 0.  1.
       -1   -1    0    0    0  501  0.00000000000E+00  0.00000000000E+00 -0.17804656222E+03  0.17804656229E+03  0.50400001928E-02 0. -1.
    10030    2    1    2    0    0  0.00000000000E+00  0.00000000000E+00  0.72033852548E+03  0.10764316500E+04  0.79988593303E+03 0.  0.
        4    1    3    3  502    0  0.42784171744E+02 -0.32490585962E+03  0.51651823675E+02  0.33175868754E+03  0.12699999809E+01 0. -1.
       -4    1    3    3    0  502 -0.42784171744E+02  0.32490585962E+03  0.66868670180E+03  0.74467296247E+03  0.12699999809E+01 0.  1.
</event>
<event>
 5   0  0.2736375E-04  0.8000857E+03  0.7818609E-02  0.9559893E-01
        3   -1    0    0  501    0  0.00000000000E+00  0.00000000000E+00  0.91249515012E+03  0.91249515571E+03  0.10100000352E+00 0. -1.
       -3   -1    0    0    0  501  0.00000000000E+00  0.00000000000E+00 -0.17538095026E+03  0.17538097934E+03  0.10100000352E+00 0.  1.
    10030    2    1    2    0    0  0.00000000000E+00  0.00000000000E+00  0.73711419985E+03  0.10878761350E+04  0.80008570890E+03 0.  0.
        3    1    3    3  502    0 -0.45084991865E+02  0.72184806893E+01 -0.17182640160E+03  0.17778944131E+03  0.10100000352E+00 0.  1.
       -3    1    3    3    0  502  0.45084991865E+02 -0.72184806893E+01  0.90894060145E+03  0.91008669374E+03  0.10100000352E+00 0. -1.
</event>
<event>
 5   0  0.2736375E-04  0.7991795E+03  0.7818609E-02  0.9561206E-01
        3   -1    0    0  501    0  0.00000000000E+00  0.00000000000E+00  0.35819512658E+03  0.35819514082E+03  0.10100000352E+00 0.  1.
       -3   -1    0    0    0  501  0.00000000000E+00  0.00000000000E+00 -0.44576808681E+03  0.44576809825E+03  0.10100000352E+00 0. -1.
    10030    2    1    2    0    0  0.00000000000E+00  0.00000000000E+00 -0.87572960236E+02  0.80396323907E+03  0.79917949574E+03 0.  0.
        4    1    3    3  502    0  0.19453362288E+03 -0.34903686595E+03 -0.43245226525E+02  0.40192266264E+03  0.12699999809E+01 0. -1.
       -4    1    3    3    0  502 -0.19453362288E+03  0.34903686595E+03 -0.44327733711E+02  0.40204057643E+03  0.12699999809E+01 0.  1.
</event>
<event>
 5   0  0.4086111E-04  0.8003176E+03  0.7818609E-02  0.9559557E-01
        1   -1    0    0  501    0  0.00000000000E+00  0.00000000000E+00  0.22071959175E+03  0.22071959181E+03  0.50400001928E-02 0. -1.
       -1   -1    0    0    0  501  0.00000000000E+00  0.00000000000E+00 -0.72547740602E+03  0.72547740604E+03  0.50400001928E-02 0.  1.
    10030    2    1    2    0    0  0.00000000000E+00  0.00000000000E+00 -0.50475781426E+03  0.94619699785E+03  0.80031762924E+03 0.  0.
        3    1    3    3  502    0 -0.28992664349E+03  0.27424091637E+03 -0.21767695909E+03  0.45458641372E+03  0.10100000352E+00 0.  1.
       -3    1    3    3    0  502  0.28992664349E+03 -0.27424091637E+03 -0.28708085517E+03  0.49161058412E+03  0.10100000352E+00 0. -1.
</event>
<event>
 5   0  0.6801147E-04  0.7990929E+03  0.7818609E-02  0.9561331E-01
       -2   -1    0    0    0  501  0.00000000000E+00  0.00000000000E+00  0.29924850430E+03  0.29924850432E+03  0.25500000920E-02 0.  1.
        2   -1    0    0  501    0  0.00000000000E+00  0.00000000000E+00 -0.53346082395E+03  0.53346082396E+03  0.25500000920E-02 0. -1.
    10030    2    1    2    0    0  0.00000000000E+00  0.00000000000E+00 -0.23421231965E+03  0.83270932828E+03  0.79909286990E+03 0.  0.
        4    1    3    3  502    0  0.55254702119E+02 -0.38823971637E+03 -0.19682663930E+03  0.43877727643E+03  0.12699999809E+01 0. -1.
       -4    1    3    3    0  502 -0.55254702119E+02  0.38823971637E+03 -0.37385680345E+02  0.39393205184E+03  0.12699999809E+01 0.  1.
</event>
<event>
 5   0  0.6970013E-04  0.7992816E+03  0.7818609E-02  0.9561058E-01
       -2   -1    0    0    0  501  0.00000000000E+00  0.00000000000E+00  0.10963770323E+03  0.10963770326E+03  0.25500000920E-02 0. -1.
        2   -1    0    0  501    0  0.00000000000E+00  0.00000000000E+00 -0.14567321663E+04  0.14567321663E+04  0.25500000920E-02 0.  1.
    10030    2    1    2    0    0  0.00000000000E+00  0.00000000000E+00 -0.13470944631E+04  0.15663698696E+04  0.79928159985E+03 0.  0.
        3    1    3    3  502    0  0.90093962599E+02 -0.36770179628E+03 -0.42264748640E+03  0.56740853100E+03  0.10100000352E+00 0. -1.
       -3    1    3    3    0  502 -0.90093962599E+02  0.36770179628E+03 -0.92444697665E+03  0.99896133856E+03  0.10100000352E+00 0.  1.
</event>
<event>
 5   0  0.6593118E-04  0.7948062E+03  0.7818609E-02  0.9567566E-01
       -2   -1    0    0    0  501  0.00000000000E+00  0.00000000000E+00  0.13836917262E+03  0.13836917264E+03  0.25500000920E-02 0. -1.
        2   -1    0    0  501    0  0.00000000000E+00  0.00000000000E+00 -0.11413612392E+04  0.11413612392E+04  0.25500000920E-02 0.  1.
    10030    2    1    2    0    0  0.00000000000E+00  0.00000000000E+00 -0.10029920666E+04  0.12797304118E+04  0.79480616590E+03 0.  0.
        1    1    3    3  502    0  0.12660946627E+03  0.34642012352E+03 -0.73972988274E+03  0.82658161023E+03  0.50400001928E-02 0.  1.
       -1    1    3    3    0  502 -0.12660946627E+03 -0.34642012352E+03 -0.26326218381E+03  0.45314880158E+03  0.50400001928E-02 0. -1.
</event>
<event>
 5   0  0.2736375E-04  0.8001112E+03  0.7818609E-02  0.9559856E-01
        3   -1    0    0  501    0  0.00000000000E+00  0.00000000000E+00  0.58997592502E+03  0.58997593367E+03  0.10100000352E+00 0.  1.
       -3   -1    0    0    0  501  0.00000000000E+00  0.00000000000E+00 -0.27127288362E+03  0.27127290242E+03  0.10100000352E+00 0. -1.
    10030    2    1    2    0    0  0.00000000000E+00  0.00000000000E+00  0.31870304140E+03  0.86124883609E+03  0.80011119793E+03 0.  0.
        3    1    3    3  502    0  0.36200532738E+02  0.16111444051E+02  0.58785847825E+03  0.58919237763E+03  0.10100000352E+00 0.  1.
       -3    1    3    3    0  502 -0.36200532738E+02 -0.16111444051E+02 -0.26915543685E+03  0.27205645846E+03  0.10100000352E+00 0. -1.
</event>
<event>
 5   0  0.6970013E-04  0.7999162E+03  0.7818609E-02  0.9560138E-01
       -2   -1    0    0    0  501  0.00000000000E+00  0.00000000000E+00  0.15223210191E+03  0.15223210193E+03  0.25500000920E-02 0.  1.
        2   -1    0    0  501    0  0.00000000000E+00  0.00000000000E+00 -0.10508063686E+04  0.10508063686E+04  0.25500000920E-02 0. -1.
    10030    2    1    2    0    0  0.00000000000E+00  0.00000000000E+00 -0.89857426667E+03  0.12030384705E+04  0.79991615113E+03 0.  0.
        3    1    3    3  502    0 -0.29919249392E+03  0.54765615036E+02 -0.83988453125E+03  0.89326449445E+03  0.10100000352E+00 0. -1.
       -3    1    3    3    0  502  0.29919249392E+03 -0.54765615036E+02 -0.58689735417E+02  0.30977397607E+03  0.10100000352E+00 0.  1.
</event>
<event>
 5   0  0.6672462E-04  0.7998216E+03  0.7818609E-02  0.9560275E-01
       -2   -1    0    0    0  501  0.00000000000E+00  0.00000000000E+00  0.10334195966E+04  0.10334195966E+04  0.25500000920E-02 0.  1.
        2   -1    0    0  501    0  0.00000000000E+00  0.00000000000E+00 -0.15475675126E+03  0.15475675128E+03  0.25500000920E-02 0. -1.
    10030    2    1    2    0    0  0.00000000000E+00  0.00000000000E+00  0.87866284532E+03  0.11881763479E+04  0.79982162878E+03 0.  0.
        5    1    3    3  502    0  0.12756683514E+03  0.13818196239E+03  0.96358388152E+03  0.98177570701E+03  0.46999998093E+01 0.  1.
       -5    1    3    3    0  502 -0.12756683514E+03 -0.13818196239E+03 -0.84921036192E+02  0.20640064085E+03  0.46999998093E+01 0. -1.
</event>
<event>
 5   0  0.6672462E-04  0.7997394E+03  0.7818609E-02  0.9560394E-01
       -2   -1    0    0    0  501  0.00000000000E+00  0.00000000000E+00  0.29192260354E+03  0.29192260355E+03  0.25500000920E-02 0. -1.
        2   -1    0    0  501    0  0.00000000000E+00  0.00000000000E+00 -0.54773346835E+03  0.54773346835E+03  0.25500000920E-02 0.  1.
    10030    2    1    2    0    0  0.00000000000E+00  0.00000000000E+00 -0.25581086480E+03  0.83965607191E+03  0.79973940789E+03 0.  0.
        5    1    3    3  502    0 -0.11715484892E+03  0.16716164409E+03  0.23306499563E+03  0.30985424972E+03  0.46999998093E+01 0. -1.
       -5    1    3    3    0  502  0.11715484892E+03 -0.16716164409E+03 -0.48887586044E+03  0.52980182219E+03  0.46999998093E+01 0.  1.
</event>
<event>
 5   0  0.4087283E-04  0.8000552E+03  0.7818609E-02  0.9559937E-01
        1   -1    0    0  501    0  0.00000000000E+00  0.00000000000E+00  0.68859844292E+03  0.68859844294E+03  0.50400001928E-02 0. -1.
       -1   -1    0    0    0  501  0.00000000000E+00  0.00000000000E+00 -0.23238811908E+03  0.23238811914E+03  0.50400001928E-02 0.  1.
    10030    2    1    2    0    0  0.00000000000E+00  0.00000000000E+00  0.45621032384E+03  0.92098656208E+03  0.80005524056E+03 0.  0.
        1    1    3    3  502    0 -0.23806642463E+03 -0.56623264519E+01 -0.14190510460E+03  0.27720884404E+03  0.50400001928E-02 0.  1.
       -1    1    3    3    0  502  0.23806642463E+03  0.56623264519E+01  0.59811542844E+03  0.64377771804E+03  0.50400001928E-02 0. -1.
</event>
<event>
 5   0  0.6593118E-04  0.7997609E+03  0.7818609E-02  0.9560363E-01
       -2   -1    0    0    0  501  0.00000000000E+00  0.00000000000E+00  0.11426130717E+03  0.11426130719E+03  0.25500000920E-02 0. -1.
        2   -1    0    0  501    0  0.00000000000E+00  0.00000000000E+00 -0.13994623180E+04  0.13994623180E+04  0.25500000920E-02 0.  1.
    10030    2    1    2    0    0  0.00000000000E+00  0.00000000000E+00 -0.12852010109E+04  0.15137236252E+04  0.79976094882E+03 0.  0.
        1    1    3    3  502    0  0.16402322461E+02 -0.23420766992E+03 -0.12552752743E+04  0.12770427883E+04  0.50400001928E-02 0.  1.
       -1    1    3    3    0  502 -0.16402322461E+02  0.23420766992E+03 -0.29925736540E+02  0.23668083691E+03  0.50400001928E-02 0. -1.
</event>
<event>
 5   0  0.4086111E-04  0.7991521E+03  0.7818609E-02  0.9561245E-01
       -1   -1    0    0    0  501  0.00000000000E+00  0.00000000000E+00  0.22279363618E+03  0.22279363624E+03  0.50400001928E-02 0. -1.
        1   -1    0    0  501    0  0.00000000000E+00  0.00000000000E+00 -0.71663186332E+03  0.71663186334E+03  0.50400001928E-02 0.  1.
    10030    2    1    2    0    0  0.00000000000E+00  0.00000000000E+00 -0.49383822714E+03  0.93942549958E+03  0.79915209734E+03 0.  0.
        3    1    3    3  502    0  0.33305381653E+03  0.21303820490E+03 -0.17887151659E+03  0.43394141436E+03  0.10100000352E+00 0.  1.
       -3    1    3    3    0  502 -0.33305381653E+03 -0.21303820490E+03 -0.31496671055E+03  0.50548408522E+03  0.10100000352E+00 0. -1.
</event>
<event>
 5   0  0.4104786E-04  0.8000127E+03  0.7818609E-02  0.9559999E-01
       -1   -1    0    0    0  501  0.00000000000E+00  0.00000000000E+00  0.16487858262E+03  0.16487858269E+03  0.50400001928E-02 0. -1.
        1   -1    0    0  501    0  0.00000000000E+00  0.00000000000E+00 -0.97044196533E+03  0.97044196534E+03  0.50400001928E-02 0.  1.
    10030    2    1    2    0    0  0.00000000000E+00  0.00000000000E+00 -0.80556338271E+03  0.11353205480E+04  0.80001273941E+03 0.  0.
        2    1    3    3  502    0 -0.27255573498E+03 -0.13733799219E+03 -0.76972097040E+03  0.82802096897E+03  0.25500000920E-02 0.  1.
       -2    1    3    3    0  502  0.27255573498E+03  0.13733799219E+03 -0.35842412313E+02  0.30729957907E+03  0.25500000920E-02 0. -1.
</event>
<event>
 5   0  0.4169155E-04  0.8018081E+03  0.7818609E-02  0.9557404E-01
        1   -1    0    0  501    0  0.00000000000E+00  0.00000000000E+00  0.42214840381E+03  0.42214840384E+03  0.50400001928E-02 0.  1.
       -1   -1    0    0    0  501  0.00000000000E+00  0.00000000000E+00 -0.38072882677E+03  0.38072882680E+03  0.50400001928E-02 0. -1.
    10030    2    1    2    0    0  0.00000000000E+00  0.00000000000E+00  0.41419577042E+02  0.80287723064E+03  0.80180812301E+03 0.  0.
        4    1    3    3  502    0  0.29639210222E+03  0.86242651374E+02 -0.23543665148E+03  0.38822429462E+03  0.12699999809E+01 0. -1.
       -4    1    3    3    0  502 -0.29639210222E+03 -0.86242651374E+02  0.27685622852E+03  0.41465293602E+03  0.12699999809E+01 0.  1.
</event>
<event>
 5   0  0.6801147E-04  0.7999816E+03  0.7818609E-02  0.9560044E-01
        2   -1    0    0  501    0  0.00000000000E+00  0.00000000000E+00  0.84440806746E+03  0.84440806746E+03  0.25500000920E-02 0. -1.
       -2   -1    0    0    0  501  0.00000000000E+00  0.00000000000E+00 -0.18947311607E+03  0.18947311608E+03  0.25500000920E-02 0.  1.
    10030    2    1    2    0    0  0.00000000000E+00  0.00000000000E+00  0.65493495139E+03  0.10338811835E+04  0.79998156925E+03 0.  0.
        4    1    3    3  502    0 -0.19304112032E+03 -0.24758878551E+03  0.64777455283E+03  0.71984620930E+03  0.12699999809E+01 0. -1.
       -4    1    3    3    0  502  0.19304112032E+03  0.24758878551E+03  0.71603985596E+01  0.31403497425E+03  0.12699999809E+01 0.  1.
</event>
<event>
 5   0  0.4392552E-04  0.8002237E+03  0.7818609E-02  0.9559693E-01
        1   -1    0    0  501    0  0.00000000000E+00  0.00000000000E+00  0.80864257730E+03  0.80864257731E+03  0.50400001928E-02 0.  1.
       -1   -1    0    0    0  501  0.00000000000E+00  0.00000000000E+00 -0.19797314285E+03  0.19797314291E+03  0.50400001928E-02 0. -1.
    10030    2    1    2    0    0  0.00000000000E+00  0.00000000000E+00  0.61066943445E+03  0.10066157202E+04  0.80022374998E+03 0.  0.
        5    1    3    3  502    0 -0.30216586225E+03 -0.25942053890E+03  0.35346874516E+03  0.53250865543E+03  0.46999998093E+01 0.  1.
       -5    1    3    3    0  502  0.30216586225E+03  0.25942053890E+03  0.25720068929E+03  0.47410706479E+03  0.46999998093E+01 0. -1.
</event>
<event>
 5   0  0.4086111E-04  0.8000327E+03  0.7818609E-02  0.9559970E-01
       -1   -1    0    0    0  501  0.00000000000E+00  0.00000000000E+00  0.16363390612E+03  0.16363390620E+03  0.50400001928E-02 0.  1.
        1   -1    0    0  501    0  0.00000000000E+00  0.00000000000E+00 -0.97787228777E+03  0.97787228778E+03  0.50400001928E-02 0. -1.
    10030    2    1    2    0    0  0.00000000000E+00  0.00000000000E+00 -0.81423838164E+03  0.11415061940E+04  0.80003265480E+03 0.  0.
        3    1    3    3  502    0 -0.17396171020E+03  0.16370192098E+03  0.50693757306E+02  0.24419431356E+03  0.10100000352E+00 0.  1.
       -3    1    3    3    0  502  0.17396171020E+03 -0.16370192098E+03 -0.86493213895E+03  0.89731188042E+03  0.10100000352E+00 0. -1.
</event>
<event>
 5   0  0.4392552E-04  0.7997434E+03  0.7818609E-02  0.9560389E-01
       -1   -1    0    0    0  501  0.00000000000E+00  0.00000000000E+00  0.11093957119E+04  0.11093957120E+04  0.50400001928E-02 0.  1.
        1   -1    0    0  501    0  0.00000000000E+00  0.00000000000E+00 -0.14413014579E+03  0.14413014588E+03  0.50400001928E-02 0. -1.
    10030    2    1    2    0    0  0.00000000000E+00  0.00000000000E+00  0.96526556615E+03  0.12535258578E+04  0.79974337326E+03 0.  0.
        5    1    3    3  502    0  0.35582187159E+03 -0.25175077454E+02  0.19948940935E+03  0.40873108919E+03  0.46999998093E+01 0. -1.
       -5    1    3    3    0  502 -0.35582187159E+03  0.25175077454E+02  0.76577615680E+03  0.84479476865E+03  0.46999998093E+01 0.  1.
</event>
<event>
 5   0  0.6672462E-04  0.7999926E+03  0.7818609E-02  0.9560028E-01
       -2   -1    0    0    0  501  0.00000000000E+00  0.00000000000E+00  0.24470619211E+03  0.24470619212E+03  0.25500000920E-02 0. -1.
        2   -1    0    0  501    0  0.00000000000E+00  0.00000000000E+00 -0.65383320346E+03  0.65383320346E+03  0.25500000920E-02 0.  1.
    10030    2    1    2    0    0  0.00000000000E+00  0.00000000000E+00 -0.40912701134E+03  0.89853939559E+03  0.79999258372E+03 0.  0.
        5    1    3    3  502    0  0.14021058335E+03  0.17309123907E+03  0.16855593326E+03  0.27937927153E+03  0.46999998093E+01 0. -1.
       -5    1    3    3    0  502 -0.14021058335E+03 -0.17309123907E+03 -0.57768294461E+03  0.61916012405E+03  0.46999998093E+01 0.  1.
</event>
<event>
 5   0  0.6593118E-04  0.8001906E+03  0.7818609E-02  0.9559741E-01
       -2   -1    0    0    0  501  0.00000000000E+00  0.00000000000E+00  0.28536192468E+03  0.28536192469E+03  0.25500000920E-02 0.  1.
        2   -1    0    0  501    0  0.00000000000E+00  0.00000000000E+00 -0.56095870965E+03  0.56095870966E+03  0.25500000920E-02 0. -1.
    10030    2    1    2    0    0  0.00000000000E+00  0.00000000000E+00 -0.27559678498E+03  0.84632063435E+03  0.80019061994E+03 0.  0.
        1    1    3    3  502    0 -0.12109883094E+03  0.22606772278E+03 -0.46259252628E+03  0.52892663719E+03  0.50400001928E-02 0. -1.
       -1    1    3    3    0  502  0.12109883094E+03 -0.22606772278E+03  0.18699574130E+03  0.31739399715E+03  0.50400001928E-02 0.  1.
</event>
<event>
 5   0  0.2736375E-04  0.8000364E+03  0.7818609E-02  0.9559964E-01
       -4   -1    0    0    0  501  0.00000000000E+00  0.00000000000E+00  0.21785427077E+03  0.21785797253E+03  0.12699999809E+01 0. -1.
        4   -1    0    0  501    0  0.00000000000E+00  0.00000000000E+00 -0.73449228825E+03  0.73449338622E+03  0.12699999809E+01 0.  1.
    10030    2    1    2    0    0  0.00000000000E+00  0.00000000000E+00 -0.51663801748E+03  0.95235135875E+03  0.80003641755E+03 0.  0.
        5    1    3    3  502    0 -0.19007813491E+03  0.34277218101E+03 -0.35332643898E+03  0.52771595382E+03  0.46999998093E+01 0. -1.
       -5    1    3    3    0  502  0.19007813491E+03 -0.34277218101E+03 -0.16331157850E+03  0.42463540492E+03  0.46999998093E+01 0.  1.
</event>
<event>
 5   0  0.6672462E-04  0.7999919E+03  0.7818609E-02  0.9560029E-01
        2   -1    0    0  501    0  0.00000000000E+00  0.00000000000E+00  0.32041755539E+03  0.32041755540E+03  0.25500000920E-02 0. -1.
       -2   -1    0    0    0  501  0.00000000000E+00  0.00000000000E+00 -0.49933834178E+03  0.49933834178E+03  0.25500000920E-02 0.  1.
    10030    2    1    2    0    0  0.00000000000E+00  0.00000000000E+00 -0.17892078638E+03  0.81975589719E+03  0.79999192694E+03 0.  0.
        5    1    3    3  502    0 -0.25112485272E+03 -0.28312182316E+03 -0.22209154149E+03  0.43882616285E+03  0.46999998093E+01 0.  1.
       -5    1    3    3    0  502  0.25112485272E+03  0.28312182316E+03  0.43170755108E+02  0.38092973433E+03  0.46999998093E+01 0. -1.
</event>
<event>
 5   0  0.6593118E-04  0.7998087E+03  0.7818609E-02  0.9560294E-01
        2   -1    0    0  501    0  0.00000000000E+00  0.00000000000E+00  0.84249499877E+03  0.84249499877E+03  0.25500000920E-02 0. -1.
       -2   -1    0    0    0  501  0.00000000000E+00  0.00000000000E+00 -0.18982127695E+03  0.18982127697E+03  0.25500000920E-02 0.  1.
    10030    2    1    2    0    0  0.00000000000E+00  0.00000000000E+00  0.65267372182E+03  0.10323162757E+04  0.79980866838E+03 0.  0.
        1    1    3    3  502    0 -0.20242590013E+03 -0.18898809437E+03  0.69870157858E+03  0.75158275712E+03  0.50400001928E-02 0. -1.
       -1    1    3    3    0  502  0.20242590013E+03  0.18898809437E+03 -0.46027856763E+02  0.28073351863E+03  0.50400001928E-02 0.  1.
</event>
<event>
 5   0  0.2736375E-04  0.8000950E+03  0.7818609E-02  0.9559880E-01
       -3   -1    0    0    0  501  0.00000000000E+00  0.00000000000E+00  0.32693125547E+03  0.32693127108E+03  0.10100000352E+00 0. -1.
        3   -1    0    0  501    0  0.00000000000E+00  0.00000000000E+00 -0.48951567946E+03  0.48951568988E+03  0.10100000352E+00 0.  1.
    10030    2    1    2    0    0  0.00000000000E+00  0.00000000000E+00 -0.16258442399E+03  0.81644696096E+03  0.80009496007E+03 0.  0.
        2    1    3    3  502    0  0.24780954666E+03  0.21884764490E+03  0.14855356121E+03  0.36245278816E+03  0.25500000920E-02 0. -1.
       -2    1    3    3    0  502 -0.24780954666E+03 -0.21884764490E+03 -0.31113798520E+03  0.45399417280E+03  0.25500000920E-02 0.  1.
</event>
<event>
 5   0  0.6593118E-04  0.7998017E+03  0.7818609E-02  0.9560304E-01
        2   -1    0    0  501    0  0.00000000000E+00  0.00000000000E+00  0.74251798194E+03  0.74251798194E+03  0.25500000920E-02 0.  1.
       -2   -1    0    0    0  501  0.00000000000E+00  0.00000000000E+00 -0.21537618125E+03  0.21537618127E+03  0.25500000920E-02 0. -1.
    10030    2    1    2    0    0  0.00000000000E+00  0.00000000000E+00  0.52714180069E+03  0.95789416321E+03  0.79980169410E+03 0.  0.
        1    1    3    3  502    0 -0.17581578489E+03  0.28431860552E+03  0.70486533063E+00  0.33428843313E+03  0.50400001928E-02 0. -1.
       -1    1    3    3    0  502  0.17581578489E+03 -0.28431860552E+03  0.52643693536E+03  0.62360573008E+03  0.50400001928E-02 0.  1.
</event>
<event>
 5   0  0.6970013E-04  0.7979560E+03  0.7818609E-02  0.9562980E-01
       -2   -1    0    0    0  501  0.00000000000E+00  0.00000000000E+00  0.60356127190E+03  0.60356127191E+03  0.25500000920E-02 0.  1.
        2   -1    0    0  501    0  0.00000000000E+00  0.00000000000E+00 -0.26374035068E+03  0.26374035069E+03  0.25500000920E-02 0. -1.
    10030    2    1    2    0    0  0.00000000000E+00  0.00000000000E+00  0.33982092122E+03  0.86730162260E+03  0.79795604269E+03 0.  0.
        3    1    3    3  502    0 -0.10314096409E+03 -0.27885948357E+03  0.45908163763E+03  0.54695212794E+03  0.10100000352E+00 0.  1.
       -3    1    3    3    0  502  0.10314096409E+03  0.27885948357E+03 -0.11926071641E+03  0.32034949466E+03  0.10100000352E+00 0. -1.
</event>
<event>
 5   0  0.4169155E-04  0.8024886E+03  0.7818609E-02  0.9556422E-01
       -1   -1    0    0    0  501  0.00000000000E+00  0.00000000000E+00  0.19961008659E+03  0.19961008665E+03  0.50400001928E-02 0.  1.
        1   -1    0    0  501    0  0.00000000000E+00  0.00000000000E+00 -0.80655739482E+03  0.80655739484E+03  0.50400001928E-02 0. -1.
    10030    2    1    2    0    0  0.00000000000E+00  0.00000000000E+00 -0.60694730823E+03  0.10061674815E+04  0.80248860791E+03 0.  0.
        4    1    3    3  502    0  0.18439446334E+03  0.23531865588E+02  0.14236136718E+03  0.23414405518E+03  0.12699999809E+01 0.  1.
       -4    1    3    3    0  502 -0.18439446334E+03 -0.23531865588E+02 -0.74930867542E+03  0.77202342631E+03  0.12699999809E+01 0. -1.
</event>
<event>
 5   0  0.4169155E-04  0.7997959E+03  0.7818609E-02  0.9560313E-01
        1   -1    0    0  501    0  0.00000000000E+00  0.00000000000E+00  0.62950719173E+03  0.62950719175E+03  0.50400001928E-02 0. -1.
       -1   -1    0    0    0  501  0.00000000000E+00  0.00000000000E+00 -0.25403742779E+03  0.25403742784E+03  0.50400001928E-02 0.  1.
    10030    2    1    2    0    0  0.00000000000E+00  0.00000000000E+00  0.37546976394E+03  0.88354461959E+03  0.79979594346E+03 0.  0.
        4    1    3    3  502    0 -0.18615835595E+03 -0.16038077821E+03 -0.16080122402E+03  0.29365894173E+03  0.12699999809E+01 0.  1.
       -4    1    3    3    0  502  0.18615835595E+03  0.16038077821E+03  0.53627098797E+03  0.58988567786E+03  0.12699999809E+01 0. -1.
</event>
<event>
 5   0  0.4087283E-04  0.8003244E+03  0.7818609E-02  0.9559548E-01
       -1   -1    0    0    0  501  0.00000000000E+00  0.00000000000E+00  0.16186024211E+03  0.16186024219E+03  0.50400001928E-02 0.  1.
        1   -1    0    0  501    0  0.00000000000E+00  0.00000000000E+00 -0.98930885930E+03  0.98930885932E+03  0.50400001928E-02 0. -1.
    10030    2    1    2    0    0  0.00000000000E+00  0.00000000000E+00 -0.82744861719E+03  0.11511691015E+04  0.80032436310E+03 0.  0.
        1    1    3    3  502    0  0.13546934755E+03  0.16623428675E+03  0.72234669341E+02  0.22628219041E+03  0.50400001928E-02 0.  1.
       -1    1    3    3    0  502 -0.13546934755E+03 -0.16623428675E+03 -0.89968328653E+03  0.92488691109E+03  0.50400001928E-02 0. -1.
</event>
<event>
 5   0  0.6672462E-04  0.8000528E+03  0.7818609E-02  0.9559941E-01
        2   -1    0    0  501    0  0.00000000000E+00  0.00000000000E+00  0.78562631800E+03  0.78562631800E+03  0.25500000920E-02 0.  1.
       -2   -1    0    0    0  501  0.00000000000E+00  0.00000000000E+00 -0.20368604817E+03  0.20368604819E+03  0.25500000920E-02 0. -1.
    10030    2    1    2    0    0  0.00000000000E+00  0.00000000000E+00  0.58194026983E+03  0.98931236619E+03  0.80005279841E+03 0.  0.
        5    1    3    3  502    0 -0.57840299882E+02 -0.30762479835E+03  0.59892173636E+03  0.67580163742E+03  0.46999998093E+01 0.  1.
       -5    1    3    3    0  502  0.57840299882E+02  0.30762479835E+03 -0.16981466531E+02  0.31351072877E+03  0.46999998093E+01 0. -1.
</event>
<event>
 5   0  0.4087283E-04  0.8001501E+03  0.7818609E-02  0.9559800E-01
       -1   -1    0    0    0  501  0.00000000000E+00  0.00000000000E+00  0.20860754197E+03  0.20860754203E+03  0.50400001928E-02 0. -1.
        1   -1    0    0  501    0  0.00000000000E+00  0.00000000000E+00 -0.76727832320E+03  0.76727832321E+03  0.50400001928E-02 0.  1.
    10030    2    1    2    0    0  0.00000000000E+00  0.00000000000E+00 -0.55867078123E+03  0.97588586524E+03  0.80015009853E+03 0.  0.
        1    1    3    3  502    0  0.33469491697E+03 -0.91854659644E+02 -0.36626012231E+02  0.34899775177E+03  0.50400001928E-02 0. -1.
       -1    1    3    3    0  502 -0.33469491697E+03  0.91854659644E+02 -0.52204476900E+03  0.62688811347E+03  0.50400001928E-02 0.  1.
</event>
<event>
 5   0  0.2736375E-04  0.8003720E+03  0.7818609E-02  0.9559479E-01
       -3   -1    0    0    0  501  0.00000000000E+00  0.00000000000E+00  0.83454099233E+03  0.83454099845E+03  0.10100000352E+00 0. -1.
        3   -1    0    0  501    0  0.00000000000E+00  0.00000000000E+00 -0.19190048338E+03  0.19190050996E+03  0.10100000352E+00 0.  1.
    10030    2    1    2    0    0  0.00000000000E+00  0.00000000000E+00  0.64264050895E+03  0.10264415084E+04  0.80037200502E+03 0.  0.
        2    1    3    3  502    0  0.27858018640E+02  0.34643357131E+03  0.66900507488E+02  0.35393214949E+03  0.25500000920E-02 0.  1.
       -2    1    3    3    0  502 -0.27858018640E+02 -0.34643357131E+03  0.57574000147E+03  0.67250935891E+03  0.25500000920E-02 0. -1.
</event>
<event>
 5   0  0.6672462E-04  0.7980128E+03  0.7818609E-02  0.9562898E-01
        2   -1    0    0  501    0  0.00000000000E+00  0.00000000000E+00  0.46483500622E+03  0.46483500623E+03  0.25500000920E-02 0.  1.
       -2   -1    0    0    0  501  0.00000000000E+00  0.00000000000E+00 -0.34250027506E+03  0.34250027506E+03  0.25500000920E-02 0. -1.
    10030    2    1    2    0    0  0.00000000000E+00  0.00000000000E+00  0.12233473117E+03  0.80733528129E+03  0.79801282569E+03 0.  0.
        5    1    3    3  502    0  0.11458358932E+03  0.38044708993E+03  0.97848903423E+02  0.40922595845E+03  0.46999998093E+01 0.  1.
       -5    1    3    3    0  502 -0.11458358932E+03 -0.38044708993E+03  0.24485827745E+02  0.39810932284E+03  0.46999998093E+01 0. -1.
</event>
<event>
 5   0  0.6593118E-04  0.7999686E+03  0.7818609E-02  0.9560063E-01
        2   -1    0    0  501    0  0.00000000000E+00  0.00000000000E+00  0.40522919068E+03  0.40522919069E+03  0.25500000920E-02 0.  1.
       -2   -1    0    0    0  501  0.00000000000E+00  0.00000000000E+00 -0.39480725655E+03  0.39480725656E+03  0.25500000920E-02 0. -1.
    10030    2    1    2    0    0  0.00000000000E+00  0.00000000000E+00  0.10421934126E+02  0.80003644725E+03  0.79996856202E+03 0.  0.
        1    1    3    3  502    0  0.15299342867E+03 -0.35749158077E+03 -0.88499735262E+02  0.39879747078E+03  0.50400001928E-02 0. -1.
       -1    1    3    3    0  502 -0.15299342867E+03  0.35749158077E+03  0.98921669388E+02  0.40123897647E+03  0.50400001928E-02 0.  1.
</event>
<event>
 5   0  0.6801147E-04  0.8002042E+03  0.7818609E-02  0.9559722E-01
        2   -1    0    0  501    0  0.00000000000E+00  0.00000000000E+00  0.31510296947E+03  0.31510296948E+03  0.25500000920E-02 0.  1.
       -2   -1    0    0    0  501  0.00000000000E+00  0.00000000000E+00 -0.50802980335E+03  0.50802980336E+03  0.25500000920E-02 0. -1.
    10030    2    1    2    0    0  0.00000000000E+00  0.00000000000E+00 -0.19292683388E+03  0.82313277284E+03  0.80020422299E+03 0.  0.
        4    1    3    3  502    0 -0.36339467268E+03 -0.14591942245E+03 -0.18086265996E+03  0.43134798093E+03  0.12699999809E+01 0. -1.
       -4    1    3    3    0  502  0.36339467268E+03  0.14591942245E+03 -0.12064173914E+02  0.39178479191E+03  0.12699999809E+01 0.  1.
</event>
<event>
 5   0  0.6672462E-04  0.8000497E+03  0.7818609E-02  0.9559945E-01
        2   -1    0    0  501    0  0.00000000000E+00  0.00000000000E+00  0.15226653444E+04  0.15226653444E+04  0.25500000920E-02 0.  1.
       -2   -1    0    0    0  501  0.00000000000E+00  0.00000000000E+00 -0.10509195808E+03  0.10509195811E+03  0.25500000920E-02 0. -1.
    10030    2    1    2    0    0  0.00000000000E+00  0.00000000000E+00  0.14175733864E+04  0.16277573025E+04  0.80004970489E+03 0.  0.
        5    1    3    3  502    0 -0.33792039685E+03 -0.21237543757E+03  0.76278034919E+03  0.86090038460E+03  0.46999998093E+01 0. -1.
       -5    1    3    3    0  502  0.33792039685E+03  0.21237543757E+03  0.65479303716E+03  0.76685691795E+03  0.46999998093E+01 0.  1.
</event>
<event>
 5   0  0.4169155E-04  0.7994198E+03  0.7818609E-02  0.9560857E-01
        1   -1    0    0  501    0  0.00000000000E+00  0.00000000000E+00  0.74163518677E+03  0.74163518679E+03  0.50400001928E-02 0.  1.
       -1   -1    0    0    0  501  0.00000000000E+00  0.00000000000E+00 -0.21542666091E+03  0.21542666097E+03  0.50400001928E-02 0. -1.
    10030    2    1    2    0    0  0.00000000000E+00  0.00000000000E+00  0.52620852586E+03  0.95706184776E+03  0.79941976943E+03 0.  0.
        4    1    3    3  502    0  0.36457487779E+03  0.71400518990E+02  0.86529055571E+02  0.38144693732E+03  0.12699999809E+01 0. -1.
       -4    1    3    3    0  502 -0.36457487779E+03 -0.71400518990E+02  0.43967947029E+03  0.57561491045E+03  0.12699999809E+01 0.  1.
</event>
<event>
 5   0  0.6593118E-04  0.7996525E+03  0.7818609E-02  0.9560520E-01
        2   -1    0    0  501    0  0.00000000000E+00  0.00000000000E+00  0.37792550713E+03  0.37792550714E+03  0.25500000920E-02 0. -1.
       -2   -1    0    0    0  501  0.00000000000E+00  0.00000000000E+00 -0.42299612394E+03  0.42299612395E+03  0.25500000920E-02 0.  1.
    10030    2    1    2    0    0  0.00000000000E+00  0.00000000000E+00 -0.45070616809E+02  0.80092163109E+03  0.79965248618E+03 0.  0.
        1    1    3    3  502    0  0.34042909401E+03  0.20809551118E+03  0.32993264732E+01  0.39900701172E+03  0.50400001928E-02 0. -1.
       -1    1    3    3    0  502 -0.34042909401E+03 -0.20809551118E+03 -0.48369943282E+02  0.40191461937E+03  0.50400001928E-02 0.  1.
</event>
<event>
 5   0  0.4169155E-04  0.8001387E+03  0.7818609E-02  0.9559816E-01
       -1   -1    0    0    0  501  0.00000000000E+00  0.00000000000E+00  0.86488753198E+02  0.86488753345E+02  0.50400001928E-02 0.  1.
        1   -1    0    0  501    0  0.00000000000E+00  0.00000000000E+00 -0.18505928756E+04  0.18505928756E+04  0.50400001928E-02 0. -1.
    10030    2    1    2    0    0  0.00000000000E+00  0.00000000000E+00 -0.17641041224E+04  0.19370816289E+04  0.80013866456E+03 0.  0.
        4    1    3    3  502    0  0.10489264888E+03  0.25390704325E+03 -0.15861339763E+04  0.16097496259E+04  0.12699999809E+01 0. -1.
       -4    1    3    3    0  502 -0.10489264888E+03 -0.25390704325E+03 -0.17797014604E+03  0.32733200299E+03  0.12699999809E+01 0.  1.
</event>
<event>
 5   0  0.4104786E-04  0.8000618E+03  0.7818609E-02  0.9559928E-01
        1   -1    0    0  501    0  0.00000000000E+00  0.00000000000E+00  0.27774308686E+03  0.27774308691E+03  0.50400001928E-02 0. -1.
       -1   -1    0    0    0  501  0.00000000000E+00  0.00000000000E+00 -0.57616100528E+03  0.57616100530E+03  0.50400001928E-02 0.  1.
    10030    2    1    2    0    0  0.00000000000E+00  0.00000000000E+00 -0.29841791842E+03  0.85390409221E+03  0.80006183802E+03 0.  0.
        2    1    3    3  502    0 -0.23171048057E+03  0.69505679726E+02  0.19082869419E+03  0.30811747248E+03  0.25500000920E-02 0. -1.
       -2    1    3    3    0  502  0.23171048057E+03 -0.69505679726E+02 -0.48924661261E+03  0.54578661972E+03  0.25500000920E-02 0.  1.
</event>
<event>
 5   0  0.2736375E-04  0.8002560E+03  0.7818609E-02  0.9559647E-01
       -4   -1    0    0    0  501  0.00000000000E+00  0.00000000000E+00  0.33557294350E+03  0.33557534669E+03  0.12699999809E+01 0.  1.
        4   -1    0    0  501    0  0.00000000000E+00  0.00000000000E+00 -0.47709667453E+03  0.47709836485E+03  0.12699999809E+01 0. -1.
    10030    2    1    2    0    0  0.00000000000E+00  0.00000000000E+00 -0.14152373103E+03  0.81267371155E+03  0.80025595593E+03 0.  0.
        4    1    3    3  502    0 -0.32391091494E+03  0.32045932826E+02  0.16556268184E+03  0.36518192336E+03  0.12699999809E+01 0.  1.
       -4    1    3    3    0  502  0.32391091494E+03 -0.32045932826E+02 -0.30708641287E+03  0.44749178819E+03  0.12699999809E+01 0. -1.
</event>
<event>
 5   0  0.4169155E-04  0.7990018E+03  0.7818609E-02  0.9561463E-01
        1   -1    0    0  501    0  0.00000000000E+00  0.00000000000E+00  0.16556262546E+03  0.16556262553E+03  0.50400001928E-02 0. -1.
       -1   -1    0    0    0  501  0.00000000000E+00  0.00000000000E+00 -0.96399152016E+03  0.96399152017E+03  0.50400001928E-02 0.  1.
    10030    2    1    2    0    0  0.00000000000E+00  0.00000000000E+00 -0.79842889470E+03  0.11295541457E+04  0.79900179486E+03 0.  0.
        4    1    3    3  502    0 -0.24267290228E+03 -0.18960831651E+03 -0.75896849360E+03  0.81907035008E+03  0.12699999809E+01 0.  1.
       -4    1    3    3    0  502  0.24267290228E+03  0.18960831651E+03 -0.39460401100E+02  0.31048379563E+03  0.12699999809E+01 0. -1.
</event>
<event>
 5   0  0.4169155E-04  0.7998727E+03  0.7818609E-02  0.9560201E-01
        1   -1    0    0  501    0  0.00000000000E+00  0.00000000000E+00  0.96850946867E+03  0.96850946869E+03  0.50400001928E-02 0.  1.
       -1   -1    0    0    0  501  0.00000000000E+00  0.00000000000E+00 -0.16514974992E+03  0.16514975000E+03  0.50400001928E-02 0. -1.
    10030    2    1    2    0    0  0.00000000000E+00  0.00000000000E+00  0.80335971875E+03  0.11336592187E+04  0.79987273137E+03 0.  0.
        4    1    3    3  502    0  0.12338071060E+03  0.11366978969E+03  0.91622763115E+03  0.93146030824E+03  0.12699999809E+01 0.  1.
       -4    1    3    3    0  502 -0.12338071060E+03 -0.11366978969E+03 -0.11286791240E+03  0.20219891044E+03  0.12699999809E+01 0. -1.
</event>
<event>
 5   0  0.6801147E-04  0.7991224E+03  0.7818609E-02  0.9561288E-01
       -2   -1    0    0    0  501  0.00000000000E+00  0.00000000000E+00  0.30159447851E+03  0.30159447852E+03  0.25500000920E-02 0.  1.
        2   -1    0    0  501    0  0.00000000000E+00  0.00000000000E+00 -0.52935038694E+03  0.52935038694E+03  0.25500000920E-02 0. -1.
    10030    2    1    2    0    0  0.00000000000E+00  0.00000000000E+00 -0.22775590843E+03  0.83094486546E+03  0.79912240340E+03 0.  0.
        4    1    3    3  502    0  0.33474140082E+03  0.16169460181E+03  0.38414553036E+02  0.37373017067E+03  0.12699999809E+01 0.  1.
       -4    1    3    3    0  502 -0.33474140082E+03 -0.16169460181E+03 -0.26617046146E+03  0.45721469480E+03  0.12699999809E+01 0. -1.
</event>
<event>
 5   0  0.6801147E-04  0.7999226E+03  0.7818609E-02  0.9560129E-01
       -2   -1    0    0    0  501  0.00000000000E+00  0.00000000000E+00  0.22465096101E+03  0.22465096102E+03  0.25500000920E-02 0. -1.
        2   -1    0    0  501    0  0.00000000000E+00  0.00000000000E+00 -0.71207810378E+03  0.71207810379E+03  0.25500000920E-02 0.  1.
    10030    2    1    2    0    0  0.00000000000E+00  0.00000000000E+00 -0.48742714277E+03  0.93672906481E+03  0.79992257209E+03 0.  0.
        4    1    3    3  502    0  0.13685793871E+03  0.46939371262E+02 -0.68035664958E+03  0.69557183921E+03  0.12699999809E+01 0.  1.
       -4    1    3    3    0  502 -0.13685793871E+03 -0.46939371262E+02  0.19292950681E+03  0.24115722560E+03  0.12699999809E+01 0. -1.
</event>
<event>
 5   0  0.4086111E-04  0.8000352E+03  0.7818609E-02  0.9559966E-01
        1   -1    0    0  501    0  0.00000000000E+00  0.00000000000E+00  0.72676223682E+03  0.72676223684E+03  0.50400001928E-02 0.  1.
       -1   -1    0    0    0  501  0.00000000000E+00  0.00000000000E+00 -0.22017389139E+03  0.22017389145E+03  0.50400001928E-02 0. -1.
    10030    2    1    2    0    0  0.00000000000E+00  0.00000000000E+00  0.50658834543E+03  0.94693612829E+03  0.80003517381E+03 0.  0.
        3    1    3    3  502    0 -0.79560046985E+01  0.10550386861E+03  0.70990037948E+03  0.71774154351E+03  0.10100000352E+00 0.  1.
       -3    1    3    3    0  502  0.79560046985E+01 -0.10550386861E+03 -0.20331203404E+03  0.22919458477E+03  0.10100000352E+00 0. -1.
</event>
<event>
 5   0  0.7133039E-04  0.7999529E+03  0.7818609E-02  0.9560085E-01
        2   -1    0    0  501    0  0.00000000000E+00  0.00000000000E+00  0.74884783815E+03  0.74884783816E+03  0.25500000920E-02 0.  1.
       -2   -1    0    0    0  501  0.00000000000E+00  0.00000000000E+00 -0.21363642680E+03  0.21363642682E+03  0.25500000920E-02 0. -1.
    10030    2    1    2    0    0  0.00000000000E+00  0.00000000000E+00  0.53521141135E+03  0.96248426497E+03  0.79995293954E+03 0.  0.
        2    1    3    3  502    0 -0.11027187686E+03 -0.32711091237E+03  0.24517258384E+02  0.34606723593E+03  0.25500000920E-02 0. -1.
       -2    1    3    3    0  502  0.11027187686E+03  0.32711091237E+03  0.51069415297E+03  0.61641702905E+03  0.25500000920E-02 0.  1.
</event>
<event>
 5   0  0.4392552E-04  0.7998943E+03  0.7818609E-02  0.9560170E-01
       -1   -1    0    0    0  501  0.00000000000E+00  0.00000000000E+00  0.63570785532E+03  0.63570785534E+03  0.50400001928E-02 0. -1.
        1   -1    0    0  501    0  0.00000000000E+00  0.00000000000E+00 -0.25162144512E+03  0.25162144517E+03  0.50400001928E-02 0.  1.
    10030    2    1    2    0    0  0.00000000000E+00  0.00000000000E+00  0.38408641020E+03  0.88732930051E+03  0.79989431618E+03 0.  0.
        5    1    3    3  502    0 -0.22767736979E+03 -0.13389533632E+03 -0.14106468266E+03  0.29947667771E+03  0.46999998093E+01 0.  1.
       -5    1    3    3    0  502  0.22767736979E+03  0.13389533632E+03  0.52515109286E+03  0.58785262280E+03  0.46999998093E+01 0. -1.
</event>
<event>
 5   0  0.6593118E-04  0.7996768E+03  0.7818609E-02  0.9560485E-01
        2   -1    0    0  501    0  0.00000000000E+00  0.00000000000E+00  0.14039466503E+04  0.14039466503E+04  0.25500000920E-02 0.  1.
       -2   -1    0    0    0  501  0.00000000000E+00  0.00000000000E+00 -0.11387238879E+03  0.11387238882E+03  0.25500000920E-02 0. -1.
    10030    2    1    2    0    0  0.00000000000E+00  0.00000000000E+00  0.12900742615E+04  0.15178190391E+04  0.79967683179E+03 0.  0.
        1    1    3    3  502    0 -0.30089926910E+03 -0.25790008099E+03  0.54428108549E+03  0.67327165540E+03  0.50400001928E-02 0. -1.
       -1    1    3    3    0  502  0.30089926910E+03  0.25790008099E+03  0.74579317598E+03  0.84454738368E+03  0.50400001928E-02 0.  1.
</event>
<event>
 5   0  0.6801147E-04  0.8000566E+03  0.7818609E-02  0.9559935E-01
        2   -1    0    0  501    0  0.00000000000E+00  0.00000000000E+00  0.43985668360E+03  0.43985668360E+03  0.25500000920E-02 0.  1.
       -2   -1    0    0    0  501  0.00000000000E+00  0.00000000000E+00 -0.36380634597E+03  0.36380634598E+03  0.25500000920E-02 0. -1.
    10030    2    1    2    0    0  0.00000000000E+00  0.00000000000E+00  0.76050337625E+02  0.80366302958E+03  0.80005663004E+03 0.  0.
        4    1    3    3  502    0 -0.36880500126E+03 -0.15493029665E+03  0.37304899852E+02  0.40176335600E+03  0.12699999809E+01 0.  1.
       -4    1    3    3    0  502  0.36880500126E+03  0.15493029665E+03  0.38745437774E+02  0.40189967358E+03  0.12699999809E+01 0. -1.
</event>
<event>
 5   0  0.4086111E-04  0.7999605E+03  0.7818609E-02  0.9560074E-01
       -1   -1    0    0    0  501  0.00000000000E+00  0.00000000000E+00  0.24290997953E+03  0.24290997958E+03  0.50400001928E-02 0. -1.
        1   -1    0    0  501    0  0.00000000000E+00  0.00000000000E+00 -0.65861519358E+03  0.65861519360E+03  0.50400001928E-02 0.  1.
    10030    2    1    2    0    0  0.00000000000E+00  0.00000000000E+00 -0.41570521405E+03  0.90152517319E+03  0.79996050709E+03 0.  0.
        3    1    3    3  502    0 -0.13546675917E+03 -0.36300750412E+03 -0.95956551234E+02  0.39916583122E+03  0.10100000352E+00 0. -1.
       -3    1    3    3    0  502  0.13546675917E+03  0.36300750412E+03 -0.31974866281E+03  0.50235934197E+03  0.10100000352E+00 0.  1.
</event>
<event>
 5   0  0.6801147E-04  0.7999336E+03  0.7818609E-02  0.9560113E-01
       -2   -1    0    0    0  501  0.00000000000E+00  0.00000000000E+00  0.12324474833E+03  0.12324474836E+03  0.25500000920E-02 0.  1.
        2   -1    0    0  501    0  0.00000000000E+00  0.00000000000E+00 -0.12980141327E+04  0.12980141327E+04  0.25500000920E-02 0. -1.
    10030    2    1    2    0    0  0.00000000000E+00  0.00000000000E+00 -0.11747693844E+04  0.14212588811E+04  0.79993356008E+03 0.  0.
        4    1    3    3  502    0 -0.35533367781E+03  0.17873956109E+03 -0.51280558718E+03  0.64898461956E+03  0.12699999809E+01 0. -1.
       -4    1    3    3    0  502  0.35533367781E+03 -0.17873956109E+03 -0.66196379718E+03  0.77227426149E+03  0.12699999809E+01 0.  1.
</event>
<event>
 5   0  0.6672462E-04  0.8001325E+03  0.7818609E-02  0.9559825E-01
        2   -1    0    0  501    0  0.00000000000E+00  0.00000000000E+00  0.31882415738E+03  0.31882415740E+03  0.25500000920E-02 0. -1.
       -2   -1    0    0    0  501  0.00000000000E+00  0.00000000000E+00 -0.50201023248E+03  0.50201023249E+03  0.25500000920E-02 0.  1.
    10030    2    1    2    0    0  0.00000000000E+00  0.00000000000E+00 -0.18318607509E+03  0.82083438988E+03  0.80013246247E+03 0.  0.
        5    1    3    3  502    0  0.26702140486E+03  0.26372968522E+03 -0.23365747198E+03  0.44212179513E+03  0.46999998093E+01 0.  1.
       -5    1    3    3    0  502 -0.26702140486E+03 -0.26372968522E+03  0.50471396883E+02  0.37871259475E+03  0.46999998093E+01 0. -1.
</event>
<event>
 5   0  0.6593118E-04  0.7999440E+03  0.7818609E-02  0.9560098E-01
       -2   -1    0    0    0  501  0.00000000000E+00  0.00000000000E+00  0.75462640743E+02  0.75462640786E+02  0.25500000920E-02 0. -1.
        2   -1    0    0  501    0  0.00000000000E+00  0.00000000000E+00 -0.21199578345E+04  0.21199578345E+04  0.25500000920E-02 0.  1.
    10030    2    1    2    0    0  0.00000000000E+00  0.00000000000E+00 -0.20444951938E+04  0.21954204753E+04  0.79994403930E+03 0.  0.
        1    1    3    3  502    0 -0.28923823127E+03 -0.36228270784E+02 -0.27061225841E+03  0.39774644745E+03  0.50400001928E-02 0. -1.
       -1    1    3    3    0  502  0.28923823127E+03  0.36228270784E+02 -0.17738829354E+04  0.17976740278E+04  0.50400001928E-02 0.  1.
</event>
<event>
 5   0  0.4169155E-04  0.8008046E+03  0.7818609E-02  0.9558853E-01
        1   -1    0    0  501    0  0.00000000000E+00  0.00000000000E+00  0.30049283931E+04  0.30049283931E+04  0.50400001928E-02 0.  1.
       -1   -1    0    0    0  501  0.00000000000E+00  0.00000000000E+00 -0.53353014459E+02  0.53353014697E+02  0.50400001928E-02 0. -1.
    10030    2    1    2    0    0  0.00000000000E+00  0.00000000000E+00  0.29515753787E+04  0.30582814078E+04  0.80080456636E+03 0.  0.
        4    1    3    3  502    0 -0.36573944518E+03 -0.11847132017E+03  0.19031003727E+04  0.19415440858E+04  0.12699999809E+01 0. -1.
       -4    1    3    3    0  502  0.36573944518E+03  0.11847132017E+03  0.10484750060E+04  0.11167373221E+04  0.12699999809E+01 0.  1.
</event>
<event>
 5   0  0.6593118E-04  0.8003098E+03  0.7818609E-02  0.9559569E-01
       -2   -1    0    0    0  501  0.00000000000E+00  0.00000000000E+00  0.82788673461E+02  0.82788673501E+02  0.25500000920E-02 0.  1.
        2   -1    0    0  501    0  0.00000000000E+00  0.00000000000E+00 -0.19341286044E+04  0.19341286044E+04  0.25500000920E-02 0. -1.
    10030    2    1    2    0    0  0.00000000000E+00  0.00000000000E+00 -0.18513399310E+04  0.20169172779E+04  0.80030979378E+03 0.  0.
        1    1    3    3  502    0  0.32130377639E+03 -0.11089918931E+03 -0.39350685185E+03  0.51998306645E+03  0.50400001928E-02 0.  1.
       -1    1    3    3    0  502 -0.32130377639E+03  0.11089918931E+03 -0.14578330791E+04  0.14969342115E+04  0.50400001928E-02 0. -1.
</event>
<event>
 5   0  0.4104786E-04  0.8003342E+03  0.7818609E-02  0.9559533E-01
       -1   -1    0    0    0  501  0.00000000000E+00  0.00000000000E+00  0.33251826979E+03  0.33251826983E+03  0.50400001928E-02 0. -1.
        1   -1    0    0  501    0  0.00000000000E+00  0.00000000000E+00 -0.48157869324E+03  0.48157869326E+03  0.50400001928E-02 0.  1.
    10030    2    1    2    0    0  0.00000000000E+00  0.00000000000E+00 -0.14906042345E+03  0.81409696309E+03  0.80033421486E+03 0.  0.
        2    1    3    3  502    0  0.36076418776E+03 -0.17311946482E+03 -0.78135966802E+02  0.40770869207E+03  0.25500000920E-02 0. -1.
       -2    1    3    3    0  502 -0.36076418776E+03  0.17311946482E+03 -0.70924456646E+02  0.40638827103E+03  0.25500000920E-02 0.  1.
</event>
<event>
 5   0  0.6970013E-04  0.8037976E+03  0.7818609E-02  0.9554537E-01
        2   -1    0    0  501    0  0.00000000000E+00  0.00000000000E+00  0.14362413686E+04  0.14362413686E+04  0.25500000920E-02 0.  1.
       -2   -1    0    0    0  501  0.00000000000E+00  0.00000000000E+00 -0.11246203632E+03  0.11246203635E+03  0.25500000920E-02 0. -1.
    10030    2    1    2    0    0  0.00000000000E+00  0.00000000000E+00  0.13237793323E+04  0.15487034049E+04  0.80379755905E+03 0.  0.
        3    1    3    3  502    0 -0.16328584652E+03 -0.35563797377E+03  0.83828819171E+03  0.92513120076E+03  0.10100000352E+00 0.  1.
       -3    1    3    3    0  502  0.16328584652E+03  0.35563797377E+03  0.48549114055E+03  0.62357220417E+03  0.10100000352E+00 0. -1.
</event>
<event>
 5   0  0.4169155E-04  0.8001303E+03  0.7818609E-02  0.9559829E-01
       -1   -1    0    0    0  501  0.00000000000E+00  0.00000000000E+00  0.26032296585E+03  0.26032296590E+03  0.50400001928E-02 0. -1.
        1   -1    0    0  501    0  0.00000000000E+00  0.00000000000E+00 -0.61482136160E+03  0.61482136162E+03  0.50400001928E-02 0.  1.
    10030    2    1    2    0    0  0.00000000000E+00  0.00000000000E+00 -0.35449839575E+03  0.87514432752E+03  0.80013029027E+03 0.  0.
        4    1    3    3  502    0 -0.35609481510E+03 -0.64093504483E+02  0.94559908286E+01  0.36194270724E+03  0.12699999809E+01 0. -1.
       -4    1    3    3    0  502  0.35609481510E+03  0.64093504483E+02 -0.36395438658E+03  0.51320162029E+03  0.12699999809E+01 0.  1.
</event>
<event>
 5   0  0.4169155E-04  0.8002227E+03  0.7818609E-02  0.9559695E-01
        1   -1    0    0  501    0  0.00000000000E+00  0.00000000000E+00  0.10824658747E+04  0.10824658747E+04  0.50400001928E-02 0. -1.
       -1   -1    0    0    0  501  0.00000000000E+00  0.00000000000E+00 -0.14789297419E+03  0.14789297427E+03  0.50400001928E-02 0.  1.
    10030    2    1    2    0    0  0.00000000000E+00  0.00000000000E+00  0.93457290047E+03  0.12303588489E+04  0.80022271329E+03 0.  0.
        4    1    3    3  502    0  0.16218122693E+03  0.19385558998E+03 -0.96045962030E+01  0.25293596285E+03  0.12699999809E+01 0.  1.
       -4    1    3    3    0  502 -0.16218122693E+03 -0.19385558998E+03  0.94417749667E+03  0.97742288609E+03  0.12699999809E+01 0. -1.
</event>
<event>
 5   0  0.6593118E-04  0.8006153E+03  0.7818609E-02  0.9559127E-01
       -2   -1    0    0    0  501  0.00000000000E+00  0.00000000000E+00  0.13186239849E+03  0.13186239851E+03  0.25500000920E-02 0. -1.
        2   -1    0    0  501    0  0.00000000000E+00  0.00000000000E+00 -0.12152532112E+04  0.12152532112E+04  0.25500000920E-02 0.  1.
    10030    2    1    2    0    0  0.00000000000E+00  0.00000000000E+00 -0.10833908127E+04  0.13471156097E+04  0.80061527143E+03 0.  0.
        1    1    3    3  502    0 -0.71309186368E+02  0.33702824903E+03 -0.88476918823E+03  0.94946803905E+03  0.50400001928E-02 0.  1.
       -1    1    3    3    0  502  0.71309186368E+02 -0.33702824903E+03 -0.19862162446E+03  0.39764757064E+03  0.50400001928E-02 0. -1.
</event>
<event>
 5   0  0.6801147E-04  0.7997642E+03  0.7818609E-02  0.9560358E-01
       -2   -1    0    0    0  501  0.00000000000E+00  0.00000000000E+00  0.33026261667E+03  0.33026261668E+03  0.25500000920E-02 0.  1.
        2   -1    0    0  501    0  0.00000000000E+00  0.00000000000E+00 -0.48417739207E+03  0.48417739207E+03  0.25500000920E-02 0. -1.
    10030    2    1    2    0    0  0.00000000000E+00  0.00000000000E+00 -0.15391477540E+03  0.81444000875E+03  0.79976419635E+03 0.  0.
        4    1    3    3  502    0  0.24724266532E+02  0.11204610666E+03 -0.46705125318E+03  0.48094085434E+03  0.12699999809E+01 0. -1.
       -4    1    3    3    0  502 -0.24724266532E+02 -0.11204610666E+03  0.31313647779E+03  0.33349915441E+03  0.12699999809E+01 0.  1.
</event>
<event>
 5   0  0.4392552E-04  0.7999250E+03  0.7818609E-02  0.9560126E-01
       -1   -1    0    0    0  501  0.00000000000E+00  0.00000000000E+00  0.11358223662E+03  0.11358223673E+03  0.50400001928E-02 0.  1.
        1   -1    0    0  501    0  0.00000000000E+00  0.00000000000E+00 -0.14084068185E+04  0.14084068185E+04  0.50400001928E-02 0. -1.
    10030    2    1    2    0    0  0.00000000000E+00  0.00000000000E+00 -0.12948245818E+04  0.15219890552E+04  0.79992498800E+03 0.  0.
        5    1    3    3  502    0  0.34895660629E+01 -0.36647239507E+03 -0.34278554847E+03  0.50183484899E+03  0.46999998093E+01 0.  1.
       -5    1    3    3    0  502 -0.34895660629E+01  0.36647239507E+03 -0.95203903337E+03  0.10201542062E+04  0.46999998093E+01 0. -1.
</event>
<event>
 5   0  0.6593118E-04  0.8000965E+03  0.7818609E-02  0.9559877E-01
       -2   -1    0    0    0  501  0.00000000000E+00  0.00000000000E+00  0.39470695816E+03  0.39470695817E+03  0.25500000920E-02 0. -1.
        2   -1    0    0  501    0  0.00000000000E+00  0.00000000000E+00 -0.40546179586E+03  0.40546179587E+03  0.25500000920E-02 0.  1.
    10030    2    1    2    0    0  0.00000000000E+00  0.00000000000E+00 -0.10754837700E+02  0.80016875404E+03  0.80009647443E+03 0.  0.
        1    1    3    3  502    0 -0.14377231117E+03  0.22673368291E+03  0.29122980414E+03  0.39609776478E+03  0.50400001928E-02 0. -1.
       -1    1    3    3    0  502  0.14377231117E+03 -0.22673368291E+03 -0.30198464184E+03  0.40407098925E+03  0.50400001928E-02 0.  1.
</event>
<event>
 5   0  0.6970013E-04  0.7994545E+03  0.7818609E-02  0.9560807E-01
       -2   -1    0    0    0  501  0.00000000000E+00  0.00000000000E+00  0.61989601974E+03  0.61989601975E+03  0.25500000920E-02 0. -1.
        2   -1    0    0  501    0  0.00000000000E+00  0.00000000000E+00 -0.25775593826E+03  0.25775593827E+03  0.25500000920E-02 0.  1.
    10030    2    1    2    0    0  0.00000000000E+00  0.00000000000E+00  0.36214008149E+03  0.87765195802E+03  0.79945451453E+03 0.  0.
        3    1    3    3  502    0  0.20829584407E+03  0.95853542816E+02  0.54052108765E+03  0.58714403405E+03  0.10100000352E+00 0. -1.
       -3    1    3    3    0  502 -0.20829584407E+03 -0.95853542816E+02 -0.17838100616E+03  0.29050792397E+03  0.10100000352E+00 0.  1.
</event>
<event>
 5   0  0.4087283E-04  0.8011225E+03  0.7818609E-02  0.9558394E-01
        1   -1    0    0  501    0  0.00000000000E+00  0.00000000000E+00  0.13022579540E+04  0.13022579540E+04  0.50400001928E-02 0. -1.
       -1   -1    0    0    0  501  0.00000000000E+00  0.00000000000E+00 -0.12320856346E+03  0.12320856356E+03  0.50400001928E-02 0.  1.
    10030    2    1    2    0    0  0.00000000000E+00  0.00000000000E+00  0.11790493906E+04  0.14254665176E+04  0.80112254207E+03 0.  0.
        1    1    3    3  502    0  0.76826295739E+02  0.15464397919E+03  0.12326318507E+04  0.12446679555E+04  0.50400001928E-02 0. -1.
       -1    1    3    3    0  502 -0.76826295739E+02 -0.15464397919E+03 -0.53582460111E+02  0.18079856214E+03  0.50400001928E-02 0.  1.
</event>
<event>
 5   0  0.4169155E-04  0.7998732E+03  0.7818609E-02  0.9560201E-01
        1   -1    0    0  501    0  0.00000000000E+00  0.00000000000E+00  0.58329925979E+03  0.58329925981E+03  0.50400001928E-02 0.  1.
       -1   -1    0    0    0  501  0.00000000000E+00  0.00000000000E+00 -0.27421479201E+03  0.27421479205E+03  0.50400001928E-02 0. -1.
    10030    2    1    2    0    0  0.00000000000E+00  0.00000000000E+00  0.30908446779E+03  0.85751405186E+03  0.79987320303E+03 0.  0.
        4    1    3    3  502    0 -0.34782490288E+03  0.43316103866E+02  0.36100606121E+03  0.50317535417E+03  0.12699999809E+01 0.  1.
       -4    1    3    3    0  502  0.34782490288E+03 -0.43316103866E+02 -0.51921593425E+02  0.35433869769E+03  0.12699999809E+01 0. -1.
</event>
<event>
 5   0  0.4087283E-04  0.8000717E+03  0.7818609E-02  0.9559913E-01
        1   -1    0    0  501    0  0.00000000000E+00  0.00000000000E+00  0.63500644329E+03  0.63500644331E+03  0.50400001928E-02 0.  1.
       -1   -1    0    0    0  501  0.00000000000E+00  0.00000000000E+00 -0.25201110021E+03  0.25201110027E+03  0.50400001928E-02 0. -1.
    10030    2    1    2    0    0  0.00000000000E+00  0.00000000000E+00  0.38299534307E+03  0.88701754357E+03  0.80007167791E+03 0.  0.
        1    1    3    3  502    0 -0.68920723402E+02 -0.17610771946E+03  0.58231801405E+03  0.61225669819E+03  0.50400001928E-02 0.  1.
       -1    1    3    3    0  502  0.68920723402E+02  0.17610771946E+03 -0.19932267097E+03  0.27476084538E+03  0.50400001928E-02 0. -1.
</event>
<event>
 5   0  0.4086111E-04  0.7994820E+03  0.7818609E-02  0.9560767E-01
        1   -1    0    0  501    0  0.00000000000E+00  0.00000000000E+00  0.22175394817E+03  0.22175394823E+03  0.50400001928E-02 0.  1.
       -1   -1    0    0    0  501  0.00000000000E+00  0.00000000000E+00 -0.72058643507E+03  0.72058643509E+03  0.50400001928E-02 0. -1.
    10030    2    1    2    0    0  0.00000000000E+00  0.00000000000E+00 -0.49883248690E+03  0.94234038331E+03  0.79948204985E+03 0.  0.
        3    1    3    3  502    0  0.14725899223E+02  0.39786551248E+03 -0.29157078010E+03  0.49348490163E+03  0.10100000352E+00 0.  1.
       -3    1    3    3    0  502 -0.14725899223E+02 -0.39786551248E+03 -0.20726170680E+03  0.44885548168E+03  0.10100000352E+00 0. -1.
</event>
<event>
 5   0  0.2736375E-04  0.7999481E+03  0.7818609E-02  0.9560092E-01
       -3   -1    0    0    0  501  0.00000000000E+00  0.00000000000E+00  0.45725467765E+03  0.45725468880E+03  0.10100000352E+00 0. -1.
        3   -1    0    0  501    0  0.00000000000E+00  0.00000000000E+00 -0.34986894552E+03  0.34986896009E+03  0.10100000352E+00 0.  1.
    10030    2    1    2    0    0  0.00000000000E+00  0.00000000000E+00  0.10738573213E+03  0.80712364889E+03  0.79994805403E+03 0.  0.
        4    1    3    3  502    0 -0.68048972733E+02  0.21597020938E+03  0.38635294015E+03  0.44782139441E+03  0.12699999809E+01 0. -1.
       -4    1    3    3    0  502  0.68048972733E+02 -0.21597020938E+03 -0.27896720802E+03  0.35930225449E+03  0.12699999809E+01 0.  1.
</event>
<event>
 5   0  0.4086111E-04  0.8000566E+03  0.7818609E-02  0.9559935E-01
       -1   -1    0    0    0  501  0.00000000000E+00  0.00000000000E+00  0.13077906481E+03  0.13077906491E+03  0.50400001928E-02 0.  1.
        1   -1    0    0  501    0  0.00000000000E+00  0.00000000000E+00 -0.12236106350E+04  0.12236106350E+04  0.50400001928E-02 0. -1.
    10030    2    1    2    0    0  0.00000000000E+00  0.00000000000E+00 -0.10928315702E+04  0.13543896999E+04  0.80005663451E+03 0.  0.
        3    1    3    3  502    0 -0.36848064084E+03  0.99016148816E+02 -0.74984507610E+03  0.84133811797E+03  0.10100000352E+00 0. -1.
       -3    1    3    3    0  502  0.36848064084E+03 -0.99016148816E+02 -0.34298649406E+03  0.51305158191E+03  0.10100000352E+00 0.  1.
</event>
<event>
 5   0  0.6801147E-04  0.8000261E+03  0.7818609E-02  0.9559979E-01
       -2   -1    0    0    0  501  0.00000000000E+00  0.00000000000E+00  0.33016660527E+03  0.33016660528E+03  0.25500000920E-02 0. -1.
        2   -1    0    0  501    0  0.00000000000E+00  0.00000000000E+00 -0.48463550134E+03  0.48463550135E+03  0.25500000920E-02 0.  1.
    10030    2    1    2    0    0  0.00000000000E+00  0.00000000000E+00 -0.15446889607E+03  0.81480210663E+03  0.80002614527E+03 0.  0.
        4    1    3    3  502    0  0.20663463021E+03 -0.24205198701E+03 -0.32403588376E+03  0.45418927958E+03  0.12699999809E+01 0.  1.
       -4    1    3    3    0  502 -0.20663463021E+03  0.24205198701E+03  0.16956698769E+03  0.36061282705E+03  0.12699999809E+01 0. -1.
</event>
<event>
 5   0  0.6593118E-04  0.7997173E+03  0.7818609E-02  0.9560426E-01
       -2   -1    0    0    0  501  0.00000000000E+00  0.00000000000E+00  0.11035302249E+03  0.11035302252E+03  0.25500000920E-02 0. -1.
        2   -1    0    0  501    0  0.00000000000E+00  0.00000000000E+00 -0.14488676346E+04  0.14488676346E+04  0.25500000920E-02 0.  1.
    10030    2    1    2    0    0  0.00000000000E+00  0.00000000000E+00 -0.13385146121E+04  0.15592206571E+04  0.79971725678E+03 0.  0.
        1    1    3    3  502    0  0.12387312742E+03 -0.30037933045E+03 -0.11236480962E+04  0.11696825800E+04  0.50400001928E-02 0.  1.
       -1    1    3    3    0  502 -0.12387312742E+03  0.30037933045E+03 -0.21486651596E+03  0.38953807717E+03  0.50400001928E-02 0. -1.
</event>
<event>
 5   0  0.4104786E-04  0.7999838E+03  0.7818609E-02  0.9560041E-01
        1   -1    0    0  501    0  0.00000000000E+00  0.00000000000E+00  0.67145459409E+03  0.67145459411E+03  0.50400001928E-02 0.  1.
       -1   -1    0    0    0  501  0.00000000000E+00  0.00000000000E+00 -0.23827897736E+03  0.23827897741E+03  0.50400001928E-02 0. -1.
    10030    2    1    2    0    0  0.00000000000E+00  0.00000000000E+00  0.43317561673E+03  0.90973357152E+03  0.79998378497E+03 0.  0.
        2    1    3    3  502    0 -0.75992018042E+02  0.35329729974E+03  0.41157443277E+03  0.54771094797E+03  0.25500000920E-02 0. -1.
       -2    1    3    3    0  502  0.75992018042E+02 -0.35329729974E+03  0.21601183967E+02  0.36202262355E+03  0.25500000920E-02 0.  1.
</event>
<event>
 5   0  0.6672462E-04  0.8000235E+03  0.7818609E-02  0.9559983E-01
       -2   -1    0    0    0  501  0.00000000000E+00  0.00000000000E+00  0.41580740705E+03  0.41580740706E+03  0.25500000920E-02 0. -1.
        2   -1    0    0  501    0  0.00000000000E+00  0.00000000000E+00 -0.38481609422E+03  0.38481609423E+03  0.25500000920E-02 0.  1.
    10030    2    1    2    0    0  0.00000000000E+00  0.00000000000E+00  0.30991312834E+02  0.80062350129E+03  0.80002345550E+03 0.  0.
        5    1    3    3  502    0 -0.35352310941E+03 -0.29883900165E+02  0.20033843026E+03  0.40746682443E+03  0.46999998093E+01 0.  1.
       -5    1    3    3    0  502  0.35352310941E+03  0.29883900165E+02 -0.16934711742E+03  0.39315667685E+03  0.46999998093E+01 0. -1.
</event>
<event>
 5   0  0.2736375E-04  0.7999530E+03  0.7818609E-02  0.9560085E-01
       -3   -1    0    0    0  501  0.00000000000E+00  0.00000000000E+00  0.68490894405E+03  0.68490895150E+03  0.10100000352E+00 0.  1.
        3   -1    0    0  501    0  0.00000000000E+00  0.00000000000E+00 -0.23358025619E+03  0.23358027803E+03  0.10100000352E+00 0. -1.
    10030    2    1    2    0    0  0.00000000000E+00  0.00000000000E+00  0.45132868786E+03  0.91848922953E+03  0.79995304879E+03 0.  0.
        5    1    3    3  502    0  0.11567138406E+03  0.22300839610E+03  0.58297960999E+03  0.63482275439E+03  0.46999998093E+01 0.  1.
       -5    1    3    3    0  502 -0.11567138406E+03 -0.22300839610E+03 -0.13165092213E+03  0.28366647514E+03  0.46999998093E+01 0. -1.
</event>
<event>
 5   0  0.2736375E-04  0.8000686E+03  0.7818609E-02  0.9559918E-01
       -3   -1    0    0    0  501  0.00000000000E+00  0.00000000000E+00  0.30305783101E+03  0.30305784784E+03  0.10100000352E+00 0.  1.
        3   -1    0    0  501    0  0.00000000000E+00  0.00000000000E+00 -0.52804253257E+03  0.52804254223E+03  0.10100000352E+00 0. -1.
    10030    2    1    2    0    0  0.00000000000E+00  0.00000000000E+00 -0.22498470156E+03  0.83110039007E+03  0.80006858609E+03 0.  0.
        5    1    3    3  502    0  0.60386319918E+02 -0.20304931937E+03  0.23997603136E+03  0.32013453321E+03  0.46999998093E+01 0.  1.
       -5    1    3    3    0  502 -0.60386319918E+02  0.20304931937E+03 -0.46496073291E+03  0.51096585686E+03  0.46999998093E+01 0. -1.
</event>
<event>
 5   0  0.4104786E-04  0.8000961E+03  0.7818609E-02  0.9559878E-01
        1   -1    0    0  501    0  0.00000000000E+00  0.00000000000E+00  0.24529121233E+04  0.24529121233E+04  0.50400001928E-02 0. -1.
       -1   -1    0    0    0  501  0.00000000000E+00  0.00000000000E+00 -0.65244255731E+02  0.65244255926E+02  0.50400001928E-02 0.  1.
    10030    2    1    2    0    0  0.00000000000E+00  0.00000000000E+00  0.23876678675E+04  0.25181563792E+04  0.80009605950E+03 0.  0.
        2    1    3    3  502    0 -0.27686376422E+03  0.23856244866E+03  0.68175037242E+03  0.77353032013E+03  0.25500000920E-02 0.  1.
       -2    1    3    3    0  502  0.27686376422E+03 -0.23856244866E+03  0.17059174951E+04  0.17446260591E+04  0.25500000920E-02 0. -1.
</event>
<event>
 5   0  0.7133039E-04  0.7994848E+03  0.7818609E-02  0.9560763E-01
       -2   -1    0    0    0  501  0.00000000000E+00  0.00000000000E+00  0.30721550690E+03  0.30721550691E+03  0.25500000920E-02 0. -1.
        2   -1    0    0  501    0  0.00000000000E+00  0.00000000000E+00 -0.52013647616E+03  0.52013647616E+03  0.25500000920E-02 0.  1.
    10030    2    1    2    0    0  0.00000000000E+00  0.00000000000E+00 -0.21292096926E+03  0.82735198307E+03  0.79948481207E+03 0.  0.
        2    1    3    3  502    0  0.31205394733E+03 -0.21773185368E+03  0.20321737892E+02  0.38104828983E+03  0.25500000920E-02 0. -1.
       -2    1    3    3    0  502 -0.31205394733E+03  0.21773185368E+03 -0.23324270715E+03  0.44630369323E+03  0.25500000920E-02 0.  1.
</event>
<event>
 5   0  0.6970013E-04  0.8008328E+03  0.7818609E-02  0.9558813E-01
        2   -1    0    0  501    0  0.00000000000E+00  0.00000000000E+00  0.92535855127E+03  0.92535855127E+03  0.25500000920E-02 0.  1.
       -2   -1    0    0    0  501  0.00000000000E+00  0.00000000000E+00 -0.17326611091E+03  0.17326611093E+03  0.25500000920E-02 0. -1.
    10030    2    1    2    0    0  0.00000000000E+00  0.00000000000E+00  0.75209244035E+03  0.10986246622E+04  0.80083276005E+03 0.  0.
        3    1    3    3  502    0 -0.30766848306E+02 -0.26733808258E+03 -0.30719164110E+02  0.27085037677E+03  0.10100000352E+00 0. -1.
       -3    1    3    3    0  502  0.30766848306E+02  0.26733808258E+03  0.78281160446E+03  0.82777428544E+03  0.10100000352E+00 0.  1.
</event>
<event>
 5   0  0.2736375E-04  0.8002078E+03  0.7818609E-02  0.9559716E-01
       -3   -1    0    0    0  501  0.00000000000E+00  0.00000000000E+00  0.11523792483E+04  0.11523792528E+04  0.10100000352E+00 0.  1.
        3   -1    0    0  501    0  0.00000000000E+00  0.00000000000E+00 -0.13891528241E+03  0.13891531912E+03  0.10100000352E+00 0. -1.
    10030    2    1    2    0    0  0.00000000000E+00  0.00000000000E+00  0.10134639659E+04  0.12912945719E+04  0.80020776124E+03 0.  0.
        2    1    3    3  502    0  0.34259412422E+03  0.83327283821E+02  0.81192573060E+03  0.88517657120E+03  0.25500000920E-02 0.  1.
       -2    1    3    3    0  502 -0.34259412422E+03 -0.83327283821E+02  0.20153823533E+03  0.40611800069E+03  0.25500000920E-02 0. -1.
</event>
<event>
 5   0  0.6593118E-04  0.7999517E+03  0.7818609E-02  0.9560087E-01
        2   -1    0    0  501    0  0.00000000000E+00  0.00000000000E+00  0.69722800785E+03  0.69722800785E+03  0.25500000920E-02 0. -1.
       -2   -1    0    0    0  501  0.00000000000E+00  0.00000000000E+00 -0.22945245793E+03  0.22945245794E+03  0.25500000920E-02 0.  1.
    10030    2    1    2    0    0  0.00000000000E+00  0.00000000000E+00  0.46777554992E+03  0.92668046579E+03  0.79995169890E+03 0.  0.
        1    1    3    3  502    0  0.28553246733E+02 -0.39750612952E+03  0.27324457673E+03  0.48320700496E+03  0.50400001928E-02 0. -1.
       -1    1    3    3    0  502 -0.28553246733E+02  0.39750612952E+03  0.19453097319E+03  0.44347346083E+03  0.50400001928E-02 0.  1.
</event>
<event>
 5   0  0.6801147E-04  0.7998260E+03  0.7818609E-02  0.9560269E-01
        2   -1    0    0  501    0  0.00000000000E+00  0.00000000000E+00  0.11404291851E+04  0.11404291851E+04  0.25500000920E-02 0.  1.
       -2   -1    0    0    0  501  0.00000000000E+00  0.00000000000E+00 -0.14023701810E+03  0.14023701813E+03  0.25500000920E-02 0. -1.
    10030    2    1    2    0    0  0.00000000000E+00  0.00000000000E+00  0.10001921670E+04  0.12806662032E+04  0.79982595180E+03 0.  0.
        4    1    3    3  502    0 -0.27795718880E+03 -0.26870274620E+03  0.33627866008E+03  0.51239273487E+03  0.12699999809E+01 0.  1.
       -4    1    3    3    0  502  0.27795718880E+03  0.26870274620E+03  0.66391350693E+03  0.76827346837E+03  0.12699999809E+01 0. -1.
</event>
<event>
 5   0  0.4392552E-04  0.7999002E+03  0.7818609E-02  0.9560162E-01
        1   -1    0    0  501    0  0.00000000000E+00  0.00000000000E+00  0.28831017475E+03  0.28831017479E+03  0.50400001928E-02 0.  1.
       -1   -1    0    0    0  501  0.00000000000E+00  0.00000000000E+00 -0.55481947428E+03  0.55481947430E+03  0.50400001928E-02 0. -1.
    10030    2    1    2    0    0  0.00000000000E+00  0.00000000000E+00 -0.26650929953E+03  0.84312964909E+03  0.79990024280E+03 0.  0.
        5    1    3    3  502    0 -0.30739999061E+03  0.25518313670E+03 -0.11425781112E+03  0.41556001358E+03  0.46999998093E+01 0.  1.
       -5    1    3    3    0  502  0.30739999061E+03 -0.25518313670E+03 -0.15225148841E+03  0.42756963551E+03  0.46999998093E+01 0. -1.
</event>
<event>
 5   0  0.4104786E-04  0.7999500E+03  0.7818609E-02  0.9560089E-01
       -1   -1    0    0    0  501  0.00000000000E+00  0.00000000000E+00  0.24304621916E+03  0.24304621922E+03  0.50400001928E-02 0. -1.
        1   -1    0    0  501    0  0.00000000000E+00  0.00000000000E+00 -0.65822872418E+03  0.65822872420E+03  0.50400001928E-02 0.  1.
    10030    2    1    2    0    0  0.00000000000E+00  0.00000000000E+00 -0.41518250502E+03  0.90127494342E+03  0.79995000541E+03 0.  0.
        2    1    3    3  502    0 -0.94602421412E+02  0.28048026191E+03 -0.51066432639E+03  0.59025151395E+03  0.25500000920E-02 0.  1.
       -2    1    3    3    0  502  0.94602421412E+02 -0.28048026191E+03  0.95481821374E+02  0.31102342947E+03  0.25500000920E-02 0. -1.
</event>
<event>
 5   0  0.4392552E-04  0.8000425E+03  0.7818609E-02  0.9559956E-01
        1   -1    0    0  501    0  0.00000000000E+00  0.00000000000E+00  0.26026154002E+03  0.26026154007E+03  0.50400001928E-02 0. -1.
       -1   -1    0    0    0  501  0.00000000000E+00  0.00000000000E+00 -0.61483157094E+03  0.61483157097E+03  0.50400001928E-02 0.  1.
    10030    2    1    2    0    0  0.00000000000E+00  0.00000000000E+00 -0.35457003092E+03  0.87509311104E+03  0.80004252772E+03 0.  0.
        5    1    3    3  502    0  0.59291202004E+02 -0.39337786423E+03 -0.13174617967E+03  0.41909514022E+03  0.46999998093E+01 0.  1.
       -5    1    3    3    0  502 -0.59291202004E+02  0.39337786423E+03 -0.22282385125E+03  0.45599797081E+03  0.46999998093E+01 0. -1.
</event>
<event>
 5   0  0.6970013E-04  0.7998031E+03  0.7818609E-02  0.9560302E-01
       -2   -1    0    0    0  501  0.00000000000E+00  0.00000000000E+00  0.51108318651E+03  0.51108318652E+03  0.25500000920E-02 0.  1.
        2   -1    0    0  501    0  0.00000000000E+00  0.00000000000E+00 -0.31290648251E+03  0.31290648252E+03  0.25500000920E-02 0. -1.
    10030    2    1    2    0    0  0.00000000000E+00  0.00000000000E+00  0.19817670400E+03  0.82398966904E+03  0.79980308119E+03 0.  0.
        3    1    3    3  502    0 -0.21158831741E+03 -0.24897442152E+03 -0.13845609205E+03  0.35486332336E+03  0.10100000352E+00 0. -1.
       -3    1    3    3    0  502  0.21158831741E+03  0.24897442152E+03  0.33663279605E+03  0.46912634568E+03  0.10100000352E+00 0.  1.
</event>
<event>
 5   0  0.7133039E-04  0.8003514E+03  0.7818609E-02  0.9559509E-01
        2   -1    0    0  501    0  0.00000000000E+00  0.00000000000E+00  0.28726817753E+04  0.28726817753E+04  0.25500000920E-02 0. -1.
       -2   -1    0    0    0  501  0.00000000000E+00  0.00000000000E+00 -0.55746019071E+02  0.55746019130E+02  0.25500000920E-02 0.  1.
    10030    2    1    2    0    0  0.00000000000E+00  0.00000000000E+00  0.28169357562E+04  0.29284277944E+04  0.80035135564E+03 0.  0.
        2    1    3    3  502    0 -0.30824630496E+03 -0.22159358770E+03  0.94534141131E+03  0.10187197292E+04  0.25500000920E-02 0.  1.
       -2    1    3    3    0  502  0.30824630496E+03  0.22159358770E+03  0.18715943449E+04  0.19097080653E+04  0.25500000920E-02 0. -1.
</event>
<event>
 5   0  0.6672462E-04  0.8012188E+03  0.7818609E-02  0.9558255E-01
       -2   -1    0    0    0  501  0.00000000000E+00  0.00000000000E+00  0.18476058589E+03  0.18476058591E+03  0.25500000920E-02 0.  1.
        2   -1    0    0  501    0  0.00000000000E+00  0.00000000000E+00 -0.86862630344E+03  0.86862630344E+03  0.25500000920E-02 0. -1.
    10030    2    1    2    0    0  0.00000000000E+00  0.00000000000E+00 -0.68386571754E+03  0.10533868893E+04  0.80121883342E+03 0.  0.
        5    1    3    3  502    0 -0.15947679511E+03 -0.18455658541E+03 -0.75970250313E+03  0.79791225373E+03  0.46999998093E+01 0. -1.
       -5    1    3    3    0  502  0.15947679511E+03  0.18455658541E+03  0.75836785588E+02  0.25547463562E+03  0.46999998093E+01 0.  1.
</event>
<event>
 5   0  0.4169155E-04  0.7997867E+03  0.7818609E-02  0.9560326E-01
        1   -1    0    0  501    0  0.00000000000E+00  0.00000000000E+00  0.51269763333E+03  0.51269763335E+03  0.50400001928E-02 0. -1.
       -1   -1    0    0    0  501  0.00000000000E+00  0.00000000000E+00 -0.31190837778E+03  0.31190837782E+03  0.50400001928E-02 0.  1.
    10030    2    1    2    0    0  0.00000000000E+00  0.00000000000E+00  0.20078925554E+03  0.82460601118E+03  0.79978668939E+03 0.  0.
        4    1    3    3  502    0  0.93787370518E+02  0.36338377504E+03 -0.41982085877E+02  0.37763467435E+03  0.12699999809E+01 0.  1.
       -4    1    3    3    0  502 -0.93787370518E+02 -0.36338377504E+03  0.24277134142E+03  0.44697133683E+03  0.12699999809E+01 0. -1.
</event>
<event>
 5   0  0.4087283E-04  0.8000279E+03  0.7818609E-02  0.9559977E-01
        1   -1    0    0  501    0  0.00000000000E+00  0.00000000000E+00  0.10413989588E+04  0.10413989588E+04  0.50400001928E-02 0. -1.
       -1   -1    0    0    0  501  0.00000000000E+00  0.00000000000E+00 -0.15365020763E+03  0.15365020771E+03  0.50400001928E-02 0.  1.
    10030    2    1    2    0    0  0.00000000000E+00  0.00000000000E+00  0.88774875115E+03  0.11950491665E+04  0.80002791525E+03 0.  0.
        1    1    3    3  502    0 -0.52034164136E+02  0.95154796990E+02 -0.13126986782E+03  0.17027556445E+03  0.50400001928E-02 0.  1.
       -1    1    3    3    0  502  0.52034164136E+02 -0.95154796990E+02  0.10190186190E+04  0.10247736020E+04  0.50400001928E-02 0. -1.
</event>
<event>
 5   0  0.7133039E-04  0.8000236E+03  0.7818609E-02  0.9559983E-01
       -2   -1    0    0    0  501  0.00000000000E+00  0.00000000000E+00  0.25886647335E+03  0.25886647336E+03  0.25500000920E-02 0. -1.
        2   -1    0    0  501    0  0.00000000000E+00  0.00000000000E+00 -0.61811577140E+03  0.61811577141E+03  0.25500000920E-02 0.  1.
    10030    2    1    2    0    0  0.00000000000E+00  0.00000000000E+00 -0.35924929805E+03  0.87698224477E+03  0.80002362433E+03 0.  0.
        2    1    3    3  502    0 -0.26071868724E+03 -0.72334930955E+02 -0.50258933730E+03  0.57079122110E+03  0.25500000920E-02 0.  1.
       -2    1    3    3    0  502  0.26071868724E+03  0.72334930955E+02  0.14334003925E+03  0.30619102366E+03  0.25500000920E-02 0. -1.
</event>
<event>
 5   0  0.4392552E-04  0.7996860E+03  0.7818609E-02  0.9560472E-01
        1   -1    0    0  501    0  0.00000000000E+00  0.00000000000E+00  0.56643489184E+03  0.56643489186E+03  0.50400001928E-02 0. -1.
       -1   -1    0    0    0  501  0.00000000000E+00  0.00000000000E+00 -0.28224677402E+03  0.28224677406E+03  0.50400001928E-02 0.  1.
    10030    2    1    2    0    0  0.00000000000E+00  0.00000000000E+00  0.28418811782E+03  0.84868166592E+03  0.79968599073E+03 0.  0.
        5    1    3    3  502    0 -0.22197292888E+03  0.31441464006E+03  0.27183685844E+02  0.38586213836E+03  0.46999998093E+01 0.  1.
       -5    1    3    3    0  502  0.22197292888E+03 -0.31441464006E+03  0.25700443198E+03  0.46281952757E+03  0.46999998093E+01 0. -1.
</event>
<event>
 5   0  0.4169155E-04  0.7998942E+03  0.7818609E-02  0.9560170E-01
       -1   -1    0    0    0  501  0.00000000000E+00  0.00000000000E+00  0.18016585271E+03  0.18016585278E+03  0.50400001928E-02 0. -1.
        1   -1    0    0  501    0  0.00000000000E+00  0.00000000000E+00 -0.88783579118E+03  0.88783579119E+03  0.50400001928E-02 0.  1.
    10030    2    1    2    0    0  0.00000000000E+00  0.00000000000E+00 -0.70766993847E+03  0.10680016440E+04  0.79989422408E+03 0.  0.
        4    1    3    3  502    0  0.17468499783E+03 -0.35900485502E+03 -0.38533910542E+03  0.55487581805E+03  0.12699999809E+01 0.  1.
       -4    1    3    3    0  502 -0.17468499783E+03  0.35900485502E+03 -0.32233083305E+03  0.51312582592E+03  0.12699999809E+01 0. -1.
</event>
<event>
 5   0  0.6801147E-04  0.8001697E+03  0.7818609E-02  0.9559771E-01
        2   -1    0    0  501    0  0.00000000000E+00  0.00000000000E+00  0.66690254784E+03  0.66690254784E+03  0.25500000920E-02 0.  1.
       -2   -1    0    0    0  501  0.00000000000E+00  0.00000000000E+00 -0.24001692877E+03  0.24001692878E+03  0.25500000920E-02 0. -1.
    10030    2    1    2    0    0  0.00000000000E+00  0.00000000000E+00  0.42688561907E+03  0.90691947662E+03  0.80016973531E+03 0.  0.
        4    1    3    3  502    0  0.18348569447E+03  0.24398526051E+03  0.50653471960E+03  0.59141765486E+03  0.12699999809E+01 0.  1.
       -4    1    3    3    0  502 -0.18348569447E+03 -0.24398526051E+03 -0.79649100530E+02  0.31550182176E+03  0.12699999809E+01 0. -1.
</event>
<event>
 5   0  0.4392552E-04  0.7999551E+03  0.7818609E-02  0.9560082E-01
        1   -1    0    0  501    0  0.00000000000E+00  0.00000000000E+00  0.40217752937E+03  0.40217752940E+03  0.50400001928E-02 0.  1.
       -1   -1    0    0    0  501  0.00000000000E+00  0.00000000000E+00 -0.39778955595E+03  0.39778955598E+03  0.50400001928E-02 0. -1.
    10030    2    1    2    0    0  0.00000000000E+00  0.00000000000E+00  0.43879734210E+01  0.79996708539E+03  0.79995505086E+03 0.  0.
        5    1    3    3  502    0 -0.38390158602E+03 -0.41796684585E+02  0.10627504259E+03  0.40055444732E+03  0.46999998093E+01 0.  1.
       -5    1    3    3    0  502  0.38390158602E+03  0.41796684585E+02 -0.10188706917E+03  0.39941263807E+03  0.46999998093E+01 0. -1.
</event>
<event>
 5   0  0.6970013E-04  0.7999235E+03  0.7818609E-02  0.9560128E-01
        2   -1    0    0  501    0  0.00000000000E+00  0.00000000000E+00  0.12657104411E+04  0.12657104411E+04  0.25500000920E-02 0.  1.
       -2   -1    0    0    0  501  0.00000000000E+00  0.00000000000E+00 -0.12638703958E+03  0.12638703960E+03  0.25500000920E-02 0. -1.
    10030    2    1    2    0    0  0.00000000000E+00  0.00000000000E+00  0.11393234015E+04  0.13920974807E+04  0.79992348541E+03 0.  0.
        3    1    3    3  502    0  0.35059645994E+03  0.19237712611E+03  0.55830986387E+03  0.68675814569E+03  0.10100000352E+00 0.  1.
       -3    1    3    3    0  502 -0.35059645994E+03 -0.19237712611E+03  0.58101353762E+03  0.70533933498E+03  0.10100000352E+00 0. -1.
</event>
<event>
 5   0  0.6593118E-04  0.7997381E+03  0.7818609E-02  0.9560396E-01
       -2   -1    0    0    0  501  0.00000000000E+00  0.00000000000E+00  0.87611281471E+03  0.87611281471E+03  0.25500000920E-02 0.  1.
        2   -1    0    0  501    0  0.00000000000E+00  0.00000000000E+00 -0.18250534436E+03  0.18250534438E+03  0.25500000920E-02 0. -1.
    10030    2    1    2    0    0  0.00000000000E+00  0.00000000000E+00  0.69360747035E+03  0.10586181591E+04  0.79973813453E+03 0.  0.
        1    1    3    3  502    0 -0.17403520055E+03 -0.23317228707E+03 -0.16282096605E+02  0.29141495017E+03  0.50400001928E-02 0. -1.
       -1    1    3    3    0  502  0.17403520055E+03  0.23317228707E+03  0.70988956695E+03  0.76720320892E+03  0.50400001928E-02 0.  1.
</event>
<event>
 5   0  0.4087283E-04  0.8001156E+03  0.7818609E-02  0.9559850E-01
        1   -1    0    0  501    0  0.00000000000E+00  0.00000000000E+00  0.41793733280E+03  0.41793733283E+03  0.50400001928E-02 0.  1.
       -1   -1    0    0    0  501  0.00000000000E+00  0.00000000000E+00 -0.38294314084E+03  0.38294314087E+03  0.50400001928E-02 0. -1.
    10030    2    1    2    0    0  0.00000000000E+00  0.00000000000E+00  0.34994191955E+02  0.80088047370E+03  0.80011557895E+03 0.  0.
        1    1    3    3  502    0 -0.61905043905E+02  0.37121097663E+03 -0.11833971622E+03  0.39450489489E+03  0.50400001928E-02 0. -1.
       -1    1    3    3    0  502  0.61905043905E+02 -0.37121097663E+03  0.15333390817E+03  0.40637557881E+03  0.50400001928E-02 0.  1.
</event>
<event>
 5   0  0.2736375E-04  0.8000559E+03  0.7818609E-02  0.9559936E-01
        3   -1    0    0  501    0  0.00000000000E+00  0.00000000000E+00  0.56701397401E+03  0.56701398301E+03  0.10100000352E+00 0.  1.
       -3   -1    0    0    0  501  0.00000000000E+00  0.00000000000E+00 -0.28221942839E+03  0.28221944646E+03  0.10100000352E+00 0. -1.
    10030    2    1    2    0    0  0.00000000000E+00  0.00000000000E+00  0.28479454562E+03  0.84923342947E+03  0.80005592586E+03 0.  0.
        4    1    3    3  502    0  0.15665763985E+03 -0.13072891674E+03  0.50762402463E+03  0.54709727570E+03  0.12699999809E+01 0.  1.
       -4    1    3    3    0  502 -0.15665763985E+03  0.13072891674E+03 -0.22282947901E+03  0.30213615376E+03  0.12699999809E+01 0. -1.
</event>
<event>
 5   0  0.4104786E-04  0.8001049E+03  0.7818609E-02  0.9559865E-01
       -1   -1    0    0    0  501  0.00000000000E+00  0.00000000000E+00  0.17949832998E+03  0.17949833005E+03  0.50400001928E-02 0. -1.
        1   -1    0    0  501    0  0.00000000000E+00  0.00000000000E+00 -0.89160707106E+03  0.89160707108E+03  0.50400001928E-02 0.  1.
    10030    2    1    2    0    0  0.00000000000E+00  0.00000000000E+00 -0.71210874108E+03  0.10711054011E+04  0.80010494387E+03 0.  0.
        2    1    3    3  502    0  0.25210250682E+03 -0.31034540553E+03 -0.37361315484E+03  0.54722640118E+03  0.25500000920E-02 0. -1.
       -2    1    3    3    0  502 -0.25210250682E+03  0.31034540553E+03 -0.33849558624E+03  0.52387899995E+03  0.25500000920E-02 0.  1.
</event>
<event>
 5   0  0.4169155E-04  0.7994631E+03  0.7818609E-02  0.9560795E-01
        1   -1    0    0  501    0  0.00000000000E+00  0.00000000000E+00  0.40544972944E+03  0.40544972947E+03  0.50400001928E-02 0.  1.
       -1   -1    0    0    0  501  0.00000000000E+00  0.00000000000E+00 -0.39409400952E+03  0.39409400956E+03  0.50400001928E-02 0. -1.
    10030    2    1    2    0    0  0.00000000000E+00  0.00000000000E+00  0.11355719913E+02  0.79954373902E+03  0.79946309373E+03 0.  0.
        4    1    3    3  502    0  0.20424302325E+03 -0.33350532921E+03  0.88406694568E+02  0.40094684648E+03  0.12699999809E+01 0.  1.
       -4    1    3    3    0  502 -0.20424302325E+03  0.33350532921E+03 -0.77050974655E+02  0.39859689255E+03  0.12699999809E+01 0. -1.
</event>
<event>
 5   0  0.4169155E-04  0.7997120E+03  0.7818609E-02  0.9560434E-01
        1   -1    0    0  501    0  0.00000000000E+00  0.00000000000E+00  0.70708647755E+03  0.70708647757E+03  0.50400001928E-02 0.  1.
       -1   -1    0    0    0  501  0.00000000000E+00  0.00000000000E+00 -0.22611777270E+03  0.22611777276E+03  0.50400001928E-02 0. -1.
    10030    2    1    2    0    0  0.00000000000E+00  0.00000000000E+00  0.48096870485E+03  0.93320425033E+03  0.79971199678E+03 0.  0.
        4    1    3    3  502    0  0.14189059027E+03 -0.37110206920E+03  0.18786234074E+03  0.43948100907E+03  0.12699999809E+01 0.  1.
       -4    1    3    3    0  502 -0.14189059027E+03  0.37110206920E+03  0.29310636412E+03  0.49372324126E+03  0.12699999809E+01 0. -1.
</event>
<event>
 5   0  0.4087283E-04  0.7994344E+03  0.7818609E-02  0.9560836E-01
       -1   -1    0    0    0  501  0.00000000000E+00  0.00000000000E+00  0.14735927457E+03  0.14735927466E+03  0.50400001928E-02 0.  1.
        1   -1    0    0  501    0  0.00000000000E+00  0.00000000000E+00 -0.10842468924E+04  0.10842468924E+04  0.50400001928E-02 0. -1.
    10030    2    1    2    0    0  0.00000000000E+00  0.00000000000E+00 -0.93688761780E+03  0.12316061670E+04  0.79943438899E+03 0.  0.
        1    1    3    3  502    0 -0.14741447634E+03 -0.16505748019E+03 -0.98125397659E+03  0.10058997794E+04  0.50400001928E-02 0. -1.
       -1    1    3    3    0  502  0.14741447634E+03  0.16505748019E+03  0.44366358793E+02  0.22570638764E+03  0.50400001928E-02 0.  1.
</event>
<event>
 5   0  0.6672462E-04  0.7995803E+03  0.7818609E-02  0.9560625E-01
       -2   -1    0    0    0  501  0.00000000000E+00  0.00000000000E+00  0.45986369115E+03  0.45986369116E+03  0.25500000920E-02 0. -1.
        2   -1    0    0  501    0  0.00000000000E+00  0.00000000000E+00 -0.34756423215E+03  0.34756423216E+03  0.25500000920E-02 0.  1.
    10030    2    1    2    0    0  0.00000000000E+00  0.00000000000E+00  0.11229945900E+03  0.80742792331E+03  0.79958031670E+03 0.  0.
        5    1    3    3  502    0  0.15957465275E+03  0.19005978266E+02  0.42578159979E+03  0.45512345328E+03  0.46999998093E+01 0. -1.
       -5    1    3    3    0  502 -0.15957465275E+03 -0.19005978266E+02 -0.31348214079E+03  0.35230447003E+03  0.46999998093E+01 0.  1.
</event>
<event>
 5   0  0.7133039E-04  0.7998115E+03  0.7818609E-02  0.9560290E-01
        2   -1    0    0  501    0  0.00000000000E+00  0.00000000000E+00  0.78726543045E+03  0.78726543046E+03  0.25500000920E-02 0.  1.
       -2   -1    0    0    0  501  0.00000000000E+00  0.00000000000E+00 -0.20313936968E+03  0.20313936969E+03  0.25500000920E-02 0. -1.
    10030    2    1    2    0    0  0.00000000000E+00  0.00000000000E+00  0.58412606077E+03  0.99040480015E+03  0.79981148609E+03 0.  0.
        2    1    3    3  502    0 -0.27918771568E+03  0.64740084600E+01 -0.62395057670E+02  0.28614827730E+03  0.25500000920E-02 0. -1.
       -2    1    3    3    0  502  0.27918771568E+03 -0.64740084600E+01  0.64652111844E+03  0.70425652285E+03  0.25500000920E-02 0.  1.
</event>
<event>
 5   0  0.4104786E-04  0.7990611E+03  0.7818609E-02  0.9561377E-01
        1   -1    0    0  501    0  0.00000000000E+00  0.00000000000E+00  0.18819866830E+04  0.18819866830E+04  0.50400001928E-02 0. -1.
       -1   -1    0    0    0  501  0.00000000000E+00  0.00000000000E+00 -0.84817102815E+02  0.84817102964E+02  0.50400001928E-02 0.  1.
    10030    2    1    2    0    0  0.00000000000E+00  0.00000000000E+00  0.17971695802E+04  0.19668037860E+04  0.79906109440E+03 0.  0.
        2    1    3    3  502    0 -0.22628726894E+03  0.11121595088E+03  0.16614172274E+04  0.16804410491E+04  0.25500000920E-02 0. -1.
       -2    1    3    3    0  502  0.22628726894E+03 -0.11121595088E+03  0.13575235282E+03  0.28636273696E+03  0.25500000920E-02 0.  1.
</event>
<event>
 5   0  0.4169155E-04  0.8019618E+03  0.7818609E-02  0.9557182E-01
        1   -1    0    0  501    0  0.00000000000E+00  0.00000000000E+00  0.27068234841E+03  0.27068234846E+03  0.50400001928E-02 0. -1.
       -1   -1    0    0    0  501  0.00000000000E+00  0.00000000000E+00 -0.59400132497E+03  0.59400132499E+03  0.50400001928E-02 0.  1.
    10030    2    1    2    0    0  0.00000000000E+00  0.00000000000E+00 -0.32331897655E+03  0.86468367345E+03  0.80196177872E+03 0.  0.
        4    1    3    3  502    0 -0.36544267300E+03 -0.11397203740E+03 -0.29035144446E+03  0.48046180573E+03  0.12699999809E+01 0.  1.
       -4    1    3    3    0  502  0.36544267300E+03  0.11397203740E+03 -0.32967532091E+02  0.38422186772E+03  0.12699999809E+01 0. -1.
</event>
<event>
 5   0  0.4087283E-04  0.8000906E+03  0.7818609E-02  0.9559886E-01
       -1   -1    0    0    0  501  0.00000000000E+00  0.00000000000E+00  0.51017751958E+03  0.51017751961E+03  0.50400001928E-02 0.  1.
        1   -1    0    0  501    0  0.00000000000E+00  0.00000000000E+00 -0.31368738625E+03  0.31368738629E+03  0.50400001928E-02 0. -1.
    10030    2    1    2    0    0  0.00000000000E+00  0.00000000000E+00  0.19649013333E+03  0.82386490590E+03  0.80009062654E+03 0.  0.
        1    1    3    3  502    0 -0.10874457976E+03 -0.16910390357E+03  0.45437556658E+03  0.49686886535E+03  0.50400001928E-02 0.  1.
       -1    1    3    3    0  502  0.10874457976E+03  0.16910390357E+03 -0.25788543324E+03  0.32699604055E+03  0.50400001928E-02 0. -1.
</event>
<event>
 5   0  0.4087283E-04  0.7998292E+03  0.7818609E-02  0.9560264E-01
       -1   -1    0    0    0  501  0.00000000000E+00  0.00000000000E+00  0.37408141371E+03  0.37408141374E+03  0.50400001928E-02 0.  1.
        1   -1    0    0  501    0  0.00000000000E+00  0.00000000000E+00 -0.42753177328E+03  0.42753177331E+03  0.50400001928E-02 0. -1.
    10030    2    1    2    0    0  0.00000000000E+00  0.00000000000E+00 -0.53450359572E+02  0.80161318706E+03  0.79982920722E+03 0.  0.
        1    1    3    3  502    0  0.47278289604E+02 -0.12244345377E+02 -0.42453180730E+03  0.42733174010E+03  0.50400001928E-02 0. -1.
       -1    1    3    3    0  502 -0.47278289604E+02  0.12244345377E+02  0.37108144773E+03  0.37428144696E+03  0.50400001928E-02 0.  1.
</event>
<event>
 5   0  0.4104786E-04  0.8000072E+03  0.7818609E-02  0.9560007E-01
       -1   -1    0    0    0  501  0.00000000000E+00  0.00000000000E+00  0.18894689210E+03  0.18894689217E+03  0.50400001928E-02 0.  1.
        1   -1    0    0  501    0  0.00000000000E+00  0.00000000000E+00 -0.84681398148E+03  0.84681398150E+03  0.50400001928E-02 0. -1.
    10030    2    1    2    0    0  0.00000000000E+00  0.00000000000E+00 -0.65786708938E+03  0.10357608737E+04  0.80000717504E+03 0.  0.
        2    1    3    3  502    0  0.25286771673E+03 -0.20457804293E+03 -0.27494320207E+02  0.32642027428E+03  0.25500000920E-02 0.  1.
       -2    1    3    3    0  502 -0.25286771673E+03  0.20457804293E+03 -0.63037276917E+03  0.70934059938E+03  0.25500000920E-02 0. -1.
</event>
<event>
 5   0  0.4169155E-04  0.7993478E+03  0.7818609E-02  0.9560962E-01
       -1   -1    0    0    0  501  0.00000000000E+00  0.00000000000E+00  0.13518926228E+03  0.13518926238E+03  0.50400001928E-02 0.  1.
        1   -1    0    0  501    0  0.00000000000E+00  0.00000000000E+00 -0.11815970112E+04  0.11815970112E+04  0.50400001928E-02 0. -1.
    10030    2    1    2    0    0  0.00000000000E+00  0.00000000000E+00 -0.10464077489E+04  0.13167862736E+04  0.79934780498E+03 0.  0.
        4    1    3    3  502    0 -0.32449067509E+02  0.17754945896E+03 -0.11106340305E+04  0.11252050102E+04  0.12699999809E+01 0. -1.
       -4    1    3    3    0  502  0.32449067509E+02 -0.17754945896E+03  0.64226281543E+02  0.19158126344E+03  0.12699999809E+01 0.  1.
</event>
<event>
 5   0  0.4086111E-04  0.7998794E+03  0.7818609E-02  0.9560192E-01
        1   -1    0    0  501    0  0.00000000000E+00  0.00000000000E+00  0.96572124001E+03  0.96572124002E+03  0.50400001928E-02 0. -1.
       -1   -1    0    0    0  501  0.00000000000E+00  0.00000000000E+00 -0.16562934788E+03  0.16562934796E+03  0.50400001928E-02 0.  1.
    10030    2    1    2    0    0  0.00000000000E+00  0.00000000000E+00  0.80009189212E+03  0.11313505880E+04  0.79987943909E+03 0.  0.
        3    1    3    3  502    0 -0.20747891621E+03  0.30861849878E+03  0.19188906238E+03  0.41846660670E+03  0.10100000352E+00 0.  1.
       -3    1    3    3    0  502  0.20747891621E+03 -0.30861849878E+03  0.60820282975E+03  0.71288398128E+03  0.10100000352E+00 0. -1.
</event>
<event>
 5   0  0.7133039E-04  0.7940319E+03  0.7818609E-02  0.9568696E-01
       -2   -1    0    0    0  501  0.00000000000E+00  0.00000000000E+00  0.28482367351E+03  0.28482367352E+03  0.25500000920E-02 0.  1.
        2   -1    0    0  501    0  0.00000000000E+00  0.00000000000E+00 -0.55340086441E+03  0.55340086442E+03  0.25500000920E-02 0. -1.
    10030    2    1    2    0    0  0.00000000000E+00  0.00000000000E+00 -0.26857719090E+03  0.83822453794E+03  0.79403190650E+03 0.  0.
        2    1    3    3  502    0  0.32014606805E+03 -0.92928023628E+02 -0.36191051140E+03  0.49204505966E+03  0.25500000920E-02 0. -1.
       -2    1    3    3    0  502 -0.32014606805E+03  0.92928023628E+02  0.93333320497E+02  0.34617947829E+03  0.25500000920E-02 0.  1.
</event>
<event>
 5   0  0.4392552E-04  0.8003052E+03  0.7818609E-02  0.9559575E-01
       -1   -1    0    0    0  501  0.00000000000E+00  0.00000000000E+00  0.52307103217E+03  0.52307103220E+03  0.50400001928E-02 0. -1.
        1   -1    0    0  501    0  0.00000000000E+00  0.00000000000E+00 -0.30611923692E+03  0.30611923696E+03  0.50400001928E-02 0.  1.
    10030    2    1    2    0    0  0.00000000000E+00  0.00000000000E+00  0.21695179525E+03  0.82919026916E+03  0.80030520491E+03 0.  0.
        5    1    3    3  502    0 -0.31920856905E+03  0.16307318005E+03 -0.75741950108E+02  0.36639583187E+03  0.46999998093E+01 0.  1.
       -5    1    3    3    0  502  0.31920856905E+03 -0.16307318005E+03  0.29269374536E+03  0.46279443729E+03  0.46999998093E+01 0. -1.
</event>
<event>
 5   0  0.6593118E-04  0.8000663E+03  0.7818609E-02  0.9559921E-01
       -2   -1    0    0    0  501  0.00000000000E+00  0.00000000000E+00  0.59844976414E+03  0.59844976414E+03  0.25500000920E-02 0.  1.
        2   -1    0    0  501    0  0.00000000000E+00  0.00000000000E+00 -0.26740174693E+03  0.26740174695E+03  0.25500000920E-02 0. -1.
    10030    2    1    2    0    0  0.00000000000E+00  0.00000000000E+00  0.33104801720E+03  0.86585151109E+03  0.80006627823E+03 0.  0.
        1    1    3    3  502    0  0.18887599827E+03 -0.12626662232E+03 -0.19080431312E+03  0.29668786386E+03  0.50400001928E-02 0. -1.
       -1    1    3    3    0  502 -0.18887599827E+03  0.12626662232E+03  0.52185233032E+03  0.56916364722E+03  0.50400001928E-02 0.  1.
</event>
<event>
 5   0  0.4086111E-04  0.7998373E+03  0.7818609E-02  0.9560253E-01
       -1   -1    0    0    0  501  0.00000000000E+00  0.00000000000E+00  0.25117202086E+03  0.25117202091E+03  0.50400001928E-02 0.  1.
        1   -1    0    0  501    0  0.00000000000E+00  0.00000000000E+00 -0.63675459085E+03  0.63675459087E+03  0.50400001928E-02 0. -1.
    10030    2    1    2    0    0  0.00000000000E+00  0.00000000000E+00 -0.38558256999E+03  0.88792661178E+03  0.79983732697E+03 0.  0.
        3    1    3    3  502    0 -0.32221803216E+03  0.23392796963E+03 -0.15142971252E+03  0.42600202260E+03  0.10100000352E+00 0.  1.
       -3    1    3    3    0  502  0.32221803216E+03 -0.23392796963E+03 -0.23415285746E+03  0.46192458917E+03  0.10100000352E+00 0. -1.
</event>
<event>
 5   0  0.6593118E-04  0.7997205E+03  0.7818609E-02  0.9560422E-01
       -2   -1    0    0    0  501  0.00000000000E+00  0.00000000000E+00  0.15408638048E+03  0.15408638050E+03  0.25500000920E-02 0.  1.
        2   -1    0    0  501    0  0.00000000000E+00  0.00000000000E+00 -0.10376532686E+04  0.10376532686E+04  0.25500000920E-02 0. -1.
    10030    2    1    2    0    0  0.00000000000E+00  0.00000000000E+00 -0.88356688809E+03  0.11917396491E+04  0.79972054209E+03 0.  0.
        1    1    3    3  502    0 -0.24536933925E+03 -0.23386967306E+03 -0.75785625190E+03  0.83020915147E+03  0.50400001928E-02 0.  1.
       -1    1    3    3    0  502  0.24536933925E+03  0.23386967306E+03 -0.12571063619E+03  0.36153049760E+03  0.50400001928E-02 0. -1.
</event>
<event>
 5   0  0.4087283E-04  0.8000409E+03  0.7818609E-02  0.9559958E-01
       -1   -1    0    0    0  501  0.00000000000E+00  0.00000000000E+00  0.14698920643E+03  0.14698920652E+03  0.50400001928E-02 0.  1.
        1   -1    0    0  501    0  0.00000000000E+00  0.00000000000E+00 -0.10886265654E+04  0.10886265654E+04  0.50400001928E-02 0. -1.
    10030    2    1    2    0    0  0.00000000000E+00  0.00000000000E+00 -0.94163735896E+03  0.12356157719E+04  0.80004088647E+03 0.  0.
        1    1    3    3  502    0 -0.29998621678E+02 -0.34905851365E+03 -0.17263923010E+03  0.39057146216E+03  0.50400001928E-02 0. -1.
       -1    1    3    3    0  502  0.29998621678E+02  0.34905851365E+03 -0.76899812886E+03  0.84504430977E+03  0.50400001928E-02 0.  1.
</event>
<event>
 5   0  0.6672462E-04  0.8010812E+03  0.7818609E-02  0.9558453E-01
        2   -1    0    0  501    0  0.00000000000E+00  0.00000000000E+00  0.19162994423E+04  0.19162994423E+04  0.25500000920E-02 0.  1.
       -2   -1    0    0    0  501  0.00000000000E+00  0.00000000000E+00 -0.83720099026E+02  0.83720099065E+02  0.25500000920E-02 0. -1.
    10030    2    1    2    0    0  0.00000000000E+00  0.00000000000E+00  0.18325793433E+04  0.20000195414E+04  0.80108121714E+03 0.  0.
        5    1    3    3  502    0 -0.16117289728E+03 -0.34268987627E+03  0.12417903812E+04  0.12982597948E+04  0.46999998093E+01 0.  1.
       -5    1    3    3    0  502  0.16117289728E+03  0.34268987627E+03  0.59078896211E+03  0.70175974654E+03  0.46999998093E+01 0. -1.
</event>
<event>
 5   0  0.4104786E-04  0.8003732E+03  0.7818609E-02  0.9559477E-01
       -1   -1    0    0    0  501  0.00000000000E+00  0.00000000000E+00  0.44624401498E+03  0.44624401501E+03  0.50400001928E-02 0.  1.
        1   -1    0    0  501    0  0.00000000000E+00  0.00000000000E+00 -0.35888279381E+03  0.35888279384E+03  0.50400001928E-02 0. -1.
    10030    2    1    2    0    0  0.00000000000E+00  0.00000000000E+00  0.87361221172E+02  0.80512680885E+03  0.80037316007E+03 0.  0.
        2    1    3    3  502    0 -0.33842508446E+03  0.19108227512E+03 -0.52307954937E+02  0.39214805344E+03  0.25500000920E-02 0.  1.
       -2    1    3    3    0  502  0.33842508446E+03 -0.19108227512E+03  0.13966917611E+03  0.41297875541E+03  0.25500000920E-02 0. -1.
</event>
<event>
 5   0  0.6970013E-04  0.7999944E+03  0.7818609E-02  0.9560025E-01
        2   -1    0    0  501    0  0.00000000000E+00  0.00000000000E+00  0.11204033649E+04  0.11204033649E+04  0.25500000920E-02 0. -1.
       -2   -1    0    0    0  501  0.00000000000E+00  0.00000000000E+00 -0.14280369910E+03  0.14280369912E+03  0.25500000920E-02 0.  1.
    10030    2    1    2    0    0  0.00000000000E+00  0.00000000000E+00  0.97759966580E+03  0.12632070640E+04  0.79999436250E+03 0.  0.
        3    1    3    3  502    0  0.34155812955E+02 -0.23445014849E+03 -0.20086338513E+02  0.23777502577E+03  0.10100000352E+00 0.  1.
       -3    1    3    3    0  502 -0.34155812955E+02  0.23445014849E+03  0.99768600431E+03  0.10254320383E+04  0.10100000352E+00 0. -1.
</event>
<event>
 5   0  0.7133039E-04  0.8010059E+03  0.7818609E-02  0.9558562E-01
        2   -1    0    0  501    0  0.00000000000E+00  0.00000000000E+00  0.27312019144E+03  0.27312019145E+03  0.25500000920E-02 0.  1.
       -2   -1    0    0    0  501  0.00000000000E+00  0.00000000000E+00 -0.58729678577E+03  0.58729678577E+03  0.25500000920E-02 0. -1.
    10030    2    1    2    0    0  0.00000000000E+00  0.00000000000E+00 -0.31417659433E+03  0.86041697723E+03  0.80100589404E+03 0.  0.
        2    1    3    3  502    0  0.14700838409E+03  0.74802951839E+02  0.23494080039E+03  0.28706118910E+03  0.25500000920E-02 0.  1.
       -2    1    3    3    0  502 -0.14700838409E+03 -0.74802951839E+02 -0.54911739471E+03  0.57335578813E+03  0.25500000920E-02 0. -1.
</event>
<event>
 5   0  0.2736375E-04  0.8000465E+03  0.7818609E-02  0.9559950E-01
       -4   -1    0    0    0  501  0.00000000000E+00  0.00000000000E+00  0.47709388168E+03  0.47709557202E+03  0.12699999809E+01 0. -1.
        4   -1    0    0  501    0  0.00000000000E+00  0.00000000000E+00 -0.33539924216E+03  0.33540164660E+03  0.12699999809E+01 0.  1.
    10030    2    1    2    0    0  0.00000000000E+00  0.00000000000E+00  0.14169463952E+03  0.81249721862E+03  0.80004647328E+03 0.  0.
        4    1    3    3  502    0  0.34798156795E+03  0.14774557558E+03  0.20363789782E+03  0.42940648931E+03  0.12699999809E+01 0. -1.
       -4    1    3    3    0  502 -0.34798156795E+03 -0.14774557558E+03 -0.61943258299E+02  0.38309072931E+03  0.12699999809E+01 0.  1.
</event>
<event>
 5   0  0.6672462E-04  0.7999593E+03  0.7818609E-02  0.9560076E-01
        2   -1    0    0  501    0  0.00000000000E+00  0.00000000000E+00  0.93743189146E+03  0.93743189146E+03  0.25500000920E-02 0. -1.
       -2   -1    0    0    0  501  0.00000000000E+00  0.00000000000E+00 -0.17066169739E+03  0.17066169741E+03  0.25500000920E-02 0.  1.
    10030    2    1    2    0    0  0.00000000000E+00  0.00000000000E+00  0.76677019407E+03  0.11080935889E+04  0.79995929345E+03 0.  0.
        5    1    3    3  502    0 -0.27819904360E+03  0.27581880988E+03  0.27178587974E+03  0.47682321480E+03  0.46999998093E+01 0.  1.
       -5    1    3    3    0  502  0.27819904360E+03 -0.27581880988E+03  0.49498431433E+03  0.63127037407E+03  0.46999998093E+01 0. -1.
</event>
<event>
 5   0  0.6672462E-04  0.7994076E+03  0.7818609E-02  0.9560875E-01
        2   -1    0    0  501    0  0.00000000000E+00  0.00000000000E+00  0.68742105751E+03  0.68742105752E+03  0.25500000920E-02 0. -1.
       -2   -1    0    0    0  501  0.00000000000E+00  0.00000000000E+00 -0.23240939202E+03  0.23240939203E+03  0.25500000920E-02 0.  1.
    10030    2    1    2    0    0  0.00000000000E+00  0.00000000000E+00  0.45501166549E+03  0.91983044955E+03  0.79940755575E+03 0.  0.
        5    1    3    3  502    0  0.27334414649E+03 -0.72099440316E+02 -0.97589560221E+02  0.29910059174E+03  0.46999998093E+01 0.  1.
       -5    1    3    3    0  502 -0.27334414649E+03  0.72099440316E+02  0.55260122572E+03  0.62072985781E+03  0.46999998093E+01 0. -1.
</event>
<event>
 5   0  0.6970013E-04  0.7998099E+03  0.7818609E-02  0.9560292E-01
       -2   -1    0    0    0  501  0.00000000000E+00  0.00000000000E+00  0.14894850300E+03  0.14894850302E+03  0.25500000920E-02 0. -1.
        2   -1    0    0  501    0  0.00000000000E+00  0.00000000000E+00 -0.10736862627E+04  0.10736862627E+04  0.25500000920E-02 0.  1.
    10030    2    1    2    0    0  0.00000000000E+00  0.00000000000E+00 -0.92473775972E+03  0.12226347657E+04  0.79980988126E+03 0.  0.
        3    1    3    3  502    0 -0.70487067253E+01  0.27442077138E+03 -0.90690979614E+03  0.94754516123E+03  0.10100000352E+00 0.  1.
       -3    1    3    3    0  502  0.70487067253E+01 -0.27442077138E+03 -0.17827963580E+02  0.27508960452E+03  0.10100000352E+00 0. -1.
</event>
<event>
 5   0  0.6593118E-04  0.7999174E+03  0.7818609E-02  0.9560137E-01
       -2   -1    0    0    0  501  0.00000000000E+00  0.00000000000E+00  0.14616744544E+04  0.14616744544E+04  0.25500000920E-02 0.  1.
        2   -1    0    0  501    0  0.00000000000E+00  0.00000000000E+00 -0.10944088802E+03  0.10944088805E+03  0.25500000920E-02 0. -1.
    10030    2    1    2    0    0  0.00000000000E+00  0.00000000000E+00  0.13522335664E+04  0.15711153424E+04  0.79991737151E+03 0.  0.
        1    1    3    3  502    0 -0.28487443266E+03 -0.25611544063E+03  0.45030208573E+03  0.59120261311E+03  0.50400001928E-02 0. -1.
       -1    1    3    3    0  502  0.28487443266E+03  0.25611544063E+03  0.90193148062E+03  0.97991272931E+03  0.50400001928E-02 0.  1.
</event>
<event>
 5   0  0.4392552E-04  0.7999245E+03  0.7818609E-02  0.9560126E-01
        1   -1    0    0  501    0  0.00000000000E+00  0.00000000000E+00  0.54042581281E+03  0.54042581284E+03  0.50400001928E-02 0. -1.
       -1   -1    0    0    0  501  0.00000000000E+00  0.00000000000E+00 -0.29600697788E+03  0.29600697793E+03  0.50400001928E-02 0.  1.
    10030    2    1    2    0    0  0.00000000000E+00  0.00000000000E+00  0.24441883493E+03  0.83643279076E+03  0.79992452556E+03 0.  0.
        5    1    3    3  502    0 -0.34916839333E+03 -0.35281948553E+02 -0.78336356704E+02  0.35961376166E+03  0.46999998093E+01 0.  1.
       -5    1    3    3    0  502  0.34916839333E+03  0.35281948553E+02  0.32275519163E+03  0.47681902911E+03  0.46999998093E+01 0. -1.
</event>
<event>
 5   0  0.4087283E-04  0.7997993E+03  0.7818609E-02  0.9560308E-01
        1   -1    0    0  501    0  0.00000000000E+00  0.00000000000E+00  0.41192346106E+03  0.41192346109E+03  0.50400001928E-02 0.  1.
       -1   -1    0    0    0  501  0.00000000000E+00  0.00000000000E+00 -0.38822676172E+03  0.38822676176E+03  0.50400001928E-02 0. -1.
    10030    2    1    2    0    0  0.00000000000E+00  0.00000000000E+00  0.23696699338E+02  0.80015022285E+03  0.79979925329E+03 0.  0.
        1    1    3    3  502    0 -0.38992446007E+03  0.86744454690E+02  0.30672195314E+02  0.40063258551E+03  0.50400001928E-02 0.  1.
       -1    1    3    3    0  502  0.38992446007E+03 -0.86744454690E+02 -0.69754959755E+01  0.39951763734E+03  0.50400001928E-02 0. -1.
</event>
<event>
 5   0  0.2736375E-04  0.8040377E+03  0.7818609E-02  0.9554191E-01
        3   -1    0    0  501    0  0.00000000000E+00  0.00000000000E+00  0.45941216037E+03  0.45941217147E+03  0.10100000352E+00 0. -1.
       -3   -1    0    0    0  501  0.00000000000E+00  0.00000000000E+00 -0.35179557526E+03  0.35179558976E+03  0.10100000352E+00 0.  1.
    10030    2    1    2    0    0  0.00000000000E+00  0.00000000000E+00  0.10761658511E+03  0.81120776124E+03  0.80403774943E+03 0.  0.
        4    1    3    3  502    0 -0.26192069722E+03  0.80853717010E+01 -0.25378704091E+03  0.36479761499E+03  0.12699999809E+01 0.  1.
       -4    1    3    3    0  502  0.26192069722E+03 -0.80853717010E+01  0.36140362602E+03  0.44641014624E+03  0.12699999809E+01 0. -1.
</event>
<event>
 5   0  0.7133039E-04  0.7995881E+03  0.7818609E-02  0.9560613E-01
        2   -1    0    0  501    0  0.00000000000E+00  0.00000000000E+00  0.71003970094E+03  0.71003970095E+03  0.25500000920E-02 0.  1.
       -2   -1    0    0    0  501  0.00000000000E+00  0.00000000000E+00 -0.22510753773E+03  0.22510753774E+03  0.25500000920E-02 0. -1.
    10030    2    1    2    0    0  0.00000000000E+00  0.00000000000E+00  0.48493216321E+03  0.93514723869E+03  0.79958811591E+03 0.  0.
        2    1    3    3  502    0  0.27848233900E+03 -0.25426069637E+03  0.39777403180E+03  0.54811047722E+03  0.25500000920E-02 0.  1.
       -2    1    3    3    0  502 -0.27848233900E+03  0.25426069637E+03  0.87158131414E+02  0.38703676147E+03  0.25500000920E-02 0. -1.
</event>
<event>
 5   0  0.4104786E-04  0.7988636E+03  0.7818609E-02  0.9561663E-01
       -1   -1    0    0    0  501  0.00000000000E+00  0.00000000000E+00  0.55268308674E+03  0.55268308676E+03  0.50400001928E-02 0.  1.
        1   -1    0    0  501    0  0.00000000000E+00  0.00000000000E+00 -0.28867496763E+03  0.28867496768E+03  0.50400001928E-02 0. -1.
    10030    2    1    2    0    0  0.00000000000E+00  0.00000000000E+00  0.26400811911E+03  0.84135805444E+03  0.79886362341E+03 0.  0.
        2    1    3    3  502    0  0.10762889693E+02 -0.33016011343E+03  0.36850226875E+03  0.49488934357E+03  0.25500000920E-02 0.  1.
       -2    1    3    3    0  502 -0.10762889693E+02  0.33016011343E+03 -0.10449414964E+03  0.34646871087E+03  0.25500000920E-02 0. -1.
</event>
<event>
 5   0  0.6593118E-04  0.7997275E+03  0.7818609E-02  0.9560412E-01
        2   -1    0    0  501    0  0.00000000000E+00  0.00000000000E+00  0.47060378329E+03  0.47060378330E+03  0.25500000920E-02 0.  1.
       -2   -1    0    0    0  501  0.00000000000E+00  0.00000000000E+00 -0.33975721859E+03  0.33975721860E+03  0.25500000920E-02 0. -1.
    10030    2    1    2    0    0  0.00000000000E+00  0.00000000000E+00  0.13084656471E+03  0.81036100190E+03  0.79972753479E+03 0.  0.
        1    1    3    3  502    0 -0.31489048988E+03  0.24240131271E+03  0.11047357061E+03  0.41245463611E+03  0.50400001928E-02 0. -1.
       -1    1    3    3    0  502  0.31489048988E+03 -0.24240131271E+03  0.20372994096E+02  0.39790636579E+03  0.50400001928E-02 0.  1.
</event>
<event>
 5   0  0.6672462E-04  0.7998021E+03  0.7818609E-02  0.9560304E-01
        2   -1    0    0  501    0  0.00000000000E+00  0.00000000000E+00  0.22133310791E+04  0.22133310791E+04  0.25500000920E-02 0.  1.
       -2   -1    0    0    0  501  0.00000000000E+00  0.00000000000E+00 -0.72253475428E+02  0.72253475473E+02  0.25500000920E-02 0. -1.
    10030    2    1    2    0    0  0.00000000000E+00  0.00000000000E+00  0.21410776036E+04  0.22855845545E+04  0.79980213250E+03 0.  0.
        5    1    3    3  502    0  0.15479485701E+03 -0.14615673250E+03  0.20378376728E+04  0.20489333100E+04  0.46999998093E+01 0.  1.
       -5    1    3    3    0  502 -0.15479485701E+03  0.14615673250E+03  0.10323993082E+03  0.23665124451E+03  0.46999998093E+01 0. -1.
</event>
<event>
 5   0  0.2736375E-04  0.7999850E+03  0.7818609E-02  0.9560039E-01
       -3   -1    0    0    0  501  0.00000000000E+00  0.00000000000E+00  0.19946854910E+03  0.19946857467E+03  0.10100000352E+00 0.  1.
        3   -1    0    0  501    0  0.00000000000E+00  0.00000000000E+00 -0.80210137415E+03  0.80210138051E+03  0.10100000352E+00 0. -1.
    10030    2    1    2    0    0  0.00000000000E+00  0.00000000000E+00 -0.60263282505E+03  0.10015699552E+04  0.79998503317E+03 0.  0.
        4    1    3    3  502    0  0.32191257108E+03  0.21066159455E+03 -0.16424603122E+03  0.41831134638E+03  0.12699999809E+01 0. -1.
       -4    1    3    3    0  502 -0.32191257108E+03 -0.21066159455E+03 -0.43838679383E+03  0.58325860880E+03  0.12699999809E+01 0.  1.
</event>
<event>
 5   0  0.4086111E-04  0.7997431E+03  0.7818609E-02  0.9560389E-01
       -1   -1    0    0    0  501  0.00000000000E+00  0.00000000000E+00  0.12050147487E+03  0.12050147498E+03  0.50400001928E-02 0. -1.
        1   -1    0    0  501    0  0.00000000000E+00  0.00000000000E+00 -0.13269317831E+04  0.13269317831E+04  0.50400001928E-02 0.  1.
    10030    2    1    2    0    0  0.00000000000E+00  0.00000000000E+00 -0.12064303082E+04  0.14474332581E+04  0.79974305124E+03 0.  0.
        3    1    3    3  502    0 -0.26077071450E+02  0.80762787860E+01  0.11881295346E+03  0.12190885138E+03  0.10100000352E+00 0. -1.
       -3    1    3    3    0  502  0.26077071450E+02 -0.80762787860E+01 -0.13252432617E+04  0.13255244067E+04  0.10100000352E+00 0.  1.
</event>
<event>
 5   0  0.4392552E-04  0.8012853E+03  0.7818609E-02  0.9558159E-01
       -1   -1    0    0    0  501  0.00000000000E+00  0.00000000000E+00  0.29253190765E+03  0.29253190769E+03  0.50400001928E-02 0. -1.
        1   -1    0    0  501    0  0.00000000000E+00  0.00000000000E+00 -0.54870772884E+03  0.54870772887E+03  0.50400001928E-02 0.  1.
    10030    2    1    2    0    0  0.00000000000E+00  0.00000000000E+00 -0.25617582120E+03  0.84123963656E+03  0.80128526428E+03 0.  0.
        5    1    3    3  502    0  0.83355962658E+02  0.94436211097E+02  0.27117206855E+03  0.29903644466E+03  0.46999998093E+01 0. -1.
       -5    1    3    3    0  502 -0.83355962658E+02 -0.94436211097E+02 -0.52734788975E+03  0.54220319189E+03  0.46999998093E+01 0.  1.
</event>
<event>
 5   0  0.6593118E-04  0.8000193E+03  0.7818609E-02  0.9559989E-01
        2   -1    0    0  501    0  0.00000000000E+00  0.00000000000E+00  0.10355065313E+04  0.10355065313E+04  0.25500000920E-02 0. -1.
       -2   -1    0    0    0  501  0.00000000000E+00  0.00000000000E+00 -0.15452122560E+03  0.15452122562E+03  0.25500000920E-02 0.  1.
    10030    2    1    2    0    0  0.00000000000E+00  0.00000000000E+00  0.88098530569E+03  0.11900277569E+04  0.80001934564E+03 0.  0.
        1    1    3    3  502    0 -0.39722919340E+03  0.30428773378E+02  0.49393498538E+03  0.63457758560E+03  0.50400001928E-02 0. -1.
       -1    1    3    3    0  502  0.39722919340E+03 -0.30428773378E+02  0.38705032031E+03  0.55545017131E+03  0.50400001928E-02 0.  1.
</event>
<event>
 5   0  0.6801147E-04  0.7998819E+03  0.7818609E-02  0.9560188E-01
        2   -1    0    0  501    0  0.00000000000E+00  0.00000000000E+00  0.14797134297E+04  0.14797134297E+04  0.25500000920E-02 0. -1.
       -2   -1    0    0    0  501  0.00000000000E+00  0.00000000000E+00 -0.10809712170E+03  0.10809712173E+03  0.25500000920E-02 0.  1.
    10030    2    1    2    0    0  0.00000000000E+00  0.00000000000E+00  0.13716163080E+04  0.15878105515E+04  0.79988189809E+03 0.  0.
        4    1    3    3  502    0  0.42964454142E+02  0.20266208706E+03  0.13648984287E+04  0.13805314916E+04  0.12699999809E+01 0. -1.
       -4    1    3    3    0  502 -0.42964454142E+02 -0.20266208706E+03  0.67178793636E+01  0.20727905986E+03  0.12699999809E+01 0.  1.
</event>
<event>
 5   0  0.2736375E-04  0.8001438E+03  0.7818609E-02  0.9559809E-01
        4   -1    0    0  501    0  0.00000000000E+00  0.00000000000E+00  0.97523833006E+03  0.97523915698E+03  0.12699999809E+01 0. -1.
       -4   -1    0    0    0  501  0.00000000000E+00  0.00000000000E+00 -0.16411808456E+03  0.16412299833E+03  0.12699999809E+01 0.  1.
    10030    2    1    2    0    0  0.00000000000E+00  0.00000000000E+00  0.81112024550E+03  0.11393621553E+04  0.80014377977E+03 0.  0.
        2    1    3    3  502    0 -0.20214002367E+03  0.18588610204E+03 -0.87161034473E+01  0.27475480445E+03  0.25500000920E-02 0.  1.
       -2    1    3    3    0  502  0.20214002367E+03 -0.18588610204E+03  0.81983634894E+03  0.86460735086E+03  0.25500000920E-02 0. -1.
</event>
<event>
 5   0  0.4104786E-04  0.7999294E+03  0.7818609E-02  0.9560119E-01
        1   -1    0    0  501    0  0.00000000000E+00  0.00000000000E+00  0.99540069728E+02  0.99540069855E+02  0.50400001928E-02 0.  1.
       -1   -1    0    0    0  501  0.00000000000E+00  0.00000000000E+00 -0.16071093749E+04  0.16071093749E+04  0.50400001928E-02 0. -1.
    10030    2    1    2    0    0  0.00000000000E+00  0.00000000000E+00 -0.15075693052E+04  0.17066494448E+04  0.79992944528E+03 0.  0.
        2    1    3    3  502    0 -0.19420835847E+03 -0.15142594876E+03 -0.14261759611E+04  0.14472817889E+04  0.25500000920E-02 0. -1.
       -2    1    3    3    0  502  0.19420835847E+03  0.15142594876E+03 -0.81393344110E+02  0.25936765590E+03  0.25500000920E-02 0.  1.
</event>
<event>
 5   0  0.6970013E-04  0.8000511E+03  0.7818609E-02  0.9559943E-01
        2   -1    0    0  501    0  0.00000000000E+00  0.00000000000E+00  0.12735126162E+04  0.12735126162E+04  0.25500000920E-02 0. -1.
       -2   -1    0    0    0  501  0.00000000000E+00  0.00000000000E+00 -0.12565279741E+03  0.12565279743E+03  0.25500000920E-02 0.  1.
    10030    2    1    2    0    0  0.00000000000E+00  0.00000000000E+00  0.11478598188E+04  0.13991654136E+04  0.80005105531E+03 0.  0.
        3    1    3    3  502    0 -0.70613616131E+02  0.91683458847E+02  0.12435989455E+04  0.12489717719E+04  0.10100000352E+00 0. -1.
       -3    1    3    3    0  502  0.70613616131E+02 -0.91683458847E+02 -0.95739126795E+02  0.15019364171E+03  0.10100000352E+00 0.  1.
</event>
<event>
 5   0  0.4169155E-04  0.8008743E+03  0.7818609E-02  0.9558752E-01
        1   -1    0    0  501    0  0.00000000000E+00  0.00000000000E+00  0.10724138384E+04  0.10724138384E+04  0.50400001928E-02 0.  1.
       -1   -1    0    0    0  501  0.00000000000E+00  0.00000000000E+00 -0.14952242126E+03  0.14952242134E+03  0.50400001928E-02 0. -1.
    10030    2    1    2    0    0  0.00000000000E+00  0.00000000000E+00  0.92289141718E+03  0.12219362598E+04  0.80087430667E+03 0.  0.
        4    1    3    3  502    0  0.29973942787E+03 -0.13606316419E+03  0.80934209054E+03  0.87372372160E+03  0.12699999809E+01 0.  1.
       -4    1    3    3    0  502 -0.29973942787E+03  0.13606316419E+03  0.11354932664E+03  0.34821253818E+03  0.12699999809E+01 0. -1.
</event>
<event>
 5   0  0.6970013E-04  0.7999551E+03  0.7818609E-02  0.9560082E-01
       -2   -1    0    0    0  501  0.00000000000E+00  0.00000000000E+00  0.73103111854E+03  0.73103111854E+03  0.25500000920E-02 0. -1.
        2   -1    0    0  501    0  0.00000000000E+00  0.00000000000E+00 -0.21884438918E+03  0.21884438919E+03  0.25500000920E-02 0.  1.
    10030    2    1    2    0    0  0.00000000000E+00  0.00000000000E+00  0.51218672936E+03  0.94987550774E+03  0.79995514528E+03 0.  0.
        3    1    3    3  502    0 -0.23825450787E+02  0.20668410722E+03  0.66172253593E+03  0.69365891981E+03  0.10100000352E+00 0. -1.
       -3    1    3    3    0  502  0.23825450787E+02 -0.20668410722E+03 -0.14953580657E+03  0.25621658792E+03  0.10100000352E+00 0.  1.
</event>
<event>
 5   0  0.4104786E-04  0.8009488E+03  0.7818609E-02  0.9558645E-01
       -1   -1    0    0    0  501  0.00000000000E+00  0.00000000000E+00  0.38381808243E+03  0.38381808246E+03  0.50400001928E-02 0.  1.
        1   -1    0    0  501    0  0.00000000000E+00  0.00000000000E+00 -0.41785348969E+03  0.41785348972E+03  0.50400001928E-02 0. -1.
    10030    2    1    2    0    0  0.00000000000E+00  0.00000000000E+00 -0.34035407266E+02  0.80167157218E+03  0.80094875035E+03 0.  0.
        2    1    3    3  502    0 -0.44112094143E+02  0.17565910931E+03 -0.37452028596E+03  0.41601375474E+03  0.25500000920E-02 0. -1.
       -2    1    3    3    0  502  0.44112094143E+02 -0.17565910931E+03  0.34048487869E+03  0.38565781744E+03  0.25500000920E-02 0.  1.
</event>
<event>
 5   0  0.6593118E-04  0.7994269E+03  0.7818609E-02  0.9560847E-01
        2   -1    0    0  501    0  0.00000000000E+00  0.00000000000E+00  0.70376914425E+03  0.70376914426E+03  0.25500000920E-02 0. -1.
       -2   -1    0    0    0  501  0.00000000000E+00  0.00000000000E+00 -0.22702167003E+03  0.22702167004E+03  0.25500000920E-02 0.  1.
    10030    2    1    2    0    0  0.00000000000E+00  0.00000000000E+00  0.47674747422E+03  0.93079081430E+03  0.79942691086E+03 0.  0.
        1    1    3    3  502    0 -0.12095598000E+03  0.40075439485E+02  0.67948831404E+03  0.69133259644E+03  0.50400001928E-02 0. -1.
       -1    1    3    3    0  502  0.12095598000E+03 -0.40075439485E+02 -0.20274083982E+03  0.23945821787E+03  0.50400001928E-02 0.  1.
</event>
<event>
 5   0  0.7133039E-04  0.7999859E+03  0.7818609E-02  0.9560038E-01
        2   -1    0    0  501    0  0.00000000000E+00  0.00000000000E+00  0.33290285892E+03  0.33290285893E+03  0.25500000920E-02 0.  1.
       -2   -1    0    0    0  501  0.00000000000E+00  0.00000000000E+00 -0.48060368615E+03  0.48060368616E+03  0.25500000920E-02 0. -1.
    10030    2    1    2    0    0  0.00000000000E+00  0.00000000000E+00 -0.14770082723E+03  0.81350654509E+03  0.79998585271E+03 0.  0.
        2    1    3    3  502    0 -0.19194351301E+02 -0.29358350693E+03 -0.34941870088E+03  0.45678564688E+03  0.25500000920E-02 0. -1.
       -2    1    3    3    0  502  0.19194351301E+02  0.29358350693E+03  0.20171787365E+03  0.35672089821E+03  0.25500000920E-02 0.  1.
</event>
<event>
 5   0  0.4392552E-04  0.7999117E+03  0.7818609E-02  0.9560145E-01
       -1   -1    0    0    0  501  0.00000000000E+00  0.00000000000E+00  0.20362729487E+03  0.20362729493E+03  0.50400001928E-02 0.  1.
        1   -1    0    0  501    0  0.00000000000E+00  0.00000000000E+00 -0.78557586163E+03  0.78557586165E+03  0.50400001928E-02 0. -1.
    10030    2    1    2    0    0  0.00000000000E+00  0.00000000000E+00 -0.58194856676E+03  0.98920315658E+03  0.79991171427E+03 0.  0.
        5    1    3    3  502    0 -0.65779098970E+02 -0.90293485888E+02  0.18390657703E+03  0.21522900021E+03  0.46999998093E+01 0.  1.
       -5    1    3    3    0  502  0.65779098970E+02  0.90293485888E+02 -0.76585514380E+03  0.77397415637E+03  0.46999998093E+01 0. -1.
</event>
<event>
 5   0  0.4169155E-04  0.7996907E+03  0.7818609E-02  0.9560465E-01
        1   -1    0    0  501    0  0.00000000000E+00  0.00000000000E+00  0.81988165519E+03  0.81988165521E+03  0.50400001928E-02 0. -1.
       -1   -1    0    0    0  501  0.00000000000E+00  0.00000000000E+00 -0.19499923480E+03  0.19499923486E+03  0.50400001928E-02 0.  1.
    10030    2    1    2    0    0  0.00000000000E+00  0.00000000000E+00  0.62488242039E+03  0.10148808901E+04  0.79969067877E+03 0.  0.
        4    1    3    3  502    0 -0.19992860712E+03 -0.24803357415E+03  0.57970593043E+01  0.31863352091E+03  0.12699999809E+01 0.  1.
       -4    1    3    3    0  502  0.19992860712E+03  0.24803357415E+03  0.61908536109E+03  0.69624736916E+03  0.12699999809E+01 0. -1.
</event>
<event>
 5   0  0.2736375E-04  0.8005388E+03  0.7818609E-02  0.9559238E-01
        3   -1    0    0  501    0  0.00000000000E+00  0.00000000000E+00  0.25645036747E+03  0.25645038736E+03  0.10100000352E+00 0. -1.
       -3   -1    0    0    0  501  0.00000000000E+00  0.00000000000E+00 -0.62474297045E+03  0.62474297862E+03  0.10100000352E+00 0.  1.
    10030    2    1    2    0    0  0.00000000000E+00  0.00000000000E+00 -0.36829260298E+03  0.88119336598E+03  0.80053876036E+03 0.  0.
        2    1    3    3  502    0 -0.18702108461E+03 -0.13330680224E+03  0.17670511283E+03  0.28977972068E+03  0.25500000920E-02 0. -1.
       -2    1    3    3    0  502  0.18702108461E+03  0.13330680224E+03 -0.54499771580E+03  0.59141364530E+03  0.25500000920E-02 0.  1.
</event>
<event>
 5   0  0.6801147E-04  0.7941895E+03  0.7818609E-02  0.9568466E-01
        2   -1    0    0  501    0  0.00000000000E+00  0.00000000000E+00  0.39142310232E+03  0.39142310233E+03  0.25500000920E-02 0.  1.
       -2   -1    0    0    0  501  0.00000000000E+00  0.00000000000E+00 -0.40284856730E+03  0.40284856731E+03  0.25500000920E-02 0. -1.
    10030    2    1    2    0    0  0.00000000000E+00  0.00000000000E+00 -0.11425464980E+02  0.79427166963E+03  0.79418948868E+03 0.  0.
        4    1    3    3  502    0 -0.12035014281E+03  0.20298094022E+03 -0.32511579148E+03  0.40173039434E+03  0.12699999809E+01 0. -1.
       -4    1    3    3    0  502  0.12035014281E+03 -0.20298094022E+03  0.31369032650E+03  0.39254127529E+03  0.12699999809E+01 0.  1.
</event>
<event>
 5   0  0.6672462E-04  0.8004129E+03  0.7818609E-02  0.9559420E-01
       -2   -1    0    0    0  501  0.00000000000E+00  0.00000000000E+00  0.29115762082E+03  0.29115762083E+03  0.25500000920E-02 0. -1.
        2   -1    0    0  501    0  0.00000000000E+00  0.00000000000E+00 -0.55009799039E+03  0.55009799039E+03  0.25500000920E-02 0.  1.
    10030    2    1    2    0    0  0.00000000000E+00  0.00000000000E+00 -0.25894036957E+03  0.84125561122E+03  0.80041294868E+03 0.  0.
        5    1    3    3  502    0  0.16986006895E+03 -0.35384405498E+03 -0.47482845172E+02  0.39539191804E+03  0.46999998093E+01 0.  1.
       -5    1    3    3    0  502 -0.16986006895E+03  0.35384405498E+03 -0.21145752440E+03  0.44586369318E+03  0.46999998093E+01 0. -1.
</event>
<event>
 5   0  0.4169155E-04  0.7997908E+03  0.7818609E-02  0.9560320E-01
        1   -1    0    0  501    0  0.00000000000E+00  0.00000000000E+00  0.57381314211E+03  0.57381314213E+03  0.50400001928E-02 0.  1.
       -1   -1    0    0    0  501  0.00000000000E+00  0.00000000000E+00 -0.27869063244E+03  0.27869063249E+03  0.50400001928E-02 0. -1.
    10030    2    1    2    0    0  0.00000000000E+00  0.00000000000E+00  0.29512250967E+03  0.85250377462E+03  0.79979084142E+03 0.  0.
        4    1    3    3  502    0  0.12173188738E+03 -0.31774070571E+03 -0.76373203167E+02  0.34872953349E+03  0.12699999809E+01 0. -1.
       -4    1    3    3    0  502 -0.12173188738E+03  0.31774070571E+03  0.37149571284E+03  0.50377424113E+03  0.12699999809E+01 0.  1.
</event>
<event>
 5   0  0.6801147E-04  0.8037084E+03  0.7818609E-02  0.9554665E-01
       -2   -1    0    0    0  501  0.00000000000E+00  0.00000000000E+00  0.16867481342E+03  0.16867481344E+03  0.25500000920E-02 0. -1.
        2   -1    0    0  501    0  0.00000000000E+00  0.00000000000E+00 -0.95738546159E+03  0.95738546160E+03  0.25500000920E-02 0.  1.
    10030    2    1    2    0    0  0.00000000000E+00  0.00000000000E+00 -0.78871064817E+03  0.11260602750E+04  0.80370843996E+03 0.  0.
        4    1    3    3  502    0  0.26778030678E+03  0.49810633293E+02  0.19610779428E+02  0.27308164980E+03  0.12699999809E+01 0. -1.
       -4    1    3    3    0  502 -0.26778030678E+03 -0.49810633293E+02 -0.80832142760E+03  0.85297862524E+03  0.12699999809E+01 0.  1.
</event>
<event>
 5   0  0.2736375E-04  0.7999514E+03  0.7818609E-02  0.9560087E-01
        3   -1    0    0  501    0  0.00000000000E+00  0.00000000000E+00  0.55358431189E+03  0.55358432110E+03  0.10100000352E+00 0. -1.
       -3   -1    0    0    0  501  0.00000000000E+00  0.00000000000E+00 -0.28899039780E+03  0.28899041545E+03  0.10100000352E+00 0.  1.
    10030    2    1    2    0    0  0.00000000000E+00  0.00000000000E+00  0.26459391409E+03  0.84257473655E+03  0.79995140309E+03 0.  0.
        2    1    3    3  502    0 -0.21712407316E+03  0.33560927372E+03  0.11724886998E+03  0.41656181447E+03  0.25500000920E-02 0.  1.
       -2    1    3    3    0  502  0.21712407316E+03 -0.33560927372E+03  0.14734504411E+03  0.42601292209E+03  0.25500000920E-02 0. -1.
</event>
<event>
 5   0  0.4086111E-04  0.8001705E+03  0.7818609E-02  0.9559770E-01
       -1   -1    0    0    0  501  0.00000000000E+00  0.00000000000E+00  0.15758514888E+03  0.15758514896E+03  0.50400001928E-02 0.  1.
        1   -1    0    0  501    0  0.00000000000E+00  0.00000000000E+00 -0.10157569209E+04  0.10157569209E+04  0.50400001928E-02 0. -1.
    10030    2    1    2    0    0  0.00000000000E+00  0.00000000000E+00 -0.85817177200E+03  0.11733420698E+04  0.80017049597E+03 0.  0.
        3    1    3    3  502    0  0.16626863011E+03 -0.31840959662E+03 -0.68742540105E+03  0.77561821845E+03  0.10100000352E+00 0. -1.
       -3    1    3    3    0  502 -0.16626863011E+03  0.31840959662E+03 -0.17074637095E+03  0.39772385140E+03  0.10100000352E+00 0.  1.
</event>
<event>
 5   0  0.4104786E-04  0.8017353E+03  0.7818609E-02  0.9557509E-01
        1   -1    0    0  501    0  0.00000000000E+00  0.00000000000E+00  0.40699873094E+03  0.40699873097E+03  0.50400001928E-02 0.  1.
       -1   -1    0    0    0  501  0.00000000000E+00  0.00000000000E+00 -0.39482895381E+03  0.39482895385E+03  0.50400001928E-02 0. -1.
    10030    2    1    2    0    0  0.00000000000E+00  0.00000000000E+00  0.12169777129E+02  0.80182768482E+03  0.80173532582E+03 0.  0.
        2    1    3    3  502    0  0.86336528213E+02  0.90456544184E+02 -0.37482444940E+03  0.39513257315E+03  0.25500000920E-02 0. -1.
       -2    1    3    3    0  502 -0.86336528213E+02 -0.90456544184E+02  0.38699422652E+03  0.40669511167E+03  0.25500000920E-02 0.  1.
</event>
<event>
 5   0  0.4104786E-04  0.8003636E+03  0.7818609E-02  0.9559491E-01
        1   -1    0    0  501    0  0.00000000000E+00  0.00000000000E+00  0.27460426756E+03  0.27460426760E+03  0.50400001928E-02 0. -1.
       -1   -1    0    0    0  501  0.00000000000E+00  0.00000000000E+00 -0.58318636406E+03  0.58318636408E+03  0.50400001928E-02 0.  1.
    10030    2    1    2    0    0  0.00000000000E+00  0.00000000000E+00 -0.30858209650E+03  0.85779063169E+03  0.80036357834E+03 0.  0.
        2    1    3    3  502    0 -0.23674257538E+03 -0.23139997045E+03  0.86680171603E+02  0.34220819025E+03  0.25500000920E-02 0. -1.
       -2    1    3    3    0  502  0.23674257538E+03  0.23139997045E+03 -0.39526226811E+03  0.51558244144E+03  0.25500000920E-02 0.  1.
</event>
<event>
 5   0  0.4087283E-04  0.7958055E+03  0.7818609E-02  0.9566108E-01
       -1   -1    0    0    0  501  0.00000000000E+00  0.00000000000E+00  0.43380225676E+03  0.43380225679E+03  0.50400001928E-02 0.  1.
        1   -1    0    0  501    0  0.00000000000E+00  0.00000000000E+00 -0.36497413273E+03  0.36497413277E+03  0.50400001928E-02 0. -1.
    10030    2    1    2    0    0  0.00000000000E+00  0.00000000000E+00  0.68828124034E+02  0.79877638956E+03  0.79580551007E+03 0.  0.
        1    1    3    3  502    0 -0.30901770437E+03  0.19033102748E+03  0.19814494439E+03  0.41349638529E+03  0.50400001928E-02 0.  1.
       -1    1    3    3    0  502  0.30901770437E+03 -0.19033102748E+03 -0.12931682035E+03  0.38528000427E+03  0.50400001928E-02 0. -1.
</event>
<event>
 5   0  0.4392552E-04  0.8004298E+03  0.7818609E-02  0.9559395E-01
        1   -1    0    0  501    0  0.00000000000E+00  0.00000000000E+00  0.97998104519E+03  0.97998104520E+03  0.50400001928E-02 0.  1.
       -1   -1    0    0    0  501  0.00000000000E+00  0.00000000000E+00 -0.16344396038E+03  0.16344396046E+03  0.50400001928E-02 0. -1.
    10030    2    1    2    0    0  0.00000000000E+00  0.00000000000E+00  0.81653708481E+03  0.11434250057E+04  0.80042984246E+03 0.  0.
        5    1    3    3  502    0 -0.36921465180E+02 -0.25692981125E+03 -0.26839406774E+02  0.26099533761E+03  0.46999998093E+01 0. -1.
       -5    1    3    3    0  502  0.36921465180E+02  0.25692981125E+03  0.84337649158E+03  0.88242966805E+03  0.46999998093E+01 0.  1.
</event>
<event>
 5   0  0.4104786E-04  0.7989707E+03  0.7818609E-02  0.9561508E-01
       -1   -1    0    0    0  501  0.00000000000E+00  0.00000000000E+00  0.18661937233E+03  0.18661937240E+03  0.50400001928E-02 0.  1.
        1   -1    0    0  501    0  0.00000000000E+00  0.00000000000E+00 -0.85515525505E+03  0.85515525506E+03  0.50400001928E-02 0. -1.
    10030    2    1    2    0    0  0.00000000000E+00  0.00000000000E+00 -0.66853588272E+03  0.10417746275E+04  0.79897068028E+03 0.  0.
        2    1    3    3  502    0 -0.59306386986E+02  0.19872459692E+03 -0.77946740381E+03  0.80658424642E+03  0.25500000920E-02 0. -1.
       -2    1    3    3    0  502  0.59306386986E+02 -0.19872459692E+03  0.11093152109E+03  0.23519038105E+03  0.25500000920E-02 0.  1.
</event>
<event>
 5   0  0.6801147E-04  0.7999783E+03  0.7818609E-02  0.9560049E-01
        2   -1    0    0  501    0  0.00000000000E+00  0.00000000000E+00  0.51889042486E+03  0.51889042487E+03  0.25500000920E-02 0.  1.
       -2   -1    0    0    0  501  0.00000000000E+00  0.00000000000E+00 -0.30833352500E+03  0.30833352501E+03  0.25500000920E-02 0. -1.
    10030    2    1    2    0    0  0.00000000000E+00  0.00000000000E+00  0.21055689986E+03  0.82722394988E+03  0.79997828419E+03 0.  0.
        4    1    3    3  502    0  0.32259530719E+03 -0.68549149139E+02  0.33931157619E+03  0.47318144163E+03  0.12699999809E+01 0.  1.
       -4    1    3    3    0  502 -0.32259530719E+03  0.68549149139E+02 -0.12875467633E+03  0.35404250824E+03  0.12699999809E+01 0. -1.
</event>
<event>
 5   0  0.6801147E-04  0.7966403E+03  0.7818609E-02  0.9564893E-01
        2   -1    0    0  501    0  0.00000000000E+00  0.00000000000E+00  0.98343445535E+03  0.98343445536E+03  0.25500000920E-02 0.  1.
       -2   -1    0    0    0  501  0.00000000000E+00  0.00000000000E+00 -0.16133150134E+03  0.16133150136E+03  0.25500000920E-02 0. -1.
    10030    2    1    2    0    0  0.00000000000E+00  0.00000000000E+00  0.82210295401E+03  0.11447659567E+04  0.79664033834E+03 0.  0.
        4    1    3    3  502    0 -0.11198065477E+03 -0.35573909761E+03  0.21004009040E+03  0.42802853302E+03  0.12699999809E+01 0. -1.
       -4    1    3    3    0  502  0.11198065477E+03  0.35573909761E+03  0.61206286361E+03  0.71673742369E+03  0.12699999809E+01 0.  1.
</event>
<event>
 5   0  0.6593118E-04  0.8000038E+03  0.7818609E-02  0.9560012E-01
        2   -1    0    0  501    0  0.00000000000E+00  0.00000000000E+00  0.36052427177E+03  0.36052427178E+03  0.25500000920E-02 0.  1.
       -2   -1    0    0    0  501  0.00000000000E+00  0.00000000000E+00 -0.44380232327E+03  0.44380232328E+03  0.25500000920E-02 0. -1.
    10030    2    1    2    0    0  0.00000000000E+00  0.00000000000E+00 -0.83278051496E+02  0.80432659506E+03  0.80000377352E+03 0.  0.
        1    1    3    3  502    0  0.12232857789E+03  0.32017694394E+03 -0.24896666760E+03  0.42362950558E+03  0.50400001928E-02 0. -1.
       -1    1    3    3    0  502 -0.12232857789E+03 -0.32017694394E+03  0.16568861610E+03  0.38069708947E+03  0.50400001928E-02 0.  1.
</event>
<event>
 5   0  0.4169155E-04  0.8000592E+03  0.7818609E-02  0.9559931E-01
        1   -1    0    0  501    0  0.00000000000E+00  0.00000000000E+00  0.36872007776E+03  0.36872007780E+03  0.50400001928E-02 0. -1.
       -1   -1    0    0    0  501  0.00000000000E+00  0.00000000000E+00 -0.43399773194E+03  0.43399773197E+03  0.50400001928E-02 0.  1.
    10030    2    1    2    0    0  0.00000000000E+00  0.00000000000E+00 -0.65277654171E+02  0.80271780976E+03  0.80005919155E+03 0.  0.
        4    1    3    3  502    0 -0.11194122667E+00 -0.17523721201E+03 -0.39343631482E+03  0.43069924509E+03  0.12699999809E+01 0.  1.
       -4    1    3    3    0  502  0.11194122667E+00  0.17523721201E+03  0.32815866065E+03  0.37201856467E+03  0.12699999809E+01 0. -1.
</event>
<event>
 5   0  0.4169155E-04  0.8000052E+03  0.7818609E-02  0.9560010E-01
       -1   -1    0    0    0  501  0.00000000000E+00  0.00000000000E+00  0.36555186055E+03  0.36555186058E+03  0.50400001928E-02 0. -1.
        1   -1    0    0  501    0  0.00000000000E+00  0.00000000000E+00 -0.43770013368E+03  0.43770013371E+03  0.50400001928E-02 0.  1.
    10030    2    1    2    0    0  0.00000000000E+00  0.00000000000E+00 -0.72148273131E+02  0.80325199429E+03  0.80000524562E+03 0.  0.
        4    1    3    3  502    0 -0.15639727507E+03  0.22992690958E+01  0.33357087848E+03  0.36842439952E+03  0.12699999809E+01 0. -1.
       -4    1    3    3    0  502  0.15639727507E+03 -0.22992690958E+01 -0.40571915162E+03  0.43482759477E+03  0.12699999809E+01 0.  1.
</event>
<event>
 5   0  0.6672462E-04  0.7999618E+03  0.7818609E-02  0.9560072E-01
        2   -1    0    0  501    0  0.00000000000E+00  0.00000000000E+00  0.12249868591E+04  0.12249868592E+04  0.25500000920E-02 0.  1.
       -2   -1    0    0    0  501  0.00000000000E+00  0.00000000000E+00 -0.13060117397E+03  0.13060117399E+03  0.25500000920E-02 0. -1.
    10030    2    1    2    0    0  0.00000000000E+00  0.00000000000E+00  0.10943856852E+04  0.13555880331E+04  0.79996180389E+03 0.  0.
        5    1    3    3  502    0  0.28421844321E+03  0.18574291811E+03  0.18899319784E+03  0.38861429968E+03  0.46999998093E+01 0. -1.
       -5    1    3    3    0  502 -0.28421844321E+03 -0.18574291811E+03  0.90539248734E+03  0.96697373346E+03  0.46999998093E+01 0.  1.
</event>
<event>
 5   0  0.4392552E-04  0.7992833E+03  0.7818609E-02  0.9561055E-01
       -1   -1    0    0    0  501  0.00000000000E+00  0.00000000000E+00  0.21807514856E+03  0.21807514862E+03  0.50400001928E-02 0. -1.
        1   -1    0    0  501    0  0.00000000000E+00  0.00000000000E+00 -0.73237800044E+03  0.73237800046E+03  0.50400001928E-02 0.  1.
    10030    2    1    2    0    0  0.00000000000E+00  0.00000000000E+00 -0.51430285188E+03  0.95045314908E+03  0.79928328216E+03 0.  0.
        5    1    3    3  502    0  0.96663133955E+02 -0.37873353561E+03 -0.15831390845E+03  0.42174427805E+03  0.46999998093E+01 0. -1.
       -5    1    3    3    0  502 -0.96663133955E+02  0.37873353561E+03 -0.35598894343E+03  0.52870887103E+03  0.46999998093E+01 0.  1.
</event>
<event>
 5   0  0.4392552E-04  0.7999628E+03  0.7818609E-02  0.9560071E-01
        1   -1    0    0  501    0  0.00000000000E+00  0.00000000000E+00  0.66214108462E+03  0.66214108464E+03  0.50400001928E-02 0.  1.
       -1   -1    0    0    0  501  0.00000000000E+00  0.00000000000E+00 -0.24161787615E+03  0.24161787620E+03  0.50400001928E-02 0. -1.
    10030    2    1    2    0    0  0.00000000000E+00  0.00000000000E+00  0.42052320847E+03  0.90375896084E+03  0.79996280566E+03 0.  0.
        5    1    3    3  502    0 -0.60966501850E+02 -0.11332067291E+03 -0.21756154172E+03  0.25281139945E+03  0.46999998093E+01 0. -1.
       -5    1    3    3    0  502  0.60966501850E+02  0.11332067291E+03  0.63808475019E+03  0.65094756139E+03  0.46999998093E+01 0.  1.
</event>
<event>
 5   0  0.7133039E-04  0.8002233E+03  0.7818609E-02  0.9559694E-01
       -2   -1    0    0    0  501  0.00000000000E+00  0.00000000000E+00  0.40160897020E+03  0.40160897021E+03  0.25500000920E-02 0. -1.
        2   -1    0    0  501    0  0.00000000000E+00  0.00000000000E+00 -0.39861994057E+03  0.39861994058E+03  0.25500000920E-02 0.  1.
    10030    2    1    2    0    0  0.00000000000E+00  0.00000000000E+00  0.29890296351E+01  0.80022891079E+03  0.80022332843E+03 0.  0.
        2    1    3    3  502    0 -0.15676127732E+03 -0.14744873116E+02  0.36932562031E+03  0.40148838485E+03  0.25500000920E-02 0. -1.
       -2    1    3    3    0  502  0.15676127732E+03  0.14744873116E+02 -0.36633659067E+03  0.39874052594E+03  0.25500000920E-02 0.  1.
</event>
<event>
 5   0  0.4086111E-04  0.8002329E+03  0.7818609E-02  0.9559680E-01
       -1   -1    0    0    0  501  0.00000000000E+00  0.00000000000E+00  0.38723715504E+03  0.38723715507E+03  0.50400001928E-02 0. -1.
        1   -1    0    0  501    0  0.00000000000E+00  0.00000000000E+00 -0.41342413641E+03  0.41342413644E+03  0.50400001928E-02 0.  1.
    10030    2    1    2    0    0  0.00000000000E+00  0.00000000000E+00 -0.26186981373E+02  0.80066129152E+03  0.80023293218E+03 0.  0.
        3    1    3    3  502    0  0.23801804508E+03  0.31560524220E+03 -0.75045271844E+02  0.40235688352E+03  0.10100000352E+00 0. -1.
       -3    1    3    3    0  502 -0.23801804508E+03 -0.31560524220E+03  0.48858290471E+02  0.39830440800E+03  0.10100000352E+00 0.  1.
</event>
<event>
 5   0  0.6970013E-04  0.8026950E+03  0.7818609E-02  0.9556124E-01
       -2   -1    0    0    0  501  0.00000000000E+00  0.00000000000E+00  0.19431336576E+03  0.19431336577E+03  0.25500000920E-02 0. -1.
        2   -1    0    0  501    0  0.00000000000E+00  0.00000000000E+00 -0.82896930223E+03  0.82896930223E+03  0.25500000920E-02 0.  1.
    10030    2    1    2    0    0  0.00000000000E+00  0.00000000000E+00 -0.63465593647E+03  0.10232826680E+04  0.80269499871E+03 0.  0.
        3    1    3    3  502    0 -0.65689974101E+02  0.90572280804E+02  0.17402988132E+03  0.20689350048E+03  0.10100000352E+00 0. -1.
       -3    1    3    3    0  502  0.65689974101E+02 -0.90572280804E+02 -0.80868581780E+03  0.81638916752E+03  0.10100000352E+00 0.  1.
</event>
<event>
 5   0  0.2736375E-04  0.7998084E+03  0.7818609E-02  0.9560295E-01
       -3   -1    0    0    0  501  0.00000000000E+00  0.00000000000E+00  0.22157300058E+03  0.22157302360E+03  0.10100000352E+00 0. -1.
        3   -1    0    0  501    0  0.00000000000E+00  0.00000000000E+00 -0.72176365364E+03  0.72176366071E+03  0.10100000352E+00 0.  1.
    10030    2    1    2    0    0  0.00000000000E+00  0.00000000000E+00 -0.50019065306E+03  0.94333668431E+03  0.79980835864E+03 0.  0.
        2    1    3    3  502    0  0.31996625196E+03 -0.23984780156E+03 -0.24509378758E+03  0.46901634836E+03  0.25500000920E-02 0. -1.
       -2    1    3    3    0  502 -0.31996625196E+03  0.23984780156E+03 -0.25509686548E+03  0.47432033595E+03  0.25500000920E-02 0.  1.
</event>
<event>
 5   0  0.6801147E-04  0.8000508E+03  0.7818609E-02  0.9559944E-01
        2   -1    0    0  501    0  0.00000000000E+00  0.00000000000E+00  0.61916795992E+03  0.61916795993E+03  0.25500000920E-02 0. -1.
       -2   -1    0    0    0  501  0.00000000000E+00  0.00000000000E+00 -0.25844411914E+03  0.25844411915E+03  0.25500000920E-02 0.  1.
    10030    2    1    2    0    0  0.00000000000E+00  0.00000000000E+00  0.36072384078E+03  0.87761207908E+03  0.80005079342E+03 0.  0.
        4    1    3    3  502    0 -0.16817160631E+03  0.10744094591E+03 -0.19993731202E+03  0.28249210195E+03  0.12699999809E+01 0.  1.
       -4    1    3    3    0  502  0.16817160631E+03 -0.10744094591E+03  0.56066115280E+03  0.59511997713E+03  0.12699999809E+01 0. -1.
</event>
<event>
 5   0  0.6801147E-04  0.8000010E+03  0.7818609E-02  0.9560016E-01
        2   -1    0    0  501    0  0.00000000000E+00  0.00000000000E+00  0.53126863424E+03  0.53126863425E+03  0.25500000920E-02 0. -1.
       -2   -1    0    0    0  501  0.00000000000E+00  0.00000000000E+00 -0.30116665495E+03  0.30116665496E+03  0.25500000920E-02 0.  1.
    10030    2    1    2    0    0  0.00000000000E+00  0.00000000000E+00  0.23010197929E+03  0.83243528921E+03  0.80000099365E+03 0.  0.
        4    1    3    3  502    0  0.37944764485E+03 -0.11688907776E+03  0.16554908994E+03  0.43017634263E+03  0.12699999809E+01 0.  1.
       -4    1    3    3    0  502 -0.37944764485E+03  0.11688907776E+03  0.64552889348E+02  0.40225894658E+03  0.12699999809E+01 0. -1.
</event>
<event>
 5   0  0.4104786E-04  0.7998306E+03  0.7818609E-02  0.9560262E-01
       -1   -1    0    0    0  501  0.00000000000E+00  0.00000000000E+00  0.18252105285E+03  0.18252105292E+03  0.50400001928E-02 0. -1.
        1   -1    0    0  501    0  0.00000000000E+00  0.00000000000E+00 -0.87623990914E+03  0.87623990916E+03  0.50400001928E-02 0.  1.
    10030    2    1    2    0    0  0.00000000000E+00  0.00000000000E+00 -0.69371885629E+03  0.10587609621E+04  0.79983055907E+03 0.  0.
        2    1    3    3  502    0  0.26238463782E+03 -0.29782122155E+03 -0.41156069516E+03  0.57177389235E+03  0.25500000920E-02 0.  1.
       -2    1    3    3    0  502 -0.26238463782E+03  0.29782122155E+03 -0.28215816113E+03  0.48698706972E+03  0.25500000920E-02 0. -1.
</event>
<event>
 5   0  0.6593118E-04  0.8000869E+03  0.7818609E-02  0.9559891E-01
        2   -1    0    0  501    0  0.00000000000E+00  0.00000000000E+00  0.59552934383E+03  0.59552934384E+03  0.25500000920E-02 0. -1.
       -2   -1    0    0    0  501  0.00000000000E+00  0.00000000000E+00 -0.26872689588E+03  0.26872689589E+03  0.25500000920E-02 0.  1.
    10030    2    1    2    0    0  0.00000000000E+00  0.00000000000E+00  0.32680244796E+03  0.86425623973E+03  0.80008687523E+03 0.  0.
        1    1    3    3  502    0  0.26211286464E+03 -0.26498112648E+03  0.64309624195E+01  0.37277273037E+03  0.50400001928E-02 0.  1.
       -1    1    3    3    0  502 -0.26211286464E+03  0.26498112648E+03  0.32037148554E+03  0.49148350936E+03  0.50400001928E-02 0. -1.
</event>
<event>
 5   0  0.4087283E-04  0.7995287E+03  0.7818609E-02  0.9560700E-01
       -1   -1    0    0    0  501  0.00000000000E+00  0.00000000000E+00  0.41455975155E+03  0.41455975158E+03  0.50400001928E-02 0.  1.
        1   -1    0    0  501    0  0.00000000000E+00  0.00000000000E+00 -0.38549699350E+03  0.38549699353E+03  0.50400001928E-02 0. -1.
    10030    2    1    2    0    0  0.00000000000E+00  0.00000000000E+00  0.29062758048E+02  0.80005674511E+03  0.79952870586E+03 0.  0.
        1    1    3    3  502    0  0.20968446953E+03 -0.91108749083E+02 -0.31362293687E+03  0.38810788124E+03  0.50400001928E-02 0. -1.
       -1    1    3    3    0  502 -0.20968446953E+03  0.91108749083E+02  0.34268569492E+03  0.41194886388E+03  0.50400001928E-02 0.  1.
</event>
<event>
 5   0  0.4392552E-04  0.8000273E+03  0.7818609E-02  0.9559978E-01
       -1   -1    0    0    0  501  0.00000000000E+00  0.00000000000E+00  0.53354255207E+03  0.53354255209E+03  0.50400001928E-02 0. -1.
        1   -1    0    0  501    0  0.00000000000E+00  0.00000000000E+00 -0.29990284435E+03  0.29990284439E+03  0.50400001928E-02 0.  1.
    10030    2    1    2    0    0  0.00000000000E+00  0.00000000000E+00  0.23363970772E+03  0.83344539649E+03  0.80002732197E+03 0.  0.
        5    1    3    3  502    0 -0.23561193993E+03 -0.39255222556E+02 -0.21741644608E+03  0.32302625243E+03  0.46999998093E+01 0.  1.
       -5    1    3    3    0  502  0.23561193993E+03  0.39255222556E+02  0.45105615380E+03  0.51041914405E+03  0.46999998093E+01 0. -1.
</event>
<event>
 5   0  0.6593118E-04  0.8007090E+03  0.7818609E-02  0.9558991E-01
        2   -1    0    0  501    0  0.00000000000E+00  0.00000000000E+00  0.19616144307E+04  0.19616144307E+04  0.25500000920E-02 0. -1.
       -2   -1    0    0    0  501  0.00000000000E+00  0.00000000000E+00 -0.81710114843E+02  0.81710114883E+02  0.25500000920E-02 0.  1.
    10030    2    1    2    0    0  0.00000000000E+00  0.00000000000E+00  0.18799043159E+04  0.20433245456E+04  0.80070903693E+03 0.  0.
        1    1    3    3  502    0 -0.90045094137E+02 -0.10232004538E+03 -0.20679939727E+02  0.13785924197E+03  0.50400001928E-02 0.  1.
       -1    1    3    3    0  502  0.90045094137E+02  0.10232004538E+03  0.19005842556E+04  0.19054653036E+04  0.50400001928E-02 0. -1.
</event>
<event>
 5   0  0.4392552E-04  0.8000141E+03  0.7818609E-02  0.9559997E-01
        1   -1    0    0  501    0  0.00000000000E+00  0.00000000000E+00  0.38507193205E+03  0.38507193208E+03  0.50400001928E-02 0.  1.
       -1   -1    0    0    0  501  0.00000000000E+00  0.00000000000E+00 -0.41552139789E+03  0.41552139792E+03  0.50400001928E-02 0. -1.
    10030    2    1    2    0    0  0.00000000000E+00  0.00000000000E+00 -0.30449465838E+02  0.80059333000E+03  0.80001406867E+03 0.  0.
        5    1    3    3  502    0 -0.60197712975E+02  0.36329595442E+03 -0.17146536291E+03  0.40623906240E+03  0.46999998093E+01 0. -1.
       -5    1    3    3    0  502  0.60197712975E+02 -0.36329595442E+03  0.14101589708E+03  0.39435426760E+03  0.46999998093E+01 0.  1.
</event>
<event>
 5   0  0.4086111E-04  0.7997723E+03  0.7818609E-02  0.9560347E-01
        1   -1    0    0  501    0  0.00000000000E+00  0.00000000000E+00  0.16087526799E+04  0.16087526799E+04  0.50400001928E-02 0.  1.
       -1   -1    0    0    0  501  0.00000000000E+00  0.00000000000E+00 -0.99399329591E+02  0.99399329719E+02  0.50400001928E-02 0. -1.
    10030    2    1    2    0    0  0.00000000000E+00  0.00000000000E+00  0.15093533503E+04  0.17081520096E+04  0.79977231253E+03 0.  0.
        3    1    3    3  502    0  0.33463431868E+03  0.21253151925E+03  0.86686511553E+03  0.95320769649E+03  0.10100000352E+00 0.  1.
       -3    1    3    3    0  502 -0.33463431868E+03 -0.21253151925E+03  0.64248823476E+03  0.75494431312E+03  0.10100000352E+00 0. -1.
</event>
<event>
 5   0  0.4169155E-04  0.7999203E+03  0.7818609E-02  0.9560132E-01
       -1   -1    0    0    0  501  0.00000000000E+00  0.00000000000E+00  0.16310379627E+03  0.16310379635E+03  0.50400001928E-02 0. -1.
        1   -1    0    0  501    0  0.00000000000E+00  0.00000000000E+00 -0.98077501083E+03  0.98077501084E+03  0.50400001928E-02 0.  1.
    10030    2    1    2    0    0  0.00000000000E+00  0.00000000000E+00 -0.81767121456E+03  0.11438788072E+04  0.79992031505E+03 0.  0.
        4    1    3    3  502    0 -0.19285233098E+03  0.15069447600E+03 -0.86118690124E+03  0.89529064467E+03  0.12699999809E+01 0.  1.
       -4    1    3    3    0  502  0.19285233098E+03 -0.15069447600E+03  0.43515686686E+02  0.24858816253E+03  0.12699999809E+01 0. -1.
</event>
<event>
 5   0  0.6672462E-04  0.7995953E+03  0.7818609E-02  0.9560603E-01
       -2   -1    0    0    0  501  0.00000000000E+00  0.00000000000E+00  0.36507926729E+03  0.36507926730E+03  0.25500000920E-02 0.  1.
        2   -1    0    0  501    0  0.00000000000E+00  0.00000000000E+00 -0.43781764008E+03  0.43781764009E+03  0.25500000920E-02 0. -1.
    10030    2    1    2    0    0  0.00000000000E+00  0.00000000000E+00 -0.72738372785E+02  0.80289690739E+03  0.79959525575E+03 0.  0.
        5    1    3    3  502    0 -0.16535449471E+03 -0.68539743098E+02 -0.39530322217E+03  0.43396605024E+03  0.46999998093E+01 0. -1.
       -5    1    3    3    0  502  0.16535449471E+03  0.68539743098E+02  0.32256484938E+03  0.36893085715E+03  0.46999998093E+01 0.  1.
</event>
<event>
 5   0  0.6593118E-04  0.7993991E+03  0.7818609E-02  0.9560887E-01
       -2   -1    0    0    0  501  0.00000000000E+00  0.00000000000E+00  0.21339794674E+03  0.21339794675E+03  0.25500000920E-02 0. -1.
        2   -1    0    0  501    0  0.00000000000E+00  0.00000000000E+00 -0.74864700889E+03  0.74864700889E+03  0.25500000920E-02 0.  1.
    10030    2    1    2    0    0  0.00000000000E+00  0.00000000000E+00 -0.53524906215E+03  0.96204495565E+03  0.79939911068E+03 0.  0.
        1    1    3    3  502    0 -0.21915085351E+03  0.15009117407E+03 -0.62706500648E+03  0.68100292180E+03  0.50400001928E-02 0.  1.
       -1    1    3    3    0  502  0.21915085351E+03 -0.15009117407E+03  0.91815944333E+02  0.28104203384E+03  0.50400001928E-02 0. -1.
</event>
<event>
 5   0  0.4104786E-04  0.7998516E+03  0.7818609E-02  0.9560232E-01
        1   -1    0    0  501    0  0.00000000000E+00  0.00000000000E+00  0.38539799921E+03  0.38539799924E+03  0.50400001928E-02 0. -1.
       -1   -1    0    0    0  501  0.00000000000E+00  0.00000000000E+00 -0.41500126497E+03  0.41500126500E+03  0.50400001928E-02 0.  1.
    10030    2    1    2    0    0  0.00000000000E+00  0.00000000000E+00 -0.29603265762E+02  0.80039926424E+03  0.79985162928E+03 0.  0.
        2    1    3    3  502    0 -0.35476826353E+03  0.11523504966E+03  0.12952270039E+03  0.39486170668E+03  0.25500000920E-02 0. -1.
       -2    1    3    3    0  502  0.35476826353E+03 -0.11523504966E+03 -0.15912596615E+03  0.40553755756E+03  0.25500000920E-02 0.  1.
</event>
<event>
 5   0  0.4392552E-04  0.7994384E+03  0.7818609E-02  0.9560830E-01
       -1   -1    0    0    0  501  0.00000000000E+00  0.00000000000E+00  0.38512892580E+03  0.38512892583E+03  0.50400001928E-02 0.  1.
        1   -1    0    0  501    0  0.00000000000E+00  0.00000000000E+00 -0.41486223610E+03  0.41486223613E+03  0.50400001928E-02 0. -1.
    10030    2    1    2    0    0  0.00000000000E+00  0.00000000000E+00 -0.29733310306E+02  0.79999116196E+03  0.79943842132E+03 0.  0.
        5    1    3    3  502    0  0.35143542718E+03  0.11757134241E+02 -0.20501979414E+03  0.40706301192E+03  0.46999998093E+01 0. -1.
       -5    1    3    3    0  502 -0.35143542718E+03 -0.11757134241E+02  0.17528648383E+03  0.39292815004E+03  0.46999998093E+01 0.  1.
</event>
<event>
 5   0  0.6970013E-04  0.8001056E+03  0.7818609E-02  0.9559864E-01
        2   -1    0    0  501    0  0.00000000000E+00  0.00000000000E+00  0.19178008785E+04  0.19178008785E+04  0.25500000920E-02 0. -1.
       -2   -1    0    0    0  501  0.00000000000E+00  0.00000000000E+00 -0.83450915570E+02  0.83450915609E+02  0.25500000920E-02 0.  1.
    10030    2    1    2    0    0  0.00000000000E+00  0.00000000000E+00  0.18343499629E+04  0.20012517941E+04  0.80010559111E+03 0.  0.
        3    1    3    3  502    0 -0.30480915114E+03  0.51863707482E+02  0.15521328156E+04  0.15826290627E+04  0.10100000352E+00 0. -1.
       -3    1    3    3    0  502  0.30480915114E+03 -0.51863707482E+02  0.28221714733E+03  0.41862273137E+03  0.10100000352E+00 0.  1.
</event>
<event>
 5   0  0.6593118E-04  0.7999807E+03  0.7818609E-02  0.9560045E-01
        2   -1    0    0  501    0  0.00000000000E+00  0.00000000000E+00  0.51102686530E+03  0.51102686531E+03  0.25500000920E-02 0.  1.
       -2   -1    0    0    0  501  0.00000000000E+00  0.00000000000E+00 -0.31307994379E+03  0.31307994380E+03  0.25500000920E-02 0. -1.
    10030    2    1    2    0    0  0.00000000000E+00  0.00000000000E+00  0.19794692151E+03  0.82410680910E+03  0.79998065544E+03 0.  0.
        1    1    3    3  502    0 -0.33232711898E+03  0.19750271383E+03  0.20475235403E+03  0.43746104110E+03  0.50400001928E-02 0.  1.
       -1    1    3    3    0  502  0.33232711898E+03 -0.19750271383E+03 -0.68054325108E+01  0.38664576800E+03  0.50400001928E-02 0. -1.
</event>
<event>
 5   0  0.2736375E-04  0.7999819E+03  0.7818609E-02  0.9560043E-01
       -3   -1    0    0    0  501  0.00000000000E+00  0.00000000000E+00  0.43046816557E+03  0.43046817742E+03  0.10100000352E+00 0. -1.
        3   -1    0    0  501    0  0.00000000000E+00  0.00000000000E+00 -0.37167154451E+03  0.37167155823E+03  0.10100000352E+00 0.  1.
    10030    2    1    2    0    0  0.00000000000E+00  0.00000000000E+00  0.58796621064E+02  0.80213973566E+03  0.79998194534E+03 0.  0.
        4    1    3    3  502    0 -0.45838440081E+01  0.16741184475E+03 -0.33482163615E+03  0.37437264634E+03  0.12699999809E+01 0.  1.
       -4    1    3    3    0  502  0.45838440081E+01 -0.16741184475E+03  0.39361825722E+03  0.42776708932E+03  0.12699999809E+01 0. -1.
</event>
<event>
 5   0  0.4392552E-04  0.7996136E+03  0.7818609E-02  0.9560577E-01
       -1   -1    0    0    0  501  0.00000000000E+00  0.00000000000E+00  0.24265326578E+03  0.24265326583E+03  0.50400001928E-02 0. -1.
        1   -1    0    0  501    0  0.00000000000E+00  0.00000000000E+00 -0.65874025400E+03  0.65874025402E+03  0.50400001928E-02 0.  1.
    10030    2    1    2    0    0  0.00000000000E+00  0.00000000000E+00 -0.41608698822E+03  0.90139351985E+03  0.79961359160E+03 0.  0.
        5    1    3    3  502    0 -0.66092811535E+02 -0.37262402487E+02 -0.65051831925E+03  0.65494497483E+03  0.46999998093E+01 0.  1.
       -5    1    3    3    0  502  0.66092811535E+02  0.37262402487E+02  0.23443133103E+03  0.24644854502E+03  0.46999998093E+01 0. -1.
</event>
<event>
 5   0  0.4104786E-04  0.7998689E+03  0.7818609E-02  0.9560207E-01
        1   -1    0    0  501    0  0.00000000000E+00  0.00000000000E+00  0.51090638391E+03  0.51090638393E+03  0.50400001928E-02 0. -1.
       -1   -1    0    0    0  501  0.00000000000E+00  0.00000000000E+00 -0.31306632331E+03  0.31306632336E+03  0.50400001928E-02 0.  1.
    10030    2    1    2    0    0  0.00000000000E+00  0.00000000000E+00  0.19784006059E+03  0.82397270729E+03  0.79986894725E+03 0.  0.
        2    1    3    3  502    0 -0.59919675388E+02 -0.15172558112E+03 -0.27723651152E+03  0.32166924439E+03  0.25500000920E-02 0.  1.
       -2    1    3    3    0  502  0.59919675388E+02  0.15172558112E+03  0.47507657211E+03  0.50230346289E+03  0.25500000920E-02 0. -1.
</event>
<event>
 5   0  0.4392552E-04  0.8006118E+03  0.7818609E-02  0.9559132E-01
       -1   -1    0    0    0  501  0.00000000000E+00  0.00000000000E+00  0.24719998949E+03  0.24719998954E+03  0.50400001928E-02 0.  1.
        1   -1    0    0  501    0  0.00000000000E+00  0.00000000000E+00 -0.64823955796E+03  0.64823955798E+03  0.50400001928E-02 0. -1.
    10030    2    1    2    0    0  0.00000000000E+00  0.00000000000E+00 -0.40103956847E+03  0.89543954752E+03  0.80061179594E+03 0.  0.
        5    1    3    3  502    0 -0.99547561011E+02  0.38735913793E+03 -0.21875774004E+03  0.45588798785E+03  0.46999998093E+01 0. -1.
       -5    1    3    3    0  502  0.99547561011E+02 -0.38735913793E+03 -0.18228182843E+03  0.43955155967E+03  0.46999998093E+01 0.  1.
</event>
<event>
 5   0  0.4104786E-04  0.8002574E+03  0.7818609E-02  0.9559645E-01
        1   -1    0    0  501    0  0.00000000000E+00  0.00000000000E+00  0.92054565035E+02  0.92054565173E+02  0.50400001928E-02 0. -1.
       -1   -1    0    0    0  501  0.00000000000E+00  0.00000000000E+00 -0.17392180648E+04  0.17392180648E+04  0.50400001928E-02 0.  1.
    10030    2    1    2    0    0  0.00000000000E+00  0.00000000000E+00 -0.16471634998E+04  0.18312726300E+04  0.80025736508E+03 0.  0.
        2    1    3    3  502    0  0.16828655285E+03 -0.18044240707E+02 -0.16532704780E+04  0.16619113189E+04  0.25500000920E-02 0.  1.
       -2    1    3    3    0  502 -0.16828655285E+03  0.18044240707E+02  0.61069782521E+01  0.16936131105E+03  0.25500000920E-02 0. -1.
</event>
<event>
 5   0  0.4392552E-04  0.7999393E+03  0.7818609E-02  0.9560105E-01
        1   -1    0    0  501    0  0.00000000000E+00  0.00000000000E+00  0.60689768621E+03  0.60689768623E+03  0.50400001928E-02 0.  1.
       -1   -1    0    0    0  501  0.00000000000E+00  0.00000000000E+00 -0.26359588691E+03  0.26359588696E+03  0.50400001928E-02 0. -1.
    10030    2    1    2    0    0  0.00000000000E+00  0.00000000000E+00  0.34330179930E+03  0.87049357319E+03  0.79993933243E+03 0.  0.
        5    1    3    3  502    0 -0.15097756750E+03 -0.21470974388E+03 -0.15672426177E+03  0.30574349417E+03  0.46999998093E+01 0. -1.
       -5    1    3    3    0  502  0.15097756750E+03  0.21470974388E+03  0.50002606106E+03  0.56475007901E+03  0.46999998093E+01 0.  1.
</event>
<event>
 5   0  0.2736375E-04  0.8001531E+03  0.7818609E-02  0.9559796E-01
       -4   -1    0    0    0  501  0.00000000000E+00  0.00000000000E+00  0.20671907471E+03  0.20672297586E+03  0.12699999809E+01 0. -1.
        4   -1    0    0  501    0  0.00000000000E+00  0.00000000000E+00 -0.77428174985E+03  0.77428279139E+03  0.12699999809E+01 0.  1.
    10030    2    1    2    0    0  0.00000000000E+00  0.00000000000E+00 -0.56756267514E+03  0.98100576725E+03  0.80015306359E+03 0.  0.
        4    1    3    3  502    0  0.34677326867E+03  0.84392905177E+02 -0.62126223472E+02  0.36226391326E+03  0.12699999809E+01 0. -1.
       -4    1    3    3    0  502 -0.34677326867E+03 -0.84392905177E+02 -0.50543645167E+03  0.61874185399E+03  0.12699999809E+01 0.  1.
</event>
<event>
 5   0  0.6970013E-04  0.8001411E+03  0.7818609E-02  0.9559813E-01
       -2   -1    0    0    0  501  0.00000000000E+00  0.00000000000E+00  0.30787459945E+03  0.30787459946E+03  0.25500000920E-02 0.  1.
        2   -1    0    0  501    0  0.00000000000E+00  0.00000000000E+00 -0.51987539323E+03  0.51987539324E+03  0.25500000920E-02 0. -1.
    10030    2    1    2    0    0  0.00000000000E+00  0.00000000000E+00 -0.21200079378E+03  0.82774999270E+03  0.80014105872E+03 0.  0.
        3    1    3    3  502    0 -0.97541672888E+02  0.26671220463E+03  0.18551469244E+03  0.33921304421E+03  0.10100000352E+00 0.  1.
       -3    1    3    3    0  502  0.97541672888E+02 -0.26671220463E+03 -0.39751548622E+03  0.48853694849E+03  0.10100000352E+00 0. -1.
</event>
<event>
 5   0  0.7133039E-04  0.7997332E+03  0.7818609E-02  0.9560403E-01
        2   -1    0    0  501    0  0.00000000000E+00  0.00000000000E+00  0.29250121349E+03  0.29250121350E+03  0.25500000920E-02 0.  1.
       -2   -1    0    0    0  501  0.00000000000E+00  0.00000000000E+00 -0.54664150716E+03  0.54664150716E+03  0.25500000920E-02 0. -1.
    10030    2    1    2    0    0  0.00000000000E+00  0.00000000000E+00 -0.25414029367E+03  0.83914272066E+03  0.79973321600E+03 0.  0.
        2    1    3    3  502    0 -0.17211204967E+03 -0.17956008128E+03 -0.45559468582E+03  0.51906733492E+03  0.25500000920E-02 0. -1.
       -2    1    3    3    0  502  0.17211204967E+03  0.17956008128E+03  0.20145439215E+03  0.32007538574E+03  0.25500000920E-02 0.  1.
</event>
<event>
 5   0  0.6593118E-04  0.8001739E+03  0.7818609E-02  0.9559765E-01
       -2   -1    0    0    0  501  0.00000000000E+00  0.00000000000E+00  0.88790832597E+02  0.88790832634E+02  0.25500000920E-02 0.  1.
        2   -1    0    0  501    0  0.00000000000E+00  0.00000000000E+00 -0.18027715481E+04  0.18027715481E+04  0.25500000920E-02 0. -1.
    10030    2    1    2    0    0  0.00000000000E+00  0.00000000000E+00 -0.17139807155E+04  0.18915623807E+04  0.80017394802E+03 0.  0.
        1    1    3    3  502    0 -0.36553200628E+03 -0.13714529817E+03 -0.10637114661E+04  0.11330951255E+04  0.50400001928E-02 0. -1.
       -1    1    3    3    0  502  0.36553200628E+03  0.13714529817E+03 -0.65026924939E+03  0.75846725516E+03  0.50400001928E-02 0.  1.
</event>
<event>
 5   0  0.4104786E-04  0.7991356E+03  0.7818609E-02  0.9561269E-01
       -1   -1    0    0    0  501  0.00000000000E+00  0.00000000000E+00  0.23024587308E+03  0.23024587313E+03  0.50400001928E-02 0.  1.
        1   -1    0    0  501    0  0.00000000000E+00  0.00000000000E+00 -0.69340834926E+03  0.69340834928E+03  0.50400001928E-02 0. -1.
    10030    2    1    2    0    0  0.00000000000E+00  0.00000000000E+00 -0.46316247618E+03  0.92365422241E+03  0.79913555999E+03 0.  0.
        2    1    3    3  502    0  0.32054126915E+03 -0.23850540214E+03 -0.22605276976E+03  0.45905488431E+03  0.25500000920E-02 0.  1.
       -2    1    3    3    0  502 -0.32054126915E+03  0.23850540214E+03 -0.23710970642E+03  0.46459933810E+03  0.25500000920E-02 0. -1.
</event>
<event>
 5   0  0.6801147E-04  0.8011405E+03  0.7818609E-02  0.9558368E-01
        2   -1    0    0  501    0  0.00000000000E+00  0.00000000000E+00  0.35191146424E+03  0.35191146425E+03  0.25500000920E-02 0. -1.
       -2   -1    0    0    0  501  0.00000000000E+00  0.00000000000E+00 -0.45595713509E+03  0.45595713509E+03  0.25500000920E-02 0.  1.
    10030    2    1    2    0    0  0.00000000000E+00  0.00000000000E+00 -0.10404567085E+03  0.80786859934E+03  0.80114054458E+03 0.  0.
        4    1    3    3  502    0 -0.23561892324E+03 -0.17734258635E+03 -0.32538663341E+03  0.43914091591E+03  0.12699999809E+01 0.  1.
       -4    1    3    3    0  502  0.23561892324E+03  0.17734258635E+03  0.22134096256E+03  0.36872768343E+03  0.12699999809E+01 0. -1.
</event>
<event>
 5   0  0.4169155E-04  0.8001956E+03  0.7818609E-02  0.9559734E-01
       -1   -1    0    0    0  501  0.00000000000E+00  0.00000000000E+00  0.18084419178E+03  0.18084419185E+03  0.50400001928E-02 0.  1.
        1   -1    0    0  501    0  0.00000000000E+00  0.00000000000E+00 -0.88517221728E+03  0.88517221730E+03  0.50400001928E-02 0. -1.
    10030    2    1    2    0    0  0.00000000000E+00  0.00000000000E+00 -0.70432802550E+03  0.10660164091E+04  0.80019561175E+03 0.  0.
        4    1    3    3  502    0 -0.28393125205E+03  0.16702955252E+03 -0.65466556476E+03  0.73287409689E+03  0.12699999809E+01 0. -1.
       -4    1    3    3    0  502  0.28393125205E+03 -0.16702955252E+03 -0.49662460741E+02  0.33314231226E+03  0.12699999809E+01 0.  1.
</event>
<event>
 5   0  0.4104786E-04  0.7993699E+03  0.7818609E-02  0.9560930E-01
       -1   -1    0    0    0  501  0.00000000000E+00  0.00000000000E+00  0.45741449840E+03  0.45741449843E+03  0.50400001928E-02 0.  1.
        1   -1    0    0  501    0  0.00000000000E+00  0.00000000000E+00 -0.34924134208E+03  0.34924134212E+03  0.50400001928E-02 0. -1.
    10030    2    1    2    0    0  0.00000000000E+00  0.00000000000E+00  0.10817315632E+03  0.80665584054E+03  0.79936988518E+03 0.  0.
        2    1    3    3  502    0  0.35974968189E+03  0.51108130479E+02 -0.11391260731E+03  0.38079910285E+03  0.25500000920E-02 0. -1.
       -2    1    3    3    0  502 -0.35974968189E+03 -0.51108130479E+02  0.22208576363E+03  0.42585673769E+03  0.25500000920E-02 0.  1.
</event>
<event>
 5   0  0.6970013E-04  0.8003205E+03  0.7818609E-02  0.9559553E-01
        2   -1    0    0  501    0  0.00000000000E+00  0.00000000000E+00  0.21728972261E+04  0.21728972262E+04  0.25500000920E-02 0. -1.
       -2   -1    0    0    0  501  0.00000000000E+00  0.00000000000E+00 -0.73693412446E+02  0.73693412490E+02  0.25500000920E-02 0.  1.
    10030    2    1    2    0    0  0.00000000000E+00  0.00000000000E+00  0.20992038137E+04  0.22465906386E+04  0.80032046467E+03 0.  0.
        3    1    3    3  502    0 -0.26390090708E+03  0.28804432278E+03  0.80625604956E+03  0.89591408533E+03  0.10100000352E+00 0.  1.
       -3    1    3    3    0  502  0.26390090708E+03 -0.28804432278E+03  0.12929477641E+04  0.13506765533E+04  0.10100000352E+00 0. -1.
</event>
<event>
 5   0  0.4086111E-04  0.7963438E+03  0.7818609E-02  0.9565324E-01
       -1   -1    0    0    0  501  0.00000000000E+00  0.00000000000E+00  0.19948884571E+03  0.19948884577E+03  0.50400001928E-02 0.  1.
        1   -1    0    0  501    0  0.00000000000E+00  0.00000000000E+00 -0.79473542487E+03  0.79473542489E+03  0.50400001928E-02 0. -1.
    10030    2    1    2    0    0  0.00000000000E+00  0.00000000000E+00 -0.59524657916E+03  0.99422427066E+03  0.79634377649E+03 0.  0.
        3    1    3    3  502    0  0.12889775986E+03  0.37457971722E+03 -0.24743095305E+03  0.46706175585E+03  0.10100000352E+00 0. -1.
       -3    1    3    3    0  502 -0.12889775986E+03 -0.37457971722E+03 -0.34781562611E+03  0.52716251481E+03  0.10100000352E+00 0.  1.
</event>
<event>
 5   0  0.6970013E-04  0.7999327E+03  0.7818609E-02  0.9560115E-01
       -2   -1    0    0    0  501  0.00000000000E+00  0.00000000000E+00  0.64593714516E+02  0.64593714567E+02  0.25500000920E-02 0.  1.
        2   -1    0    0  501    0  0.00000000000E+00  0.00000000000E+00 -0.24766041591E+04  0.24766041591E+04  0.25500000920E-02 0. -1.
    10030    2    1    2    0    0  0.00000000000E+00  0.00000000000E+00 -0.24120104446E+04  0.25411978737E+04  0.79993265239E+03 0.  0.
        3    1    3    3  502    0  0.50257980801E+01  0.17114292764E+03 -0.23542986563E+04  0.23605163278E+04  0.10100000352E+00 0. -1.
       -3    1    3    3    0  502 -0.50257980801E+01 -0.17114292764E+03 -0.57711788289E+02  0.18068154592E+03  0.10100000352E+00 0.  1.
</event>
<event>
 5   0  0.2736375E-04  0.8012214E+03  0.7818609E-02  0.9558251E-01
       -3   -1    0    0    0  501  0.00000000000E+00  0.00000000000E+00  0.52896732238E+03  0.52896733202E+03  0.10100000352E+00 0.  1.
        3   -1    0    0  501    0  0.00000000000E+00  0.00000000000E+00 -0.30340047495E+03  0.30340049176E+03  0.10100000352E+00 0. -1.
    10030    2    1    2    0    0  0.00000000000E+00  0.00000000000E+00  0.22556684743E+03  0.83236782378E+03  0.80122143719E+03 0.  0.
        1    1    3    3  502    0  0.34472029954E+03  0.15687718467E+03  0.24842074726E+03  0.45294083905E+03  0.50400001928E-02 0. -1.
       -1    1    3    3    0  502 -0.34472029954E+03 -0.15687718467E+03 -0.22853899830E+02  0.37942698474E+03  0.50400001928E-02 0.  1.
</event>
<event>
 5   0  0.4169155E-04  0.7988267E+03  0.7818609E-02  0.9561717E-01
        1   -1    0    0  501    0  0.00000000000E+00  0.00000000000E+00  0.97300142229E+03  0.97300142230E+03  0.50400001928E-02 0.  1.
       -1   -1    0    0    0  501  0.00000000000E+00  0.00000000000E+00 -0.16395764771E+03  0.16395764779E+03  0.50400001928E-02 0. -1.
    10030    2    1    2    0    0  0.00000000000E+00  0.00000000000E+00  0.80904377458E+03  0.11369590701E+04  0.79882670077E+03 0.  0.
        4    1    3    3  502    0 -0.22037612532E+03 -0.23452004007E+03  0.74122499107E+03  0.80807263664E+03  0.12699999809E+01 0.  1.
       -4    1    3    3    0  502  0.22037612532E+03  0.23452004007E+03  0.67818783509E+02  0.32888643344E+03  0.12699999809E+01 0. -1.
</event>
<event>
 5   0  0.4392552E-04  0.8001710E+03  0.7818609E-02  0.9559770E-01
        1   -1    0    0  501    0  0.00000000000E+00  0.00000000000E+00  0.59558855545E+03  0.59558855547E+03  0.50400001928E-02 0. -1.
       -1   -1    0    0    0  501  0.00000000000E+00  0.00000000000E+00 -0.26875668765E+03  0.26875668770E+03  0.50400001928E-02 0.  1.
    10030    2    1    2    0    0  0.00000000000E+00  0.00000000000E+00  0.32683186780E+03  0.86434524317E+03  0.80017100021E+03 0.  0.
        5    1    3    3  502    0  0.80509883855E+02 -0.54514501275E+02 -0.25576963160E+03  0.27366743814E+03  0.46999998093E+01 0.  1.
       -5    1    3    3    0  502 -0.80509883855E+02  0.54514501275E+02  0.58260149940E+03  0.59067780503E+03  0.46999998093E+01 0. -1.
</event>
<event>
 5   0  0.6672462E-04  0.8006446E+03  0.7818609E-02  0.9559085E-01
        2   -1    0    0  501    0  0.00000000000E+00  0.00000000000E+00  0.20154687311E+03  0.20154687313E+03  0.25500000920E-02 0. -1.
       -2   -1    0    0    0  501  0.00000000000E+00  0.00000000000E+00 -0.79513980124E+03  0.79513980125E+03  0.25500000920E-02 0.  1.
    10030    2    1    2    0    0  0.00000000000E+00  0.00000000000E+00 -0.59359292813E+03  0.99668667437E+03  0.80064459191E+03 0.  0.
        5    1    3    3  502    0 -0.39304497746E+03 -0.61086163146E+02 -0.24084749484E+03  0.46502202035E+03  0.46999998093E+01 0. -1.
       -5    1    3    3    0  502  0.39304497746E+03  0.61086163146E+02 -0.35274543329E+03  0.53166465403E+03  0.46999998093E+01 0.  1.
</event>
<event>
 5   0  0.4087283E-04  0.7995209E+03  0.7818609E-02  0.9560711E-01
        1   -1    0    0  501    0  0.00000000000E+00  0.00000000000E+00  0.85826616906E+03  0.85826616908E+03  0.50400001928E-02 0. -1.
       -1   -1    0    0    0  501  0.00000000000E+00  0.00000000000E+00 -0.18619911100E+03  0.18619911106E+03  0.50400001928E-02 0.  1.
    10030    2    1    2    0    0  0.00000000000E+00  0.00000000000E+00  0.67206705807E+03  0.10444652801E+04  0.79952085081E+03 0.  0.
        1    1    3    3  502    0 -0.27870361729E+03 -0.23419835526E+03  0.12025073325E+03  0.38338598667E+03  0.50400001928E-02 0.  1.
       -1    1    3    3    0  502  0.27870361729E+03  0.23419835526E+03  0.55181632482E+03  0.66107929347E+03  0.50400001928E-02 0. -1.
</event>
<event>
 5   0  0.6672462E-04  0.7990661E+03  0.7818609E-02  0.9561370E-01
       -2   -1    0    0    0  501  0.00000000000E+00  0.00000000000E+00  0.84878370882E+02  0.84878370920E+02  0.25500000920E-02 0. -1.
        2   -1    0    0  501    0  0.00000000000E+00  0.00000000000E+00 -0.18806517616E+04  0.18806517616E+04  0.25500000920E-02 0.  1.
    10030    2    1    2    0    0  0.00000000000E+00  0.00000000000E+00 -0.17957733907E+04  0.19655301325E+04  0.79906609929E+03 0.  0.
        5    1    3    3  502    0 -0.14899682804E+03  0.34908027626E+03 -0.59117741572E+03  0.70254531590E+03  0.46999998093E+01 0. -1.
       -5    1    3    3    0  502  0.14899682804E+03 -0.34908027626E+03 -0.12045959750E+04  0.12629848166E+04  0.46999998093E+01 0.  1.
</event>
<event>
 5   0  0.4104786E-04  0.8002594E+03  0.7818609E-02  0.9559642E-01
       -1   -1    0    0    0  501  0.00000000000E+00  0.00000000000E+00  0.13192199147E+03  0.13192199157E+03  0.50400001928E-02 0. -1.
        1   -1    0    0  501    0  0.00000000000E+00  0.00000000000E+00 -0.12136244740E+04  0.12136244740E+04  0.50400001928E-02 0.  1.
    10030    2    1    2    0    0  0.00000000000E+00  0.00000000000E+00 -0.10817024825E+04  0.13455464656E+04  0.80025935190E+03 0.  0.
        2    1    3    3  502    0  0.30771376169E+03 -0.23306246181E+03 -0.36372288294E+03  0.53037741828E+03  0.25500000920E-02 0.  1.
       -2    1    3    3    0  502 -0.30771376169E+03  0.23306246181E+03 -0.71797959958E+03  0.81516904729E+03  0.25500000920E-02 0. -1.
</event>
<event>
 5   0  0.4087283E-04  0.7999835E+03  0.7818609E-02  0.9560041E-01
        1   -1    0    0  501    0  0.00000000000E+00  0.00000000000E+00  0.89612175887E+03  0.89612175888E+03  0.50400001928E-02 0. -1.
       -1   -1    0    0    0  501  0.00000000000E+00  0.00000000000E+00 -0.17853982076E+03  0.17853982083E+03  0.50400001928E-02 0.  1.
    10030    2    1    2    0    0  0.00000000000E+00  0.00000000000E+00  0.71758193811E+03  0.10746615797E+04  0.79998354546E+03 0.  0.
        1    1    3    3  502    0  0.74909957776E+00 -0.13217728618E+03  0.86593539460E+03  0.87596546951E+03  0.50400001928E-02 0. -1.
       -1    1    3    3    0  502 -0.74909957776E+00  0.13217728618E+03 -0.14835345649E+03  0.19869611020E+03  0.50400001928E-02 0.  1.
</event>
<event>
 5   0  0.2736375E-04  0.8009882E+03  0.7818609E-02  0.9558588E-01
        3   -1    0    0  501    0  0.00000000000E+00  0.00000000000E+00  0.96857800759E+03  0.96857801286E+03  0.10100000352E+00 0. -1.
       -3   -1    0    0    0  501  0.00000000000E+00  0.00000000000E+00 -0.16559895927E+03  0.16559899007E+03  0.10100000352E+00 0.  1.
    10030    2    1    2    0    0  0.00000000000E+00  0.00000000000E+00  0.80297904832E+03  0.11341770029E+04  0.80098821585E+03 0.  0.
        1    1    3    3  502    0  0.17196817029E+03 -0.27221544023E+03  0.64258484338E+02  0.32833435752E+03  0.50400001928E-02 0. -1.
       -1    1    3    3    0  502 -0.17196817029E+03  0.27221544023E+03  0.73872056398E+03  0.80584264541E+03  0.50400001928E-02 0.  1.
</event>
<event>
 5   0  0.4086111E-04  0.8001833E+03  0.7818609E-02  0.9559752E-01
       -1   -1    0    0    0  501  0.00000000000E+00  0.00000000000E+00  0.39294202923E+03  0.39294202927E+03  0.50400001928E-02 0.  1.
        1   -1    0    0  501    0  0.00000000000E+00  0.00000000000E+00 -0.40737132146E+03  0.40737132150E+03  0.50400001928E-02 0. -1.
    10030    2    1    2    0    0  0.00000000000E+00  0.00000000000E+00 -0.14429292230E+02  0.80031335076E+03  0.80018326334E+03 0.  0.
        3    1    3    3  502    0 -0.28346634849E+03 -0.26444784079E+03 -0.10616238437E+03  0.40194065890E+03  0.10100000352E+00 0. -1.
       -3    1    3    3    0  502  0.28346634849E+03  0.26444784079E+03  0.91733092137E+02  0.39837269186E+03  0.10100000352E+00 0.  1.
</event>
<event>
 5   0  0.7133039E-04  0.7999605E+03  0.7818609E-02  0.9560074E-01
       -2   -1    0    0    0  501  0.00000000000E+00  0.00000000000E+00  0.28519218899E+03  0.28519218900E+03  0.25500000920E-02 0.  1.
        2   -1    0    0  501    0  0.00000000000E+00  0.00000000000E+00 -0.56096983715E+03  0.56096983716E+03  0.25500000920E-02 0. -1.
    10030    2    1    2    0    0  0.00000000000E+00  0.00000000000E+00 -0.27577764816E+03  0.84616202616E+03  0.79996053858E+03 0.  0.
        2    1    3    3  502    0  0.15556884917E+03  0.26533302948E+02 -0.52664574576E+03  0.54978307043E+03  0.25500000920E-02 0. -1.
       -2    1    3    3    0  502 -0.15556884917E+03 -0.26533302948E+02  0.25086809760E+03  0.29637895573E+03  0.25500000920E-02 0.  1.
</event>
<event>
 5   0  0.6593118E-04  0.8001063E+03  0.7818609E-02  0.9559863E-01
        2   -1    0    0  501    0  0.00000000000E+00  0.00000000000E+00  0.78640838212E+03  0.78640838212E+03  0.25500000920E-02 0.  1.
       -2   -1    0    0    0  501  0.00000000000E+00  0.00000000000E+00 -0.20351068683E+03  0.20351068685E+03  0.25500000920E-02 0. -1.
    10030    2    1    2    0    0  0.00000000000E+00  0.00000000000E+00  0.58289769528E+03  0.98991906897E+03  0.80010626791E+03 0.  0.
        1    1    3    3  502    0 -0.16797920701E+03 -0.10025042409E+03 -0.14030051792E+03  0.24073096367E+03  0.50400001928E-02 0. -1.
       -1    1    3    3    0  502  0.16797920701E+03  0.10025042409E+03  0.72319821320E+03  0.74918810530E+03  0.50400001928E-02 0.  1.
</event>
<event>
 5   0  0.4169155E-04  0.8005823E+03  0.7818609E-02  0.9559175E-01
        1   -1    0    0  501    0  0.00000000000E+00  0.00000000000E+00  0.74110414362E+03  0.74110414364E+03  0.50400001928E-02 0.  1.
       -1   -1    0    0    0  501  0.00000000000E+00  0.00000000000E+00 -0.21620847470E+03  0.21620847476E+03  0.50400001928E-02 0. -1.
    10030    2    1    2    0    0  0.00000000000E+00  0.00000000000E+00  0.52489566892E+03  0.95731261840E+03  0.80058227940E+03 0.  0.
        4    1    3    3  502    0  0.14672740024E+03 -0.30690584175E+03  0.51472778929E+03  0.61698171419E+03  0.12699999809E+01 0.  1.
       -4    1    3    3    0  502 -0.14672740024E+03  0.30690584175E+03  0.10167879629E+02  0.34033090421E+03  0.12699999809E+01 0. -1.
</event>
<event>
 5   0  0.4086111E-04  0.7999857E+03  0.7818609E-02  0.9560038E-01
        1   -1    0    0  501    0  0.00000000000E+00  0.00000000000E+00  0.65760993627E+03  0.65760993629E+03  0.50400001928E-02 0.  1.
       -1   -1    0    0    0  501  0.00000000000E+00  0.00000000000E+00 -0.24329665375E+03  0.24329665380E+03  0.50400001928E-02 0. -1.
    10030    2    1    2    0    0  0.00000000000E+00  0.00000000000E+00  0.41431328252E+03  0.90090659009E+03  0.79998574237E+03 0.  0.
        3    1    3    3  502    0  0.29549771170E+03 -0.11316085734E+03 -0.68394478718E+02  0.32373151248E+03  0.10100000352E+00 0. -1.
       -3    1    3    3    0  502 -0.29549771170E+03  0.11316085734E+03  0.48270776124E+03  0.57717507761E+03  0.10100000352E+00 0.  1.
</event>
<event>
 5   0  0.4087283E-04  0.8000571E+03  0.7818609E-02  0.9559934E-01
        1   -1    0    0  501    0  0.00000000000E+00  0.00000000000E+00  0.12209032658E+04  0.12209032658E+04  0.50400001928E-02 0. -1.
       -1   -1    0    0    0  501  0.00000000000E+00  0.00000000000E+00 -0.13106923096E+03  0.13106923106E+03  0.50400001928E-02 0.  1.
    10030    2    1    2    0    0  0.00000000000E+00  0.00000000000E+00  0.10898340348E+04  0.13519724969E+04  0.80005712845E+03 0.  0.
        1    1    3    3  502    0 -0.25289392973E+03 -0.81952721307E+02  0.10500400919E+04  0.10831693232E+04  0.50400001928E-02 0. -1.
       -1    1    3    3    0  502  0.25289392973E+03  0.81952721307E+02  0.39793942949E+02  0.26880317362E+03  0.50400001928E-02 0.  1.
</event>
<event>
 5   0  0.4104786E-04  0.7996443E+03  0.7818609E-02  0.9560532E-01
       -1   -1    0    0    0  501  0.00000000000E+00  0.00000000000E+00  0.18779769305E+03  0.18779769312E+03  0.50400001928E-02 0. -1.
        1   -1    0    0  501    0  0.00000000000E+00  0.00000000000E+00 -0.85122310990E+03  0.85122310992E+03  0.50400001928E-02 0.  1.
    10030    2    1    2    0    0  0.00000000000E+00  0.00000000000E+00 -0.66342541685E+03  0.10390208030E+04  0.79964426179E+03 0.  0.
        2    1    3    3  502    0  0.87600746704E+02 -0.35726301887E+03 -0.53528865368E+03  0.64949572611E+03  0.25500000920E-02 0.  1.
       -2    1    3    3    0  502 -0.87600746704E+02  0.35726301887E+03 -0.12813676318E+03  0.38952507693E+03  0.25500000920E-02 0. -1.
</event>
<event>
 5   0  0.6593118E-04  0.7999884E+03  0.7818609E-02  0.9560034E-01
       -2   -1    0    0    0  501  0.00000000000E+00  0.00000000000E+00  0.43145076883E+03  0.43145076883E+03  0.25500000920E-02 0. -1.
        2   -1    0    0  501    0  0.00000000000E+00  0.00000000000E+00 -0.37083104896E+03  0.37083104897E+03  0.25500000920E-02 0.  1.
    10030    2    1    2    0    0  0.00000000000E+00  0.00000000000E+00  0.60619719864E+02  0.80228181781E+03  0.79998835288E+03 0.  0.
        1    1    3    3  502    0  0.36318404473E+03  0.43555218346E+02  0.19262451785E+03  0.41340526399E+03  0.50400001928E-02 0. -1.
       -1    1    3    3    0  502 -0.36318404473E+03 -0.43555218346E+02 -0.13200479798E+03  0.38887655382E+03  0.50400001928E-02 0.  1.
</event>
<event>
 5   0  0.6970013E-04  0.7975373E+03  0.7818609E-02  0.9563589E-01
        2   -1    0    0  501    0  0.00000000000E+00  0.00000000000E+00  0.26891165145E+04  0.26891165145E+04  0.25500000920E-02 0. -1.
       -2   -1    0    0    0  501  0.00000000000E+00  0.00000000000E+00 -0.59133334889E+02  0.59133334944E+02  0.25500000920E-02 0.  1.
    10030    2    1    2    0    0  0.00000000000E+00  0.00000000000E+00  0.26299831796E+04  0.27482498494E+04  0.79753727809E+03 0.  0.
        3    1    3    3  502    0  0.19070041287E+03 -0.23514298464E+03  0.22093227263E+04  0.22299699078E+04  0.10100000352E+00 0. -1.
       -3    1    3    3    0  502 -0.19070041287E+03  0.23514298464E+03  0.42066045329E+03  0.51827994159E+03  0.10100000352E+00 0.  1.
</event>
<event>
 5   0  0.4086111E-04  0.8003854E+03  0.7818609E-02  0.9559459E-01
       -1   -1    0    0    0  501  0.00000000000E+00  0.00000000000E+00  0.76359638942E+03  0.76359638944E+03  0.50400001928E-02 0. -1.
        1   -1    0    0  501    0  0.00000000000E+00  0.00000000000E+00 -0.20973673703E+03  0.20973673709E+03  0.50400001928E-02 0.  1.
    10030    2    1    2    0    0  0.00000000000E+00  0.00000000000E+00  0.55385965239E+03  0.97333312653E+03  0.80038544506E+03 0.  0.
        3    1    3    3  502    0 -0.19840105022E+03  0.13535856512E+02  0.69925833192E+03  0.72698584656E+03  0.10100000352E+00 0. -1.
       -3    1    3    3    0  502  0.19840105022E+03 -0.13535856512E+02 -0.14539867953E+03  0.24634727997E+03  0.10100000352E+00 0.  1.
</event>
<event>
 5   0  0.6801147E-04  0.7995637E+03  0.7818609E-02  0.9560649E-01
       -2   -1    0    0    0  501  0.00000000000E+00  0.00000000000E+00  0.17669100635E+03  0.17669100637E+03  0.25500000920E-02 0.  1.
        2   -1    0    0  501    0  0.00000000000E+00  0.00000000000E+00 -0.90454823723E+03  0.90454823723E+03  0.25500000920E-02 0. -1.
    10030    2    1    2    0    0  0.00000000000E+00  0.00000000000E+00 -0.72785723088E+03  0.10812392436E+04  0.79956372689E+03 0.  0.
        4    1    3    3  502    0  0.33923474337E+03  0.15056468101E+03 -0.56484212897E+03  0.67586846194E+03  0.12699999809E+01 0. -1.
       -4    1    3    3    0  502 -0.33923474337E+03 -0.15056468101E+03 -0.16301510190E+03  0.40537078166E+03  0.12699999809E+01 0.  1.
</event>
<event>
 5   0  0.4086111E-04  0.8003277E+03  0.7818609E-02  0.9559543E-01
        1   -1    0    0  501    0  0.00000000000E+00  0.00000000000E+00  0.87895746774E+03  0.87895746776E+03  0.50400001928E-02 0.  1.
       -1   -1    0    0    0  501  0.00000000000E+00  0.00000000000E+00 -0.18218297924E+03  0.18218297931E+03  0.50400001928E-02 0. -1.
    10030    2    1    2    0    0  0.00000000000E+00  0.00000000000E+00  0.69677448851E+03  0.10611404471E+04  0.80032765825E+03 0.  0.
        3    1    3    3  502    0  0.32937327444E+03  0.15065058304E+03  0.57397721329E+03  0.67869890501E+03  0.10100000352E+00 0.  1.
       -3    1    3    3    0  502 -0.32937327444E+03 -0.15065058304E+03  0.12279727522E+03  0.38244154205E+03  0.10100000352E+00 0. -1.
</event>
<event>
 5   0  0.4086111E-04  0.8000186E+03  0.7818609E-02  0.9559990E-01
       -1   -1    0    0    0  501  0.00000000000E+00  0.00000000000E+00  0.10213952548E+03  0.10213952560E+03  0.50400001928E-02 0.  1.
        1   -1    0    0  501    0  0.00000000000E+00  0.00000000000E+00 -0.15665575060E+04  0.15665575060E+04  0.50400001928E-02 0. -1.
    10030    2    1    2    0    0  0.00000000000E+00  0.00000000000E+00 -0.14644179806E+04  0.16686970316E+04  0.80001860081E+03 0.  0.
        3    1    3    3  502    0 -0.11539316161E+03 -0.24717044354E+03 -0.13424632099E+04  0.13698964524E+04  0.10100000352E+00 0. -1.
       -3    1    3    3    0  502  0.11539316161E+03  0.24717044354E+03 -0.12195477060E+03  0.29880057929E+03  0.10100000352E+00 0.  1.
</event>
<event>
 5   0  0.6970013E-04  0.7998141E+03  0.7818609E-02  0.9560286E-01
        2   -1    0    0  501    0  0.00000000000E+00  0.00000000000E+00  0.11582194184E+04  0.11582194184E+04  0.25500000920E-02 0.  1.
       -2   -1    0    0    0  501  0.00000000000E+00  0.00000000000E+00 -0.13807888069E+03  0.13807888071E+03  0.25500000920E-02 0. -1.
    10030    2    1    2    0    0  0.00000000000E+00  0.00000000000E+00  0.10201405378E+04  0.12962982992E+04  0.79981408066E+03 0.  0.
        3    1    3    3  502    0  0.34938198084E+03  0.17088040066E+03  0.35926432919E+03  0.52947025251E+03  0.10100000352E+00 0.  1.
       -3    1    3    3    0  502 -0.34938198084E+03 -0.17088040066E+03  0.66087620857E+03  0.76682804664E+03  0.10100000352E+00 0. -1.
</event>
<event>
 5   0  0.4169155E-04  0.7990127E+03  0.7818609E-02  0.9561447E-01
       -1   -1    0    0    0  501  0.00000000000E+00  0.00000000000E+00  0.18548673075E+03  0.18548673082E+03  0.50400001928E-02 0.  1.
        1   -1    0    0  501    0  0.00000000000E+00  0.00000000000E+00 -0.86046750889E+03  0.86046750891E+03  0.50400001928E-02 0. -1.
    10030    2    1    2    0    0  0.00000000000E+00  0.00000000000E+00 -0.67498077814E+03  0.10459542397E+04  0.79901265369E+03 0.  0.
        4    1    3    3  502    0 -0.15762396507E+03  0.11136634505E+03 -0.79539130504E+03  0.81847218536E+03  0.12699999809E+01 0. -1.
       -4    1    3    3    0  502  0.15762396507E+03 -0.11136634505E+03  0.12041052690E+03  0.22748205437E+03  0.12699999809E+01 0.  1.
</event>
<event>
 5   0  0.4086111E-04  0.8007197E+03  0.7818609E-02  0.9558976E-01
        1   -1    0    0  501    0  0.00000000000E+00  0.00000000000E+00  0.14696050410E+04  0.14696050410E+04  0.50400001928E-02 0. -1.
       -1   -1    0    0    0  501  0.00000000000E+00  0.00000000000E+00 -0.10906876265E+03  0.10906876276E+03  0.50400001928E-02 0.  1.
    10030    2    1    2    0    0  0.00000000000E+00  0.00000000000E+00  0.13605362783E+04  0.15786738038E+04  0.80071968503E+03 0.  0.
        3    1    3    3  502    0 -0.23821636655E+03 -0.23165724070E+03  0.11205767489E+04  0.11688046778E+04  0.10100000352E+00 0.  1.
       -3    1    3    3    0  502  0.23821636655E+03  0.23165724070E+03  0.23995952949E+03  0.40986912601E+03  0.10100000352E+00 0. -1.
</event>
<event>
 5   0  0.7133039E-04  0.7996612E+03  0.7818609E-02  0.9560508E-01
        2   -1    0    0  501    0  0.00000000000E+00  0.00000000000E+00  0.37663628460E+03  0.37663628461E+03  0.25500000920E-02 0.  1.
       -2   -1    0    0    0  501  0.00000000000E+00  0.00000000000E+00 -0.42445333809E+03  0.42445333810E+03  0.25500000920E-02 0. -1.
    10030    2    1    2    0    0  0.00000000000E+00  0.00000000000E+00 -0.47817053491E+02  0.80108962271E+03  0.79966124891E+03 0.  0.
        2    1    3    3  502    0  0.18703696850E+03  0.33890594889E+03 -0.12420958507E+03  0.40653178327E+03  0.25500000920E-02 0. -1.
       -2    1    3    3    0  502 -0.18703696850E+03 -0.33890594889E+03  0.76392531577E+02  0.39455783944E+03  0.25500000920E-02 0.  1.
</event>
<event>
 5   0  0.4169155E-04  0.8001079E+03  0.7818609E-02  0.9559861E-01
        1   -1    0    0  501    0  0.00000000000E+00  0.00000000000E+00  0.53540261039E+03  0.53540261042E+03  0.50400001928E-02 0. -1.
       -1   -1    0    0    0  501  0.00000000000E+00  0.00000000000E+00 -0.29892117860E+03  0.29892117864E+03  0.50400001928E-02 0.  1.
    10030    2    1    2    0    0  0.00000000000E+00  0.00000000000E+00  0.23648143179E+03  0.83432378906E+03  0.80010794110E+03 0.  0.
        4    1    3    3  502    0 -0.44920760168E+02  0.26469834568E+03  0.42750153215E+03  0.50481903865E+03  0.12699999809E+01 0. -1.
       -4    1    3    3    0  502  0.44920760168E+02 -0.26469834568E+03 -0.19102010035E+03  0.32950475040E+03  0.12699999809E+01 0.  1.
</event>
<event>
 5   0  0.6593118E-04  0.8001631E+03  0.7818609E-02  0.9559781E-01
        2   -1    0    0  501    0  0.00000000000E+00  0.00000000000E+00  0.20676585267E+04  0.20676585267E+04  0.25500000920E-02 0. -1.
       -2   -1    0    0    0  501  0.00000000000E+00  0.00000000000E+00 -0.77413768397E+02  0.77413768439E+02  0.25500000920E-02 0.  1.
    10030    2    1    2    0    0  0.00000000000E+00  0.00000000000E+00  0.19902447583E+04  0.21450722951E+04  0.80016307926E+03 0.  0.
        1    1    3    3  502    0  0.33140330345E+03  0.25917447038E+02  0.39828966206E+03  0.51878176388E+03  0.50400001928E-02 0.  1.
       -1    1    3    3    0  502 -0.33140330345E+03 -0.25917447038E+02  0.15919550962E+04  0.16262905312E+04  0.50400001928E-02 0. -1.
</event>
<event>
 5   0  0.2736375E-04  0.7999743E+03  0.7818609E-02  0.9560054E-01
       -4   -1    0    0    0  501  0.00000000000E+00  0.00000000000E+00  0.56575960781E+03  0.56576103324E+03  0.12699999809E+01 0. -1.
        4   -1    0    0  501    0  0.00000000000E+00  0.00000000000E+00 -0.28278422304E+03  0.28278707485E+03  0.12699999809E+01 0.  1.
    10030    2    1    2    0    0  0.00000000000E+00  0.00000000000E+00  0.28297538477E+03  0.84854810809E+03  0.79997426418E+03 0.  0.
        4    1    3    3  502    0  0.33886076084E+03  0.67929899461E+02 -0.72101784457E+02  0.35304584221E+03  0.12699999809E+01 0. -1.
       -4    1    3    3    0  502 -0.33886076084E+03 -0.67929899461E+02  0.35507716923E+03  0.49550226587E+03  0.12699999809E+01 0.  1.
</event>
<event>
 5   0  0.4169155E-04  0.7999188E+03  0.7818609E-02  0.9560135E-01
        1   -1    0    0  501    0  0.00000000000E+00  0.00000000000E+00  0.84584175624E+03  0.84584175626E+03  0.50400001928E-02 0.  1.
       -1   -1    0    0    0  501  0.00000000000E+00  0.00000000000E+00 -0.18912228858E+03  0.18912228865E+03  0.50400001928E-02 0. -1.
    10030    2    1    2    0    0  0.00000000000E+00  0.00000000000E+00  0.65671946767E+03  0.10349640449E+04  0.79991881778E+03 0.  0.
        4    1    3    3  502    0 -0.20123454752E+02 -0.21995214264E+03  0.75977610747E+03  0.79123020977E+03  0.12699999809E+01 0.  1.
       -4    1    3    3    0  502  0.20123454752E+02  0.21995214264E+03 -0.10305663980E+03  0.24373383513E+03  0.12699999809E+01 0. -1.
</event>
<event>
 5   0  0.6970013E-04  0.8007121E+03  0.7818609E-02  0.9558987E-01
        2   -1    0    0  501    0  0.00000000000E+00  0.00000000000E+00  0.12796552923E+04  0.12796552923E+04  0.25500000920E-02 0. -1.
       -2   -1    0    0    0  501  0.00000000000E+00  0.00000000000E+00 -0.12525635035E+03  0.12525635038E+03  0.25500000920E-02 0.  1.
    10030    2    1    2    0    0  0.00000000000E+00  0.00000000000E+00  0.11543989420E+04  0.14049116427E+04  0.80071206221E+03 0.  0.
        3    1    3    3  502    0 -0.18545366065E+03 -0.12327022242E+03  0.11609660917E+04  0.11821298085E+04  0.10100000352E+00 0. -1.
       -3    1    3    3    0  502  0.18545366065E+03  0.12327022242E+03 -0.65671497045E+01  0.22278183418E+03  0.10100000352E+00 0.  1.
</event>
<event>
 5   0  0.4086111E-04  0.7999131E+03  0.7818609E-02  0.9560143E-01
       -1   -1    0    0    0  501  0.00000000000E+00  0.00000000000E+00  0.34703888369E+03  0.34703888372E+03  0.50400001928E-02 0.  1.
        1   -1    0    0  501    0  0.00000000000E+00  0.00000000000E+00 -0.46094326204E+03  0.46094326207E+03  0.50400001928E-02 0. -1.
    10030    2    1    2    0    0  0.00000000000E+00  0.00000000000E+00 -0.11390437835E+03  0.80798214579E+03  0.79991308310E+03 0.  0.
        3    1    3    3  502    0  0.61816295171E+02  0.19824789313E+03 -0.40222150044E+03  0.45266502747E+03  0.10100000352E+00 0. -1.
       -3    1    3    3    0  502 -0.61816295171E+02 -0.19824789313E+03  0.28831712209E+03  0.35531711832E+03  0.10100000352E+00 0.  1.
</event>
<event>
 5   0  0.7133039E-04  0.8000936E+03  0.7818609E-02  0.9559882E-01
       -2   -1    0    0    0  501  0.00000000000E+00  0.00000000000E+00  0.69601494182E+02  0.69601494229E+02  0.25500000920E-02 0. -1.
        2   -1    0    0  501    0  0.00000000000E+00  0.00000000000E+00 -0.22993390532E+04  0.22993390532E+04  0.25500000920E-02 0.  1.
    10030    2    1    2    0    0  0.00000000000E+00  0.00000000000E+00 -0.22297375590E+04  0.23689405474E+04  0.80009357900E+03 0.  0.
        2    1    3    3  502    0 -0.36761635413E+03  0.40393654139E+02 -0.66326705063E+03  0.75940543294E+03  0.25500000920E-02 0. -1.
       -2    1    3    3    0  502  0.36761635413E+03 -0.40393654139E+02 -0.15664705084E+04  0.16095351145E+04  0.25500000920E-02 0.  1.
</event>
<event>
 5   0  0.6970013E-04  0.7993558E+03  0.7818609E-02  0.9560950E-01
        2   -1    0    0  501    0  0.00000000000E+00  0.00000000000E+00  0.27450259648E+03  0.27450259649E+03  0.25500000920E-02 0.  1.
       -2   -1    0    0    0  501  0.00000000000E+00  0.00000000000E+00 -0.58193410246E+03  0.58193410246E+03  0.25500000920E-02 0. -1.
    10030    2    1    2    0    0  0.00000000000E+00  0.00000000000E+00 -0.30743150597E+03  0.85643669896E+03  0.79935579591E+03 0.  0.
        3    1    3    3  502    0 -0.19508617143E+03 -0.23412210973E+02  0.21918319343E+03  0.29436037163E+03  0.10100000352E+00 0.  1.
       -3    1    3    3    0  502  0.19508617143E+03  0.23412210973E+02 -0.52661469940E+03  0.56207632732E+03  0.10100000352E+00 0. -1.
</event>
<event>
 5   0  0.7133039E-04  0.7997614E+03  0.7818609E-02  0.9560362E-01
       -2   -1    0    0    0  501  0.00000000000E+00  0.00000000000E+00  0.16658509304E+03  0.16658509306E+03  0.25500000920E-02 0. -1.
        2   -1    0    0  501    0  0.00000000000E+00  0.00000000000E+00 -0.95989737446E+03  0.95989737447E+03  0.25500000920E-02 0.  1.
    10030    2    1    2    0    0  0.00000000000E+00  0.00000000000E+00 -0.79331228143E+03  0.11264824675E+04  0.79976144804E+03 0.  0.
        2    1    3    3  502    0 -0.34645598337E+03 -0.16460662779E+03 -0.55587223608E+03  0.67536733204E+03  0.25500000920E-02 0.  1.
       -2    1    3    3    0  502  0.34645598337E+03  0.16460662779E+03 -0.23744004534E+03  0.45111513549E+03  0.25500000920E-02 0. -1.
</event>
<event>
 5   0  0.7133039E-04  0.8001356E+03  0.7818609E-02  0.9559821E-01
        2   -1    0    0  501    0  0.00000000000E+00  0.00000000000E+00  0.18414854900E+04  0.18414854900E+04  0.25500000920E-02 0.  1.
       -2   -1    0    0    0  501  0.00000000000E+00  0.00000000000E+00 -0.86915830623E+02  0.86915830660E+02  0.25500000920E-02 0. -1.
    10030    2    1    2    0    0  0.00000000000E+00  0.00000000000E+00  0.17545696594E+04  0.19284013207E+04  0.80013559097E+03 0.  0.
        2    1    3    3  502    0 -0.33947199515E+03  0.19189290750E+03  0.66185272943E+03  0.76818823143E+03  0.25500000920E-02 0.  1.
       -2    1    3    3    0  502  0.33947199515E+03 -0.19189290750E+03  0.10927169300E+04  0.11602130893E+04  0.25500000920E-02 0. -1.
</event>
<event>
 5   0  0.4392552E-04  0.7999885E+03  0.7818609E-02  0.9560034E-01
        1   -1    0    0  501    0  0.00000000000E+00  0.00000000000E+00  0.10615876926E+04  0.10615876926E+04  0.50400001928E-02 0.  1.
       -1   -1    0    0    0  501  0.00000000000E+00  0.00000000000E+00 -0.15071330159E+03  0.15071330167E+03  0.50400001928E-02 0. -1.
    10030    2    1    2    0    0  0.00000000000E+00  0.00000000000E+00  0.91087439096E+03  0.12123009942E+04  0.79998846524E+03 0.  0.
        5    1    3    3  502    0  0.20549218790E+02 -0.11708055483E+03 -0.12328452575E+03  0.17132218479E+03  0.46999998093E+01 0. -1.
       -5    1    3    3    0  502 -0.20549218790E+02  0.11708055483E+03  0.10341589167E+04  0.10409788094E+04  0.46999998093E+01 0.  1.
</event>
<event>
 5   0  0.4169155E-04  0.7997597E+03  0.7818609E-02  0.9560365E-01
       -1   -1    0    0    0  501  0.00000000000E+00  0.00000000000E+00  0.85058287160E+03  0.85058287162E+03  0.50400001928E-02 0.  1.
        1   -1    0    0  501    0  0.00000000000E+00  0.00000000000E+00 -0.18799331602E+03  0.18799331609E+03  0.50400001928E-02 0. -1.
    10030    2    1    2    0    0  0.00000000000E+00  0.00000000000E+00  0.66258955558E+03  0.10385761877E+04  0.79975970048E+03 0.  0.
        4    1    3    3  502    0 -0.28357104508E+03  0.31559638860E+02  0.69512296055E+03  0.75140274926E+03  0.12699999809E+01 0.  1.
       -4    1    3    3    0  502  0.28357104508E+03 -0.31559638860E+02 -0.32533404973E+02  0.28717343845E+03  0.12699999809E+01 0. -1.
</event>
<event>
 5   0  0.7133039E-04  0.7979112E+03  0.7818609E-02  0.9563046E-01
       -2   -1    0    0    0  501  0.00000000000E+00  0.00000000000E+00  0.22647234865E+03  0.22647234866E+03  0.25500000920E-02 0. -1.
        2   -1    0    0  501    0  0.00000000000E+00  0.00000000000E+00 -0.70280353046E+03  0.70280353046E+03  0.25500000920E-02 0.  1.
    10030    2    1    2    0    0  0.00000000000E+00  0.00000000000E+00 -0.47633118181E+03  0.92927587913E+03  0.79791118852E+03 0.  0.
        2    1    3    3  502    0 -0.32269562008E+03  0.74442145224E+02  0.20927174360E+02  0.33183134698E+03  0.25500000920E-02 0.  1.
       -2    1    3    3    0  502  0.32269562008E+03 -0.74442145224E+02 -0.49725835617E+03  0.59744453215E+03  0.25500000920E-02 0. -1.
</event>
<event>
 5   0  0.7133039E-04  0.7997716E+03  0.7818609E-02  0.9560348E-01
       -2   -1    0    0    0  501  0.00000000000E+00  0.00000000000E+00  0.33842305590E+03  0.33842305591E+03  0.25500000920E-02 0. -1.
        2   -1    0    0  501    0  0.00000000000E+00  0.00000000000E+00 -0.47251114704E+03  0.47251114705E+03  0.25500000920E-02 0.  1.
    10030    2    1    2    0    0  0.00000000000E+00  0.00000000000E+00 -0.13408809114E+03  0.81093420296E+03  0.79977163325E+03 0.  0.
        2    1    3    3  502    0  0.27950681114E+03  0.72855771591E+02 -0.34744793716E+03  0.45183192668E+03  0.25500000920E-02 0.  1.
       -2    1    3    3    0  502 -0.27950681114E+03 -0.72855771591E+02  0.21335984603E+03  0.35910227628E+03  0.25500000920E-02 0. -1.
</event>
<event>
 5   0  0.4392552E-04  0.7996421E+03  0.7818609E-02  0.9560535E-01
        1   -1    0    0  501    0  0.00000000000E+00  0.00000000000E+00  0.10918910144E+04  0.10918910145E+04  0.50400001928E-02 0.  1.
       -1   -1    0    0    0  501  0.00000000000E+00  0.00000000000E+00 -0.14640369844E+03  0.14640369852E+03  0.50400001928E-02 0. -1.
    10030    2    1    2    0    0  0.00000000000E+00  0.00000000000E+00  0.94548731601E+03  0.12382947130E+04  0.79964212712E+03 0.  0.
        5    1    3    3  502    0  0.25143332402E+03  0.30942299837E+03  0.42697628763E+03  0.58420214698E+03  0.46999998093E+01 0. -1.
       -5    1    3    3    0  502 -0.25143332402E+03 -0.30942299837E+03  0.51851102838E+03  0.65409256600E+03  0.46999998093E+01 0.  1.
</event>
<event>
 5   0  0.6970013E-04  0.8001019E+03  0.7818609E-02  0.9559870E-01
        2   -1    0    0  501    0  0.00000000000E+00  0.00000000000E+00  0.87902596780E+03  0.87902596780E+03  0.25500000920E-02 0. -1.
       -2   -1    0    0    0  501  0.00000000000E+00  0.00000000000E+00 -0.18206601015E+03  0.18206601017E+03  0.25500000920E-02 0.  1.
    10030    2    1    2    0    0  0.00000000000E+00  0.00000000000E+00  0.69695995765E+03  0.10610919780E+04  0.80010187047E+03 0.  0.
        3    1    3    3  502    0 -0.32040765036E+03  0.36329481443E+02  0.66248290798E+03  0.73679339520E+03  0.10100000352E+00 0. -1.
       -3    1    3    3    0  502  0.32040765036E+03 -0.36329481443E+02  0.34477049666E+02  0.32429858277E+03  0.10100000352E+00 0.  1.
</event>
<event>
 5   0  0.2736375E-04  0.8002562E+03  0.7818609E-02  0.9559646E-01
        4   -1    0    0  501    0  0.00000000000E+00  0.00000000000E+00  0.96688833071E+02  0.96697173385E+02  0.12699999809E+01 0. -1.
       -4   -1    0    0    0  501  0.00000000000E+00  0.00000000000E+00 -0.16557729562E+04  0.16557734433E+04  0.12699999809E+01 0.  1.
    10030    2    1    2    0    0  0.00000000000E+00  0.00000000000E+00 -0.15590841232E+04  0.17524706167E+04  0.80025618348E+03 0.  0.
        2    1    3    3  502    0 -0.24959938341E+03  0.30741626043E+03 -0.65378303753E+03  0.76435389025E+03  0.25500000920E-02 0.  1.
       -2    1    3    3    0  502  0.24959938341E+03 -0.30741626043E+03 -0.90530108563E+03  0.98811672641E+03  0.25500000920E-02 0. -1.
</event>
<event>
 5   0  0.4169155E-04  0.7998990E+03  0.7818609E-02  0.9560163E-01
        1   -1    0    0  501    0  0.00000000000E+00  0.00000000000E+00  0.61114209670E+03  0.61114209672E+03  0.50400001928E-02 0. -1.
       -1   -1    0    0    0  501  0.00000000000E+00  0.00000000000E+00 -0.26173880838E+03  0.26173880843E+03  0.50400001928E-02 0.  1.
    10030    2    1    2    0    0  0.00000000000E+00  0.00000000000E+00  0.34940328832E+03  0.87288090515E+03  0.79989900406E+03 0.  0.
        4    1    3    3  502    0 -0.21586518964E+03 -0.33532712475E+03  0.20772727469E+03  0.44966019863E+03  0.12699999809E+01 0. -1.
       -4    1    3    3    0  502  0.21586518964E+03  0.33532712475E+03  0.14167601363E+03  0.42322070652E+03  0.12699999809E+01 0.  1.
</event>
<event>
 5   0  0.7133039E-04  0.8001343E+03  0.7818609E-02  0.9559823E-01
       -2   -1    0    0    0  501  0.00000000000E+00  0.00000000000E+00  0.35693418835E+03  0.35693418836E+03  0.25500000920E-02 0.  1.
        2   -1    0    0  501    0  0.00000000000E+00  0.00000000000E+00 -0.44841246643E+03  0.44841246643E+03  0.25500000920E-02 0. -1.
    10030    2    1    2    0    0  0.00000000000E+00  0.00000000000E+00 -0.91478278080E+02  0.80534665479E+03  0.80013433811E+03 0.  0.
        2    1    3    3  502    0 -0.38241989022E+03 -0.82901690993E+02  0.38086505507E+02  0.39315168156E+03  0.25500000920E-02 0.  1.
       -2    1    3    3    0  502  0.38241989022E+03  0.82901690993E+02 -0.12956478359E+03  0.41219497323E+03  0.25500000920E-02 0. -1.
</event>
<event>
 5   0  0.6672462E-04  0.8019307E+03  0.7818609E-02  0.9557227E-01
        2   -1    0    0  501    0  0.00000000000E+00  0.00000000000E+00  0.84837124328E+03  0.84837124329E+03  0.25500000920E-02 0. -1.
       -2   -1    0    0    0  501  0.00000000000E+00  0.00000000000E+00 -0.18950807303E+03  0.18950807305E+03  0.25500000920E-02 0.  1.
    10030    2    1    2    0    0  0.00000000000E+00  0.00000000000E+00  0.65886317025E+03  0.10378793163E+04  0.80193066917E+03 0.  0.
        5    1    3    3  502    0  0.24235201339E+03 -0.10902434065E+03 -0.59117108135E+02  0.27228244108E+03  0.46999998093E+01 0.  1.
       -5    1    3    3    0  502 -0.24235201339E+03  0.10902434065E+03  0.71798027839E+03  0.76559687526E+03  0.46999998093E+01 0. -1.
</event>
<event>
 5   0  0.2736375E-04  0.8008768E+03  0.7818609E-02  0.9558749E-01
        4   -1    0    0  501    0  0.00000000000E+00  0.00000000000E+00  0.22484913022E+03  0.22485271682E+03  0.12699999809E+01 0. -1.
       -4   -1    0    0    0  501  0.00000000000E+00  0.00000000000E+00 -0.71313899592E+03  0.71314012677E+03  0.12699999809E+01 0.  1.
    10030    2    1    2    0    0  0.00000000000E+00  0.00000000000E+00 -0.48828986570E+03  0.93799284358E+03  0.80087675810E+03 0.  0.
        2    1    3    3  502    0  0.29904080313E+03  0.26576711034E+03 -0.22408558022E+03  0.45855414745E+03  0.25500000920E-02 0. -1.
       -2    1    3    3    0  502 -0.29904080313E+03 -0.26576711034E+03 -0.26420428548E+03  0.47943869613E+03  0.25500000920E-02 0.  1.
</event>
<event>
 5   0  0.4392552E-04  0.7983685E+03  0.7818609E-02  0.9562382E-01
       -1   -1    0    0    0  501  0.00000000000E+00  0.00000000000E+00  0.30609026954E+03  0.30609026958E+03  0.50400001928E-02 0. -1.
        1   -1    0    0  501    0  0.00000000000E+00  0.00000000000E+00 -0.52059174002E+03  0.52059174004E+03  0.50400001928E-02 0.  1.
    10030    2    1    2    0    0  0.00000000000E+00  0.00000000000E+00 -0.21450147048E+03  0.82668200962E+03  0.79836850150E+03 0.  0.
        5    1    3    3  502    0 -0.25631921784E+03 -0.25206712121E+03  0.72361571375E+02  0.36673650219E+03  0.46999998093E+01 0. -1.
       -5    1    3    3    0  502  0.25631921784E+03  0.25206712121E+03 -0.28686304185E+03  0.45994550743E+03  0.46999998093E+01 0.  1.
</event>
<event>
 5   0  0.6801147E-04  0.7997914E+03  0.7818609E-02  0.9560319E-01
        2   -1    0    0  501    0  0.00000000000E+00  0.00000000000E+00  0.71457870933E+03  0.71457870933E+03  0.25500000920E-02 0. -1.
       -2   -1    0    0    0  501  0.00000000000E+00  0.00000000000E+00 -0.22379139169E+03  0.22379139171E+03  0.25500000920E-02 0.  1.
    10030    2    1    2    0    0  0.00000000000E+00  0.00000000000E+00  0.49078731764E+03  0.93837010104E+03  0.79979138241E+03 0.  0.
        4    1    3    3  502    0  0.27427270527E+03 -0.27926528227E+03  0.34143224071E+03  0.51941525067E+03  0.12699999809E+01 0. -1.
       -4    1    3    3    0  502 -0.27427270527E+03  0.27926528227E+03  0.14935507693E+03  0.41895485037E+03  0.12699999809E+01 0.  1.
</event>
<event>
 5   0  0.4086111E-04  0.7995203E+03  0.7818609E-02  0.9560712E-01
        1   -1    0    0  501    0  0.00000000000E+00  0.00000000000E+00  0.20275254435E+03  0.20275254441E+03  0.50400001928E-02 0. -1.
       -1   -1    0    0    0  501  0.00000000000E+00  0.00000000000E+00 -0.78819329807E+03  0.78819329808E+03  0.50400001928E-02 0.  1.
    10030    2    1    2    0    0  0.00000000000E+00  0.00000000000E+00 -0.58544075372E+03  0.99094584249E+03  0.79952034786E+03 0.  0.
        3    1    3    3  502    0 -0.21029447084E+03 -0.24569474506E+02  0.12755407639E+03  0.24717903663E+03  0.10100000352E+00 0. -1.
       -3    1    3    3    0  502  0.21029447084E+03  0.24569474506E+02 -0.71299483011E+03  0.74376680587E+03  0.10100000352E+00 0.  1.
</event>
<event>
 5   0  0.4104786E-04  0.8001553E+03  0.7818609E-02  0.9559792E-01
       -1   -1    0    0    0  501  0.00000000000E+00  0.00000000000E+00  0.81466328168E+02  0.81466328324E+02  0.50400001928E-02 0. -1.
        1   -1    0    0  501    0  0.00000000000E+00  0.00000000000E+00 -0.19647640524E+04  0.19647640524E+04  0.50400001928E-02 0.  1.
    10030    2    1    2    0    0  0.00000000000E+00  0.00000000000E+00 -0.18832977242E+04  0.20462303807E+04  0.80015526800E+03 0.  0.
        2    1    3    3  502    0 -0.21996368053E+03  0.23054427318E+02 -0.17942154781E+04  0.18077955386E+04  0.25500000920E-02 0.  1.
       -2    1    3    3    0  502  0.21996368053E+03 -0.23054427318E+02 -0.89082246109E+02  0.23843484215E+03  0.25500000920E-02 0. -1.
</event>
<event>
 5   0  0.7133039E-04  0.8000148E+03  0.7818609E-02  0.9559996E-01
        2   -1    0    0  501    0  0.00000000000E+00  0.00000000000E+00  0.12549710828E+04  0.12549710828E+04  0.25500000920E-02 0. -1.
       -2   -1    0    0    0  501  0.00000000000E+00  0.00000000000E+00 -0.12749768773E+03  0.12749768775E+03  0.25500000920E-02 0.  1.
    10030    2    1    2    0    0  0.00000000000E+00  0.00000000000E+00  0.11274733950E+04  0.13824687705E+04  0.80001477796E+03 0.  0.
        2    1    3    3  502    0 -0.34928810690E+03  0.43799052022E+02  0.89200044069E+03  0.95895011590E+03  0.25500000920E-02 0. -1.
       -2    1    3    3    0  502  0.34928810690E+03 -0.43799052022E+02  0.23547295433E+03  0.42351865461E+03  0.25500000920E-02 0.  1.
</event>
<event>
 5   0  0.6970013E-04  0.8002898E+03  0.7818609E-02  0.9559598E-01
       -2   -1    0    0    0  501  0.00000000000E+00  0.00000000000E+00  0.53934459741E+03  0.53934459742E+03  0.25500000920E-02 0.  1.
        2   -1    0    0  501    0  0.00000000000E+00  0.00000000000E+00 -0.29687132444E+03  0.29687132445E+03  0.25500000920E-02 0. -1.
    10030    2    1    2    0    0  0.00000000000E+00  0.00000000000E+00  0.24247327297E+03  0.83621592187E+03  0.80028980994E+03 0.  0.
        3    1    3    3  502    0 -0.65663649005E+02  0.21728962239E+03  0.46555877108E+03  0.51794929706E+03  0.10100000352E+00 0.  1.
       -3    1    3    3    0  502  0.65663649005E+02 -0.21728962239E+03 -0.22308549811E+03  0.31826662481E+03  0.10100000352E+00 0. -1.
</event>
<event>
 5   0  0.4169155E-04  0.8000355E+03  0.7818609E-02  0.9559966E-01
        1   -1    0    0  501    0  0.00000000000E+00  0.00000000000E+00  0.92971585260E+03  0.92971585262E+03  0.50400001928E-02 0.  1.
       -1   -1    0    0    0  501  0.00000000000E+00  0.00000000000E+00 -0.17211085551E+03  0.17211085558E+03  0.50400001928E-02 0. -1.
    10030    2    1    2    0    0  0.00000000000E+00  0.00000000000E+00  0.75760499710E+03  0.11018267082E+04  0.80003547625E+03 0.  0.
        4    1    3    3  502    0  0.29307398945E+03  0.17789265111E+03  0.66263869273E+03  0.74607627534E+03  0.12699999809E+01 0.  1.
       -4    1    3    3    0  502 -0.29307398945E+03 -0.17789265111E+03  0.94966304365E+02  0.35575043286E+03  0.12699999809E+01 0. -1.
</event>
<event>
 5   0  0.6970013E-04  0.7996987E+03  0.7818609E-02  0.9560453E-01
        2   -1    0    0  501    0  0.00000000000E+00  0.00000000000E+00  0.46761332920E+03  0.46761332920E+03  0.25500000920E-02 0. -1.
       -2   -1    0    0    0  501  0.00000000000E+00  0.00000000000E+00 -0.34190535474E+03  0.34190535475E+03  0.25500000920E-02 0.  1.
    10030    2    1    2    0    0  0.00000000000E+00  0.00000000000E+00  0.12570797446E+03  0.80951868395E+03  0.79969869628E+03 0.  0.
        3    1    3    3  502    0 -0.35458662762E+03 -0.64387055888E+02 -0.11248418376E+03  0.37753155001E+03  0.10100000352E+00 0. -1.
       -3    1    3    3    0  502  0.35458662762E+03  0.64387055888E+02  0.23819215822E+03  0.43198713394E+03  0.10100000352E+00 0.  1.
</event>
<event>
 5   0  0.2736375E-04  0.7995933E+03  0.7818609E-02  0.9560606E-01
       -3   -1    0    0    0  501  0.00000000000E+00  0.00000000000E+00  0.13337934928E+03  0.13337938753E+03  0.10100000352E+00 0.  1.
        3   -1    0    0  501    0  0.00000000000E+00  0.00000000000E+00 -0.11983665644E+04  0.11983665687E+04  0.10100000352E+00 0. -1.
    10030    2    1    2    0    0  0.00000000000E+00  0.00000000000E+00 -0.10649872151E+04  0.13317459562E+04  0.79959334880E+03 0.  0.
        3    1    3    3  502    0 -0.52555928635E+02 -0.25257262419E+03 -0.10411820501E+04  0.10726672959E+04  0.10100000352E+00 0. -1.
       -3    1    3    3    0  502  0.52555928635E+02  0.25257262419E+03 -0.23805165050E+02  0.25907866028E+03  0.10100000352E+00 0.  1.
</event>
<event>
 5   0  0.4087283E-04  0.8004632E+03  0.7818609E-02  0.9559347E-01
        1   -1    0    0  501    0  0.00000000000E+00  0.00000000000E+00  0.61000677425E+03  0.61000677427E+03  0.50400001928E-02 0.  1.
       -1   -1    0    0    0  501  0.00000000000E+00  0.00000000000E+00 -0.26259602091E+03  0.26259602096E+03  0.50400001928E-02 0. -1.
    10030    2    1    2    0    0  0.00000000000E+00  0.00000000000E+00  0.34741075334E+03  0.87260279523E+03  0.80046324507E+03 0.  0.
        1    1    3    3  502    0  0.41830075902E+02  0.17909992699E+03  0.56121096740E+03  0.59057962126E+03  0.50400001928E-02 0.  1.
       -1    1    3    3    0  502 -0.41830075902E+02 -0.17909992699E+03 -0.21380021406E+03  0.28202317397E+03  0.50400001928E-02 0. -1.
</event>
<event>
 5   0  0.7133039E-04  0.8004147E+03  0.7818609E-02  0.9559417E-01
        2   -1    0    0  501    0  0.00000000000E+00  0.00000000000E+00  0.72004700499E+03  0.72004700499E+03  0.25500000920E-02 0.  1.
       -2   -1    0    0    0  501  0.00000000000E+00  0.00000000000E+00 -0.22243814088E+03  0.22243814089E+03  0.25500000920E-02 0. -1.
    10030    2    1    2    0    0  0.00000000000E+00  0.00000000000E+00  0.49760886411E+03  0.94248514589E+03  0.80041468538E+03 0.  0.
        2    1    3    3  502    0  0.19990230066E+03 -0.30551975879E+03  0.55814786471E+02  0.36934880969E+03  0.25500000920E-02 0. -1.
       -2    1    3    3    0  502 -0.19990230066E+03  0.30551975879E+03  0.44179407764E+03  0.57313633620E+03  0.25500000920E-02 0.  1.
</event>
<event>
 5   0  0.6970013E-04  0.7993571E+03  0.7818609E-02  0.9560948E-01
        2   -1    0    0  501    0  0.00000000000E+00  0.00000000000E+00  0.13546303699E+04  0.13546303699E+04  0.25500000920E-02 0.  1.
       -2   -1    0    0    0  501  0.00000000000E+00  0.00000000000E+00 -0.11792364841E+03  0.11792364844E+03  0.25500000920E-02 0. -1.
    10030    2    1    2    0    0  0.00000000000E+00  0.00000000000E+00  0.12367067214E+04  0.14725540183E+04  0.79935713040E+03 0.  0.
        3    1    3    3  502    0 -0.16504239929E+03 -0.10817054542E+02  0.12886282643E+04  0.12991992980E+04  0.10100000352E+00 0.  1.
       -3    1    3    3    0  502  0.16504239929E+03  0.10817054542E+02 -0.51921542841E+02  0.17335472028E+03  0.10100000352E+00 0. -1.
</event>
<event>
 5   0  0.6593118E-04  0.8002630E+03  0.7818609E-02  0.9559637E-01
        2   -1    0    0  501    0  0.00000000000E+00  0.00000000000E+00  0.11016712824E+04  0.11016712824E+04  0.25500000920E-02 0. -1.
       -2   -1    0    0    0  501  0.00000000000E+00  0.00000000000E+00 -0.14532937512E+03  0.14532937515E+03  0.25500000920E-02 0.  1.
    10030    2    1    2    0    0  0.00000000000E+00  0.00000000000E+00  0.95634190731E+03  0.12470006576E+04  0.80026295450E+03 0.  0.
        1    1    3    3  502    0 -0.23117313120E+03  0.30525668021E+03  0.29723709100E+03  0.48473966796E+03  0.50400001928E-02 0.  1.
       -1    1    3    3    0  502  0.23117313120E+03 -0.30525668021E+03  0.65910481631E+03  0.76226098963E+03  0.50400001928E-02 0. -1.
</event>
<event>
 5   0  0.4169155E-04  0.8005393E+03  0.7818609E-02  0.9559237E-01
       -1   -1    0    0    0  501  0.00000000000E+00  0.00000000000E+00  0.10858429174E+03  0.10858429185E+03  0.50400001928E-02 0. -1.
        1   -1    0    0  501    0  0.00000000000E+00  0.00000000000E+00 -0.14754968340E+04  0.14754968340E+04  0.50400001928E-02 0.  1.
    10030    2    1    2    0    0  0.00000000000E+00  0.00000000000E+00 -0.13669125423E+04  0.15840811259E+04  0.80053926520E+03 0.  0.
        4    1    3    3  502    0  0.32816770861E+03  0.18744774820E+03 -0.94434957048E+03  0.10171668631E+04  0.12699999809E+01 0.  1.
       -4    1    3    3    0  502 -0.32816770861E+03 -0.18744774820E+03 -0.42256297181E+03  0.56691426276E+03  0.12699999809E+01 0. -1.
</event>
<event>
 5   0  0.6970013E-04  0.7999067E+03  0.7818609E-02  0.9560152E-01
       -2   -1    0    0    0  501  0.00000000000E+00  0.00000000000E+00  0.27725875390E+03  0.27725875391E+03  0.25500000920E-02 0. -1.
        2   -1    0    0  501    0  0.00000000000E+00  0.00000000000E+00 -0.57694371963E+03  0.57694371964E+03  0.25500000920E-02 0.  1.
    10030    2    1    2    0    0  0.00000000000E+00  0.00000000000E+00 -0.29968496574E+03  0.85420247355E+03  0.79990673652E+03 0.  0.
        3    1    3    3  502    0 -0.32816433626E+03  0.19395520804E+03 -0.27910522587E+03  0.47245125847E+03  0.10100000352E+00 0.  1.
       -3    1    3    3    0  502  0.32816433626E+03 -0.19395520804E+03 -0.20579739865E+02  0.38175121508E+03  0.10100000352E+00 0. -1.
</event>
<event>
 5   0  0.4169155E-04  0.7991689E+03  0.7818609E-02  0.9561221E-01
       -1   -1    0    0    0  501  0.00000000000E+00  0.00000000000E+00  0.21856039865E+03  0.21856039870E+03  0.50400001928E-02 0. -1.
        1   -1    0    0  501    0  0.00000000000E+00  0.00000000000E+00 -0.73054274603E+03  0.73054274605E+03  0.50400001928E-02 0.  1.
    10030    2    1    2    0    0  0.00000000000E+00  0.00000000000E+00 -0.51198234739E+03  0.94910314476E+03  0.79916885284E+03 0.  0.
        4    1    3    3  502    0 -0.27573459597E+03  0.27906602357E+03 -0.34611438087E+03  0.52316745930E+03  0.12699999809E+01 0.  1.
       -4    1    3    3    0  502  0.27573459597E+03 -0.27906602357E+03 -0.16586796652E+03  0.42593568545E+03  0.12699999809E+01 0. -1.
</event>
<event>
 5   0  0.6672462E-04  0.7999405E+03  0.7818609E-02  0.9560103E-01
       -2   -1    0    0    0  501  0.00000000000E+00  0.00000000000E+00  0.10563867494E+03  0.10563867497E+03  0.25500000920E-02 0. -1.
        2   -1    0    0  501    0  0.00000000000E+00  0.00000000000E+00 -0.15143716037E+04  0.15143716037E+04  0.25500000920E-02 0.  1.
    10030    2    1    2    0    0  0.00000000000E+00  0.00000000000E+00 -0.14087329287E+04  0.16200102787E+04  0.79994052182E+03 0.  0.
        5    1    3    3  502    0 -0.95084228112E+02 -0.57357827218E+02 -0.14824699562E+04  0.14866304826E+04  0.46999998093E+01 0.  1.
       -5    1    3    3    0  502  0.95084228112E+02  0.57357827218E+02  0.73737027460E+02  0.13337979605E+03  0.46999998093E+01 0. -1.
</event>
<event>
 5   0  0.4169155E-04  0.8016263E+03  0.7818609E-02  0.9557666E-01
       -1   -1    0    0    0  501  0.00000000000E+00  0.00000000000E+00  0.40970624399E+03  0.40970624402E+03  0.50400001928E-02 0. -1.
        1   -1    0    0  501    0  0.00000000000E+00  0.00000000000E+00 -0.39211309147E+03  0.39211309150E+03  0.50400001928E-02 0.  1.
    10030    2    1    2    0    0  0.00000000000E+00  0.00000000000E+00  0.17593152522E+02  0.80181933552E+03  0.80162630184E+03 0.  0.
        4    1    3    3  502    0 -0.16972704302E+03  0.89036718240E+02 -0.34330347756E+03  0.39318404969E+03  0.12699999809E+01 0.  1.
       -4    1    3    3    0  502  0.16972704302E+03 -0.89036718240E+02  0.36089663008E+03  0.40863528584E+03  0.12699999809E+01 0. -1.
</event>
<event>
 5   0  0.4086111E-04  0.7997686E+03  0.7818609E-02  0.9560352E-01
       -1   -1    0    0    0  501  0.00000000000E+00  0.00000000000E+00  0.37698478881E+03  0.37698478884E+03  0.50400001928E-02 0.  1.
        1   -1    0    0  501    0  0.00000000000E+00  0.00000000000E+00 -0.42417486690E+03  0.42417486693E+03  0.50400001928E-02 0. -1.
    10030    2    1    2    0    0  0.00000000000E+00  0.00000000000E+00 -0.47190078098E+02  0.80115965577E+03  0.79976864815E+03 0.  0.
        3    1    3    3  502    0 -0.44609356318E+02 -0.38116297127E+03 -0.13618383485E+03  0.40721155732E+03  0.10100000352E+00 0.  1.
       -3    1    3    3    0  502  0.44609356318E+02  0.38116297127E+03  0.88993756756E+02  0.39394809846E+03  0.10100000352E+00 0. -1.
</event>
<event>
 5   0  0.6593118E-04  0.7996683E+03  0.7818609E-02  0.9560497E-01
       -2   -1    0    0    0  501  0.00000000000E+00  0.00000000000E+00  0.12365030523E+03  0.12365030526E+03  0.25500000920E-02 0.  1.
        2   -1    0    0  501    0  0.00000000000E+00  0.00000000000E+00 -0.12928990601E+04  0.12928990601E+04  0.25500000920E-02 0. -1.
    10030    2    1    2    0    0  0.00000000000E+00  0.00000000000E+00 -0.11692487549E+04  0.14165493654E+04  0.79966833985E+03 0.  0.
        1    1    3    3  502    0 -0.20202850664E+03  0.22878212182E+03 -0.10421539729E+04  0.10859289480E+04  0.50400001928E-02 0. -1.
       -1    1    3    3    0  502  0.20202850664E+03 -0.22878212182E+03 -0.12709478193E+03  0.33062041737E+03  0.50400001928E-02 0.  1.
</event>
<event>
 5   0  0.6801147E-04  0.8000916E+03  0.7818609E-02  0.9559885E-01
        2   -1    0    0  501    0  0.00000000000E+00  0.00000000000E+00  0.94599214260E+03  0.94599214261E+03  0.25500000920E-02 0.  1.
       -2   -1    0    0    0  501  0.00000000000E+00  0.00000000000E+00 -0.16917333443E+03  0.16917333445E+03  0.25500000920E-02 0. -1.
    10030    2    1    2    0    0  0.00000000000E+00  0.00000000000E+00  0.77681880817E+03  0.11151654771E+04  0.80009160757E+03 0.  0.
        4    1    3    3  502    0 -0.32669757629E+03 -0.23060625590E+03  0.37285868559E+03  0.54675018421E+03  0.12699999809E+01 0. -1.
       -4    1    3    3    0  502  0.32669757629E+03  0.23060625590E+03  0.40396012258E+03  0.56841529285E+03  0.12699999809E+01 0.  1.
</event>
<event>
 5   0  0.6970013E-04  0.8000070E+03  0.7818609E-02  0.9560007E-01
        2   -1    0    0  501    0  0.00000000000E+00  0.00000000000E+00  0.84022651395E+03  0.84022651395E+03  0.25500000920E-02 0. -1.
       -2   -1    0    0    0  501  0.00000000000E+00  0.00000000000E+00 -0.19042816289E+03  0.19042816291E+03  0.25500000920E-02 0.  1.
    10030    2    1    2    0    0  0.00000000000E+00  0.00000000000E+00  0.64979835106E+03  0.10306546769E+04  0.80000697865E+03 0.  0.
        3    1    3    3  502    0  0.21488236846E+03  0.27880561410E+03  0.80135137392E+02  0.36101059981E+03  0.10100000352E+00 0.  1.
       -3    1    3    3    0  502 -0.21488236846E+03 -0.27880561410E+03  0.56966321367E+03  0.66964407705E+03  0.10100000352E+00 0. -1.
</event>
<event>
 5   0  0.4104786E-04  0.8019609E+03  0.7818609E-02  0.9557183E-01
       -1   -1    0    0    0  501  0.00000000000E+00  0.00000000000E+00  0.98018651906E+02  0.98018652036E+02  0.50400001928E-02 0. -1.
        1   -1    0    0  501    0  0.00000000000E+00  0.00000000000E+00 -0.16403544425E+04  0.16403544425E+04  0.50400001928E-02 0.  1.
    10030    2    1    2    0    0  0.00000000000E+00  0.00000000000E+00 -0.15423357906E+04  0.17383730946E+04  0.80196092479E+03 0.  0.
        2    1    3    3  502    0  0.26498197247E+03  0.95023594792E+02 -0.13901473122E+04  0.14183633099E+04  0.25500000920E-02 0.  1.
       -2    1    3    3    0  502 -0.26498197247E+03 -0.95023594792E+02 -0.15218847841E+03  0.32000978464E+03  0.25500000920E-02 0. -1.
</event>
<event>
 5   0  0.4104786E-04  0.8000259E+03  0.7818609E-02  0.9559980E-01
       -1   -1    0    0    0  501  0.00000000000E+00  0.00000000000E+00  0.91531370589E+02  0.91531370728E+02  0.50400001928E-02 0.  1.
        1   -1    0    0  501    0  0.00000000000E+00  0.00000000000E+00 -0.17481476017E+04  0.17481476017E+04  0.50400001928E-02 0. -1.
    10030    2    1    2    0    0  0.00000000000E+00  0.00000000000E+00 -0.16566162311E+04  0.18396789724E+04  0.80002586485E+03 0.  0.
        2    1    3    3  502    0  0.15764737948E+03  0.31990956643E+03 -0.41174802786E+03  0.54473045206E+03  0.25500000920E-02 0. -1.
       -2    1    3    3    0  502 -0.15764737948E+03 -0.31990956643E+03 -0.12448682032E+04  0.12949485204E+04  0.25500000920E-02 0.  1.
</event>
<event>
 5   0  0.6672462E-04  0.7974778E+03  0.7818609E-02  0.9563675E-01
        2   -1    0    0  501    0  0.00000000000E+00  0.00000000000E+00  0.18459310030E+04  0.18459310030E+04  0.25500000920E-02 0. -1.
       -2   -1    0    0    0  501  0.00000000000E+00  0.00000000000E+00 -0.86131441759E+02  0.86131441797E+02  0.25500000920E-02 0.  1.
    10030    2    1    2    0    0  0.00000000000E+00  0.00000000000E+00  0.17597995613E+04  0.19320624448E+04  0.79747777076E+03 0.  0.
        5    1    3    3  502    0  0.16782096746E+03  0.12618778485E+03  0.58733392442E+02  0.21808011269E+03  0.46999998093E+01 0.  1.
       -5    1    3    3    0  502 -0.16782096746E+03 -0.12618778485E+03  0.17010661688E+04  0.17139823321E+04  0.46999998093E+01 0. -1.
</event>
<event>
 5   0  0.4087283E-04  0.7995737E+03  0.7818609E-02  0.9560634E-01
        1   -1    0    0  501    0  0.00000000000E+00  0.00000000000E+00  0.62174935272E+03  0.62174935274E+03  0.50400001928E-02 0. -1.
       -1   -1    0    0    0  501  0.00000000000E+00  0.00000000000E+00 -0.25706422302E+03  0.25706422307E+03  0.50400001928E-02 0.  1.
    10030    2    1    2    0    0  0.00000000000E+00  0.00000000000E+00  0.36468512970E+03  0.87881357581E+03  0.79957367215E+03 0.  0.
        1    1    3    3  502    0 -0.25257680573E+03 -0.12963244771E+03 -0.12703073210E+03  0.31102479196E+03  0.50400001928E-02 0.  1.
       -1    1    3    3    0  502  0.25257680573E+03  0.12963244771E+03  0.49171586180E+03  0.56778878385E+03  0.50400001928E-02 0. -1.
</event>
<event>
 5   0  0.6970013E-04  0.8007505E+03  0.7818609E-02  0.9558931E-01
       -2   -1    0    0    0  501  0.00000000000E+00  0.00000000000E+00  0.18327051589E+03  0.18327051591E+03  0.25500000920E-02 0. -1.
        2   -1    0    0  501    0  0.00000000000E+00  0.00000000000E+00 -0.87466525716E+03  0.87466525717E+03  0.25500000920E-02 0.  1.
    10030    2    1    2    0    0  0.00000000000E+00  0.00000000000E+00 -0.69139474127E+03  0.10579357731E+04  0.80075053024E+03 0.  0.
        3    1    3    3  502    0  0.18117620133E+03  0.20018436564E+03  0.44893531570E+02  0.27370428486E+03  0.10100000352E+00 0. -1.
       -3    1    3    3    0  502 -0.18117620133E+03 -0.20018436564E+03 -0.73628827284E+03  0.78423148821E+03  0.10100000352E+00 0.  1.
</event>
<event>
 5   0  0.2736375E-04  0.7999569E+03  0.7818609E-02  0.9560079E-01
       -4   -1    0    0    0  501  0.00000000000E+00  0.00000000000E+00  0.29716436403E+03  0.29716707783E+03  0.12699999809E+01 0.  1.
        4   -1    0    0  501    0  0.00000000000E+00  0.00000000000E+00 -0.53835867635E+03  0.53836017433E+03  0.12699999809E+01 0. -1.
    10030    2    1    2    0    0  0.00000000000E+00  0.00000000000E+00 -0.24119431232E+03  0.83552725216E+03  0.79995693184E+03 0.  0.
        1    1    3    3  502    0  0.27596514026E+03 -0.17504589919E+03 -0.36147030054E+03  0.48729724364E+03  0.50400001928E-02 0. -1.
       -1    1    3    3    0  502 -0.27596514026E+03  0.17504589919E+03  0.12027598822E+03  0.34823000852E+03  0.50400001928E-02 0.  1.
</event>
<event>
 5   0  0.4169155E-04  0.8001414E+03  0.7818609E-02  0.9559813E-01
        1   -1    0    0  501    0  0.00000000000E+00  0.00000000000E+00  0.25397735404E+03  0.25397735409E+03  0.50400001928E-02 0.  1.
       -1   -1    0    0    0  501  0.00000000000E+00  0.00000000000E+00 -0.63020008507E+03  0.63020008509E+03  0.50400001928E-02 0. -1.
    10030    2    1    2    0    0  0.00000000000E+00  0.00000000000E+00 -0.37622273102E+03  0.88417743918E+03  0.80014136289E+03 0.  0.
        4    1    3    3  502    0 -0.26687625975E+02 -0.31816239742E+03  0.78278875669E+02  0.32873809604E+03  0.12699999809E+01 0. -1.
       -4    1    3    3    0  502  0.26687625975E+02  0.31816239742E+03 -0.45450160669E+03  0.55543934313E+03  0.12699999809E+01 0.  1.
</event>
<event>
 5   0  0.4392552E-04  0.8005049E+03  0.7818609E-02  0.9559287E-01
       -1   -1    0    0    0  501  0.00000000000E+00  0.00000000000E+00  0.17989182317E+03  0.17989182324E+03  0.50400001928E-02 0.  1.
        1   -1    0    0  501    0  0.00000000000E+00  0.00000000000E+00 -0.89054643196E+03  0.89054643197E+03  0.50400001928E-02 0. -1.
    10030    2    1    2    0    0  0.00000000000E+00  0.00000000000E+00 -0.71065460879E+03  0.10704382552E+04  0.80050489394E+03 0.  0.
        5    1    3    3  502    0  0.30858871692E+03  0.11387606005E+03 -0.66021324503E+03  0.73763024082E+03  0.46999998093E+01 0. -1.
       -5    1    3    3    0  502 -0.30858871692E+03 -0.11387606005E+03 -0.50441363760E+02  0.33280801439E+03  0.46999998093E+01 0.  1.
</event>
<event>
 5   0  0.6801147E-04  0.8001941E+03  0.7818609E-02  0.9559736E-01
        2   -1    0    0  501    0  0.00000000000E+00  0.00000000000E+00  0.16147650844E+04  0.16147650844E+04  0.25500000920E-02 0. -1.
       -2   -1    0    0    0  501  0.00000000000E+00  0.00000000000E+00 -0.99133704714E+02  0.99133704747E+02  0.25500000920E-02 0.  1.
    10030    2    1    2    0    0  0.00000000000E+00  0.00000000000E+00  0.15156313797E+04  0.17138987891E+04  0.80019408918E+03 0.  0.
        4    1    3    3  502    0  0.38413185866E+03 -0.10825446443E+03  0.81838579724E+03  0.91051262481E+03  0.12699999809E+01 0. -1.
       -4    1    3    3    0  502 -0.38413185866E+03  0.10825446443E+03  0.69724558243E+03  0.80338616432E+03  0.12699999809E+01 0.  1.
</event>
<event>
 5   0  0.4392552E-04  0.8002439E+03  0.7818609E-02  0.9559664E-01
       -1   -1    0    0    0  501  0.00000000000E+00  0.00000000000E+00  0.54168127200E+03  0.54168127202E+03  0.50400001928E-02 0.  1.
        1   -1    0    0  501    0  0.00000000000E+00  0.00000000000E+00 -0.29555676432E+03  0.29555676437E+03  0.50400001928E-02 0. -1.
    10030    2    1    2    0    0  0.00000000000E+00  0.00000000000E+00  0.24612450768E+03  0.83723803639E+03  0.80024387302E+03 0.  0.
        5    1    3    3  502    0 -0.30506934373E+03 -0.29280309757E+02 -0.14602569710E+03  0.33951470548E+03  0.46999998093E+01 0. -1.
       -5    1    3    3    0  502  0.30506934373E+03  0.29280309757E+02  0.39215020478E+03  0.49772333091E+03  0.46999998093E+01 0.  1.
</event>
<event>
 5   0  0.7133039E-04  0.7998723E+03  0.7818609E-02  0.9560202E-01
        2   -1    0    0  501    0  0.00000000000E+00  0.00000000000E+00  0.85593465722E+03  0.85593465722E+03  0.25500000920E-02 0.  1.
       -2   -1    0    0    0  501  0.00000000000E+00  0.00000000000E+00 -0.18687048703E+03  0.18687048705E+03  0.25500000920E-02 0. -1.
    10030    2    1    2    0    0  0.00000000000E+00  0.00000000000E+00  0.66906417019E+03  0.10428051443E+04  0.79987230548E+03 0.  0.
        2    1    3    3  502    0 -0.60926437543E+02 -0.19162322838E+03  0.78524306131E+03  0.81057890287E+03  0.25500000920E-02 0.  1.
       -2    1    3    3    0  502  0.60926437543E+02  0.19162322838E+03 -0.11617889112E+03  0.23222624140E+03  0.25500000920E-02 0. -1.
</event>
<event>
 5   0  0.4104786E-04  0.8000056E+03  0.7818609E-02  0.9560009E-01
       -1   -1    0    0    0  501  0.00000000000E+00  0.00000000000E+00  0.25291768584E+03  0.25291768590E+03  0.50400001928E-02 0. -1.
        1   -1    0    0  501    0  0.00000000000E+00  0.00000000000E+00 -0.63262580561E+03  0.63262580563E+03  0.50400001928E-02 0.  1.
    10030    2    1    2    0    0  0.00000000000E+00  0.00000000000E+00 -0.37970811977E+03  0.88554349153E+03  0.80000563696E+03 0.  0.
        2    1    3    3  502    0  0.31066548212E+02 -0.89850966892E+02 -0.61993821439E+03  0.62718555176E+03  0.25500000920E-02 0.  1.
       -2    1    3    3    0  502 -0.31066548212E+02  0.89850966892E+02  0.24023009463E+03  0.25835793976E+03  0.25500000920E-02 0. -1.
</event>
<event>
 5   0  0.4169155E-04  0.7999654E+03  0.7818609E-02  0.9560067E-01
       -1   -1    0    0    0  501  0.00000000000E+00  0.00000000000E+00  0.16459684439E+03  0.16459684447E+03  0.50400001928E-02 0.  1.
        1   -1    0    0  501    0  0.00000000000E+00  0.00000000000E+00 -0.97198790525E+03  0.97198790526E+03  0.50400001928E-02 0. -1.
    10030    2    1    2    0    0  0.00000000000E+00  0.00000000000E+00 -0.80739106086E+03  0.11365847497E+04  0.79996535435E+03 0.  0.
        4    1    3    3  502    0  0.20133191984E+03  0.26372125477E+03 -0.72107998325E+03  0.79375147074E+03  0.12699999809E+01 0. -1.
       -4    1    3    3    0  502 -0.20133191984E+03 -0.26372125477E+03 -0.86311077612E+02  0.34283327899E+03  0.12699999809E+01 0.  1.
</event>
<event>
 5   0  0.7133039E-04  0.8001269E+03  0.7818609E-02  0.9559833E-01
       -2   -1    0    0    0  501  0.00000000000E+00  0.00000000000E+00  0.70723536855E+03  0.70723536855E+03  0.25500000920E-02 0.  1.
        2   -1    0    0  501    0  0.00000000000E+00  0.00000000000E+00 -0.22630479273E+03  0.22630479274E+03  0.25500000920E-02 0. -1.
    10030    2    1    2    0    0  0.00000000000E+00  0.00000000000E+00  0.48093057582E+03  0.93354016129E+03  0.80012687368E+03 0.  0.
        2    1    3    3  502    0  0.25989317147E+03 -0.30077293831E+03  0.29318764754E+03  0.49393098473E+03  0.25500000920E-02 0.  1.
       -2    1    3    3    0  502 -0.25989317147E+03  0.30077293831E+03  0.18774292828E+03  0.43960917657E+03  0.25500000920E-02 0. -1.
</event>
<event>
 5   0  0.6801147E-04  0.7999677E+03  0.7818609E-02  0.9560064E-01
        2   -1    0    0  501    0  0.00000000000E+00  0.00000000000E+00  0.82053402678E+03  0.82053402678E+03  0.25500000920E-02 0. -1.
       -2   -1    0    0    0  501  0.00000000000E+00  0.00000000000E+00 -0.19497920718E+03  0.19497920720E+03  0.25500000920E-02 0.  1.
    10030    2    1    2    0    0  0.00000000000E+00  0.00000000000E+00  0.62555481960E+03  0.10155132340E+04  0.79996768439E+03 0.  0.
        4    1    3    3  502    0  0.14631915443E+03 -0.25486877065E+03 -0.31656082539E+02  0.29558603767E+03  0.12699999809E+01 0.  1.
       -4    1    3    3    0  502 -0.14631915443E+03  0.25486877065E+03  0.65721090214E+03  0.71992719631E+03  0.12699999809E+01 0. -1.
</event>
<event>
 5   0  0.4104786E-04  0.7997685E+03  0.7818609E-02  0.9560352E-01
       -1   -1    0    0    0  501  0.00000000000E+00  0.00000000000E+00  0.12239184599E+03  0.12239184609E+03  0.50400001928E-02 0. -1.
        1   -1    0    0  501    0  0.00000000000E+00  0.00000000000E+00 -0.13065200772E+04  0.13065200772E+04  0.50400001928E-02 0.  1.
    10030    2    1    2    0    0  0.00000000000E+00  0.00000000000E+00 -0.11841282312E+04  0.14289119233E+04  0.79976847687E+03 0.  0.
        2    1    3    3  502    0  0.24068751614E+03  0.80481218123E+02 -0.11441951709E+04  0.11720026860E+04  0.25500000920E-02 0.  1.
       -2    1    3    3    0  502 -0.24068751614E+03 -0.80481218123E+02 -0.39933060320E+02  0.25690923730E+03  0.25500000920E-02 0. -1.
</event>
<event>
 5   0  0.4087283E-04  0.7999828E+03  0.7818609E-02  0.9560042E-01
       -1   -1    0    0    0  501  0.00000000000E+00  0.00000000000E+00  0.16874109126E+03  0.16874109133E+03  0.50400001928E-02 0.  1.
        1   -1    0    0  501    0  0.00000000000E+00  0.00000000000E+00 -0.94815750181E+03  0.94815750182E+03  0.50400001928E-02 0. -1.
    10030    2    1    2    0    0  0.00000000000E+00  0.00000000000E+00 -0.77941641056E+03  0.11168985932E+04  0.79998282879E+03 0.  0.
        1    1    3    3  502    0  0.22834683708E+03  0.74401947345E+02  0.56875801103E+02  0.24680515503E+03  0.50400001928E-02 0.  1.
       -1    1    3    3    0  502 -0.22834683708E+03 -0.74401947345E+02 -0.83629221166E+03  0.87009343813E+03  0.50400001928E-02 0. -1.
</event>
<event>
 5   0  0.4169155E-04  0.7999261E+03  0.7818609E-02  0.9560124E-01
        1   -1    0    0  501    0  0.00000000000E+00  0.00000000000E+00  0.52425094579E+03  0.52425094581E+03  0.50400001928E-02 0.  1.
       -1   -1    0    0    0  501  0.00000000000E+00  0.00000000000E+00 -0.30514096084E+03  0.30514096089E+03  0.50400001928E-02 0. -1.
    10030    2    1    2    0    0  0.00000000000E+00  0.00000000000E+00  0.21910998494E+03  0.82939190670E+03  0.79992608996E+03 0.  0.
        4    1    3    3  502    0 -0.10618140310E+03 -0.18575445650E+03  0.45992202721E+03  0.50725643662E+03  0.12699999809E+01 0.  1.
       -4    1    3    3    0  502  0.10618140310E+03  0.18575445650E+03 -0.24081204227E+03  0.32213547008E+03  0.12699999809E+01 0. -1.
</event>
<event>
 5   0  0.6801147E-04  0.8002783E+03  0.7818609E-02  0.9559614E-01
        2   -1    0    0  501    0  0.00000000000E+00  0.00000000000E+00  0.21004794768E+04  0.21004794768E+04  0.25500000920E-02 0. -1.
       -2   -1    0    0    0  501  0.00000000000E+00  0.00000000000E+00 -0.76226082466E+02  0.76226082508E+02  0.25500000920E-02 0.  1.
    10030    2    1    2    0    0  0.00000000000E+00  0.00000000000E+00  0.20242533944E+04  0.21767055593E+04  0.80027825627E+03 0.  0.
        4    1    3    3  502    0 -0.39835526447E+03 -0.37332858349E+02  0.99746679140E+03  0.10747196248E+04  0.12699999809E+01 0.  1.
       -4    1    3    3    0  502  0.39835526447E+03  0.37332858349E+02  0.10267866030E+04  0.11019859345E+04  0.12699999809E+01 0. -1.
</event>
<event>
 5   0  0.4086111E-04  0.8001539E+03  0.7818609E-02  0.9559794E-01
       -1   -1    0    0    0  501  0.00000000000E+00  0.00000000000E+00  0.22043247968E+03  0.22043247973E+03  0.50400001928E-02 0. -1.
        1   -1    0    0  501    0  0.00000000000E+00  0.00000000000E+00 -0.72612506135E+03  0.72612506137E+03  0.50400001928E-02 0.  1.
    10030    2    1    2    0    0  0.00000000000E+00  0.00000000000E+00 -0.50569258167E+03  0.94655754110E+03  0.80015385486E+03 0.  0.
        3    1    3    3  502    0 -0.22027926723E+03  0.10817192478E+03 -0.62662984191E+03  0.67297034842E+03  0.10100000352E+00 0.  1.
       -3    1    3    3    0  502  0.22027926723E+03 -0.10817192478E+03  0.12093726024E+03  0.27358719268E+03  0.10100000352E+00 0. -1.
</event>
<event>
 5   0  0.4087283E-04  0.7999854E+03  0.7818609E-02  0.9560038E-01
       -1   -1    0    0    0  501  0.00000000000E+00  0.00000000000E+00  0.32621178023E+03  0.32621178026E+03  0.50400001928E-02 0.  1.
        1   -1    0    0  501    0  0.00000000000E+00  0.00000000000E+00 -0.49046106175E+03  0.49046106178E+03  0.50400001928E-02 0. -1.
    10030    2    1    2    0    0  0.00000000000E+00  0.00000000000E+00 -0.16424928153E+03  0.81667284204E+03  0.79998544015E+03 0.  0.
        1    1    3    3  502    0 -0.90431285297E+02  0.16412681945E+03  0.27862864474E+03  0.33578170278E+03  0.50400001928E-02 0.  1.
       -1    1    3    3    0  502  0.90431285297E+02 -0.16412681945E+03 -0.44287792627E+03  0.48089113927E+03  0.50400001928E-02 0. -1.
</event>
<event>
 5   0  0.4087283E-04  0.7993874E+03  0.7818609E-02  0.9560904E-01
        1   -1    0    0  501    0  0.00000000000E+00  0.00000000000E+00  0.20320276995E+03  0.20320277001E+03  0.50400001928E-02 0. -1.
       -1   -1    0    0    0  501  0.00000000000E+00  0.00000000000E+00 -0.78618534012E+03  0.78618534014E+03  0.50400001928E-02 0.  1.
    10030    2    1    2    0    0  0.00000000000E+00  0.00000000000E+00 -0.58298257018E+03  0.98938811015E+03  0.79938736253E+03 0.  0.
        1    1    3    3  502    0 -0.17400966823E+03 -0.18928394804E+03 -0.67024504168E+03  0.71786920365E+03  0.50400001928E-02 0.  1.
       -1    1    3    3    0  502  0.17400966823E+03  0.18928394804E+03  0.87262471506E+02  0.27151890649E+03  0.50400001928E-02 0. -1.
</event>
<event>
 5   0  0.6801147E-04  0.7999892E+03  0.7818609E-02  0.9560033E-01
       -2   -1    0    0    0  501  0.00000000000E+00  0.00000000000E+00  0.35990392869E+03  0.35990392870E+03  0.25500000920E-02 0.  1.
        2   -1    0    0  501    0  0.00000000000E+00  0.00000000000E+00 -0.44455105726E+03  0.44455105727E+03  0.25500000920E-02 0. -1.
    10030    2    1    2    0    0  0.00000000000E+00  0.00000000000E+00 -0.84647128576E+02  0.80445498597E+03  0.79998917997E+03 0.  0.
        4    1    3    3  502    0  0.12435994438E+03  0.22170937205E+03  0.26822659971E+03  0.36955048791E+03  0.12699999809E+01 0.  1.
       -4    1    3    3    0  502 -0.12435994438E+03 -0.22170937205E+03 -0.35287372829E+03  0.43490449806E+03  0.12699999809E+01 0. -1.
</event>
<event>
 5   0  0.6970013E-04  0.8001241E+03  0.7818609E-02  0.9559837E-01
        2   -1    0    0  501    0  0.00000000000E+00  0.00000000000E+00  0.93727749937E+03  0.93727749938E+03  0.25500000920E-02 0. -1.
       -2   -1    0    0    0  501  0.00000000000E+00  0.00000000000E+00 -0.17076015445E+03  0.17076015447E+03  0.25500000920E-02 0.  1.
    10030    2    1    2    0    0  0.00000000000E+00  0.00000000000E+00  0.76651734492E+03  0.11080376538E+04  0.80012411679E+03 0.  0.
        3    1    3    3  502    0  0.14837105271E+03 -0.36121721457E+02  0.89533002740E+03  0.90825911293E+03  0.10100000352E+00 0. -1.
       -3    1    3    3    0  502 -0.14837105271E+03  0.36121721457E+02 -0.12881268248E+03  0.19977854092E+03  0.10100000352E+00 0.  1.
</event>
<event>
 5   0  0.2736375E-04  0.8005090E+03  0.7818609E-02  0.9559281E-01
       -3   -1    0    0    0  501  0.00000000000E+00  0.00000000000E+00  0.51655370961E+03  0.51655371948E+03  0.10100000352E+00 0.  1.
        3   -1    0    0  501    0  0.00000000000E+00  0.00000000000E+00 -0.31013938370E+03  0.31013940014E+03  0.10100000352E+00 0. -1.
    10030    2    1    2    0    0  0.00000000000E+00  0.00000000000E+00  0.20641432591E+03  0.82669311962E+03  0.80050898814E+03 0.  0.
        3    1    3    3  502    0  0.36956277760E+02  0.57071618168E+02 -0.30413183465E+03  0.31163940559E+03  0.10100000352E+00 0. -1.
       -3    1    3    3    0  502 -0.36956277760E+02 -0.57071618168E+02  0.51054616057E+03  0.51505371403E+03  0.10100000352E+00 0.  1.
</event>
<event>
 5   0  0.6672462E-04  0.7992997E+03  0.7818609E-02  0.9561031E-01
       -2   -1    0    0    0  501  0.00000000000E+00  0.00000000000E+00  0.86829594212E+02  0.86829594250E+02  0.25500000920E-02 0.  1.
        2   -1    0    0  501    0  0.00000000000E+00  0.00000000000E+00 -0.18394649663E+04  0.18394649663E+04  0.25500000920E-02 0. -1.
    10030    2    1    2    0    0  0.00000000000E+00  0.00000000000E+00 -0.17526353721E+04  0.19262945605E+04  0.79929968504E+03 0.  0.
        5    1    3    3  502    0  0.18618214597E+03  0.34474914112E+03 -0.68682927911E+03  0.79074162052E+03  0.46999998093E+01 0. -1.
       -5    1    3    3    0  502 -0.18618214597E+03 -0.34474914112E+03 -0.10658060930E+04  0.11355529400E+04  0.46999998093E+01 0.  1.
</event>
<event>
 5   0  0.6970013E-04  0.8005916E+03  0.7818609E-02  0.9559161E-01
        2   -1    0    0  501    0  0.00000000000E+00  0.00000000000E+00  0.19243966719E+04  0.19243966719E+04  0.25500000920E-02 0. -1.
       -2   -1    0    0    0  501  0.00000000000E+00  0.00000000000E+00 -0.83265956181E+02  0.83265956220E+02  0.25500000920E-02 0.  1.
    10030    2    1    2    0    0  0.00000000000E+00  0.00000000000E+00  0.18411307157E+04  0.20076626281E+04  0.80059160375E+03 0.  0.
        3    1    3    3  502    0  0.11747919237E+03  0.12542232178E+03  0.18271850311E+04  0.18352485575E+04  0.10100000352E+00 0. -1.
       -3    1    3    3    0  502 -0.11747919237E+03 -0.12542232178E+03  0.13945684570E+02  0.17241407065E+03  0.10100000352E+00 0.  1.
</event>
<event>
 5   0  0.4086111E-04  0.8019365E+03  0.7818609E-02  0.9557218E-01
       -1   -1    0    0    0  501  0.00000000000E+00  0.00000000000E+00  0.32263253899E+03  0.32263253903E+03  0.50400001928E-02 0.  1.
        1   -1    0    0  501    0  0.00000000000E+00  0.00000000000E+00 -0.49832404514E+03  0.49832404516E+03  0.50400001928E-02 0. -1.
    10030    2    1    2    0    0  0.00000000000E+00  0.00000000000E+00 -0.17569150615E+03  0.82095658419E+03  0.80193653601E+03 0.  0.
        3    1    3    3  502    0 -0.38309247965E+03 -0.66454520775E+02 -0.18814652617E+03  0.43194348798E+03  0.10100000352E+00 0. -1.
       -3    1    3    3    0  502  0.38309247965E+03  0.66454520775E+02  0.12455020019E+02  0.38901309621E+03  0.10100000352E+00 0.  1.
</event>
<event>
 5   0  0.6672462E-04  0.8023663E+03  0.7818609E-02  0.9556598E-01
        2   -1    0    0  501    0  0.00000000000E+00  0.00000000000E+00  0.18070824191E+03  0.18070824193E+03  0.25500000920E-02 0. -1.
       -2   -1    0    0    0  501  0.00000000000E+00  0.00000000000E+00 -0.89065079257E+03  0.89065079257E+03  0.25500000920E-02 0.  1.
    10030    2    1    2    0    0  0.00000000000E+00  0.00000000000E+00 -0.70994255066E+03  0.10713590345E+04  0.80236634748E+03 0.  0.
        5    1    3    3  502    0  0.37128086831E+03  0.15089398030E+03 -0.33156163263E+03  0.52016697579E+03  0.46999998093E+01 0. -1.
       -5    1    3    3    0  502 -0.37128086831E+03 -0.15089398030E+03 -0.37838091803E+03  0.55119205872E+03  0.46999998093E+01 0.  1.
</event>
<event>
 5   0  0.7133039E-04  0.8006699E+03  0.7818609E-02  0.9559048E-01
       -2   -1    0    0    0  501  0.00000000000E+00  0.00000000000E+00  0.17593163472E+03  0.17593163474E+03  0.25500000920E-02 0.  1.
        2   -1    0    0  501    0  0.00000000000E+00  0.00000000000E+00 -0.91096779295E+03  0.91096779295E+03  0.25500000920E-02 0. -1.
    10030    2    1    2    0    0  0.00000000000E+00  0.00000000000E+00 -0.73503615823E+03  0.10868994277E+04  0.80066985206E+03 0.  0.
        2    1    3    3  502    0 -0.67749820487E+00  0.31379125909E+03 -0.30044796095E+02  0.31522706588E+03  0.25500000920E-02 0.  1.
       -2    1    3    3    0  502  0.67749820487E+00 -0.31379125909E+03 -0.70499136213E+03  0.77167236180E+03  0.25500000920E-02 0. -1.
</event>
<event>
 5   0  0.6672462E-04  0.7974874E+03  0.7818609E-02  0.9563661E-01
       -2   -1    0    0    0  501  0.00000000000E+00  0.00000000000E+00  0.10364513249E+04  0.10364513249E+04  0.25500000920E-02 0. -1.
        2   -1    0    0  501    0  0.00000000000E+00  0.00000000000E+00 -0.15340474495E+03  0.15340474497E+03  0.25500000920E-02 0.  1.
    10030    2    1    2    0    0  0.00000000000E+00  0.00000000000E+00  0.88304657995E+03  0.11898560699E+04  0.79748743229E+03 0.  0.
        5    1    3    3  502    0  0.16120268774E+03 -0.16387941384E+03  0.92758692169E+03  0.95565807489E+03  0.46999998093E+01 0. -1.
       -5    1    3    3    0  502 -0.16120268774E+03  0.16387941384E+03 -0.44540341740E+02  0.23419799498E+03  0.46999998093E+01 0.  1.
</event>
<event>
 5   0  0.4087283E-04  0.8000940E+03  0.7818609E-02  0.9559881E-01
       -1   -1    0    0    0  501  0.00000000000E+00  0.00000000000E+00  0.94298022712E+02  0.94298022847E+02  0.50400001928E-02 0. -1.
        1   -1    0    0  501    0  0.00000000000E+00  0.00000000000E+00 -0.16971467939E+04  0.16971467939E+04  0.50400001928E-02 0.  1.
    10030    2    1    2    0    0  0.00000000000E+00  0.00000000000E+00 -0.16028487711E+04  0.17914448167E+04  0.80009396208E+03 0.  0.
        1    1    3    3  502    0 -0.20192522557E+03  0.81605170661E+02 -0.50078182573E+02  0.22347488672E+03  0.50400001928E-02 0. -1.
       -1    1    3    3    0  502  0.20192522557E+03 -0.81605170661E+02 -0.15527705886E+04  0.15679699300E+04  0.50400001928E-02 0.  1.
</event>
<event>
 5   0  0.2736375E-04  0.8003652E+03  0.7818609E-02  0.9559489E-01
        3   -1    0    0  501    0  0.00000000000E+00  0.00000000000E+00  0.21476228867E+03  0.21476231242E+03  0.10100000352E+00 0. -1.
       -3   -1    0    0    0  501  0.00000000000E+00  0.00000000000E+00 -0.74569002798E+03  0.74569003482E+03  0.10100000352E+00 0.  1.
    10030    2    1    2    0    0  0.00000000000E+00  0.00000000000E+00 -0.53092773931E+03  0.96045234724E+03  0.80036519599E+03 0.  0.
        5    1    3    3  502    0 -0.67375622106E+02  0.36871103066E+03 -0.43362365176E+03  0.57318309461E+03  0.46999998093E+01 0.  1.
       -5    1    3    3    0  502  0.67375622106E+02 -0.36871103066E+03 -0.97304087542E+02  0.38726925263E+03  0.46999998093E+01 0. -1.
</event>
<event>
 5   0  0.7133039E-04  0.7998893E+03  0.7818609E-02  0.9560177E-01
       -2   -1    0    0    0  501  0.00000000000E+00  0.00000000000E+00  0.80798799260E+03  0.80798799261E+03  0.25500000920E-02 0.  1.
        2   -1    0    0  501    0  0.00000000000E+00  0.00000000000E+00 -0.19796792529E+03  0.19796792530E+03  0.25500000920E-02 0. -1.
    10030    2    1    2    0    0  0.00000000000E+00  0.00000000000E+00  0.61002006731E+03  0.10059559179E+04  0.79988925874E+03 0.  0.
        2    1    3    3  502    0 -0.34016074763E+02  0.34071047346E+03  0.45090318977E+02  0.34536047391E+03  0.25500000920E-02 0. -1.
       -2    1    3    3    0  502  0.34016074763E+02 -0.34071047346E+03  0.56492974834E+03  0.66059544400E+03  0.25500000920E-02 0.  1.
</event>
<event>
 5   0  0.4392552E-04  0.8012003E+03  0.7818609E-02  0.9558281E-01
       -1   -1    0    0    0  501  0.00000000000E+00  0.00000000000E+00  0.17433407511E+03  0.17433407519E+03  0.50400001928E-02 0. -1.
        1   -1    0    0  501    0  0.00000000000E+00  0.00000000000E+00 -0.92053426929E+03  0.92053426930E+03  0.50400001928E-02 0.  1.
    10030    2    1    2    0    0  0.00000000000E+00  0.00000000000E+00 -0.74620019418E+03  0.10948683445E+04  0.80120032575E+03 0.  0.
        5    1    3    3  502    0 -0.25392670422E+03 -0.21358848816E+03 -0.67976343784E+03  0.75643852018E+03  0.46999998093E+01 0.  1.
       -5    1    3    3    0  502  0.25392670422E+03  0.21358848816E+03 -0.66436756334E+02  0.33842982431E+03  0.46999998093E+01 0. -1.
</event>
<event>
 5   0  0.4086111E-04  0.8007477E+03  0.7818609E-02  0.9558935E-01
       -1   -1    0    0    0  501  0.00000000000E+00  0.00000000000E+00  0.11700958534E+04  0.11700958534E+04  0.50400001928E-02 0. -1.
        1   -1    0    0  501    0  0.00000000000E+00  0.00000000000E+00 -0.13699666830E+03  0.13699666839E+03  0.50400001928E-02 0.  1.
    10030    2    1    2    0    0  0.00000000000E+00  0.00000000000E+00  0.10330991851E+04  0.13070925218E+04  0.80074773448E+03 0.  0.
        3    1    3    3  502    0  0.59203207190E+02 -0.86108303126E+01 -0.12965925840E+03  0.14279600705E+03  0.10100000352E+00 0.  1.
       -3    1    3    3    0  502 -0.59203207190E+02  0.86108303126E+01  0.11627584435E+04  0.11642965147E+04  0.10100000352E+00 0. -1.
</event>
<event>
 5   0  0.6801147E-04  0.8002241E+03  0.7818609E-02  0.9559693E-01
        2   -1    0    0  501    0  0.00000000000E+00  0.00000000000E+00  0.94105956735E+03  0.94105956735E+03  0.25500000920E-02 0.  1.
       -2   -1    0    0    0  501  0.00000000000E+00  0.00000000000E+00 -0.17011636580E+03  0.17011636582E+03  0.25500000920E-02 0. -1.
    10030    2    1    2    0    0  0.00000000000E+00  0.00000000000E+00  0.77094320154E+03  0.11111759332E+04  0.80022405266E+03 0.  0.
        4    1    3    3  502    0 -0.35864063849E+03 -0.13262063244E+03  0.54904550804E+03  0.66907691824E+03  0.12699999809E+01 0.  1.
       -4    1    3    3    0  502  0.35864063849E+03  0.13262063244E+03  0.22189769350E+03  0.44209901493E+03  0.12699999809E+01 0. -1.
</event>
<event>
 5   0  0.4086111E-04  0.7999051E+03  0.7818609E-02  0.9560154E-01
       -1   -1    0    0    0  501  0.00000000000E+00  0.00000000000E+00  0.57504381368E+03  0.57504381370E+03  0.50400001928E-02 0. -1.
        1   -1    0    0  501    0  0.00000000000E+00  0.00000000000E+00 -0.27817367116E+03  0.27817367121E+03  0.50400001928E-02 0.  1.
    10030    2    1    2    0    0  0.00000000000E+00  0.00000000000E+00  0.29687014252E+03  0.85321748491E+03  0.79990511627E+03 0.  0.
        3    1    3    3  502    0 -0.19416159967E+03 -0.34815023823E+03  0.18307608248E+03  0.43866180292E+03  0.10100000352E+00 0.  1.
       -3    1    3    3    0  502  0.19416159967E+03  0.34815023823E+03  0.11379406004E+03  0.41455568199E+03  0.10100000352E+00 0. -1.
</event>
<event>
 5   0  0.4169155E-04  0.8000272E+03  0.7818609E-02  0.9559978E-01
       -1   -1    0    0    0  501  0.00000000000E+00  0.00000000000E+00  0.18854529695E+04  0.18854529695E+04  0.50400001928E-02 0.  1.
        1   -1    0    0  501    0  0.00000000000E+00  0.00000000000E+00 -0.84866012726E+02  0.84866012875E+02  0.50400001928E-02 0. -1.
    10030    2    1    2    0    0  0.00000000000E+00  0.00000000000E+00  0.18005869568E+04  0.19703189824E+04  0.80002718919E+03 0.  0.
        4    1    3    3  502    0 -0.23133435013E+03  0.32518834526E+03  0.96757033297E+03  0.10466408188E+04  0.12699999809E+01 0. -1.
       -4    1    3    3    0  502  0.23133435013E+03 -0.32518834526E+03  0.83301662385E+03  0.92367816362E+03  0.12699999809E+01 0.  1.
</event>
<event>
 5   0  0.4086111E-04  0.8002662E+03  0.7818609E-02  0.9559632E-01
        1   -1    0    0  501    0  0.00000000000E+00  0.00000000000E+00  0.40615825460E+03  0.40615825463E+03  0.50400001928E-02 0. -1.
       -1   -1    0    0    0  501  0.00000000000E+00  0.00000000000E+00 -0.39419733426E+03  0.39419733430E+03  0.50400001928E-02 0.  1.
    10030    2    1    2    0    0  0.00000000000E+00  0.00000000000E+00  0.11960920331E+02  0.80035558892E+03  0.80026620890E+03 0.  0.
        3    1    3    3  502    0  0.35904106505E+03 -0.10745491346E+02 -0.17033596597E+03  0.39754283226E+03  0.10100000352E+00 0.  1.
       -3    1    3    3    0  502 -0.35904106505E+03  0.10745491346E+02  0.18229688630E+03  0.40281275667E+03  0.10100000352E+00 0. -1.
</event>
<event>
 5   0  0.6672462E-04  0.7999712E+03  0.7818609E-02  0.9560059E-01
        2   -1    0    0  501    0  0.00000000000E+00  0.00000000000E+00  0.84480451415E+03  0.84480451415E+03  0.25500000920E-02 0.  1.
       -2   -1    0    0    0  501  0.00000000000E+00  0.00000000000E+00 -0.18937930190E+03  0.18937930192E+03  0.25500000920E-02 0. -1.
    10030    2    1    2    0    0  0.00000000000E+00  0.00000000000E+00  0.65542521224E+03  0.10341838161E+04  0.79997122234E+03 0.  0.
        5    1    3    3  502    0  0.36496185420E+03  0.16323733446E+03  0.31338570739E+03  0.50801208055E+03  0.46999998093E+01 0.  1.
       -5    1    3    3    0  502 -0.36496185420E+03 -0.16323733446E+03  0.34203950485E+03  0.52617173552E+03  0.46999998093E+01 0. -1.
</event>
<event>
 5   0  0.4169155E-04  0.7999797E+03  0.7818609E-02  0.9560047E-01
       -1   -1    0    0    0  501  0.00000000000E+00  0.00000000000E+00  0.32119436395E+03  0.32119436399E+03  0.50400001928E-02 0.  1.
        1   -1    0    0  501    0  0.00000000000E+00  0.00000000000E+00 -0.49811543639E+03  0.49811543642E+03  0.50400001928E-02 0. -1.
    10030    2    1    2    0    0  0.00000000000E+00  0.00000000000E+00 -0.17692107244E+03  0.81930980040E+03  0.79997967672E+03 0.  0.
        4    1    3    3  502    0 -0.31111621371E+03  0.18726807998E+03  0.83304882624E+02  0.37256401945E+03  0.12699999809E+01 0. -1.
       -4    1    3    3    0  502  0.31111621371E+03 -0.18726807998E+03 -0.26022595506E+03  0.44674578096E+03  0.12699999809E+01 0.  1.
</event>
<event>
 5   0  0.4392552E-04  0.8026791E+03  0.7818609E-02  0.9556147E-01
       -1   -1    0    0    0  501  0.00000000000E+00  0.00000000000E+00  0.95499125576E+02  0.95499125709E+02  0.50400001928E-02 0.  1.
        1   -1    0    0  501    0  0.00000000000E+00  0.00000000000E+00 -0.16866484447E+04  0.16866484447E+04  0.50400001928E-02 0. -1.
    10030    2    1    2    0    0  0.00000000000E+00  0.00000000000E+00 -0.15911493191E+04  0.17821475704E+04  0.80267914324E+03 0.  0.
        5    1    3    3  502    0  0.29115353594E+03 -0.26065414640E+03 -0.99834060911E+03  0.10721086826E+04  0.46999998093E+01 0. -1.
       -5    1    3    3    0  502 -0.29115353594E+03  0.26065414640E+03 -0.59280871000E+03  0.71003888779E+03  0.46999998093E+01 0.  1.
</event>
<event>
 5   0  0.6672462E-04  0.7997987E+03  0.7818609E-02  0.9560308E-01
        2   -1    0    0  501    0  0.00000000000E+00  0.00000000000E+00  0.48817425211E+03  0.48817425211E+03  0.25500000920E-02 0. -1.
       -2   -1    0    0    0  501  0.00000000000E+00  0.00000000000E+00 -0.32758692794E+03  0.32758692795E+03  0.25500000920E-02 0.  1.
    10030    2    1    2    0    0  0.00000000000E+00  0.00000000000E+00  0.16058732417E+03  0.81576118007E+03  0.79979873357E+03 0.  0.
        5    1    3    3  502    0  0.43256432596E+02  0.41267776688E+02 -0.32297468143E+03  0.32849487545E+03  0.46999998093E+01 0.  1.
       -5    1    3    3    0  502 -0.43256432596E+02 -0.41267776688E+02  0.48356200560E+03  0.48726630461E+03  0.46999998093E+01 0. -1.
</event>
<event>
 5   0  0.4392552E-04  0.8000541E+03  0.7818609E-02  0.9559939E-01
        1   -1    0    0  501    0  0.00000000000E+00  0.00000000000E+00  0.17121171753E+04  0.17121171753E+04  0.50400001928E-02 0.  1.
       -1   -1    0    0    0  501  0.00000000000E+00  0.00000000000E+00 -0.93464177299E+02  0.93464177434E+02  0.50400001928E-02 0. -1.
    10030    2    1    2    0    0  0.00000000000E+00  0.00000000000E+00  0.16186529980E+04  0.18055813528E+04  0.80005405658E+03 0.  0.
        5    1    3    3  502    0 -0.88676048695E+01  0.20261935738E+03  0.31241410686E+02  0.20525923643E+03  0.46999998093E+01 0. -1.
       -5    1    3    3    0  502  0.88676048695E+01 -0.20261935738E+03  0.15874115873E+04  0.16003221163E+04  0.46999998093E+01 0.  1.
</event>
<event>
 5   0  0.6801147E-04  0.7999490E+03  0.7818609E-02  0.9560091E-01
        2   -1    0    0  501    0  0.00000000000E+00  0.00000000000E+00  0.27327839682E+03  0.27327839683E+03  0.25500000920E-02 0.  1.
       -2   -1    0    0    0  501  0.00000000000E+00  0.00000000000E+00 -0.58540881831E+03  0.58540881832E+03  0.25500000920E-02 0. -1.
    10030    2    1    2    0    0  0.00000000000E+00  0.00000000000E+00 -0.31213042149E+03  0.85868721515E+03  0.79994895677E+03 0.  0.
        4    1    3    3  502    0 -0.12186624549E+03 -0.19204450611E+03  0.19709977440E+03  0.30096911484E+03  0.12699999809E+01 0.  1.
       -4    1    3    3    0  502  0.12186624549E+03  0.19204450611E+03 -0.50923019589E+03  0.55771810032E+03  0.12699999809E+01 0. -1.
</event>
<event>
 5   0  0.4104786E-04  0.8001393E+03  0.7818609E-02  0.9559816E-01
        1   -1    0    0  501    0  0.00000000000E+00  0.00000000000E+00  0.51447492547E+03  0.51447492550E+03  0.50400001928E-02 0.  1.
       -1   -1    0    0    0  501  0.00000000000E+00  0.00000000000E+00 -0.31110498149E+03  0.31110498153E+03  0.50400001928E-02 0. -1.
    10030    2    1    2    0    0  0.00000000000E+00  0.00000000000E+00  0.20336994398E+03  0.82557990703E+03  0.80013926836E+03 0.  0.
        2    1    3    3  502    0  0.16388918540E+03  0.21476993881E+02  0.47759672691E+03  0.50539050240E+03  0.25500000920E-02 0.  1.
       -2    1    3    3    0  502 -0.16388918540E+03 -0.21476993881E+02 -0.27422678292E+03  0.32018940463E+03  0.25500000920E-02 0. -1.
</event>
<event>
 5   0  0.4104786E-04  0.8000248E+03  0.7818609E-02  0.9559981E-01
       -1   -1    0    0    0  501  0.00000000000E+00  0.00000000000E+00  0.24152793533E+03  0.24152793539E+03  0.50400001928E-02 0. -1.
        1   -1    0    0  501    0  0.00000000000E+00  0.00000000000E+00 -0.66249025427E+03  0.66249025429E+03  0.50400001928E-02 0.  1.
    10030    2    1    2    0    0  0.00000000000E+00  0.00000000000E+00 -0.42096231894E+03  0.90401818968E+03  0.80002475793E+03 0.  0.
        2    1    3    3  502    0 -0.11825957921E+03  0.18660272517E+03 -0.58730115746E+03  0.62747793163E+03  0.25500000920E-02 0.  1.
       -2    1    3    3    0  502  0.11825957921E+03 -0.18660272517E+03  0.16633883852E+03  0.27654025805E+03  0.25500000920E-02 0. -1.
</event>
<event>
 5   0  0.4087283E-04  0.8000312E+03  0.7818609E-02  0.9559972E-01
        1   -1    0    0  501    0  0.00000000000E+00  0.00000000000E+00  0.30034944277E+03  0.30034944282E+03  0.50400001928E-02 0. -1.
       -1   -1    0    0    0  501  0.00000000000E+00  0.00000000000E+00 -0.53275435021E+03  0.53275435023E+03  0.50400001928E-02 0.  1.
    10030    2    1    2    0    0  0.00000000000E+00  0.00000000000E+00 -0.23240490743E+03  0.83310379305E+03  0.80003118001E+03 0.  0.
        1    1    3    3  502    0 -0.13595231298E+03  0.24958329436E+02  0.27469041470E+03  0.30750735530E+03  0.50400001928E-02 0. -1.
       -1    1    3    3    0  502  0.13595231298E+03 -0.24958329436E+02 -0.50709532213E+03  0.52559643774E+03  0.50400001928E-02 0.  1.
</event>
<event>
 5   0  0.6970013E-04  0.7999569E+03  0.7818609E-02  0.9560080E-01
       -2   -1    0    0    0  501  0.00000000000E+00  0.00000000000E+00  0.43917902180E+03  0.43917902181E+03  0.25500000920E-02 0. -1.
        2   -1    0    0  501    0  0.00000000000E+00  0.00000000000E+00 -0.36427683000E+03  0.36427683001E+03  0.25500000920E-02 0.  1.
    10030    2    1    2    0    0  0.00000000000E+00  0.00000000000E+00  0.74902191802E+02  0.80345585181E+03  0.79995685351E+03 0.  0.
        3    1    3    3  502    0  0.20903040084E+03 -0.23148511206E+03  0.28895337294E+03  0.42517423195E+03  0.10100000352E+00 0. -1.
       -3    1    3    3    0  502 -0.20903040084E+03  0.23148511206E+03 -0.21405118113E+03  0.37828161986E+03  0.10100000352E+00 0.  1.
</event>
<event>
 5   0  0.4104786E-04  0.7999501E+03  0.7818609E-02  0.9560089E-01
       -1   -1    0    0    0  501  0.00000000000E+00  0.00000000000E+00  0.31420195831E+03  0.31420195835E+03  0.50400001928E-02 0.  1.
        1   -1    0    0  501    0  0.00000000000E+00  0.00000000000E+00 -0.50916314417E+03  0.50916314419E+03  0.50400001928E-02 0. -1.
    10030    2    1    2    0    0  0.00000000000E+00  0.00000000000E+00 -0.19496118586E+03  0.82336510254E+03  0.79995014100E+03 0.  0.
        2    1    3    3  502    0 -0.16059484411E+03  0.30885252500E+03 -0.30022199151E+03  0.45968884078E+03  0.25500000920E-02 0.  1.
       -2    1    3    3    0  502  0.16059484411E+03 -0.30885252500E+03  0.10526080565E+03  0.36367626175E+03  0.25500000920E-02 0. -1.
</event>
<event>
 5   0  0.2736375E-04  0.7996461E+03  0.7818609E-02  0.9560530E-01
       -3   -1    0    0    0  501  0.00000000000E+00  0.00000000000E+00  0.85342916225E+02  0.85342975989E+02  0.10100000352E+00 0.  1.
        3   -1    0    0  501    0  0.00000000000E+00  0.00000000000E+00 -0.18731302285E+04  0.18731302312E+04  0.10100000352E+00 0. -1.
    10030    2    1    2    0    0  0.00000000000E+00  0.00000000000E+00 -0.17877873123E+04  0.19584732072E+04  0.79964606510E+03 0.  0.
        4    1    3    3  502    0  0.32657253097E+03  0.22594533248E+03 -0.78017349131E+03  0.87542743886E+03  0.12699999809E+01 0.  1.
       -4    1    3    3    0  502 -0.32657253097E+03 -0.22594533248E+03 -0.10076138209E+04  0.10830457683E+04  0.12699999809E+01 0. -1.
</event>
<event>
 5   0  0.4104786E-04  0.7999180E+03  0.7818609E-02  0.9560136E-01
        1   -1    0    0  501    0  0.00000000000E+00  0.00000000000E+00  0.24248915128E+03  0.24248915133E+03  0.50400001928E-02 0.  1.
       -1   -1    0    0    0  501  0.00000000000E+00  0.00000000000E+00 -0.65968808160E+03  0.65968808162E+03  0.50400001928E-02 0. -1.
    10030    2    1    2    0    0  0.00000000000E+00  0.00000000000E+00 -0.41719893033E+03  0.90217723296E+03  0.79991800342E+03 0.  0.
        2    1    3    3  502    0  0.36171217431E+03  0.62059282340E+02 -0.29276369396E+02  0.36816322111E+03  0.25500000920E-02 0. -1.
       -2    1    3    3    0  502 -0.36171217431E+03 -0.62059282340E+02 -0.38792256093E+03  0.53401401185E+03  0.25500000920E-02 0.  1.
</event>
<event>
 5   0  0.6672462E-04  0.8000440E+03  0.7818609E-02  0.9559953E-01
       -2   -1    0    0    0  501  0.00000000000E+00  0.00000000000E+00  0.26124125748E+03  0.26124125749E+03  0.25500000920E-02 0. -1.
        2   -1    0    0  501    0  0.00000000000E+00  0.00000000000E+00 -0.61252810983E+03  0.61252810984E+03  0.25500000920E-02 0.  1.
    10030    2    1    2    0    0  0.00000000000E+00  0.00000000000E+00 -0.35128685235E+03  0.87376936733E+03  0.80004403294E+03 0.  0.
        5    1    3    3  502    0 -0.15238017403E+03  0.12448418605E+03  0.20470061120E+03  0.28397263994E+03  0.46999998093E+01 0. -1.
       -5    1    3    3    0  502  0.15238017403E+03 -0.12448418605E+03 -0.55598746355E+03  0.58979672739E+03  0.46999998093E+01 0.  1.
</event>
<event>
 5   0  0.6801147E-04  0.7997115E+03  0.7818609E-02  0.9560435E-01
        2   -1    0    0  501    0  0.00000000000E+00  0.00000000000E+00  0.60133516994E+03  0.60133516994E+03  0.25500000920E-02 0.  1.
       -2   -1    0    0    0  501  0.00000000000E+00  0.00000000000E+00 -0.26588272446E+03  0.26588272447E+03  0.25500000920E-02 0. -1.
    10030    2    1    2    0    0  0.00000000000E+00  0.00000000000E+00  0.33545244548E+03  0.86721789441E+03  0.79971153125E+03 0.  0.
        4    1    3    3  502    0 -0.67588630295E+02 -0.20217107200E+03  0.53457488306E+03  0.57551132378E+03  0.12699999809E+01 0.  1.
       -4    1    3    3    0  502  0.67588630295E+02  0.20217107200E+03 -0.19912243759E+03  0.29170657063E+03  0.12699999809E+01 0. -1.
</event>
<event>
 5   0  0.4104786E-04  0.7999763E+03  0.7818609E-02  0.9560051E-01
        1   -1    0    0  501    0  0.00000000000E+00  0.00000000000E+00  0.11701259895E+04  0.11701259895E+04  0.50400001928E-02 0.  1.
       -1   -1    0    0    0  501  0.00000000000E+00  0.00000000000E+00 -0.13672932128E+03  0.13672932137E+03  0.50400001928E-02 0. -1.
    10030    2    1    2    0    0  0.00000000000E+00  0.00000000000E+00  0.10333966682E+04  0.13068553109E+04  0.79997633071E+03 0.  0.
        2    1    3    3  502    0 -0.36503248023E+03 -0.10095672303E+03  0.72685521156E+03  0.81960933994E+03  0.25500000920E-02 0.  1.
       -2    1    3    3    0  502  0.36503248023E+03  0.10095672303E+03  0.30654145668E+03  0.48724597096E+03  0.25500000920E-02 0. -1.
</event>
<event>
 5   0  0.4087283E-04  0.7998457E+03  0.7818609E-02  0.9560240E-01
        1   -1    0    0  501    0  0.00000000000E+00  0.00000000000E+00  0.15341949739E+04  0.15341949739E+04  0.50400001928E-02 0. -1.
       -1   -1    0    0    0  501  0.00000000000E+00  0.00000000000E+00 -0.10424899258E+03  0.10424899270E+03  0.50400001928E-02 0.  1.
    10030    2    1    2    0    0  0.00000000000E+00  0.00000000000E+00  0.14299459813E+04  0.16384439666E+04  0.79984568652E+03 0.  0.
        1    1    3    3  502    0  0.24192007555E+03 -0.29371098104E+03  0.96708067220E+03  0.10392480406E+04  0.50400001928E-02 0. -1.
       -1    1    3    3    0  502 -0.24192007555E+03  0.29371098104E+03  0.46286530914E+03  0.59919592602E+03  0.50400001928E-02 0.  1.
</event>
<event>
 5   0  0.4086111E-04  0.8002539E+03  0.7818609E-02  0.9559650E-01
        1   -1    0    0  501    0  0.00000000000E+00  0.00000000000E+00  0.42292775589E+03  0.42292775592E+03  0.50400001928E-02 0. -1.
       -1   -1    0    0    0  501  0.00000000000E+00  0.00000000000E+00 -0.37855535338E+03  0.37855535341E+03  0.50400001928E-02 0.  1.
    10030    2    1    2    0    0  0.00000000000E+00  0.00000000000E+00  0.44372402511E+02  0.80148310933E+03  0.80025387499E+03 0.  0.
        3    1    3    3  502    0  0.25021640181E+03 -0.17243272059E+03 -0.23852166585E+03  0.38630801978E+03  0.10100000352E+00 0.  1.
       -3    1    3    3    0  502 -0.25021640181E+03  0.17243272059E+03  0.28289406836E+03  0.41517508955E+03  0.10100000352E+00 0. -1.
</event>
<event>
 5   0  0.7133039E-04  0.8003251E+03  0.7818609E-02  0.9559547E-01
        2   -1    0    0  501    0  0.00000000000E+00  0.00000000000E+00  0.98127484018E+03  0.98127484018E+03  0.25500000920E-02 0.  1.
       -2   -1    0    0    0  501  0.00000000000E+00  0.00000000000E+00 -0.16318573228E+03  0.16318573230E+03  0.25500000920E-02 0. -1.
    10030    2    1    2    0    0  0.00000000000E+00  0.00000000000E+00  0.81808910790E+03  0.11444605725E+04  0.80032506739E+03 0.  0.
        2    1    3    3  502    0 -0.24381650483E+03  0.57882659888E+02 -0.37088944581E+02  0.25332287729E+03  0.25500000920E-02 0. -1.
       -2    1    3    3    0  502  0.24381650483E+03 -0.57882659888E+02  0.85517805248E+03  0.89113769519E+03  0.25500000920E-02 0.  1.
</event>
<event>
 5   0  0.4087283E-04  0.8002935E+03  0.7818609E-02  0.9559592E-01
       -1   -1    0    0    0  501  0.00000000000E+00  0.00000000000E+00  0.20231177516E+03  0.20231177523E+03  0.50400001928E-02 0.  1.
        1   -1    0    0  501    0  0.00000000000E+00  0.00000000000E+00 -0.79143905900E+03  0.79143905901E+03  0.50400001928E-02 0. -1.
    10030    2    1    2    0    0  0.00000000000E+00  0.00000000000E+00 -0.58912728383E+03  0.99375083424E+03  0.80029354864E+03 0.  0.
        1    1    3    3  502    0 -0.23410557467E+03  0.18935909186E+03 -0.62181422827E+03  0.69088003320E+03  0.50400001928E-02 0. -1.
       -1    1    3    3    0  502  0.23410557467E+03 -0.18935909186E+03  0.32686944439E+02  0.30287080104E+03  0.50400001928E-02 0.  1.
</event>
<event>
 5   0  0.6672462E-04  0.7997904E+03  0.7818609E-02  0.9560320E-01
       -2   -1    0    0    0  501  0.00000000000E+00  0.00000000000E+00  0.33166936149E+03  0.33166936150E+03  0.25500000920E-02 0.  1.
        2   -1    0    0  501    0  0.00000000000E+00  0.00000000000E+00 -0.48215543853E+03  0.48215543853E+03  0.25500000920E-02 0. -1.
    10030    2    1    2    0    0  0.00000000000E+00  0.00000000000E+00 -0.15048607703E+03  0.81382480004E+03  0.79979043866E+03 0.  0.
        5    1    3    3  502    0  0.28395375111E+03 -0.14489102621E+03  0.17038660455E+03  0.36149249959E+03  0.46999998093E+01 0.  1.
       -5    1    3    3    0  502 -0.28395375111E+03  0.14489102621E+03 -0.32087268158E+03  0.45233230045E+03  0.46999998093E+01 0. -1.
</event>
<event>
 5   0  0.4087283E-04  0.7999278E+03  0.7818609E-02  0.9560122E-01
       -1   -1    0    0    0  501  0.00000000000E+00  0.00000000000E+00  0.14182468295E+03  0.14182468304E+03  0.50400001928E-02 0.  1.
        1   -1    0    0  501    0  0.00000000000E+00  0.00000000000E+00 -0.11279498385E+04  0.11279498385E+04  0.50400001928E-02 0. -1.
    10030    2    1    2    0    0  0.00000000000E+00  0.00000000000E+00 -0.98612515559E+03  0.12697745216E+04  0.79992781748E+03 0.  0.
        1    1    3    3  502    0  0.33916797528E+03  0.11534911492E+03 -0.77537556620E+03  0.85413558787E+03  0.50400001928E-02 0. -1.
       -1    1    3    3    0  502 -0.33916797528E+03 -0.11534911492E+03 -0.21074958938E+03  0.41563893372E+03  0.50400001928E-02 0.  1.
</event>
<event>
 5   0  0.7133039E-04  0.7978001E+03  0.7818609E-02  0.9563207E-01
       -2   -1    0    0    0  501  0.00000000000E+00  0.00000000000E+00  0.34029752532E+03  0.34029752533E+03  0.25500000920E-02 0.  1.
        2   -1    0    0  501    0  0.00000000000E+00  0.00000000000E+00 -0.46759452147E+03  0.46759452148E+03  0.25500000920E-02 0. -1.
    10030    2    1    2    0    0  0.00000000000E+00  0.00000000000E+00 -0.12729699615E+03  0.80789204680E+03  0.79780012162E+03 0.  0.
        2    1    3    3  502    0  0.17516110161E+03  0.27610061269E+03 -0.29503019673E+03  0.44040410629E+03  0.25500000920E-02 0. -1.
       -2    1    3    3    0  502 -0.17516110161E+03 -0.27610061269E+03  0.16773320058E+03  0.36748794052E+03  0.25500000920E-02 0.  1.
</event>
<event>
 5   0  0.4392552E-04  0.7993347E+03  0.7818609E-02  0.9560981E-01
       -1   -1    0    0    0  501  0.00000000000E+00  0.00000000000E+00  0.36391350667E+03  0.36391350670E+03  0.50400001928E-02 0. -1.
        1   -1    0    0  501    0  0.00000000000E+00  0.00000000000E+00 -0.43893388908E+03  0.43893388911E+03  0.50400001928E-02 0.  1.
    10030    2    1    2    0    0  0.00000000000E+00  0.00000000000E+00 -0.75020382415E+02  0.80284739582E+03  0.79933465031E+03 0.  0.
        5    1    3    3  502    0  0.33530214008E+03 -0.26543235740E+02 -0.25428221412E+03  0.42167950261E+03  0.46999998093E+01 0.  1.
       -5    1    3    3    0  502 -0.33530214008E+03  0.26543235740E+02  0.17926183170E+03  0.38116789321E+03  0.46999998093E+01 0. -1.
</event>
<event>
 5   0  0.6672462E-04  0.8012863E+03  0.7818609E-02  0.9558157E-01
       -2   -1    0    0    0  501  0.00000000000E+00  0.00000000000E+00  0.12658677005E+03  0.12658677007E+03  0.25500000920E-02 0.  1.
        2   -1    0    0  501    0  0.00000000000E+00  0.00000000000E+00 -0.12680228598E+04  0.12680228598E+04  0.25500000920E-02 0. -1.
    10030    2    1    2    0    0  0.00000000000E+00  0.00000000000E+00 -0.11414360898E+04  0.13946096299E+04  0.80128626144E+03 0.  0.
        5    1    3    3  502    0  0.20897934620E+03  0.18304364611E+03 -0.10730928211E+04  0.11084798763E+04  0.46999998093E+01 0. -1.
       -5    1    3    3    0  502 -0.20897934620E+03 -0.18304364611E+03 -0.68343268707E+02  0.28612975361E+03  0.46999998093E+01 0.  1.
</event>
<event>
 5   0  0.4087283E-04  0.7995857E+03  0.7818609E-02  0.9560617E-01
        1   -1    0    0  501    0  0.00000000000E+00  0.00000000000E+00  0.32258254140E+03  0.32258254144E+03  0.50400001928E-02 0.  1.
       -1   -1    0    0    0  501  0.00000000000E+00  0.00000000000E+00 -0.49548354093E+03  0.49548354096E+03  0.50400001928E-02 0. -1.
    10030    2    1    2    0    0  0.00000000000E+00  0.00000000000E+00 -0.17290099953E+03  0.81806608240E+03  0.79958574245E+03 0.  0.
        1    1    3    3  502    0 -0.12505129378E+03  0.15726568703E+03 -0.44007463883E+03  0.48377268439E+03  0.50400001928E-02 0. -1.
       -1    1    3    3    0  502  0.12505129378E+03 -0.15726568703E+03  0.26717363930E+03  0.33429339801E+03  0.50400001928E-02 0.  1.
</event>
<event>
 5   0  0.4104786E-04  0.7992040E+03  0.7818609E-02  0.9561170E-01
        1   -1    0    0  501    0  0.00000000000E+00  0.00000000000E+00  0.30785099151E+03  0.30785099155E+03  0.50400001928E-02 0. -1.
       -1   -1    0    0    0  501  0.00000000000E+00  0.00000000000E+00 -0.51869822572E+03  0.51869822575E+03  0.50400001928E-02 0.  1.
    10030    2    1    2    0    0  0.00000000000E+00  0.00000000000E+00 -0.21084723421E+03  0.82654921730E+03  0.79920401178E+03 0.  0.
        2    1    3    3  502    0 -0.46117458331E+02 -0.29091390843E+03  0.17386062154E+03  0.34203104802E+03  0.25500000920E-02 0. -1.
       -2    1    3    3    0  502  0.46117458331E+02  0.29091390843E+03 -0.38470785575E+03  0.48451816928E+03  0.25500000920E-02 0.  1.
</event>
<event>
 5   0  0.6970013E-04  0.7998895E+03  0.7818609E-02  0.9560177E-01
        2   -1    0    0  501    0  0.00000000000E+00  0.00000000000E+00  0.84202284269E+03  0.84202284270E+03  0.25500000920E-02 0.  1.
       -2   -1    0    0    0  501  0.00000000000E+00  0.00000000000E+00 -0.18996608730E+03  0.18996608732E+03  0.25500000920E-02 0. -1.
    10030    2    1    2    0    0  0.00000000000E+00  0.00000000000E+00  0.65205675539E+03  0.10319889300E+04  0.79988945450E+03 0.  0.
        3    1    3    3  502    0 -0.13641955880E+03 -0.22871881998E+03  0.71099316834E+03  0.75923243494E+03  0.10100000352E+00 0.  1.
       -3    1    3    3    0  502  0.13641955880E+03  0.22871881998E+03 -0.58936412949E+02  0.27275649508E+03  0.10100000352E+00 0. -1.
</event>
<event>
 5   0  0.4086111E-04  0.7991103E+03  0.7818609E-02  0.9561306E-01
        1   -1    0    0  501    0  0.00000000000E+00  0.00000000000E+00  0.11236500603E+04  0.11236500603E+04  0.50400001928E-02 0. -1.
       -1   -1    0    0    0  501  0.00000000000E+00  0.00000000000E+00 -0.14207653563E+03  0.14207653572E+03  0.50400001928E-02 0.  1.
    10030    2    1    2    0    0  0.00000000000E+00  0.00000000000E+00  0.98157352466E+03  0.12657265960E+04  0.79911027497E+03 0.  0.
        3    1    3    3  502    0  0.15837288753E+02 -0.32031093205E+03  0.11331376412E+03  0.34013222759E+03  0.10100000352E+00 0.  1.
       -3    1    3    3    0  502 -0.15837288753E+02  0.32031093205E+03  0.86825976054E+03  0.92559436844E+03  0.10100000352E+00 0. -1.
</event>
<event>
 5   0  0.6593118E-04  0.8001067E+03  0.7818609E-02  0.9559863E-01
       -2   -1    0    0    0  501  0.00000000000E+00  0.00000000000E+00  0.35897857930E+03  0.35897857931E+03  0.25500000920E-02 0. -1.
        2   -1    0    0  501    0  0.00000000000E+00  0.00000000000E+00 -0.44582792133E+03  0.44582792134E+03  0.25500000920E-02 0.  1.
    10030    2    1    2    0    0  0.00000000000E+00  0.00000000000E+00 -0.86849342031E+02  0.80480650065E+03  0.80010667744E+03 0.  0.
        1    1    3    3  502    0  0.10899017943E+03  0.17614729686E+03  0.30083699997E+03  0.36525283021E+03  0.50400001928E-02 0. -1.
       -1    1    3    3    0  502 -0.10899017943E+03 -0.17614729686E+03 -0.38768634200E+03  0.43955367044E+03  0.50400001928E-02 0.  1.
</event>
<event>
 5   0  0.4087283E-04  0.8005214E+03  0.7818609E-02  0.9559263E-01
        1   -1    0    0  501    0  0.00000000000E+00  0.00000000000E+00  0.96871143991E+03  0.96871143992E+03  0.50400001928E-02 0. -1.
       -1   -1    0    0    0  501  0.00000000000E+00  0.00000000000E+00 -0.16538322051E+03  0.16538322059E+03  0.50400001928E-02 0.  1.
    10030    2    1    2    0    0  0.00000000000E+00  0.00000000000E+00  0.80332821940E+03  0.11340946605E+04  0.80052137443E+03 0.  0.
        1    1    3    3  502    0  0.29162368678E+03  0.17825392632E+03  0.10656350374E+03  0.35801482831E+03  0.50400001928E-02 0.  1.
       -1    1    3    3    0  502 -0.29162368678E+03 -0.17825392632E+03  0.69676471566E+03  0.77607983220E+03  0.50400001928E-02 0. -1.
</event>
<event>
 5   0  0.7133039E-04  0.8003098E+03  0.7818609E-02  0.9559569E-01
       -2   -1    0    0    0  501  0.00000000000E+00  0.00000000000E+00  0.16338380773E+03  0.16338380775E+03  0.25500000920E-02 0.  1.
        2   -1    0    0  501    0  0.00000000000E+00  0.00000000000E+00 -0.98004789788E+03  0.98004789789E+03  0.25500000920E-02 0. -1.
    10030    2    1    2    0    0  0.00000000000E+00  0.00000000000E+00 -0.81666409016E+03  0.11434317056E+04  0.80030983332E+03 0.  0.
        2    1    3    3  502    0  0.36857296633E+03 -0.11602578366E+03 -0.25974385967E+03  0.46559090050E+03  0.25500000920E-02 0. -1.
       -2    1    3    3    0  502 -0.36857296633E+03  0.11602578366E+03 -0.55692023049E+03  0.67784080514E+03  0.25500000920E-02 0.  1.
</event>
<event>
 5   0  0.4086111E-04  0.7992889E+03  0.7818609E-02  0.9561047E-01
       -1   -1    0    0    0  501  0.00000000000E+00  0.00000000000E+00  0.23544921820E+03  0.23544921826E+03  0.50400001928E-02 0.  1.
        1   -1    0    0  501    0  0.00000000000E+00  0.00000000000E+00 -0.67834443593E+03  0.67834443595E+03  0.50400001928E-02 0. -1.
    10030    2    1    2    0    0  0.00000000000E+00  0.00000000000E+00 -0.44289521773E+03  0.91379365421E+03  0.79928885178E+03 0.  0.
        3    1    3    3  502    0  0.61911118640E+01 -0.30537858802E+02  0.23405837864E+03  0.23612332689E+03  0.10100000352E+00 0.  1.
       -3    1    3    3    0  502 -0.61911118640E+01  0.30537858802E+02 -0.67695359637E+03  0.67767032732E+03  0.10100000352E+00 0. -1.
</event>
<event>
 5   0  0.6801147E-04  0.7999360E+03  0.7818609E-02  0.9560110E-01
        2   -1    0    0  501    0  0.00000000000E+00  0.00000000000E+00  0.25610969660E+04  0.25610969660E+04  0.25500000920E-02 0.  1.
       -2   -1    0    0    0  501  0.00000000000E+00  0.00000000000E+00 -0.62463241270E+02  0.62463241322E+02  0.25500000920E-02 0. -1.
    10030    2    1    2    0    0  0.00000000000E+00  0.00000000000E+00  0.24986337248E+04  0.26235602074E+04  0.79993604188E+03 0.  0.
        4    1    3    3  502    0  0.26412619411E+03 -0.53859482461E+02  0.22184112086E+04  0.22347289307E+04  0.12699999809E+01 0.  1.
       -4    1    3    3    0  502 -0.26412619411E+03  0.53859482461E+02  0.28022251618E+03  0.38883127670E+03  0.12699999809E+01 0. -1.
</event>
<event>
 5   0  0.6593118E-04  0.8000101E+03  0.7818609E-02  0.9560002E-01
       -2   -1    0    0    0  501  0.00000000000E+00  0.00000000000E+00  0.18169476018E+03  0.18169476019E+03  0.25500000920E-02 0. -1.
        2   -1    0    0  501    0  0.00000000000E+00  0.00000000000E+00 -0.88062003269E+03  0.88062003269E+03  0.25500000920E-02 0.  1.
    10030    2    1    2    0    0  0.00000000000E+00  0.00000000000E+00 -0.69892527251E+03  0.10623147929E+04  0.80001011408E+03 0.  0.
        1    1    3    3  502    0 -0.30900773049E+03 -0.14262172206E+03 -0.70364203445E+02  0.34753108387E+03  0.50400001928E-02 0. -1.
       -1    1    3    3    0  502  0.30900773049E+03  0.14262172206E+03 -0.62856106906E+03  0.71478370901E+03  0.50400001928E-02 0.  1.
</event>
<event>
 5   0  0.4086111E-04  0.7994225E+03  0.7818609E-02  0.9560853E-01
        1   -1    0    0  501    0  0.00000000000E+00  0.00000000000E+00  0.52059777686E+03  0.52059777688E+03  0.50400001928E-02 0. -1.
       -1   -1    0    0    0  501  0.00000000000E+00  0.00000000000E+00 -0.30689543607E+03  0.30689543611E+03  0.50400001928E-02 0.  1.
    10030    2    1    2    0    0  0.00000000000E+00  0.00000000000E+00  0.21370234078E+03  0.82749321300E+03  0.79942249599E+03 0.  0.
        3    1    3    3  502    0  0.27645826114E+03 -0.22535239612E+03 -0.79917885001E+02  0.36551299721E+03  0.10100000352E+00 0.  1.
       -3    1    3    3    0  502 -0.27645826114E+03  0.22535239612E+03  0.29362022579E+03  0.46198021578E+03  0.10100000352E+00 0. -1.
</event>
<event>
 5   0  0.4392552E-04  0.8019305E+03  0.7818609E-02  0.9557227E-01
       -1   -1    0    0    0  501  0.00000000000E+00  0.00000000000E+00  0.17277207593E+03  0.17277207600E+03  0.50400001928E-02 0. -1.
        1   -1    0    0  501    0  0.00000000000E+00  0.00000000000E+00 -0.93055047288E+03  0.93055047290E+03  0.50400001928E-02 0.  1.
    10030    2    1    2    0    0  0.00000000000E+00  0.00000000000E+00 -0.75777839695E+03  0.11033225489E+04  0.80193051321E+03 0.  0.
        5    1    3    3  502    0  0.17131065232E+03  0.48727969961E+02  0.11531896305E+03  0.21223173159E+03  0.46999998093E+01 0. -1.
       -5    1    3    3    0  502 -0.17131065232E+03 -0.48727969961E+02 -0.87309736001E+03  0.89109081731E+03  0.46999998093E+01 0.  1.
</event>
<event>
 5   0  0.4086111E-04  0.8004454E+03  0.7818609E-02  0.9559373E-01
       -1   -1    0    0    0  501  0.00000000000E+00  0.00000000000E+00  0.36554729586E+03  0.36554729590E+03  0.50400001928E-02 0.  1.
        1   -1    0    0  501    0  0.00000000000E+00  0.00000000000E+00 -0.43818742139E+03  0.43818742142E+03  0.50400001928E-02 0. -1.
    10030    2    1    2    0    0  0.00000000000E+00  0.00000000000E+00 -0.72640125534E+02  0.80373471732E+03  0.80044544348E+03 0.  0.
        3    1    3    3  502    0  0.18803135654E+03  0.75181452825E+02 -0.38294897135E+03  0.43319506778E+03  0.10100000352E+00 0. -1.
       -3    1    3    3    0  502 -0.18803135654E+03 -0.75181452825E+02  0.31030884581E+03  0.37053964954E+03  0.10100000352E+00 0.  1.
</event>
<event>
 5   0  0.4392552E-04  0.7985350E+03  0.7818609E-02  0.9562140E-01
       -1   -1    0    0    0  501  0.00000000000E+00  0.00000000000E+00  0.61116630728E+03  0.61116630730E+03  0.50400001928E-02 0. -1.
        1   -1    0    0  501    0  0.00000000000E+00  0.00000000000E+00 -0.26083660058E+03  0.26083660063E+03  0.50400001928E-02 0.  1.
    10030    2    1    2    0    0  0.00000000000E+00  0.00000000000E+00  0.35032970670E+03  0.87200290794E+03  0.79853501367E+03 0.  0.
        5    1    3    3  502    0  0.15870408287E+03  0.19413753904E+03  0.51441794301E+03  0.57229737032E+03  0.46999998093E+01 0. -1.
       -5    1    3    3    0  502 -0.15870408287E+03 -0.19413753904E+03 -0.16408823631E+03  0.29970553762E+03  0.46999998093E+01 0.  1.
</event>
<event>
 5   0  0.7133039E-04  0.7999504E+03  0.7818609E-02  0.9560089E-01
       -2   -1    0    0    0  501  0.00000000000E+00  0.00000000000E+00  0.83679222816E+02  0.83679222855E+02  0.25500000920E-02 0.  1.
        2   -1    0    0  501    0  0.00000000000E+00  0.00000000000E+00 -0.19118267477E+04  0.19118267477E+04  0.25500000920E-02 0. -1.
    10030    2    1    2    0    0  0.00000000000E+00  0.00000000000E+00 -0.18281475249E+04  0.19955059706E+04  0.79995043959E+03 0.  0.
        2    1    3    3  502    0  0.14735128689E+03 -0.96814371780E+02 -0.18096603233E+04  0.18182287838E+04  0.25500000920E-02 0. -1.
       -2    1    3    3    0  502 -0.14735128689E+03  0.96814371780E+02 -0.18487201581E+02  0.17727718680E+03  0.25500000920E-02 0.  1.
</event>
<event>
 5   0  0.4087283E-04  0.8006886E+03  0.7818609E-02  0.9559021E-01
        1   -1    0    0  501    0  0.00000000000E+00  0.00000000000E+00  0.78831158173E+03  0.78831158174E+03  0.50400001928E-02 0.  1.
       -1   -1    0    0    0  501  0.00000000000E+00  0.00000000000E+00 -0.20331500998E+03  0.20331501004E+03  0.50400001928E-02 0. -1.
    10030    2    1    2    0    0  0.00000000000E+00  0.00000000000E+00  0.58499657175E+03  0.99162659179E+03  0.80068864647E+03 0.  0.
        1    1    3    3  502    0 -0.11992004108E+03  0.34679849520E+03  0.94244625069E+02  0.37885625494E+03  0.50400001928E-02 0. -1.
       -1    1    3    3    0  502  0.11992004108E+03 -0.34679849520E+03  0.49075194668E+03  0.61277033685E+03  0.50400001928E-02 0.  1.
</event>
<event>
 5   0  0.6593118E-04  0.8002178E+03  0.7818609E-02  0.9559702E-01
       -2   -1    0    0    0  501  0.00000000000E+00  0.00000000000E+00  0.82502065656E+03  0.82502065656E+03  0.25500000920E-02 0.  1.
        2   -1    0    0  501    0  0.00000000000E+00  0.00000000000E+00 -0.19404014100E+03  0.19404014102E+03  0.25500000920E-02 0. -1.
    10030    2    1    2    0    0  0.00000000000E+00  0.00000000000E+00  0.63098051555E+03  0.10190607976E+04  0.80021778170E+03 0.  0.
        1    1    3    3  502    0 -0.34602251207E+03 -0.10888601430E+03  0.53047597848E+03  0.64264493053E+03  0.50400001928E-02 0.  1.
       -1    1    3    3    0  502  0.34602251207E+03  0.10888601430E+03  0.10050453707E+03  0.37641586705E+03  0.50400001928E-02 0. -1.
</event>
<event>
 5   0  0.6801147E-04  0.8000043E+03  0.7818609E-02  0.9560011E-01
       -2   -1    0    0    0  501  0.00000000000E+00  0.00000000000E+00  0.60765319374E+03  0.60765319374E+03  0.25500000920E-02 0. -1.
        2   -1    0    0  501    0  0.00000000000E+00  0.00000000000E+00 -0.26331091623E+03  0.26331091624E+03  0.25500000920E-02 0.  1.
    10030    2    1    2    0    0  0.00000000000E+00  0.00000000000E+00  0.34434227750E+03  0.87096410999E+03  0.80000429799E+03 0.  0.
        4    1    3    3  502    0 -0.27784205151E+03  0.28694650784E+03  0.14867938055E+03  0.42619440992E+03  0.12699999809E+01 0. -1.
       -4    1    3    3    0  502  0.27784205151E+03 -0.28694650784E+03  0.19566289695E+03  0.44476970006E+03  0.12699999809E+01 0.  1.
</event>
<event>
 5   0  0.4086111E-04  0.8002718E+03  0.7818609E-02  0.9559624E-01
       -1   -1    0    0    0  501  0.00000000000E+00  0.00000000000E+00  0.21131535334E+03  0.21131535340E+03  0.50400001928E-02 0.  1.
        1   -1    0    0  501    0  0.00000000000E+00  0.00000000000E+00 -0.75767688359E+03  0.75767688360E+03  0.50400001928E-02 0. -1.
    10030    2    1    2    0    0  0.00000000000E+00  0.00000000000E+00 -0.54636153024E+03  0.96899223701E+03  0.80027184984E+03 0.  0.
        3    1    3    3  502    0 -0.76591820236E+02 -0.27671808698E+03  0.64268221517E+02  0.29422715898E+03  0.10100000352E+00 0.  1.
       -3    1    3    3    0  502  0.76591820236E+02  0.27671808698E+03 -0.61062975176E+03  0.67476507802E+03  0.10100000352E+00 0. -1.
</event>
<event>
 5   0  0.6970013E-04  0.8008814E+03  0.7818609E-02  0.9558742E-01
       -2   -1    0    0    0  501  0.00000000000E+00  0.00000000000E+00  0.22962606958E+03  0.22962606959E+03  0.25500000920E-02 0. -1.
        2   -1    0    0  501    0  0.00000000000E+00  0.00000000000E+00 -0.69832127527E+03  0.69832127528E+03  0.25500000920E-02 0.  1.
    10030    2    1    2    0    0  0.00000000000E+00  0.00000000000E+00 -0.46869520569E+03  0.92794734487E+03  0.80088143880E+03 0.  0.
        3    1    3    3  502    0 -0.69326874901E+02  0.35634874933E+03 -0.38530658158E+02  0.36506885453E+03  0.10100000352E+00 0. -1.
       -3    1    3    3    0  502  0.69326874901E+02 -0.35634874933E+03 -0.43016454753E+03  0.56287849034E+03  0.10100000352E+00 0.  1.
</event>
<event>
 5   0  0.6593118E-04  0.7998196E+03  0.7818609E-02  0.9560278E-01
       -2   -1    0    0    0  501  0.00000000000E+00  0.00000000000E+00  0.39279606083E+03  0.39279606084E+03  0.25500000920E-02 0. -1.
        2   -1    0    0  501    0  0.00000000000E+00  0.00000000000E+00 -0.40715236678E+03  0.40715236679E+03  0.25500000920E-02 0.  1.
    10030    2    1    2    0    0  0.00000000000E+00  0.00000000000E+00 -0.14356305947E+02  0.79994842763E+03  0.79981959425E+03 0.  0.
        1    1    3    3  502    0 -0.34890680524E+02 -0.39327948718E+03  0.56406698652E+02  0.39883308577E+03  0.50400001928E-02 0. -1.
       -1    1    3    3    0  502  0.34890680524E+02  0.39327948718E+03 -0.70763004598E+02  0.40111534186E+03  0.50400001928E-02 0.  1.
</event>
<event>
 5   0  0.4104786E-04  0.7996690E+03  0.7818609E-02  0.9560496E-01
        1   -1    0    0  501    0  0.00000000000E+00  0.00000000000E+00  0.30808300399E+03  0.30808300403E+03  0.50400001928E-02 0.  1.
       -1   -1    0    0    0  501  0.00000000000E+00  0.00000000000E+00 -0.51891083840E+03  0.51891083842E+03  0.50400001928E-02 0. -1.
    10030    2    1    2    0    0  0.00000000000E+00  0.00000000000E+00 -0.21082783441E+03  0.82699384245E+03  0.79966895632E+03 0.  0.
        2    1    3    3  502    0 -0.27768123390E+02 -0.39760858888E+03 -0.13818179836E+03  0.42185052807E+03  0.25500000920E-02 0.  1.
       -2    1    3    3    0  502  0.27768123390E+02  0.39760858888E+03 -0.72646036050E+02  0.40514331438E+03  0.25500000920E-02 0. -1.
</event>
<event>
 5   0  0.4086111E-04  0.8002336E+03  0.7818609E-02  0.9559679E-01
       -1   -1    0    0    0  501  0.00000000000E+00  0.00000000000E+00  0.28378494474E+03  0.28378494478E+03  0.50400001928E-02 0.  1.
        1   -1    0    0  501    0  0.00000000000E+00  0.00000000000E+00 -0.56413657066E+03  0.56413657068E+03  0.50400001928E-02 0. -1.
    10030    2    1    2    0    0  0.00000000000E+00  0.00000000000E+00 -0.28035162592E+03  0.84792151547E+03  0.80023362978E+03 0.  0.
        3    1    3    3  502    0 -0.40006559462E+03 -0.41490565857E-01 -0.14695833324E+03  0.42620328909E+03  0.10100000352E+00 0. -1.
       -3    1    3    3    0  502  0.40006559462E+03  0.41490565857E-01 -0.13339329268E+03  0.42171822637E+03  0.10100000352E+00 0.  1.
</event>
<event>
 5   0  0.4087283E-04  0.8003584E+03  0.7818609E-02  0.9559498E-01
       -1   -1    0    0    0  501  0.00000000000E+00  0.00000000000E+00  0.18009098157E+03  0.18009098164E+03  0.50400001928E-02 0.  1.
        1   -1    0    0  501    0  0.00000000000E+00  0.00000000000E+00 -0.88923605849E+03  0.88923605850E+03  0.50400001928E-02 0. -1.
    10030    2    1    2    0    0  0.00000000000E+00  0.00000000000E+00 -0.70914507691E+03  0.10693270401E+04  0.80035840639E+03 0.  0.
        1    1    3    3  502    0  0.38647970071E+03  0.10380851942E+03 -0.35351470558E+03  0.53396199758E+03  0.50400001928E-02 0.  1.
       -1    1    3    3    0  502 -0.38647970071E+03 -0.10380851942E+03 -0.35563037133E+03  0.53536504257E+03  0.50400001928E-02 0. -1.
</event>
<event>
 5   0  0.6672462E-04  0.8002752E+03  0.7818609E-02  0.9559619E-01
       -2   -1    0    0    0  501  0.00000000000E+00  0.00000000000E+00  0.14444224957E+03  0.14444224959E+03  0.25500000920E-02 0. -1.
        2   -1    0    0  501    0  0.00000000000E+00  0.00000000000E+00 -0.11084712819E+04  0.11084712819E+04  0.25500000920E-02 0.  1.
    10030    2    1    2    0    0  0.00000000000E+00  0.00000000000E+00 -0.96402903231E+03  0.12529135315E+04  0.80027516657E+03 0.  0.
        5    1    3    3  502    0 -0.27271418083E+03  0.25566701169E+03 -0.25867939077E+03  0.45461606054E+03  0.46999998093E+01 0. -1.
       -5    1    3    3    0  502  0.27271418083E+03 -0.25566701169E+03 -0.70534964154E+03  0.79829747094E+03  0.46999998093E+01 0.  1.
</event>
<event>
 5   0  0.6970013E-04  0.7991770E+03  0.7818609E-02  0.9561209E-01
       -2   -1    0    0    0  501  0.00000000000E+00  0.00000000000E+00  0.74115116955E+03  0.74115116956E+03  0.25500000920E-02 0.  1.
        2   -1    0    0  501    0  0.00000000000E+00  0.00000000000E+00 -0.21543643835E+03  0.21543643837E+03  0.25500000920E-02 0. -1.
    10030    2    1    2    0    0  0.00000000000E+00  0.00000000000E+00  0.52571473120E+03  0.95658760792E+03  0.79917699731E+03 0.  0.
        3    1    3    3  502    0  0.28235495688E+03  0.26661264493E+03  0.37555241281E+03  0.54022796029E+03  0.10100000352E+00 0.  1.
       -3    1    3    3    0  502 -0.28235495688E+03 -0.26661264493E+03  0.15016231840E+03  0.41635964763E+03  0.10100000352E+00 0. -1.
</event>
<event>
 5   0  0.6801147E-04  0.7997905E+03  0.7818609E-02  0.9560320E-01
        2   -1    0    0  501    0  0.00000000000E+00  0.00000000000E+00  0.19413384868E+03  0.19413384870E+03  0.25500000920E-02 0.  1.
       -2   -1    0    0    0  501  0.00000000000E+00  0.00000000000E+00 -0.82374203756E+03  0.82374203756E+03  0.25500000920E-02 0. -1.
    10030    2    1    2    0    0  0.00000000000E+00  0.00000000000E+00 -0.62960818888E+03  0.10178758863E+04  0.79979050277E+03 0.  0.
        4    1    3    3  502    0  0.17702899793E+03  0.22020049132E+03 -0.67496768226E+03  0.73171750525E+03  0.12699999809E+01 0. -1.
       -4    1    3    3    0  502 -0.17702899793E+03 -0.22020049132E+03  0.45359493385E+02  0.28615838101E+03  0.12699999809E+01 0.  1.
</event>
<event>
 5   0  0.6970013E-04  0.7999995E+03  0.7818609E-02  0.9560018E-01
       -2   -1    0    0    0  501  0.00000000000E+00  0.00000000000E+00  0.13090274484E+03  0.13090274487E+03  0.25500000920E-02 0.  1.
        2   -1    0    0  501    0  0.00000000000E+00  0.00000000000E+00 -0.12222799208E+04  0.12222799209E+04  0.25500000920E-02 0. -1.
    10030    2    1    2    0    0  0.00000000000E+00  0.00000000000E+00 -0.10913771760E+04  0.13531826657E+04  0.79999949156E+03 0.  0.
        3    1    3    3  502    0  0.10735438205E+03  0.23481953176E+02  0.10486815975E+03  0.15190031798E+03  0.10100000352E+00 0.  1.
       -3    1    3    3    0  502 -0.10735438205E+03 -0.23481953176E+02 -0.11962453358E+04  0.12012823477E+04  0.10100000352E+00 0. -1.
</event>
<event>
 5   0  0.4392552E-04  0.8004469E+03  0.7818609E-02  0.9559370E-01
        1   -1    0    0  501    0  0.00000000000E+00  0.00000000000E+00  0.45082383122E+03  0.45082383125E+03  0.50400001928E-02 0. -1.
       -1   -1    0    0    0  501  0.00000000000E+00  0.00000000000E+00 -0.35530248087E+03  0.35530248090E+03  0.50400001928E-02 0.  1.
    10030    2    1    2    0    0  0.00000000000E+00  0.00000000000E+00  0.95521350355E+02  0.80612631215E+03  0.80044693939E+03 0.  0.
        5    1    3    3  502    0 -0.41354702721E+02 -0.14639908519E+03 -0.32501945451E+03  0.35889084606E+03  0.46999998093E+01 0.  1.
       -5    1    3    3    0  502  0.41354702721E+02  0.14639908519E+03  0.42054080486E+03  0.44723546609E+03  0.46999998093E+01 0. -1.
</event>
<event>
 5   0  0.4169155E-04  0.7998815E+03  0.7818609E-02  0.9560189E-01
       -1   -1    0    0    0  501  0.00000000000E+00  0.00000000000E+00  0.45636551582E+03  0.45636551584E+03  0.50400001928E-02 0.  1.
        1   -1    0    0  501    0  0.00000000000E+00  0.00000000000E+00 -0.35049229329E+03  0.35049229333E+03  0.50400001928E-02 0. -1.
    10030    2    1    2    0    0  0.00000000000E+00  0.00000000000E+00  0.10587322253E+03  0.80685780917E+03  0.79988148183E+03 0.  0.
        4    1    3    3  502    0  0.29233000960E+03  0.86827036745E+02 -0.20807724744E+03  0.36917952628E+03  0.12699999809E+01 0. -1.
       -4    1    3    3    0  502 -0.29233000960E+03 -0.86827036745E+02  0.31395046996E+03  0.43767828289E+03  0.12699999809E+01 0.  1.
</event>
<event>
 5   0  0.4392552E-04  0.7956794E+03  0.7818609E-02  0.9566292E-01
       -1   -1    0    0    0  501  0.00000000000E+00  0.00000000000E+00  0.42282015975E+03  0.42282015978E+03  0.50400001928E-02 0.  1.
        1   -1    0    0  501    0  0.00000000000E+00  0.00000000000E+00 -0.37433508544E+03  0.37433508547E+03  0.50400001928E-02 0. -1.
    10030    2    1    2    0    0  0.00000000000E+00  0.00000000000E+00  0.48485074310E+02  0.79715524525E+03  0.79567938430E+03 0.  0.
        5    1    3    3  502    0  0.36692414140E+03 -0.58296444767E+02  0.16671224790E+03  0.40724300437E+03  0.46999998093E+01 0. -1.
       -5    1    3    3    0  502 -0.36692414140E+03  0.58296444767E+02 -0.11822717358E+03  0.38991224088E+03  0.46999998093E+01 0.  1.
</event>
<event>
 5   0  0.4169155E-04  0.8000219E+03  0.7818609E-02  0.9559985E-01
       -1   -1    0    0    0  501  0.00000000000E+00  0.00000000000E+00  0.11392922521E+03  0.11392922532E+03  0.50400001928E-02 0. -1.
        1   -1    0    0  501    0  0.00000000000E+00  0.00000000000E+00 -0.14044575442E+04  0.14044575442E+04  0.50400001928E-02 0.  1.
    10030    2    1    2    0    0  0.00000000000E+00  0.00000000000E+00 -0.12905283189E+04  0.15183867695E+04  0.80002189955E+03 0.  0.
        4    1    3    3  502    0 -0.42102221952E+01 -0.39231731698E+03 -0.79321207625E+03  0.88493932785E+03  0.12699999809E+01 0.  1.
       -4    1    3    3    0  502  0.42102221952E+01  0.39231731698E+03 -0.49731624270E+03  0.63344744164E+03  0.12699999809E+01 0. -1.
</event>
<event>
 5   0  0.6970013E-04  0.8000434E+03  0.7818609E-02  0.9559954E-01
       -2   -1    0    0    0  501  0.00000000000E+00  0.00000000000E+00  0.21782388973E+03  0.21782388974E+03  0.25500000920E-02 0.  1.
        2   -1    0    0  501    0  0.00000000000E+00  0.00000000000E+00 -0.73461808196E+03  0.73461808197E+03  0.25500000920E-02 0. -1.
    10030    2    1    2    0    0  0.00000000000E+00  0.00000000000E+00 -0.51679419223E+03  0.95244197171E+03  0.80004341904E+03 0.  0.
        3    1    3    3  502    0 -0.88379545734E+02  0.20748419530E+03 -0.65172088298E+03  0.68963813331E+03  0.10100000352E+00 0. -1.
       -3    1    3    3    0  502  0.88379545734E+02 -0.20748419530E+03  0.13492669074E+03  0.26280383840E+03  0.10100000352E+00 0.  1.
</event>
<event>
 5   0  0.4086111E-04  0.8005996E+03  0.7818609E-02  0.9559150E-01
       -1   -1    0    0    0  501  0.00000000000E+00  0.00000000000E+00  0.22202297956E+03  0.22202297962E+03  0.50400001928E-02 0. -1.
        1   -1    0    0  501    0  0.00000000000E+00  0.00000000000E+00 -0.72172669137E+03  0.72172669138E+03  0.50400001928E-02 0.  1.
    10030    2    1    2    0    0  0.00000000000E+00  0.00000000000E+00 -0.49970371181E+03  0.94374967100E+03  0.80059955154E+03 0.  0.
        3    1    3    3  502    0  0.19197256182E+03 -0.27135712639E+03  0.13081468773E+02  0.33265491062E+03  0.10100000352E+00 0. -1.
       -3    1    3    3    0  502 -0.19197256182E+03  0.27135712639E+03 -0.51278518058E+03  0.61109476038E+03  0.10100000352E+00 0.  1.
</event>
<event>
 5   0  0.6672462E-04  0.8003530E+03  0.7818609E-02  0.9559506E-01
        2   -1    0    0  501    0  0.00000000000E+00  0.00000000000E+00  0.28613158445E+03  0.28613158446E+03  0.25500000920E-02 0.  1.
       -2   -1    0    0    0  501  0.00000000000E+00  0.00000000000E+00 -0.55967691514E+03  0.55967691515E+03  0.25500000920E-02 0. -1.
    10030    2    1    2    0    0  0.00000000000E+00  0.00000000000E+00 -0.27354533069E+03  0.84580849961E+03  0.80035302840E+03 0.  0.
        5    1    3    3  502    0 -0.29798520129E+02 -0.29430098002E+03  0.14800963563E+03  0.33080199648E+03  0.46999998093E+01 0.  1.
       -5    1    3    3    0  502  0.29798520129E+02  0.29430098002E+03 -0.42155496631E+03  0.51500650313E+03  0.46999998093E+01 0. -1.
</event>
<event>
 5   0  0.6970013E-04  0.7999723E+03  0.7818609E-02  0.9560057E-01
        2   -1    0    0  501    0  0.00000000000E+00  0.00000000000E+00  0.87477674771E+03  0.87477674771E+03  0.25500000920E-02 0. -1.
       -2   -1    0    0    0  501  0.00000000000E+00  0.00000000000E+00 -0.18289114735E+03  0.18289114737E+03  0.25500000920E-02 0.  1.
    10030    2    1    2    0    0  0.00000000000E+00  0.00000000000E+00  0.69188560036E+03  0.10576678951E+04  0.79997230721E+03 0.  0.
        3    1    3    3  502    0 -0.31445378359E+03 -0.23130899644E+03  0.23065271291E+03  0.45341561291E+03  0.10100000352E+00 0.  1.
       -3    1    3    3    0  502  0.31445378359E+03  0.23130899644E+03  0.46123288744E+03  0.60425228217E+03  0.10100000352E+00 0. -1.
</event>
<event>
 5   0  0.4086111E-04  0.8003814E+03  0.7818609E-02  0.9559465E-01
        1   -1    0    0  501    0  0.00000000000E+00  0.00000000000E+00  0.41003458972E+03  0.41003458975E+03  0.50400001928E-02 0.  1.
       -1   -1    0    0    0  501  0.00000000000E+00  0.00000000000E+00 -0.39058311826E+03  0.39058311829E+03  0.50400001928E-02 0. -1.
    10030    2    1    2    0    0  0.00000000000E+00  0.00000000000E+00  0.19451471457E+02  0.80061770804E+03  0.80038138077E+03 0.  0.
        3    1    3    3  502    0 -0.15907499834E+03 -0.46318926761E+01 -0.35756965024E+03  0.39138519964E+03  0.10100000352E+00 0. -1.
       -3    1    3    3    0  502  0.15907499834E+03  0.46318926761E+01  0.37702112169E+03  0.40923250840E+03  0.10100000352E+00 0.  1.
</event>
<event>
 5   0  0.6801147E-04  0.8001890E+03  0.7818609E-02  0.9559744E-01
        2   -1    0    0  501    0  0.00000000000E+00  0.00000000000E+00  0.11827089140E+04  0.11827089140E+04  0.25500000920E-02 0.  1.
       -2   -1    0    0    0  501  0.00000000000E+00  0.00000000000E+00 -0.13534658818E+03  0.13534658820E+03  0.25500000920E-02 0. -1.
    10030    2    1    2    0    0  0.00000000000E+00  0.00000000000E+00  0.10473623258E+04  0.13180555022E+04  0.80018901850E+03 0.  0.
        4    1    3    3  502    0  0.31733666384E+03  0.35638835843E+02  0.92072101991E+03  0.97452629222E+03  0.12699999809E+01 0.  1.
       -4    1    3    3    0  502 -0.31733666384E+03 -0.35638835843E+02  0.12664130590E+03  0.34352920996E+03  0.12699999809E+01 0. -1.
</event>
<event>
 5   0  0.6672462E-04  0.8001570E+03  0.7818609E-02  0.9559790E-01
       -2   -1    0    0    0  501  0.00000000000E+00  0.00000000000E+00  0.24882124906E+03  0.24882124907E+03  0.25500000920E-02 0. -1.
        2   -1    0    0  501    0  0.00000000000E+00  0.00000000000E+00 -0.64328428599E+03  0.64328428600E+03  0.25500000920E-02 0.  1.
    10030    2    1    2    0    0  0.00000000000E+00  0.00000000000E+00 -0.39446303693E+03  0.89210553507E+03  0.80015698347E+03 0.  0.
        5    1    3    3  502    0 -0.21544129809E+03  0.99283337106E+02 -0.55637993971E+03  0.60485771985E+03  0.46999998093E+01 0.  1.
       -5    1    3    3    0  502  0.21544129809E+03 -0.99283337106E+02  0.16191690277E+03  0.28724781522E+03  0.46999998093E+01 0. -1.
</event>
<event>
 5   0  0.4104786E-04  0.7998664E+03  0.7818609E-02  0.9560210E-01
       -1   -1    0    0    0  501  0.00000000000E+00  0.00000000000E+00  0.28702399106E+03  0.28702399110E+03  0.50400001928E-02 0. -1.
        1   -1    0    0  501    0  0.00000000000E+00  0.00000000000E+00 -0.55725858720E+03  0.55725858722E+03  0.50400001928E-02 0.  1.
    10030    2    1    2    0    0  0.00000000000E+00  0.00000000000E+00 -0.27023459614E+03  0.84428257832E+03  0.79986644830E+03 0.  0.
        2    1    3    3  502    0  0.21205155091E+03 -0.28769178164E+03 -0.32456693137E+03  0.48277957124E+03  0.25500000920E-02 0.  1.
       -2    1    3    3    0  502 -0.21205155091E+03  0.28769178164E+03  0.54332335228E+02  0.36150300708E+03  0.25500000920E-02 0. -1.
</event>
<event>
 5   0  0.4169155E-04  0.8001595E+03  0.7818609E-02  0.9559786E-01
       -1   -1    0    0    0  501  0.00000000000E+00  0.00000000000E+00  0.10795197023E+03  0.10795197035E+03  0.50400001928E-02 0.  1.
        1   -1    0    0  501    0  0.00000000000E+00  0.00000000000E+00 -0.14827316973E+04  0.14827316973E+04  0.50400001928E-02 0. -1.
    10030    2    1    2    0    0  0.00000000000E+00  0.00000000000E+00 -0.13747797271E+04  0.15906836677E+04  0.80015950448E+03 0.  0.
        4    1    3    3  502    0  0.21117233187E+03 -0.42560684075E+02 -0.13575913777E+04  0.13745767085E+04  0.12699999809E+01 0. -1.
       -4    1    3    3    0  502 -0.21117233187E+03  0.42560684075E+02 -0.17188349353E+02  0.21610695924E+03  0.12699999809E+01 0.  1.
</event>
<event>
 5   0  0.4086111E-04  0.7998561E+03  0.7818609E-02  0.9560225E-01
       -1   -1    0    0    0  501  0.00000000000E+00  0.00000000000E+00  0.49855770903E+03  0.49855770906E+03  0.50400001928E-02 0.  1.
        1   -1    0    0  501    0  0.00000000000E+00  0.00000000000E+00 -0.32081027426E+03  0.32081027430E+03  0.50400001928E-02 0. -1.
    10030    2    1    2    0    0  0.00000000000E+00  0.00000000000E+00  0.17774743477E+03  0.81936798336E+03  0.79985607555E+03 0.  0.
        3    1    3    3  502    0 -0.85702458293E+02 -0.38413477893E+03  0.16158396048E+03  0.42545719671E+03  0.10100000352E+00 0.  1.
       -3    1    3    3    0  502  0.85702458293E+02  0.38413477893E+03  0.16163474288E+02  0.39391078666E+03  0.10100000352E+00 0. -1.
</event>
<event>
 5   0  0.4392552E-04  0.8001273E+03  0.7818609E-02  0.9559833E-01
        1   -1    0    0  501    0  0.00000000000E+00  0.00000000000E+00  0.50616860741E+03  0.50616860744E+03  0.50400001928E-02 0.  1.
       -1   -1    0    0    0  501  0.00000000000E+00  0.00000000000E+00 -0.31620081620E+03  0.31620081624E+03  0.50400001928E-02 0. -1.
    10030    2    1    2    0    0  0.00000000000E+00  0.00000000000E+00  0.18996779122E+03  0.82236942367E+03  0.80012730693E+03 0.  0.
        5    1    3    3  502    0 -0.44639928714E+02 -0.38818530440E+03  0.68788459907E+01  0.39083239670E+03  0.46999998093E+01 0. -1.
       -5    1    3    3    0  502  0.44639928714E+02  0.38818530440E+03  0.18308894523E+03  0.43153702698E+03  0.46999998093E+01 0.  1.
</event>
<event>
 5   0  0.6593118E-04  0.7996117E+03  0.7818609E-02  0.9560579E-01
        2   -1    0    0  501    0  0.00000000000E+00  0.00000000000E+00  0.17866322267E+04  0.17866322267E+04  0.25500000920E-02 0.  1.
       -2   -1    0    0    0  501  0.00000000000E+00  0.00000000000E+00 -0.89467054131E+02  0.89467054167E+02  0.25500000920E-02 0. -1.
    10030    2    1    2    0    0  0.00000000000E+00  0.00000000000E+00  0.16971651726E+04  0.18760992809E+04  0.79961171121E+03 0.  0.
        1    1    3    3  502    0  0.91109498883E+02  0.25647637123E+03  0.16146936592E+03  0.31647026075E+03  0.50400001928E-02 0. -1.
       -1    1    3    3    0  502 -0.91109498883E+02 -0.25647637123E+03  0.15356958067E+04  0.15596290201E+04  0.50400001928E-02 0.  1.
</event>
<event>
 5   0  0.4087283E-04  0.8000176E+03  0.7818609E-02  0.9559992E-01
       -1   -1    0    0    0  501  0.00000000000E+00  0.00000000000E+00  0.89627926624E+03  0.89627926626E+03  0.50400001928E-02 0. -1.
        1   -1    0    0  501    0  0.00000000000E+00  0.00000000000E+00 -0.17852363609E+03  0.17852363616E+03  0.50400001928E-02 0.  1.
    10030    2    1    2    0    0  0.00000000000E+00  0.00000000000E+00  0.71775563015E+03  0.10748029024E+04  0.80001758383E+03 0.  0.
        1    1    3    3  502    0  0.20838416483E+03  0.24462966760E+03  0.38861835914E+02  0.32369410983E+03  0.50400001928E-02 0.  1.
       -1    1    3    3    0  502 -0.20838416483E+03 -0.24462966760E+03  0.67889379424E+03  0.75110879259E+03  0.50400001928E-02 0. -1.
</event>
<event>
 5   0  0.6593118E-04  0.7986708E+03  0.7818609E-02  0.9561943E-01
        2   -1    0    0  501    0  0.00000000000E+00  0.00000000000E+00  0.10330756507E+04  0.10330756507E+04  0.25500000920E-02 0. -1.
       -2   -1    0    0    0  501  0.00000000000E+00  0.00000000000E+00 -0.15436312087E+03  0.15436312090E+03  0.25500000920E-02 0.  1.
    10030    2    1    2    0    0  0.00000000000E+00  0.00000000000E+00  0.87871252985E+03  0.11874387716E+04  0.79867084975E+03 0.  0.
        1    1    3    3  502    0  0.57263404301E+02  0.39494142097E+03  0.46095068073E+03  0.60969939607E+03  0.50400001928E-02 0.  1.
       -1    1    3    3    0  502 -0.57263404301E+02 -0.39494142097E+03  0.41776184911E+03  0.57773937556E+03  0.50400001928E-02 0. -1.
</event>
<event>
 5   0  0.4086111E-04  0.8000819E+03  0.7818609E-02  0.9559899E-01
        1   -1    0    0  501    0  0.00000000000E+00  0.00000000000E+00  0.12731367977E+03  0.12731367987E+03  0.50400001928E-02 0.  1.
       -1   -1    0    0    0  501  0.00000000000E+00  0.00000000000E+00 -0.12569959485E+04  0.12569959485E+04  0.50400001928E-02 0. -1.
    10030    2    1    2    0    0  0.00000000000E+00  0.00000000000E+00 -0.11296822687E+04  0.13843096284E+04  0.80008194515E+03 0.  0.
        3    1    3    3  502    0 -0.20486477463E+03  0.27944334345E+03 -0.91077325970E+03  0.97445682247E+03  0.10100000352E+00 0. -1.
       -3    1    3    3    0  502  0.20486477463E+03 -0.27944334345E+03 -0.21890900905E+03  0.40985280593E+03  0.10100000352E+00 0.  1.
</event>
<event>
 5   0  0.4104786E-04  0.7993570E+03  0.7818609E-02  0.9560948E-01
        1   -1    0    0  501    0  0.00000000000E+00  0.00000000000E+00  0.33660711891E+03  0.33660711895E+03  0.50400001928E-02 0.  1.
       -1   -1    0    0    0  501  0.00000000000E+00  0.00000000000E+00 -0.47456778793E+03  0.47456778796E+03  0.50400001928E-02 0. -1.
    10030    2    1    2    0    0  0.00000000000E+00  0.00000000000E+00 -0.13796066902E+03  0.81117490690E+03  0.79935698120E+03 0.  0.
        2    1    3    3  502    0  0.28972578187E+03  0.12050919104E+03 -0.32018690517E+03  0.44831144091E+03  0.25500000920E-02 0. -1.
       -2    1    3    3    0  502 -0.28972578187E+03 -0.12050919104E+03  0.18222623615E+03  0.36286346599E+03  0.25500000920E-02 0.  1.
</event>
<event>
 5   0  0.4392552E-04  0.7998593E+03  0.7818609E-02  0.9560221E-01
       -1   -1    0    0    0  501  0.00000000000E+00  0.00000000000E+00  0.72812040412E+03  0.72812040413E+03  0.50400001928E-02 0.  1.
        1   -1    0    0  501    0  0.00000000000E+00  0.00000000000E+00 -0.21966658589E+03  0.21966658595E+03  0.50400001928E-02 0. -1.
    10030    2    1    2    0    0  0.00000000000E+00  0.00000000000E+00  0.50845381823E+03  0.94778699008E+03  0.79985929594E+03 0.  0.
        5    1    3    3  502    0 -0.10147031447E+03  0.21028283280E+03  0.63893464815E+03  0.68027543619E+03  0.46999998093E+01 0.  1.
       -5    1    3    3    0  502  0.10147031447E+03 -0.21028283280E+03 -0.13048082992E+03  0.26751155389E+03  0.46999998093E+01 0. -1.
</event>
<event>
 5   0  0.6672462E-04  0.7997028E+03  0.7818609E-02  0.9560447E-01
        2   -1    0    0  501    0  0.00000000000E+00  0.00000000000E+00  0.57335863215E+03  0.57335863216E+03  0.25500000920E-02 0.  1.
       -2   -1    0    0    0  501  0.00000000000E+00  0.00000000000E+00 -0.27885016879E+03  0.27885016880E+03  0.25500000920E-02 0. -1.
    10030    2    1    2    0    0  0.00000000000E+00  0.00000000000E+00  0.29450846337E+03  0.85220880096E+03  0.79970282321E+03 0.  0.
        5    1    3    3  502    0 -0.10947893862E+02  0.33385902367E+03 -0.86893055337E+02  0.34518719143E+03  0.46999998093E+01 0.  1.
       -5    1    3    3    0  502  0.10947893862E+02 -0.33385902367E+03  0.38140151870E+03  0.50702160953E+03  0.46999998093E+01 0. -1.
</event>
<event>
 5   0  0.6672462E-04  0.8056089E+03  0.7818609E-02  0.9551934E-01
       -2   -1    0    0    0  501  0.00000000000E+00  0.00000000000E+00  0.25318440344E+03  0.25318440345E+03  0.25500000920E-02 0.  1.
        2   -1    0    0  501    0  0.00000000000E+00  0.00000000000E+00 -0.64084290534E+03  0.64084290535E+03  0.25500000920E-02 0. -1.
    10030    2    1    2    0    0  0.00000000000E+00  0.00000000000E+00 -0.38765850190E+03  0.89402730880E+03  0.80560890932E+03 0.  0.
        5    1    3    3  502    0 -0.36265569909E+03 -0.13870890890E+03 -0.74976665150E+02  0.39547807500E+03  0.46999998093E+01 0.  1.
       -5    1    3    3    0  502  0.36265569909E+03  0.13870890890E+03 -0.31268183675E+03  0.49854923380E+03  0.46999998093E+01 0. -1.
</event>
<event>
 5   0  0.6672462E-04  0.8006292E+03  0.7818609E-02  0.9559107E-01
        2   -1    0    0  501    0  0.00000000000E+00  0.00000000000E+00  0.12078925527E+04  0.12078925527E+04  0.25500000920E-02 0. -1.
       -2   -1    0    0    0  501  0.00000000000E+00  0.00000000000E+00 -0.13267055393E+03  0.13267055396E+03  0.25500000920E-02 0.  1.
    10030    2    1    2    0    0  0.00000000000E+00  0.00000000000E+00  0.10752219987E+04  0.13405631066E+04  0.80062918776E+03 0.  0.
        5    1    3    3  502    0 -0.15851935936E+03  0.36614343928E+03  0.59161559111E+03  0.71359687714E+03  0.46999998093E+01 0.  1.
       -5    1    3    3    0  502  0.15851935936E+03 -0.36614343928E+03  0.48360640763E+03  0.62696622949E+03  0.46999998093E+01 0. -1.
</event>
<event>
 5   0  0.4169155E-04  0.7997588E+03  0.7818609E-02  0.9560366E-01
       -1   -1    0    0    0  501  0.00000000000E+00  0.00000000000E+00  0.33163568220E+03  0.33163568223E+03  0.50400001928E-02 0. -1.
        1   -1    0    0  501    0  0.00000000000E+00  0.00000000000E+00 -0.48216629350E+03  0.48216629353E+03  0.50400001928E-02 0.  1.
    10030    2    1    2    0    0  0.00000000000E+00  0.00000000000E+00 -0.15053061131E+03  0.81380197576E+03  0.79975883291E+03 0.  0.
        4    1    3    3  502    0 -0.67571826215E+02  0.33225123732E+03  0.14045988545E+03  0.36699785929E+03  0.12699999809E+01 0. -1.
       -4    1    3    3    0  502  0.67571826215E+02 -0.33225123732E+03 -0.29099049675E+03  0.44680411648E+03  0.12699999809E+01 0.  1.
</event>
<event>
 5   0  0.7133039E-04  0.8004470E+03  0.7818609E-02  0.9559370E-01
       -2   -1    0    0    0  501  0.00000000000E+00  0.00000000000E+00  0.14769704937E+03  0.14769704939E+03  0.25500000920E-02 0.  1.
        2   -1    0    0  501    0  0.00000000000E+00  0.00000000000E+00 -0.10845093640E+04  0.10845093640E+04  0.25500000920E-02 0. -1.
    10030    2    1    2    0    0  0.00000000000E+00  0.00000000000E+00 -0.93681231460E+03  0.12322064134E+04  0.80044695785E+03 0.  0.
        2    1    3    3  502    0  0.36620118374E+02 -0.63496609472E+02  0.13727599133E+03  0.15561989039E+03  0.25500000920E-02 0.  1.
       -2    1    3    3    0  502 -0.36620118374E+02  0.63496609472E+02 -0.10740883059E+04  0.10765865230E+04  0.25500000920E-02 0. -1.
</event>
<event>
 5   0  0.6970013E-04  0.7999411E+03  0.7818609E-02  0.9560102E-01
       -2   -1    0    0    0  501  0.00000000000E+00  0.00000000000E+00  0.11584801089E+03  0.11584801092E+03  0.25500000920E-02 0. -1.
        2   -1    0    0  501    0  0.00000000000E+00  0.00000000000E+00 -0.13809167091E+04  0.13809167091E+04  0.25500000920E-02 0.  1.
    10030    2    1    2    0    0  0.00000000000E+00  0.00000000000E+00 -0.12650686983E+04  0.14967647201E+04  0.79994113280E+03 0.  0.
        3    1    3    3  502    0 -0.14726818336E+03  0.36970730280E+03 -0.70749579011E+03  0.81173992806E+03  0.10100000352E+00 0.  1.
       -3    1    3    3    0  502  0.14726818336E+03 -0.36970730280E+03 -0.55757290814E+03  0.68502479201E+03  0.10100000352E+00 0. -1.
</event>
<event>
 5   0  0.4087283E-04  0.7997439E+03  0.7818609E-02  0.9560388E-01
        1   -1    0    0  501    0  0.00000000000E+00  0.00000000000E+00  0.10781471512E+04  0.10781471512E+04  0.50400001928E-02 0.  1.
       -1   -1    0    0    0  501  0.00000000000E+00  0.00000000000E+00 -0.14830774669E+03  0.14830774678E+03  0.50400001928E-02 0. -1.
    10030    2    1    2    0    0  0.00000000000E+00  0.00000000000E+00  0.92983940455E+03  0.12264548980E+04  0.79974389566E+03 0.  0.
        1    1    3    3  502    0  0.13205641591E+03 -0.27658968045E+03  0.71069998400E+02  0.31462945350E+03  0.50400001928E-02 0. -1.
       -1    1    3    3    0  502 -0.13205641591E+03  0.27658968045E+03  0.85876940615E+03  0.91182544452E+03  0.50400001928E-02 0.  1.
</event>
<event>
 5   0  0.6970013E-04  0.8009235E+03  0.7818609E-02  0.9558681E-01
        2   -1    0    0  501    0  0.00000000000E+00  0.00000000000E+00  0.61102462178E+03  0.61102462179E+03  0.25500000920E-02 0.  1.
       -2   -1    0    0    0  501  0.00000000000E+00  0.00000000000E+00 -0.26246017914E+03  0.26246017916E+03  0.25500000920E-02 0. -1.
    10030    2    1    2    0    0  0.00000000000E+00  0.00000000000E+00  0.34856444264E+03  0.87348480094E+03  0.80092354617E+03 0.  0.
        3    1    3    3  502    0 -0.30605494484E+03  0.12222057377E+03  0.42240711246E+03  0.53575673282E+03  0.10100000352E+00 0.  1.
       -3    1    3    3    0  502  0.30605494484E+03 -0.12222057377E+03 -0.73842669816E+02  0.33772806812E+03  0.10100000352E+00 0. -1.
</event>
<event>
 5   0  0.4169155E-04  0.8000638E+03  0.7818609E-02  0.9559925E-01
        1   -1    0    0  501    0  0.00000000000E+00  0.00000000000E+00  0.53014190518E+03  0.53014190520E+03  0.50400001928E-02 0. -1.
       -1   -1    0    0    0  501  0.00000000000E+00  0.00000000000E+00 -0.30185414915E+03  0.30185414920E+03  0.50400001928E-02 0.  1.
    10030    2    1    2    0    0  0.00000000000E+00  0.00000000000E+00  0.22828775602E+03  0.83199605440E+03  0.80006383182E+03 0.  0.
        4    1    3    3  502    0 -0.36560445401E+03  0.88708482631E+02  0.25554175124E+03  0.45479557079E+03  0.12699999809E+01 0. -1.
       -4    1    3    3    0  502  0.36560445401E+03 -0.88708482631E+02 -0.27253995219E+02  0.37720048361E+03  0.12699999809E+01 0.  1.
</event>
<event>
 5   0  0.6672462E-04  0.7999651E+03  0.7818609E-02  0.9560068E-01
        2   -1    0    0  501    0  0.00000000000E+00  0.00000000000E+00  0.43535013244E+03  0.43535013245E+03  0.25500000920E-02 0.  1.
       -2   -1    0    0    0  501  0.00000000000E+00  0.00000000000E+00 -0.36748819126E+03  0.36748819127E+03  0.25500000920E-02 0. -1.
    10030    2    1    2    0    0  0.00000000000E+00  0.00000000000E+00  0.67861941176E+02  0.80283832372E+03  0.79996508109E+03 0.  0.
        5    1    3    3  502    0 -0.25101675895E+03  0.27711350471E+03 -0.10857422848E+03  0.38937354925E+03  0.46999998093E+01 0. -1.
       -5    1    3    3    0  502  0.25101675895E+03 -0.27711350471E+03  0.17643616966E+03  0.41346477447E+03  0.46999998093E+01 0.  1.
</event>
<event>
 5   0  0.4086111E-04  0.7999235E+03  0.7818609E-02  0.9560128E-01
        1   -1    0    0  501    0  0.00000000000E+00  0.00000000000E+00  0.53069928720E+03  0.53069928723E+03  0.50400001928E-02 0.  1.
       -1   -1    0    0    0  501  0.00000000000E+00  0.00000000000E+00 -0.30143133175E+03  0.30143133179E+03  0.50400001928E-02 0. -1.
    10030    2    1    2    0    0  0.00000000000E+00  0.00000000000E+00  0.22926795545E+03  0.83213061902E+03  0.79992347866E+03 0.  0.
        3    1    3    3  502    0 -0.16590948845E+03 -0.35926264128E+03  0.54211104848E+02  0.39941764842E+03  0.10100000352E+00 0. -1.
       -3    1    3    3    0  502  0.16590948845E+03  0.35926264128E+03  0.17505685061E+03  0.43271297060E+03  0.10100000352E+00 0.  1.
</event>
<event>
 5   0  0.7133039E-04  0.8029976E+03  0.7818609E-02  0.9555688E-01
        2   -1    0    0  501    0  0.00000000000E+00  0.00000000000E+00  0.56583295589E+03  0.56583295590E+03  0.25500000920E-02 0.  1.
       -2   -1    0    0    0  501  0.00000000000E+00  0.00000000000E+00 -0.28489199863E+03  0.28489199865E+03  0.25500000920E-02 0. -1.
    10030    2    1    2    0    0  0.00000000000E+00  0.00000000000E+00  0.28094095726E+03  0.85072495454E+03  0.80299758830E+03 0.  0.
        2    1    3    3  502    0  0.35923641082E+03 -0.46522729186E+02  0.32392780409E+03  0.48594689572E+03  0.25500000920E-02 0.  1.
       -2    1    3    3    0  502 -0.35923641082E+03  0.46522729186E+02 -0.42986846836E+02  0.36477805882E+03  0.25500000920E-02 0. -1.
</event>
<event>
 5   0  0.4392552E-04  0.7997343E+03  0.7818609E-02  0.9560402E-01
       -1   -1    0    0    0  501  0.00000000000E+00  0.00000000000E+00  0.13964040261E+03  0.13964040270E+03  0.50400001928E-02 0. -1.
        1   -1    0    0  501    0  0.00000000000E+00  0.00000000000E+00 -0.11450392348E+04  0.11450392348E+04  0.50400001928E-02 0.  1.
    10030    2    1    2    0    0  0.00000000000E+00  0.00000000000E+00 -0.10053988322E+04  0.12846796375E+04  0.79973430542E+03 0.  0.
        5    1    3    3  502    0 -0.31808331019E+03 -0.14456860470E+03 -0.19040526238E+03  0.39793633614E+03  0.46999998093E+01 0. -1.
       -5    1    3    3    0  502  0.31808331019E+03  0.14456860470E+03 -0.81499356979E+03  0.88674330135E+03  0.46999998093E+01 0.  1.
</event>
<event>
 5   0  0.4104786E-04  0.8000464E+03  0.7818609E-02  0.9559950E-01
        1   -1    0    0  501    0  0.00000000000E+00  0.00000000000E+00  0.23562960610E+03  0.23562960616E+03  0.50400001928E-02 0. -1.
       -1   -1    0    0    0  501  0.00000000000E+00  0.00000000000E+00 -0.67911057438E+03  0.67911057440E+03  0.50400001928E-02 0.  1.
    10030    2    1    2    0    0  0.00000000000E+00  0.00000000000E+00 -0.44348096828E+03  0.91474018056E+03  0.80004639159E+03 0.  0.
        2    1    3    3  502    0  0.10089070761E+03  0.28360676800E+02 -0.66313522077E+03  0.67136546225E+03  0.25500000920E-02 0.  1.
       -2    1    3    3    0  502 -0.10089070761E+03 -0.28360676800E+02  0.21965425248E+03  0.24337471831E+03  0.25500000920E-02 0. -1.
</event>
<event>
 5   0  0.4392552E-04  0.7999146E+03  0.7818609E-02  0.9560141E-01
        1   -1    0    0  501    0  0.00000000000E+00  0.00000000000E+00  0.23346947289E+03  0.23346947294E+03  0.50400001928E-02 0. -1.
       -1   -1    0    0    0  501  0.00000000000E+00  0.00000000000E+00 -0.68516810148E+03  0.68516810150E+03  0.50400001928E-02 0.  1.
    10030    2    1    2    0    0  0.00000000000E+00  0.00000000000E+00 -0.45169862860E+03  0.91863757444E+03  0.79991458425E+03 0.  0.
        5    1    3    3  502    0  0.10992410872E+03  0.18974062096E+03 -0.60994190143E+03  0.64817900771E+03  0.46999998093E+01 0.  1.
       -5    1    3    3    0  502 -0.10992410872E+03 -0.18974062096E+03  0.15824327283E+03  0.27045856673E+03  0.46999998093E+01 0. -1.
</event>
<event>
 5   0  0.6672462E-04  0.7998446E+03  0.7818609E-02  0.9560242E-01
        2   -1    0    0  501    0  0.00000000000E+00  0.00000000000E+00  0.12213212302E+04  0.12213212302E+04  0.25500000920E-02 0. -1.
       -2   -1    0    0    0  501  0.00000000000E+00  0.00000000000E+00 -0.13095476288E+03  0.13095476290E+03  0.25500000920E-02 0.  1.
    10030    2    1    2    0    0  0.00000000000E+00  0.00000000000E+00  0.10903664673E+04  0.13522759931E+04  0.79984456519E+03 0.  0.
        5    1    3    3  502    0 -0.99229426611E+02  0.22514002614E+03  0.12201988314E+02  0.24638483921E+03  0.46999998093E+01 0.  1.
       -5    1    3    3    0  502  0.99229426611E+02 -0.22514002614E+03  0.10781644790E+04  0.11058911539E+04  0.46999998093E+01 0. -1.
</event>
<event>
 5   0  0.4392552E-04  0.7999079E+03  0.7818609E-02  0.9560150E-01
        1   -1    0    0  501    0  0.00000000000E+00  0.00000000000E+00  0.24598500889E+03  0.24598500894E+03  0.50400001928E-02 0. -1.
       -1   -1    0    0    0  501  0.00000000000E+00  0.00000000000E+00 -0.65029640994E+03  0.65029640996E+03  0.50400001928E-02 0.  1.
    10030    2    1    2    0    0  0.00000000000E+00  0.00000000000E+00 -0.40431140106E+03  0.89628141890E+03  0.79990791523E+03 0.  0.
        5    1    3    3  502    0 -0.26256139013E+03 -0.27347535968E+03 -0.59480956211E+02  0.38378031488E+03  0.46999998093E+01 0. -1.
       -5    1    3    3    0  502  0.26256139013E+03  0.27347535968E+03 -0.34483044485E+03  0.51250110403E+03  0.46999998093E+01 0.  1.
</event>
<event>
 5   0  0.6593118E-04  0.7981795E+03  0.7818609E-02  0.9562656E-01
        2   -1    0    0  501    0  0.00000000000E+00  0.00000000000E+00  0.12351529157E+04  0.12351529157E+04  0.25500000920E-02 0. -1.
       -2   -1    0    0    0  501  0.00000000000E+00  0.00000000000E+00 -0.12894973918E+03  0.12894973920E+03  0.25500000920E-02 0.  1.
    10030    2    1    2    0    0  0.00000000000E+00  0.00000000000E+00  0.11062031766E+04  0.13641026549E+04  0.79817954458E+03 0.  0.
        1    1    3    3  502    0  0.30838726614E+03  0.71959950725E+02  0.96819127022E+03  0.10186634754E+04  0.50400001928E-02 0. -1.
       -1    1    3    3    0  502 -0.30838726614E+03 -0.71959950725E+02  0.13801190635E+03  0.34543917952E+03  0.50400001928E-02 0.  1.
</event>
<event>
 5   0  0.6672462E-04  0.8000453E+03  0.7818609E-02  0.9559952E-01
        2   -1    0    0  501    0  0.00000000000E+00  0.00000000000E+00  0.10678073737E+04  0.10678073737E+04  0.25500000920E-02 0. -1.
       -2   -1    0    0    0  501  0.00000000000E+00  0.00000000000E+00 -0.14985672539E+03  0.14985672541E+03  0.25500000920E-02 0.  1.
    10030    2    1    2    0    0  0.00000000000E+00  0.00000000000E+00  0.91795064830E+03  0.12176640991E+04  0.80004528967E+03 0.  0.
        5    1    3    3  502    0 -0.27210645263E+03 -0.17167054876E+03  0.97254871241E+02  0.33614475878E+03  0.46999998093E+01 0.  1.
       -5    1    3    3    0  502  0.27210645263E+03  0.17167054876E+03  0.82069577706E+03  0.88151934032E+03  0.46999998093E+01 0. -1.
</event>
<event>
 5   0  0.6672462E-04  0.8004556E+03  0.7818609E-02  0.9559358E-01
       -2   -1    0    0    0  501  0.00000000000E+00  0.00000000000E+00  0.10090453745E+03  0.10090453748E+03  0.25500000920E-02 0.  1.
        2   -1    0    0  501    0  0.00000000000E+00  0.00000000000E+00 -0.15874638051E+04  0.15874638051E+04  0.25500000920E-02 0. -1.
    10030    2    1    2    0    0  0.00000000000E+00  0.00000000000E+00 -0.14865592676E+04  0.16883683426E+04  0.80045562275E+03 0.  0.
        5    1    3    3  502    0  0.19665575820E+03  0.15646909107E+03 -0.86340562841E+02  0.26576840761E+03  0.46999998093E+01 0.  1.
       -5    1    3    3    0  502 -0.19665575820E+03 -0.15646909107E+03 -0.14002187048E+04  0.14225999349E+04  0.46999998093E+01 0. -1.
</event>
<event>
 5   0  0.4086111E-04  0.8000604E+03  0.7818609E-02  0.9559930E-01
        1   -1    0    0  501    0  0.00000000000E+00  0.00000000000E+00  0.96595029755E+03  0.96595029756E+03  0.50400001928E-02 0.  1.
       -1   -1    0    0    0  501  0.00000000000E+00  0.00000000000E+00 -0.16566502298E+03  0.16566502306E+03  0.50400001928E-02 0. -1.
    10030    2    1    2    0    0  0.00000000000E+00  0.00000000000E+00  0.80028527457E+03  0.11316153206E+04  0.80006044345E+03 0.  0.
        3    1    3    3  502    0 -0.62905387590E+02 -0.16141423499E+03  0.91014080590E+03  0.92648148379E+03  0.10100000352E+00 0.  1.
       -3    1    3    3    0  502  0.62905387590E+02  0.16141423499E+03 -0.10985553133E+03  0.20513383683E+03  0.10100000352E+00 0. -1.
</event>
<event>
 5   0  0.4392552E-04  0.8012388E+03  0.7818609E-02  0.9558226E-01
       -1   -1    0    0    0  501  0.00000000000E+00  0.00000000000E+00  0.75959171665E+03  0.75959171667E+03  0.50400001928E-02 0. -1.
        1   -1    0    0  501    0  0.00000000000E+00  0.00000000000E+00 -0.21129235273E+03  0.21129235279E+03  0.50400001928E-02 0.  1.
    10030    2    1    2    0    0  0.00000000000E+00  0.00000000000E+00  0.54829936391E+03  0.97088406946E+03  0.80123884321E+03 0.  0.
        5    1    3    3  502    0  0.83523793986E+01  0.39318910093E+03  0.18181627902E+03  0.43329745054E+03  0.46999998093E+01 0.  1.
       -5    1    3    3    0  502 -0.83523793986E+01 -0.39318910093E+03  0.36648308489E+03  0.53758661892E+03  0.46999998093E+01 0. -1.
</event>
<event>
 5   0  0.6672462E-04  0.7999648E+03  0.7818609E-02  0.9560068E-01
        2   -1    0    0  501    0  0.00000000000E+00  0.00000000000E+00  0.12151940608E+04  0.12151940608E+04  0.25500000920E-02 0.  1.
       -2   -1    0    0    0  501  0.00000000000E+00  0.00000000000E+00 -0.13165463511E+03  0.13165463513E+03  0.25500000920E-02 0. -1.
    10030    2    1    2    0    0  0.00000000000E+00  0.00000000000E+00  0.10835394257E+04  0.13468486959E+04  0.79996482592E+03 0.  0.
        5    1    3    3  502    0  0.28816176133E+03  0.27681793434E+03  0.57085672716E+03  0.69682484342E+03  0.46999998093E+01 0. -1.
       -5    1    3    3    0  502 -0.28816176133E+03 -0.27681793434E+03  0.51268269851E+03  0.65002385249E+03  0.46999998093E+01 0.  1.
</event>
<event>
 5   0  0.4104786E-04  0.7998372E+03  0.7818609E-02  0.9560253E-01
        1   -1    0    0  501    0  0.00000000000E+00  0.00000000000E+00  0.30748923599E+03  0.30748923603E+03  0.50400001928E-02 0.  1.
       -1   -1    0    0    0  501  0.00000000000E+00  0.00000000000E+00 -0.52013169354E+03  0.52013169357E+03  0.50400001928E-02 0. -1.
    10030    2    1    2    0    0  0.00000000000E+00  0.00000000000E+00 -0.21264245755E+03  0.82762092960E+03  0.79983722616E+03 0.  0.
        2    1    3    3  502    0 -0.10201423170E+03  0.98848229002E+02  0.28050567309E+03  0.31442218193E+03  0.25500000920E-02 0.  1.
       -2    1    3    3    0  502  0.10201423170E+03 -0.98848229002E+02 -0.49314813064E+03  0.51319874767E+03  0.25500000920E-02 0. -1.
</event>
<event>
 5   0  0.6593118E-04  0.7999226E+03  0.7818609E-02  0.9560129E-01
        2   -1    0    0  501    0  0.00000000000E+00  0.00000000000E+00  0.73060513482E+03  0.73060513483E+03  0.25500000920E-02 0.  1.
       -2   -1    0    0    0  501  0.00000000000E+00  0.00000000000E+00 -0.21895415699E+03  0.21895415701E+03  0.25500000920E-02 0. -1.
    10030    2    1    2    0    0  0.00000000000E+00  0.00000000000E+00  0.51165097783E+03  0.94955929183E+03  0.79992257475E+03 0.  0.
        1    1    3    3  502    0  0.44465016718E+00  0.88074771315E+02  0.71895036344E+03  0.72432519504E+03  0.50400001928E-02 0.  1.
       -1    1    3    3    0  502 -0.44465016718E+00 -0.88074771315E+02 -0.20729938561E+03  0.22523409679E+03  0.50400001928E-02 0. -1.
</event>
<event>
 5   0  0.4392552E-04  0.7998095E+03  0.7818609E-02  0.9560293E-01
       -1   -1    0    0    0  501  0.00000000000E+00  0.00000000000E+00  0.48820952584E+03  0.48820952587E+03  0.50400001928E-02 0. -1.
        1   -1    0    0  501    0  0.00000000000E+00  0.00000000000E+00 -0.32757209507E+03  0.32757209511E+03  0.50400001928E-02 0.  1.
    10030    2    1    2    0    0  0.00000000000E+00  0.00000000000E+00  0.16063743077E+03  0.81578162098E+03  0.79980952043E+03 0.  0.
        5    1    3    3  502    0  0.10053610275E+03  0.13494881697E+03  0.45030642586E+03  0.48074593948E+03  0.46999998093E+01 0. -1.
       -5    1    3    3    0  502 -0.10053610275E+03 -0.13494881697E+03 -0.28966899510E+03  0.33503568150E+03  0.46999998093E+01 0.  1.
</event>
<event>
 5   0  0.4087283E-04  0.7998392E+03  0.7818609E-02  0.9560250E-01
        1   -1    0    0  501    0  0.00000000000E+00  0.00000000000E+00  0.20828950605E+03  0.20828950611E+03  0.50400001928E-02 0. -1.
       -1   -1    0    0    0  501  0.00000000000E+00  0.00000000000E+00 -0.76785277998E+03  0.76785278000E+03  0.50400001928E-02 0.  1.
    10030    2    1    2    0    0  0.00000000000E+00  0.00000000000E+00 -0.55956327393E+03  0.97614228611E+03  0.79983917459E+03 0.  0.
        1    1    3    3  502    0  0.10866253564E+02 -0.33009544377E+03 -0.45644372269E+01  0.33030578495E+03  0.50400001928E-02 0. -1.
       -1    1    3    3    0  502 -0.10866253564E+02  0.33009544377E+03 -0.55499883671E+03  0.64583650116E+03  0.50400001928E-02 0.  1.
</event>
<event>
 5   0  0.4087283E-04  0.7998835E+03  0.7818609E-02  0.9560186E-01
       -1   -1    0    0    0  501  0.00000000000E+00  0.00000000000E+00  0.41404861095E+03  0.41404861098E+03  0.50400001928E-02 0.  1.
        1   -1    0    0  501    0  0.00000000000E+00  0.00000000000E+00 -0.38631556172E+03  0.38631556175E+03  0.50400001928E-02 0. -1.
    10030    2    1    2    0    0  0.00000000000E+00  0.00000000000E+00  0.27733049234E+02  0.80036417273E+03  0.79988354588E+03 0.  0.
        1    1    3    3  502    0  0.21416653684E+03 -0.31443730221E+03 -0.10955790390E+03  0.39590536351E+03  0.50400001928E-02 0. -1.
       -1    1    3    3    0  502 -0.21416653684E+03  0.31443730221E+03  0.13729095314E+03  0.40445880922E+03  0.50400001928E-02 0.  1.
</event>
<event>
 5   0  0.4104786E-04  0.7999732E+03  0.7818609E-02  0.9560056E-01
        1   -1    0    0  501    0  0.00000000000E+00  0.00000000000E+00  0.48071520586E+03  0.48071520589E+03  0.50400001928E-02 0. -1.
       -1   -1    0    0    0  501  0.00000000000E+00  0.00000000000E+00 -0.33281510547E+03  0.33281510551E+03  0.50400001928E-02 0.  1.
    10030    2    1    2    0    0  0.00000000000E+00  0.00000000000E+00  0.14790010039E+03  0.81353031139E+03  0.79997320446E+03 0.  0.
        2    1    3    3  502    0  0.25155748636E+03 -0.37232155809E+02  0.38792470913E+03  0.46384586053E+03  0.25500000920E-02 0. -1.
       -2    1    3    3    0  502 -0.25155748636E+03  0.37232155809E+02 -0.24002460874E+03  0.34968445086E+03  0.25500000920E-02 0.  1.
</event>
<event>
 5   0  0.6801147E-04  0.8002030E+03  0.7818609E-02  0.9559723E-01
       -2   -1    0    0    0  501  0.00000000000E+00  0.00000000000E+00  0.23588480773E+03  0.23588480774E+03  0.25500000920E-02 0.  1.
        2   -1    0    0  501    0  0.00000000000E+00  0.00000000000E+00 -0.67864143969E+03  0.67864143969E+03  0.25500000920E-02 0. -1.
    10030    2    1    2    0    0  0.00000000000E+00  0.00000000000E+00 -0.44275663196E+03  0.91452624743E+03  0.80020298806E+03 0.  0.
        4    1    3    3  502    0 -0.30121556735E+03  0.12420410028E+02 -0.52200797111E+03  0.60280927283E+03  0.12699999809E+01 0.  1.
       -4    1    3    3    0  502  0.30121556735E+03 -0.12420410028E+02  0.79251339147E+02  0.31171697461E+03  0.12699999809E+01 0. -1.
</event>
<event>
 5   0  0.6593118E-04  0.8013032E+03  0.7818609E-02  0.9558133E-01
        2   -1    0    0  501    0  0.00000000000E+00  0.00000000000E+00  0.85056341077E+03  0.85056341078E+03  0.25500000920E-02 0. -1.
       -2   -1    0    0    0  501  0.00000000000E+00  0.00000000000E+00 -0.18872394891E+03  0.18872394893E+03  0.25500000920E-02 0.  1.
    10030    2    1    2    0    0  0.00000000000E+00  0.00000000000E+00  0.66183946187E+03  0.10392873597E+04  0.80130315284E+03 0.  0.
        1    1    3    3  502    0 -0.19965648764E+03  0.27505935930E+03  0.60605827018E+03  0.69485753294E+03  0.50400001928E-02 0. -1.
       -1    1    3    3    0  502  0.19965648764E+03 -0.27505935930E+03  0.55781191682E+02  0.34442982677E+03  0.50400001928E-02 0.  1.
</event>
<event>
 5   0  0.4169155E-04  0.7995464E+03  0.7818609E-02  0.9560674E-01
       -1   -1    0    0    0  501  0.00000000000E+00  0.00000000000E+00  0.43037950863E+03  0.43037950866E+03  0.50400001928E-02 0.  1.
        1   -1    0    0  501    0  0.00000000000E+00  0.00000000000E+00 -0.37134343567E+03  0.37134343570E+03  0.50400001928E-02 0. -1.
    10030    2    1    2    0    0  0.00000000000E+00  0.00000000000E+00  0.59036072964E+02  0.80172294436E+03  0.79954638490E+03 0.  0.
        4    1    3    3  502    0  0.56713530916E+02 -0.82208916656E+02 -0.35863037125E+03  0.37227958129E+03  0.12699999809E+01 0. -1.
       -4    1    3    3    0  502 -0.56713530916E+02  0.82208916656E+02  0.41766644421E+03  0.42944336307E+03  0.12699999809E+01 0.  1.
</event>
<event>
 5   0  0.6672462E-04  0.7990531E+03  0.7818609E-02  0.9561389E-01
        2   -1    0    0  501    0  0.00000000000E+00  0.00000000000E+00  0.31755418040E+03  0.31755418041E+03  0.25500000920E-02 0. -1.
       -2   -1    0    0    0  501  0.00000000000E+00  0.00000000000E+00 -0.50265903881E+03  0.50265903882E+03  0.25500000920E-02 0.  1.
    10030    2    1    2    0    0  0.00000000000E+00  0.00000000000E+00 -0.18510485841E+03  0.82021321923E+03  0.79905313740E+03 0.  0.
        5    1    3    3  502    0 -0.14561332338E+03  0.26063632123E+03  0.17992930300E+03  0.34861321829E+03  0.46999998093E+01 0. -1.
       -5    1    3    3    0  502  0.14561332338E+03 -0.26063632123E+03 -0.36503416141E+03  0.47160000094E+03  0.46999998093E+01 0.  1.
</event>
<event>
 5   0  0.6970013E-04  0.7998491E+03  0.7818609E-02  0.9560236E-01
        2   -1    0    0  501    0  0.00000000000E+00  0.00000000000E+00  0.23401083579E+03  0.23401083581E+03  0.25500000920E-02 0. -1.
       -2   -1    0    0    0  501  0.00000000000E+00  0.00000000000E+00 -0.68347102579E+03  0.68347102579E+03  0.25500000920E-02 0.  1.
    10030    2    1    2    0    0  0.00000000000E+00  0.00000000000E+00 -0.44946018999E+03  0.91748186160E+03  0.79984905074E+03 0.  0.
        3    1    3    3  502    0  0.21170013182E+03  0.19032011203E+03 -0.54693377814E+03  0.61658353751E+03  0.10100000352E+00 0.  1.
       -3    1    3    3    0  502 -0.21170013182E+03 -0.19032011203E+03  0.97473588142E+02  0.30089832409E+03  0.10100000352E+00 0. -1.
</event>
<event>
 5   0  0.6801147E-04  0.8002730E+03  0.7818609E-02  0.9559622E-01
       -2   -1    0    0    0  501  0.00000000000E+00  0.00000000000E+00  0.92223033743E+02  0.92223033779E+02  0.25500000920E-02 0.  1.
        2   -1    0    0  501    0  0.00000000000E+00  0.00000000000E+00 -0.17361086197E+04  0.17361086197E+04  0.25500000920E-02 0. -1.
    10030    2    1    2    0    0  0.00000000000E+00  0.00000000000E+00 -0.16438855860E+04  0.18283316535E+04  0.80027296306E+03 0.  0.
        4    1    3    3  502    0  0.24481346463E+03 -0.26414388353E+03 -0.42359017367E+03  0.55599988471E+03  0.12699999809E+01 0.  1.
       -4    1    3    3    0  502 -0.24481346463E+03  0.26414388353E+03 -0.12202954123E+04  0.12723317688E+04  0.12699999809E+01 0. -1.
</event>
<event>
 5   0  0.7133039E-04  0.7993204E+03  0.7818609E-02  0.9561001E-01
       -2   -1    0    0    0  501  0.00000000000E+00  0.00000000000E+00  0.15226141186E+03  0.15226141188E+03  0.25500000920E-02 0. -1.
        2   -1    0    0  501    0  0.00000000000E+00  0.00000000000E+00 -0.10490396629E+04  0.10490396629E+04  0.25500000920E-02 0.  1.
    10030    2    1    2    0    0  0.00000000000E+00  0.00000000000E+00 -0.89677825103E+03  0.12013010748E+04  0.79932036176E+03 0.  0.
        2    1    3    3  502    0 -0.28879812040E+03  0.22788306902E+03 -0.68311744558E+03  0.77587659583E+03  0.25500000920E-02 0. -1.
       -2    1    3    3    0  502  0.28879812040E+03 -0.22788306902E+03 -0.21366080545E+03  0.42542447894E+03  0.25500000920E-02 0.  1.
</event>
<event>
 5   0  0.7133039E-04  0.8011684E+03  0.7818609E-02  0.9558327E-01
       -2   -1    0    0    0  501  0.00000000000E+00  0.00000000000E+00  0.24887463963E+03  0.24887463964E+03  0.25500000920E-02 0.  1.
        2   -1    0    0  501    0  0.00000000000E+00  0.00000000000E+00 -0.64477320045E+03  0.64477320046E+03  0.25500000920E-02 0. -1.
    10030    2    1    2    0    0  0.00000000000E+00  0.00000000000E+00 -0.39589856082E+03  0.89364784010E+03  0.80116839158E+03 0.  0.
        2    1    3    3  502    0 -0.14871064374E+03 -0.28308981446E+03  0.71174820049E+02  0.32759815877E+03  0.25500000920E-02 0.  1.
       -2    1    3    3    0  502  0.14871064374E+03  0.28308981446E+03 -0.46707338087E+03  0.56604968133E+03  0.25500000920E-02 0. -1.
</event>
<event>
 5   0  0.7133039E-04  0.7999122E+03  0.7818609E-02  0.9560144E-01
       -2   -1    0    0    0  501  0.00000000000E+00  0.00000000000E+00  0.26890239622E+03  0.26890239623E+03  0.25500000920E-02 0.  1.
        2   -1    0    0  501    0  0.00000000000E+00  0.00000000000E+00 -0.59488086810E+03  0.59488086811E+03  0.25500000920E-02 0. -1.
    10030    2    1    2    0    0  0.00000000000E+00  0.00000000000E+00 -0.32597847189E+03  0.86378326434E+03  0.79991222245E+03 0.  0.
        2    1    3    3  502    0 -0.35536611559E+03 -0.53997056667E+02 -0.35239133613E+03  0.50336906145E+03  0.25500000920E-02 0. -1.
       -2    1    3    3    0  502  0.35536611559E+03  0.53997056667E+02  0.26412864249E+02  0.36041420289E+03  0.25500000920E-02 0.  1.
</event>
<event>
 5   0  0.6970013E-04  0.8002691E+03  0.7818609E-02  0.9559628E-01
       -2   -1    0    0    0  501  0.00000000000E+00  0.00000000000E+00  0.35288619462E+03  0.35288619463E+03  0.25500000920E-02 0.  1.
        2   -1    0    0  501    0  0.00000000000E+00  0.00000000000E+00 -0.45370904227E+03  0.45370904228E+03  0.25500000920E-02 0. -1.
    10030    2    1    2    0    0  0.00000000000E+00  0.00000000000E+00 -0.10082284765E+03  0.80659523691E+03  0.80026909824E+03 0.  0.
        3    1    3    3  502    0  0.39437605835E+03  0.34635216692E+02  0.81475414377E+01  0.39597786083E+03  0.10100000352E+00 0. -1.
       -3    1    3    3    0  502 -0.39437605835E+03 -0.34635216692E+02 -0.10897038909E+03  0.41061737607E+03  0.10100000352E+00 0.  1.
</event>
<event>
 5   0  0.6801147E-04  0.8001865E+03  0.7818609E-02  0.9559747E-01
       -2   -1    0    0    0  501  0.00000000000E+00  0.00000000000E+00  0.61814223099E+03  0.61814223099E+03  0.25500000920E-02 0. -1.
        2   -1    0    0  501    0  0.00000000000E+00  0.00000000000E+00 -0.25896077988E+03  0.25896077989E+03  0.25500000920E-02 0.  1.
    10030    2    1    2    0    0  0.00000000000E+00  0.00000000000E+00  0.35918145111E+03  0.87710301088E+03  0.80018646382E+03 0.  0.
        4    1    3    3  502    0 -0.15747630591E+03  0.35576432533E+03  0.28186519066E+03  0.48043380471E+03  0.12699999809E+01 0. -1.
       -4    1    3    3    0  502  0.15747630591E+03 -0.35576432533E+03  0.77316260448E+02  0.39666920618E+03  0.12699999809E+01 0.  1.
</event>
<event>
 5   0  0.6593118E-04  0.7998597E+03  0.7818609E-02  0.9560220E-01
       -2   -1    0    0    0  501  0.00000000000E+00  0.00000000000E+00  0.20147442060E+03  0.20147442061E+03  0.25500000920E-02 0. -1.
        2   -1    0    0  501    0  0.00000000000E+00  0.00000000000E+00 -0.79386690410E+03  0.79386690410E+03  0.25500000920E-02 0.  1.
    10030    2    1    2    0    0  0.00000000000E+00  0.00000000000E+00 -0.59239248350E+03  0.99534132471E+03  0.79985967405E+03 0.  0.
        1    1    3    3  502    0  0.36110535212E+02 -0.39810832284E+03 -0.31141998093E+03  0.50673130160E+03  0.50400001928E-02 0.  1.
       -1    1    3    3    0  502 -0.36110535212E+02  0.39810832284E+03 -0.28097250257E+03  0.48861002312E+03  0.50400001928E-02 0. -1.
</event>
<event>
 5   0  0.4087283E-04  0.7989601E+03  0.7818609E-02  0.9561524E-01
       -1   -1    0    0    0  501  0.00000000000E+00  0.00000000000E+00  0.89077775363E+03  0.89077775364E+03  0.50400001928E-02 0. -1.
        1   -1    0    0  501    0  0.00000000000E+00  0.00000000000E+00 -0.17915164375E+03  0.17915164382E+03  0.50400001928E-02 0.  1.
    10030    2    1    2    0    0  0.00000000000E+00  0.00000000000E+00  0.71162610988E+03  0.10699293975E+04  0.79896007116E+03 0.  0.
        1    1    3    3  502    0  0.25932461107E+03  0.29449285382E+03  0.45610658498E+03  0.60167143172E+03  0.50400001928E-02 0. -1.
       -1    1    3    3    0  502 -0.25932461107E+03 -0.29449285382E+03  0.25551952490E+03  0.46825796575E+03  0.50400001928E-02 0.  1.
</event>
<event>
 5   0  0.4086111E-04  0.7997476E+03  0.7818609E-02  0.9560383E-01
        1   -1    0    0  501    0  0.00000000000E+00  0.00000000000E+00  0.31675204040E+03  0.31675204044E+03  0.50400001928E-02 0. -1.
       -1   -1    0    0    0  501  0.00000000000E+00  0.00000000000E+00 -0.50480827399E+03  0.50480827402E+03  0.50400001928E-02 0.  1.
    10030    2    1    2    0    0  0.00000000000E+00  0.00000000000E+00 -0.18805623359E+03  0.82156031446E+03  0.79974758725E+03 0.  0.
        3    1    3    3  502    0  0.72739968333E+02 -0.56332142001E+02 -0.49378790892E+03  0.50228569800E+03  0.10100000352E+00 0.  1.
       -3    1    3    3    0  502 -0.72739968333E+02  0.56332142001E+02  0.30573167533E+03  0.31927461646E+03  0.10100000352E+00 0. -1.
</event>
<event>
 5   0  0.4169155E-04  0.8002615E+03  0.7818609E-02  0.9559639E-01
        1   -1    0    0  501    0  0.00000000000E+00  0.00000000000E+00  0.10924544843E+04  0.10924544843E+04  0.50400001928E-02 0.  1.
       -1   -1    0    0    0  501  0.00000000000E+00  0.00000000000E+00 -0.14655494397E+03  0.14655494406E+03  0.50400001928E-02 0. -1.
    10030    2    1    2    0    0  0.00000000000E+00  0.00000000000E+00  0.94589954029E+03  0.12390094283E+04  0.80026147175E+03 0.  0.
        4    1    3    3  502    0 -0.20357304964E+03 -0.26954454841E+03  0.80503797160E+03  0.87303149928E+03  0.12699999809E+01 0.  1.
       -4    1    3    3    0  502  0.20357304964E+03  0.26954454841E+03  0.14086156869E+03  0.36597792905E+03  0.12699999809E+01 0. -1.
</event>
<event>
 5   0  0.6801147E-04  0.8006159E+03  0.7818609E-02  0.9559126E-01
        2   -1    0    0  501    0  0.00000000000E+00  0.00000000000E+00  0.35609993724E+03  0.35609993725E+03  0.25500000920E-02 0. -1.
       -2   -1    0    0    0  501  0.00000000000E+00  0.00000000000E+00 -0.45000418349E+03  0.45000418350E+03  0.25500000920E-02 0.  1.
    10030    2    1    2    0    0  0.00000000000E+00  0.00000000000E+00 -0.93904246257E+02  0.80610412075E+03  0.80061591667E+03 0.  0.
        4    1    3    3  502    0  0.85107287711E+02  0.29870531298E+03 -0.30122384246E+03  0.43267254430E+03  0.12699999809E+01 0.  1.
       -4    1    3    3    0  502 -0.85107287711E+02 -0.29870531298E+03  0.20731959620E+03  0.37343157645E+03  0.12699999809E+01 0. -1.
</event>
<event>
 5   0  0.7133039E-04  0.7999037E+03  0.7818609E-02  0.9560157E-01
        2   -1    0    0  501    0  0.00000000000E+00  0.00000000000E+00  0.31095872570E+03  0.31095872571E+03  0.25500000920E-02 0. -1.
       -2   -1    0    0    0  501  0.00000000000E+00  0.00000000000E+00 -0.51441385089E+03  0.51441385090E+03  0.25500000920E-02 0.  1.
    10030    2    1    2    0    0  0.00000000000E+00  0.00000000000E+00 -0.20345512519E+03  0.82537257661E+03  0.79990368311E+03 0.  0.
        2    1    3    3  502    0  0.23890883312E+02  0.19551437435E+03 -0.46089803719E+03  0.50122215192E+03  0.25500000920E-02 0.  1.
       -2    1    3    3    0  502 -0.23890883312E+02 -0.19551437435E+03  0.25744291200E+03  0.32415042469E+03  0.25500000920E-02 0. -1.
</event>
<event>
 5   0  0.7133039E-04  0.7999300E+03  0.7818609E-02  0.9560118E-01
       -2   -1    0    0    0  501  0.00000000000E+00  0.00000000000E+00  0.27213692814E+03  0.27213692815E+03  0.25500000920E-02 0.  1.
        2   -1    0    0  501    0  0.00000000000E+00  0.00000000000E+00 -0.58783647948E+03  0.58783647949E+03  0.25500000920E-02 0. -1.
    10030    2    1    2    0    0  0.00000000000E+00  0.00000000000E+00 -0.31569955134E+03  0.85997340764E+03  0.79993003139E+03 0.  0.
        2    1    3    3  502    0 -0.26847781588E+03  0.11668824393E+03 -0.45084186845E+03  0.53754522995E+03  0.25500000920E-02 0. -1.
       -2    1    3    3    0  502  0.26847781588E+03 -0.11668824393E+03  0.13514231710E+03  0.32242817769E+03  0.25500000920E-02 0.  1.
</event>
<event>
 5   0  0.6593118E-04  0.7994048E+03  0.7818609E-02  0.9560879E-01
       -2   -1    0    0    0  501  0.00000000000E+00  0.00000000000E+00  0.44883129727E+03  0.44883129728E+03  0.25500000920E-02 0. -1.
        2   -1    0    0  501    0  0.00000000000E+00  0.00000000000E+00 -0.35595114051E+03  0.35595114052E+03  0.25500000920E-02 0.  1.
    10030    2    1    2    0    0  0.00000000000E+00  0.00000000000E+00  0.92880156768E+02  0.80478243780E+03  0.79940480901E+03 0.  0.
        1    1    3    3  502    0 -0.21395204290E+03  0.41261048500E+02  0.38378236966E+03  0.44132398312E+03  0.50400001928E-02 0. -1.
       -1    1    3    3    0  502  0.21395204290E+03 -0.41261048500E+02 -0.29090221289E+03  0.36345845468E+03  0.50400001928E-02 0.  1.
</event>
<event>
 5   0  0.6672462E-04  0.7996632E+03  0.7818609E-02  0.9560505E-01
       -2   -1    0    0    0  501  0.00000000000E+00  0.00000000000E+00  0.23168921959E+03  0.23168921960E+03  0.25500000920E-02 0. -1.
        2   -1    0    0  501    0  0.00000000000E+00  0.00000000000E+00 -0.68999897352E+03  0.68999897352E+03  0.25500000920E-02 0.  1.
    10030    2    1    2    0    0  0.00000000000E+00  0.00000000000E+00 -0.45830975393E+03  0.92168819312E+03  0.79966323836E+03 0.  0.
        5    1    3    3  502    0 -0.81522061652E+02  0.53268022159E+02  0.21777862881E+03  0.23860626539E+03  0.46999998093E+01 0. -1.
       -5    1    3    3    0  502  0.81522061652E+02 -0.53268022159E+02 -0.67608838274E+03  0.68308192773E+03  0.46999998093E+01 0.  1.
</event>
<event>
 5   0  0.4104786E-04  0.7998103E+03  0.7818609E-02  0.9560292E-01
       -1   -1    0    0    0  501  0.00000000000E+00  0.00000000000E+00  0.82518207713E+02  0.82518207867E+02  0.50400001928E-02 0.  1.
        1   -1    0    0  501    0  0.00000000000E+00  0.00000000000E+00 -0.19380465358E+04  0.19380465358E+04  0.50400001928E-02 0. -1.
    10030    2    1    2    0    0  0.00000000000E+00  0.00000000000E+00 -0.18555283281E+04  0.20205647436E+04  0.79981029440E+03 0.  0.
        2    1    3    3  502    0  0.73143313852E+01 -0.31649758229E+03 -0.31049780152E+03  0.44343331381E+03  0.25500000920E-02 0.  1.
       -2    1    3    3    0  502 -0.73143313852E+01  0.31649758229E+03 -0.15450305265E+04  0.15771314298E+04  0.25500000920E-02 0. -1.
</event>
<event>
 5   0  0.4086111E-04  0.7996895E+03  0.7818609E-02  0.9560467E-01
       -1   -1    0    0    0  501  0.00000000000E+00  0.00000000000E+00  0.22900802996E+03  0.22900803002E+03  0.50400001928E-02 0.  1.
        1   -1    0    0  501    0  0.00000000000E+00  0.00000000000E+00 -0.69812320132E+03  0.69812320134E+03  0.50400001928E-02 0. -1.
    10030    2    1    2    0    0  0.00000000000E+00  0.00000000000E+00 -0.46911517136E+03  0.92713123136E+03  0.79968948734E+03 0.  0.
        3    1    3    3  502    0 -0.27938839018E+03 -0.72136024533E+02  0.86346191368E+02  0.30119288433E+03  0.10100000352E+00 0.  1.
       -3    1    3    3    0  502  0.27938839018E+03  0.72136024533E+02 -0.55546136273E+03  0.62593834703E+03  0.10100000352E+00 0. -1.
</event>
<event>
 5   0  0.4087283E-04  0.7998330E+03  0.7818609E-02  0.9560259E-01
       -1   -1    0    0    0  501  0.00000000000E+00  0.00000000000E+00  0.12991751171E+03  0.12991751181E+03  0.50400001928E-02 0. -1.
        1   -1    0    0  501    0  0.00000000000E+00  0.00000000000E+00 -0.12310366618E+04  0.12310366618E+04  0.50400001928E-02 0.  1.
    10030    2    1    2    0    0  0.00000000000E+00  0.00000000000E+00 -0.11011191501E+04  0.13609541736E+04  0.79983303258E+03 0.  0.
        1    1    3    3  502    0 -0.15141966693E+03 -0.33651761400E+03 -0.81284753164E+03  0.89268870822E+03  0.50400001928E-02 0.  1.
       -1    1    3    3    0  502  0.15141966693E+03  0.33651761400E+03 -0.28827161847E+03  0.46826546542E+03  0.50400001928E-02 0. -1.
</event>
<event>
 5   0  0.4104786E-04  0.8022097E+03  0.7818609E-02  0.9556824E-01
        1   -1    0    0  501    0  0.00000000000E+00  0.00000000000E+00  0.94821577101E+03  0.94821577103E+03  0.50400001928E-02 0. -1.
       -1   -1    0    0    0  501  0.00000000000E+00  0.00000000000E+00 -0.16967139620E+03  0.16967139627E+03  0.50400001928E-02 0.  1.
    10030    2    1    2    0    0  0.00000000000E+00  0.00000000000E+00  0.77854437481E+03  0.11178871673E+04  0.80220968285E+03 0.  0.
        2    1    3    3  502    0  0.69206634672E+02 -0.13533775275E+03  0.90652390903E+03  0.91917977744E+03  0.25500000920E-02 0. -1.
       -2    1    3    3    0  502 -0.69206634672E+02  0.13533775275E+03 -0.12797953422E+03  0.19870738986E+03  0.25500000920E-02 0.  1.
</event>
<event>
 5   0  0.6970013E-04  0.8001077E+03  0.7818609E-02  0.9559861E-01
       -2   -1    0    0    0  501  0.00000000000E+00  0.00000000000E+00  0.25666558627E+03  0.25666558629E+03  0.25500000920E-02 0. -1.
        2   -1    0    0  501    0  0.00000000000E+00  0.00000000000E+00 -0.62354708925E+03  0.62354708925E+03  0.25500000920E-02 0.  1.
    10030    2    1    2    0    0  0.00000000000E+00  0.00000000000E+00 -0.36688150297E+03  0.88021267554E+03  0.80010769085E+03 0.  0.
        3    1    3    3  502    0  0.32076772648E+03 -0.23869206502E+03 -0.19808648741E+03  0.44621082792E+03  0.10100000352E+00 0. -1.
       -3    1    3    3    0  502 -0.32076772648E+03  0.23869206502E+03 -0.16879501556E+03  0.43400184762E+03  0.10100000352E+00 0.  1.
</event>
<event>
 5   0  0.4104786E-04  0.7999470E+03  0.7818609E-02  0.9560094E-01
       -1   -1    0    0    0  501  0.00000000000E+00  0.00000000000E+00  0.21017775670E+03  0.21017775676E+03  0.50400001928E-02 0. -1.
        1   -1    0    0  501    0  0.00000000000E+00  0.00000000000E+00 -0.76115956206E+03  0.76115956207E+03  0.50400001928E-02 0.  1.
    10030    2    1    2    0    0  0.00000000000E+00  0.00000000000E+00 -0.55098180536E+03  0.97133731883E+03  0.79994702145E+03 0.  0.
        2    1    3    3  502    0 -0.93844744919E+01  0.39442432925E+03 -0.35530144151E+03  0.53094042436E+03  0.25500000920E-02 0. -1.
       -2    1    3    3    0  502  0.93844744919E+01 -0.39442432925E+03 -0.19568036384E+03  0.44039689448E+03  0.25500000920E-02 0.  1.
</event>
<event>
 5   0  0.6672462E-04  0.8001376E+03  0.7818609E-02  0.9559818E-01
        2   -1    0    0  501    0  0.00000000000E+00  0.00000000000E+00  0.63489897841E+03  0.63489897842E+03  0.25500000920E-02 0.  1.
       -2   -1    0    0    0  501  0.00000000000E+00  0.00000000000E+00 -0.25209531764E+03  0.25209531766E+03  0.25500000920E-02 0. -1.
    10030    2    1    2    0    0  0.00000000000E+00  0.00000000000E+00  0.38280366077E+03  0.88699429607E+03  0.80013763726E+03 0.  0.
        5    1    3    3  502    0  0.12167853680E+02 -0.28473336427E+03 -0.11980693289E+03  0.30918754270E+03  0.46999998093E+01 0. -1.
       -5    1    3    3    0  502 -0.12167853680E+02  0.28473336427E+03  0.50261059366E+03  0.57780675337E+03  0.46999998093E+01 0.  1.
</event>
<event>
 5   0  0.6593118E-04  0.8003430E+03  0.7818609E-02  0.9559521E-01
       -2   -1    0    0    0  501  0.00000000000E+00  0.00000000000E+00  0.21464899292E+03  0.21464899294E+03  0.25500000920E-02 0.  1.
        2   -1    0    0  501    0  0.00000000000E+00  0.00000000000E+00 -0.74604226282E+03  0.74604226282E+03  0.25500000920E-02 0. -1.
    10030    2    1    2    0    0  0.00000000000E+00  0.00000000000E+00 -0.53139326989E+03  0.96069125576E+03  0.80034297748E+03 0.  0.
        1    1    3    3  502    0 -0.13774671966E+03 -0.36400812054E+03 -0.37740751510E+03  0.54213697815E+03  0.50400001928E-02 0.  1.
       -1    1    3    3    0  502  0.13774671966E+03  0.36400812054E+03 -0.15398575479E+03  0.41855427761E+03  0.50400001928E-02 0. -1.
</event>
<event>
 5   0  0.4392552E-04  0.8008897E+03  0.7818609E-02  0.9558730E-01
        1   -1    0    0  501    0  0.00000000000E+00  0.00000000000E+00  0.41508007937E+03  0.41508007940E+03  0.50400001928E-02 0.  1.
       -1   -1    0    0    0  501  0.00000000000E+00  0.00000000000E+00 -0.38632563534E+03  0.38632563538E+03  0.50400001928E-02 0. -1.
    10030    2    1    2    0    0  0.00000000000E+00  0.00000000000E+00  0.28754444024E+02  0.80140571477E+03  0.80088969379E+03 0.  0.
        5    1    3    3  502    0  0.35077589276E+03 -0.18523608137E+03  0.68982086092E+02  0.40266208039E+03  0.46999998093E+01 0. -1.
       -5    1    3    3    0  502 -0.35077589276E+03  0.18523608137E+03 -0.40227642068E+02  0.39874363439E+03  0.46999998093E+01 0.  1.
</event>
<event>
 5   0  0.4086111E-04  0.7999689E+03  0.7818609E-02  0.9560062E-01
        1   -1    0    0  501    0  0.00000000000E+00  0.00000000000E+00  0.14547425363E+04  0.14547425363E+04  0.50400001928E-02 0.  1.
       -1   -1    0    0    0  501  0.00000000000E+00  0.00000000000E+00 -0.10997655298E+03  0.10997655309E+03  0.50400001928E-02 0. -1.
    10030    2    1    2    0    0  0.00000000000E+00  0.00000000000E+00  0.13447659833E+04  0.15647190894E+04  0.79996892367E+03 0.  0.
        3    1    3    3  502    0  0.24172314281E+02  0.15438742627E+03 -0.47797758596E+02  0.16341485274E+03  0.10100000352E+00 0. -1.
       -3    1    3    3    0  502 -0.24172314281E+02 -0.15438742627E+03  0.13925637419E+04  0.14013042367E+04  0.10100000352E+00 0.  1.
</event>
<event>
 5   0  0.4169155E-04  0.7998329E+03  0.7818609E-02  0.9560259E-01
        1   -1    0    0  501    0  0.00000000000E+00  0.00000000000E+00  0.61896377162E+03  0.61896377164E+03  0.50400001928E-02 0.  1.
       -1   -1    0    0    0  501  0.00000000000E+00  0.00000000000E+00 -0.25838858868E+03  0.25838858873E+03  0.50400001928E-02 0. -1.
    10030    2    1    2    0    0  0.00000000000E+00  0.00000000000E+00  0.36057518294E+03  0.87735236037E+03  0.79983292112E+03 0.  0.
        4    1    3    3  502    0 -0.21889502159E+03 -0.43018159852E+02  0.54436900146E+03  0.58830673564E+03  0.12699999809E+01 0.  1.
       -4    1    3    3    0  502  0.21889502159E+03  0.43018159852E+02 -0.18379381852E+03  0.28904562473E+03  0.12699999809E+01 0. -1.
</event>
<event>
 5   0  0.4392552E-04  0.8003080E+03  0.7818609E-02  0.9559571E-01
        1   -1    0    0  501    0  0.00000000000E+00  0.00000000000E+00  0.26065209406E+03  0.26065209411E+03  0.50400001928E-02 0. -1.
       -1   -1    0    0    0  501  0.00000000000E+00  0.00000000000E+00 -0.61431776440E+03  0.61431776443E+03  0.50400001928E-02 0.  1.
    10030    2    1    2    0    0  0.00000000000E+00  0.00000000000E+00 -0.35366567035E+03  0.87496985853E+03  0.80030797007E+03 0.  0.
        5    1    3    3  502    0  0.15643603199E+03 -0.24508141826E+03 -0.47736667889E+03  0.55896168902E+03  0.46999998093E+01 0.  1.
       -5    1    3    3    0  502 -0.15643603199E+03  0.24508141826E+03  0.12370100854E+03  0.31600816951E+03  0.46999998093E+01 0. -1.
</event>
<event>
 5   0  0.7133039E-04  0.8001223E+03  0.7818609E-02  0.9559840E-01
       -2   -1    0    0    0  501  0.00000000000E+00  0.00000000000E+00  0.95520720861E+02  0.95520720895E+02  0.25500000920E-02 0.  1.
        2   -1    0    0  501    0  0.00000000000E+00  0.00000000000E+00 -0.16755413518E+04  0.16755413518E+04  0.25500000920E-02 0. -1.
    10030    2    1    2    0    0  0.00000000000E+00  0.00000000000E+00 -0.15800206310E+04  0.17710620727E+04  0.80012228513E+03 0.  0.
        2    1    3    3  502    0 -0.66092479487E+02  0.42307820878E+02  0.78317422819E+02  0.11086832855E+03  0.25500000920E-02 0.  1.
       -2    1    3    3    0  502  0.66092479487E+02 -0.42307820878E+02 -0.16583380538E+04  0.16601937442E+04  0.25500000920E-02 0. -1.
</event>
<event>
 5   0  0.4104786E-04  0.8001312E+03  0.7818609E-02  0.9559827E-01
       -1   -1    0    0    0  501  0.00000000000E+00  0.00000000000E+00  0.93089215865E+02  0.93089216002E+02  0.50400001928E-02 0.  1.
        1   -1    0    0  501    0  0.00000000000E+00  0.00000000000E+00 -0.17193449631E+04  0.17193449631E+04  0.50400001928E-02 0. -1.
    10030    2    1    2    0    0  0.00000000000E+00  0.00000000000E+00 -0.16262557473E+04  0.18124341791E+04  0.80013117562E+03 0.  0.
        2    1    3    3  502    0  0.13928584103E+03  0.37382419184E+03 -0.88136191096E+03  0.96744193108E+03  0.25500000920E-02 0.  1.
       -2    1    3    3    0  502 -0.13928584103E+03 -0.37382419184E+03 -0.74489383631E+03  0.84499224806E+03  0.25500000920E-02 0. -1.
</event>
<event>
 5   0  0.6672462E-04  0.8008712E+03  0.7818609E-02  0.9558757E-01
       -2   -1    0    0    0  501  0.00000000000E+00  0.00000000000E+00  0.39068811140E+03  0.39068811141E+03  0.25500000920E-02 0. -1.
        2   -1    0    0  501    0  0.00000000000E+00  0.00000000000E+00 -0.41042625322E+03  0.41042625323E+03  0.25500000920E-02 0.  1.
    10030    2    1    2    0    0  0.00000000000E+00  0.00000000000E+00 -0.19738141820E+02  0.80111436464E+03  0.80087117003E+03 0.  0.
        5    1    3    3  502    0 -0.25795328826E+03  0.20344288388E+03 -0.23884393650E+03  0.40619874683E+03  0.46999998093E+01 0.  1.
       -5    1    3    3    0  502  0.25795328826E+03 -0.20344288388E+03  0.21910579468E+03  0.39491561781E+03  0.46999998093E+01 0. -1.
</event>
<event>
 5   0  0.4087283E-04  0.8001767E+03  0.7818609E-02  0.9559761E-01
       -1   -1    0    0    0  501  0.00000000000E+00  0.00000000000E+00  0.88824239765E+03  0.88824239766E+03  0.50400001928E-02 0.  1.
        1   -1    0    0  501    0  0.00000000000E+00  0.00000000000E+00 -0.18021060333E+03  0.18021060340E+03  0.50400001928E-02 0. -1.
    10030    2    1    2    0    0  0.00000000000E+00  0.00000000000E+00  0.70803179432E+03  0.10684530011E+04  0.80017672655E+03 0.  0.
        1    1    3    3  502    0 -0.93056024880E+02  0.38097900154E+03  0.24831608064E+03  0.46418239876E+03  0.50400001928E-02 0. -1.
       -1    1    3    3    0  502  0.93056024880E+02 -0.38097900154E+03  0.45971571368E+03  0.60427060231E+03  0.50400001928E-02 0.  1.
</event>
<event>
 5   0  0.6970013E-04  0.7999618E+03  0.7818609E-02  0.9560072E-01
        2   -1    0    0  501    0  0.00000000000E+00  0.00000000000E+00  0.40559644288E+03  0.40559644289E+03  0.25500000920E-02 0.  1.
       -2   -1    0    0    0  501  0.00000000000E+00  0.00000000000E+00 -0.39444312797E+03  0.39444312798E+03  0.25500000920E-02 0. -1.
    10030    2    1    2    0    0  0.00000000000E+00  0.00000000000E+00  0.11153314913E+02  0.80003957087E+03  0.79996182316E+03 0.  0.
        3    1    3    3  502    0 -0.28916456726E+03  0.12635615993E+03  0.25137013759E+03  0.40344638105E+03  0.10100000352E+00 0.  1.
       -3    1    3    3    0  502  0.28916456726E+03 -0.12635615993E+03 -0.24021682267E+03  0.39659318982E+03  0.10100000352E+00 0. -1.
</event>
<event>
 5   0  0.6672462E-04  0.8006016E+03  0.7818609E-02  0.9559147E-01
        2   -1    0    0  501    0  0.00000000000E+00  0.00000000000E+00  0.39727216603E+03  0.39727216604E+03  0.25500000920E-02 0. -1.
       -2   -1    0    0    0  501  0.00000000000E+00  0.00000000000E+00 -0.40335250761E+03  0.40335250761E+03  0.25500000920E-02 0.  1.
    10030    2    1    2    0    0  0.00000000000E+00  0.00000000000E+00 -0.60803415713E+01  0.80062467366E+03  0.80060158476E+03 0.  0.
        5    1    3    3  502    0  0.27136521410E+02  0.37470261661E+03 -0.14117522512E+03  0.40136140306E+03  0.46999998093E+01 0.  1.
       -5    1    3    3    0  502 -0.27136521410E+02 -0.37470261661E+03  0.13509488354E+03  0.39926327059E+03  0.46999998093E+01 0. -1.
</event>
<event>
 5   0  0.6672462E-04  0.7989868E+03  0.7818609E-02  0.9561485E-01
       -2   -1    0    0    0  501  0.00000000000E+00  0.00000000000E+00  0.21679783301E+03  0.21679783303E+03  0.25500000920E-02 0.  1.
        2   -1    0    0  501    0  0.00000000000E+00  0.00000000000E+00 -0.73614651254E+03  0.73614651255E+03  0.25500000920E-02 0. -1.
    10030    2    1    2    0    0  0.00000000000E+00  0.00000000000E+00 -0.51934867953E+03  0.95294434558E+03  0.79898678014E+03 0.  0.
        5    1    3    3  502    0 -0.30384718307E+03  0.44220114967E+01  0.49576003401E+02  0.30793267926E+03  0.46999998093E+01 0.  1.
       -5    1    3    3    0  502  0.30384718307E+03 -0.44220114967E+01 -0.56892468293E+03  0.64501166632E+03  0.46999998093E+01 0. -1.
</event>
<event>
 5   0  0.6970013E-04  0.7985262E+03  0.7818609E-02  0.9562153E-01
       -2   -1    0    0    0  501  0.00000000000E+00  0.00000000000E+00  0.13608448679E+03  0.13608448682E+03  0.25500000920E-02 0.  1.
        2   -1    0    0  501    0  0.00000000000E+00  0.00000000000E+00 -0.11714121387E+04  0.11714121387E+04  0.25500000920E-02 0. -1.
    10030    2    1    2    0    0  0.00000000000E+00  0.00000000000E+00 -0.10353276519E+04  0.13074966255E+04  0.79852619176E+03 0.  0.
        3    1    3    3  502    0 -0.19086841297E+03 -0.21647831429E+02  0.55448923502E+02  0.19993492189E+03  0.10100000352E+00 0.  1.
       -3    1    3    3    0  502  0.19086841297E+03  0.21647831429E+02 -0.10907765754E+04  0.11075617036E+04  0.10100000352E+00 0. -1.
</event>
<event>
 5   0  0.4087283E-04  0.7999017E+03  0.7818609E-02  0.9560159E-01
       -1   -1    0    0    0  501  0.00000000000E+00  0.00000000000E+00  0.24888487644E+03  0.24888487650E+03  0.50400001928E-02 0.  1.
        1   -1    0    0  501    0  0.00000000000E+00  0.00000000000E+00 -0.64270948608E+03  0.64270948610E+03  0.50400001928E-02 0. -1.
    10030    2    1    2    0    0  0.00000000000E+00  0.00000000000E+00 -0.39382460963E+03  0.89159436259E+03  0.79990167162E+03 0.  0.
        1    1    3    3  502    0 -0.37719860469E+03  0.12425088943E+03 -0.24970859873E+03  0.46911774131E+03  0.50400001928E-02 0. -1.
       -1    1    3    3    0  502  0.37719860469E+03 -0.12425088943E+03 -0.14411601090E+03  0.42247662128E+03  0.50400001928E-02 0.  1.
</event>
<event>
 5   0  0.4104786E-04  0.8001084E+03  0.7818609E-02  0.9559860E-01
        1   -1    0    0  501    0  0.00000000000E+00  0.00000000000E+00  0.52821795625E+03  0.52821795628E+03  0.50400001928E-02 0.  1.
       -1   -1    0    0    0  501  0.00000000000E+00  0.00000000000E+00 -0.30298737104E+03  0.30298737108E+03  0.50400001928E-02 0. -1.
    10030    2    1    2    0    0  0.00000000000E+00  0.00000000000E+00  0.22523058521E+03  0.83120532736E+03  0.80010841748E+03 0.  0.
        2    1    3    3  502    0  0.27767061159E+03  0.16435407622E+03 -0.13307184921E+03  0.34902915061E+03  0.25500000920E-02 0.  1.
       -2    1    3    3    0  502 -0.27767061159E+03 -0.16435407622E+03  0.35830243442E+03  0.48217617676E+03  0.25500000920E-02 0. -1.
</event>
<event>
 5   0  0.4392552E-04  0.7999444E+03  0.7818609E-02  0.9560098E-01
        1   -1    0    0  501    0  0.00000000000E+00  0.00000000000E+00  0.65776873974E+03  0.65776873976E+03  0.50400001928E-02 0.  1.
       -1   -1    0    0    0  501  0.00000000000E+00  0.00000000000E+00 -0.24321279505E+03  0.24321279510E+03  0.50400001928E-02 0. -1.
    10030    2    1    2    0    0  0.00000000000E+00  0.00000000000E+00  0.41455594469E+03  0.90098153486E+03  0.79994443237E+03 0.  0.
        5    1    3    3  502    0 -0.26474947693E+03  0.28429965348E+03  0.31434869646E+03  0.49975571179E+03  0.46999998093E+01 0.  1.
       -5    1    3    3    0  502  0.26474947693E+03 -0.28429965348E+03  0.10020724823E+03  0.40122582307E+03  0.46999998093E+01 0. -1.
</event>
<event>
 5   0  0.7133039E-04  0.8001149E+03  0.7818609E-02  0.9559851E-01
       -2   -1    0    0    0  501  0.00000000000E+00  0.00000000000E+00  0.35761711695E+03  0.35761711696E+03  0.25500000920E-02 0.  1.
        2   -1    0    0  501    0  0.00000000000E+00  0.00000000000E+00 -0.44753445647E+03  0.44753445648E+03  0.25500000920E-02 0. -1.
    10030    2    1    2    0    0  0.00000000000E+00  0.00000000000E+00 -0.89917339520E+02  0.80515157344E+03  0.80011494691E+03 0.  0.
        2    1    3    3  502    0  0.26513566729E+03  0.83306652791E+02  0.24461841659E+03  0.37023653279E+03  0.25500000920E-02 0.  1.
       -2    1    3    3    0  502 -0.26513566729E+03 -0.83306652791E+02 -0.33453575611E+03  0.43491504066E+03  0.25500000920E-02 0. -1.
</event>
<event>
 5   0  0.4086111E-04  0.7999823E+03  0.7818609E-02  0.9560043E-01
       -1   -1    0    0    0  501  0.00000000000E+00  0.00000000000E+00  0.12681037408E+03  0.12681037418E+03  0.50400001928E-02 0.  1.
        1   -1    0    0  501    0  0.00000000000E+00  0.00000000000E+00 -0.12616705964E+04  0.12616705964E+04  0.50400001928E-02 0. -1.
    10030    2    1    2    0    0  0.00000000000E+00  0.00000000000E+00 -0.11348602223E+04  0.13884809706E+04  0.79998230074E+03 0.  0.
        3    1    3    3  502    0 -0.31344000490E+02  0.39872288147E+03 -0.57701983063E+03  0.70207854098E+03  0.10100000352E+00 0. -1.
       -3    1    3    3    0  502  0.31344000490E+02 -0.39872288147E+03 -0.55784039170E+03  0.68640242962E+03  0.10100000352E+00 0.  1.
</event>
<event>
 5   0  0.4169155E-04  0.7998294E+03  0.7818609E-02  0.9560264E-01
        1   -1    0    0  501    0  0.00000000000E+00  0.00000000000E+00  0.22173537472E+03  0.22173537478E+03  0.50400001928E-02 0. -1.
       -1   -1    0    0    0  501  0.00000000000E+00  0.00000000000E+00 -0.72127318711E+03  0.72127318713E+03  0.50400001928E-02 0.  1.
    10030    2    1    2    0    0  0.00000000000E+00  0.00000000000E+00 -0.49953781239E+03  0.94300856191E+03  0.79982943296E+03 0.  0.
        4    1    3    3  502    0 -0.10254605192E+03  0.33628750706E+03 -0.25059016865E+02  0.35246921481E+03  0.12699999809E+01 0. -1.
       -4    1    3    3    0  502  0.10254605192E+03 -0.33628750706E+03 -0.47447879553E+03  0.59053934710E+03  0.12699999809E+01 0.  1.
</event>
<event>
 5   0  0.6801147E-04  0.7985281E+03  0.7818609E-02  0.9562150E-01
        2   -1    0    0  501    0  0.00000000000E+00  0.00000000000E+00  0.33535566999E+03  0.33535567000E+03  0.25500000920E-02 0. -1.
       -2   -1    0    0    0  501  0.00000000000E+00  0.00000000000E+00 -0.47535133476E+03  0.47535133476E+03  0.25500000920E-02 0.  1.
    10030    2    1    2    0    0  0.00000000000E+00  0.00000000000E+00 -0.13999566476E+03  0.81070700477E+03  0.79852805926E+03 0.  0.
        4    1    3    3  502    0 -0.24126431799E+03 -0.12181682426E+03 -0.36835463985E+03  0.45687477869E+03  0.12699999809E+01 0.  1.
       -4    1    3    3    0  502  0.24126431799E+03  0.12181682426E+03  0.22835897509E+03  0.35383222608E+03  0.12699999809E+01 0. -1.
</event>
<event>
 5   0  0.2736375E-04  0.8031245E+03  0.7818609E-02  0.9555506E-01
        3   -1    0    0  501    0  0.00000000000E+00  0.00000000000E+00  0.29076549838E+03  0.29076551592E+03  0.10100000352E+00 0. -1.
       -3   -1    0    0    0  501  0.00000000000E+00  0.00000000000E+00 -0.55457824838E+03  0.55457825758E+03  0.10100000352E+00 0.  1.
    10030    2    1    2    0    0  0.00000000000E+00  0.00000000000E+00 -0.26381275000E+03  0.84534377349E+03  0.80312447872E+03 0.  0.
        1    1    3    3  502    0  0.21757642135E+03  0.30740926141E+03  0.14745883763E+02  0.37690502019E+03  0.50400001928E-02 0.  1.
       -1    1    3    3    0  502 -0.21757642135E+03 -0.30740926141E+03 -0.27855863377E+03  0.46843875331E+03  0.50400001928E-02 0. -1.
</event>
<event>
 5   0  0.4169155E-04  0.8003496E+03  0.7818609E-02  0.9559511E-01
       -1   -1    0    0    0  501  0.00000000000E+00  0.00000000000E+00  0.20953449022E+03  0.20953449028E+03  0.50400001928E-02 0.  1.
        1   -1    0    0  501    0  0.00000000000E+00  0.00000000000E+00 -0.76426488443E+03  0.76426488445E+03  0.50400001928E-02 0. -1.
    10030    2    1    2    0    0  0.00000000000E+00  0.00000000000E+00 -0.55473039421E+03  0.97379937473E+03  0.80034955611E+03 0.  0.
        4    1    3    3  502    0 -0.37146279884E+03 -0.11534119888E+03 -0.39182745969E+03  0.55210377118E+03  0.12699999809E+01 0. -1.
       -4    1    3    3    0  502  0.37146279884E+03  0.11534119888E+03 -0.16290293452E+03  0.42169560355E+03  0.12699999809E+01 0.  1.
</event>
<event>
 5   0  0.4169155E-04  0.8000028E+03  0.7818609E-02  0.9560013E-01
        1   -1    0    0  501    0  0.00000000000E+00  0.00000000000E+00  0.59755102654E+03  0.59755102656E+03  0.50400001928E-02 0.  1.
       -1   -1    0    0    0  501  0.00000000000E+00  0.00000000000E+00 -0.26776142764E+03  0.26776142769E+03  0.50400001928E-02 0. -1.
    10030    2    1    2    0    0  0.00000000000E+00  0.00000000000E+00  0.32978959889E+03  0.86531245425E+03  0.80000278995E+03 0.  0.
        4    1    3    3  502    0  0.39190201228E+03 -0.44275224558E+02  0.92724248081E+02  0.40515044344E+03  0.12699999809E+01 0.  1.
       -4    1    3    3    0  502 -0.39190201228E+03  0.44275224558E+02  0.23706535081E+03  0.46016201081E+03  0.12699999809E+01 0. -1.
</event>
<event>
 5   0  0.4087283E-04  0.7972194E+03  0.7818609E-02  0.9564051E-01
        1   -1    0    0  501    0  0.00000000000E+00  0.00000000000E+00  0.51865670843E+03  0.51865670846E+03  0.50400001928E-02 0.  1.
       -1   -1    0    0    0  501  0.00000000000E+00  0.00000000000E+00 -0.30634850848E+03  0.30634850852E+03  0.50400001928E-02 0. -1.
    10030    2    1    2    0    0  0.00000000000E+00  0.00000000000E+00  0.21230819996E+03  0.82500521698E+03  0.79721944047E+03 0.  0.
        1    1    3    3  502    0 -0.70698335137E+01 -0.82682445252E+02 -0.29731044766E+03  0.30867437796E+03  0.50400001928E-02 0. -1.
       -1    1    3    3    0  502  0.70698335137E+01  0.82682445252E+02  0.50961864761E+03  0.51633083902E+03  0.50400001928E-02 0.  1.
</event>
<event>
 5   0  0.6593118E-04  0.7980275E+03  0.7818609E-02  0.9562877E-01
       -2   -1    0    0    0  501  0.00000000000E+00  0.00000000000E+00  0.14292802828E+03  0.14292802831E+03  0.25500000920E-02 0. -1.
        2   -1    0    0  501    0  0.00000000000E+00  0.00000000000E+00 -0.11139311450E+04  0.11139311450E+04  0.25500000920E-02 0.  1.
    10030    2    1    2    0    0  0.00000000000E+00  0.00000000000E+00 -0.97100311675E+03  0.12568591733E+04  0.79802752389E+03 0.  0.
        1    1    3    3  502    0 -0.15527662123E+03  0.28458465888E+03 -0.85187033243E+03  0.91147261093E+03  0.50400001928E-02 0.  1.
       -1    1    3    3    0  502  0.15527662123E+03 -0.28458465888E+03 -0.11913278432E+03  0.34538656241E+03  0.50400001928E-02 0. -1.
</event>
<event>
 5   0  0.4086111E-04  0.8014043E+03  0.7818609E-02  0.9557987E-01
       -1   -1    0    0    0  501  0.00000000000E+00  0.00000000000E+00  0.20451264185E+03  0.20451264192E+03  0.50400001928E-02 0. -1.
        1   -1    0    0  501    0  0.00000000000E+00  0.00000000000E+00 -0.78509673369E+03  0.78509673371E+03  0.50400001928E-02 0.  1.
    10030    2    1    2    0    0  0.00000000000E+00  0.00000000000E+00 -0.58058409184E+03  0.98960937562E+03  0.80140428538E+03 0.  0.
        3    1    3    3  502    0 -0.24645920500E+03  0.26836803704E+03 -0.49617672235E+03  0.61559312296E+03  0.10100000352E+00 0. -1.
       -3    1    3    3    0  502  0.24645920500E+03 -0.26836803704E+03 -0.84407369487E+02  0.37401625266E+03  0.10100000352E+00 0.  1.
</event>
<event>
 5   0  0.7133039E-04  0.7980105E+03  0.7818609E-02  0.9562901E-01
        2   -1    0    0  501    0  0.00000000000E+00  0.00000000000E+00  0.11082230266E+04  0.11082230266E+04  0.25500000920E-02 0.  1.
       -2   -1    0    0    0  501  0.00000000000E+00  0.00000000000E+00 -0.14365808031E+03  0.14365808033E+03  0.25500000920E-02 0. -1.
    10030    2    1    2    0    0  0.00000000000E+00  0.00000000000E+00  0.96456494626E+03  0.12518811069E+04  0.79801050762E+03 0.  0.
        2    1    3    3  502    0  0.35756730432E+03 -0.97384159406E+02  0.71426243752E+03  0.80467936551E+03  0.25500000920E-02 0. -1.
       -2    1    3    3    0  502 -0.35756730432E+03  0.97384159406E+02  0.25030250874E+03  0.44720174140E+03  0.25500000920E-02 0.  1.
</event>
<event>
 5   0  0.6970013E-04  0.8001387E+03  0.7818609E-02  0.9559816E-01
       -2   -1    0    0    0  501  0.00000000000E+00  0.00000000000E+00  0.77490550691E+03  0.77490550691E+03  0.25500000920E-02 0. -1.
        2   -1    0    0  501    0  0.00000000000E+00  0.00000000000E+00 -0.20654840799E+03  0.20654840800E+03  0.25500000920E-02 0.  1.
    10030    2    1    2    0    0  0.00000000000E+00  0.00000000000E+00  0.56835709892E+03  0.98145391491E+03  0.80013873497E+03 0.  0.
        3    1    3    3  502    0 -0.27069273059E+03  0.29352113257E+03  0.25348207354E+03  0.47295071781E+03  0.10100000352E+00 0.  1.
       -3    1    3    3    0  502  0.27069273059E+03 -0.29352113257E+03  0.31487502538E+03  0.50850319711E+03  0.10100000352E+00 0. -1.
</event>
<event>
 5   0  0.2736375E-04  0.8000224E+03  0.7818609E-02  0.9559985E-01
        3   -1    0    0  501    0  0.00000000000E+00  0.00000000000E+00  0.18845161622E+03  0.18845164329E+03  0.10100000352E+00 0. -1.
       -3   -1    0    0    0  501  0.00000000000E+00  0.00000000000E+00 -0.84907165195E+03  0.84907165796E+03  0.10100000352E+00 0.  1.
    10030    2    1    2    0    0  0.00000000000E+00  0.00000000000E+00 -0.66062003573E+03  0.10375233012E+04  0.80002235532E+03 0.  0.
        2    1    3    3  502    0  0.23595505716E+03 -0.32231454488E+03 -0.35774382914E+03  0.53622952375E+03  0.25500000920E-02 0.  1.
       -2    1    3    3    0  502 -0.23595505716E+03  0.32231454488E+03 -0.30287620659E+03  0.50129377750E+03  0.25500000920E-02 0. -1.
</event>
<event>
 5   0  0.4392552E-04  0.7991183E+03  0.7818609E-02  0.9561294E-01
        1   -1    0    0  501    0  0.00000000000E+00  0.00000000000E+00  0.23433754660E+03  0.23433754666E+03  0.50400001928E-02 0. -1.
       -1   -1    0    0    0  501  0.00000000000E+00  0.00000000000E+00 -0.68127163944E+03  0.68127163945E+03  0.50400001928E-02 0.  1.
    10030    2    1    2    0    0  0.00000000000E+00  0.00000000000E+00 -0.44693409283E+03  0.91560918611E+03  0.79911832563E+03 0.  0.
        5    1    3    3  502    0  0.16373484312E+03  0.31876689281E+03 -0.21069980677E+02  0.35900900391E+03  0.46999998093E+01 0. -1.
       -5    1    3    3    0  502 -0.16373484312E+03 -0.31876689281E+03 -0.42586411215E+03  0.55660018220E+03  0.46999998093E+01 0.  1.
</event>
<event>
 5   0  0.6801147E-04  0.7998770E+03  0.7818609E-02  0.9560195E-01
       -2   -1    0    0    0  501  0.00000000000E+00  0.00000000000E+00  0.18059780205E+03  0.18059780207E+03  0.25500000920E-02 0. -1.
        2   -1    0    0  501    0  0.00000000000E+00  0.00000000000E+00 -0.88567419173E+03  0.88567419173E+03  0.25500000920E-02 0.  1.
    10030    2    1    2    0    0  0.00000000000E+00  0.00000000000E+00 -0.70507638967E+03  0.10662719938E+04  0.79987702147E+03 0.  0.
        4    1    3    3  502    0  0.34779898776E+03 -0.17771820443E+03 -0.46722115267E+03  0.60897053662E+03  0.12699999809E+01 0.  1.
       -4    1    3    3    0  502 -0.34779898776E+03  0.17771820443E+03 -0.23785523701E+03  0.45730145718E+03  0.12699999809E+01 0. -1.
</event>
<event>
 5   0  0.6801147E-04  0.7994901E+03  0.7818609E-02  0.9560755E-01
       -2   -1    0    0    0  501  0.00000000000E+00  0.00000000000E+00  0.30296148661E+03  0.30296148662E+03  0.25500000920E-02 0.  1.
        2   -1    0    0  501    0  0.00000000000E+00  0.00000000000E+00 -0.52744695885E+03  0.52744695885E+03  0.25500000920E-02 0. -1.
    10030    2    1    2    0    0  0.00000000000E+00  0.00000000000E+00 -0.22448547223E+03  0.83040844548E+03  0.79949012444E+03 0.  0.
        4    1    3    3  502    0 -0.10798169172E+03  0.17995119046E+03 -0.46562353881E+03  0.51073414756E+03  0.12699999809E+01 0. -1.
       -4    1    3    3    0  502  0.10798169172E+03 -0.17995119046E+03  0.24113806657E+03  0.31967429791E+03  0.12699999809E+01 0.  1.
</event>
<event>
 5   0  0.7133039E-04  0.8005931E+03  0.7818609E-02  0.9559159E-01
        2   -1    0    0  501    0  0.00000000000E+00  0.00000000000E+00  0.70696872485E+03  0.70696872486E+03  0.25500000920E-02 0. -1.
       -2   -1    0    0    0  501  0.00000000000E+00  0.00000000000E+00 -0.22665402792E+03  0.22665402794E+03  0.25500000920E-02 0.  1.
    10030    2    1    2    0    0  0.00000000000E+00  0.00000000000E+00  0.48031469693E+03  0.93362275280E+03  0.80059305296E+03 0.  0.
        2    1    3    3  502    0  0.73064177201E+02  0.26720562632E+02 -0.21775314643E+03  0.23123320532E+03  0.25500000920E-02 0.  1.
       -2    1    3    3    0  502 -0.73064177201E+02 -0.26720562632E+02  0.69806784336E+03  0.70238954747E+03  0.25500000920E-02 0. -1.
</event>
<event>
 5   0  0.4086111E-04  0.7999444E+03  0.7818609E-02  0.9560098E-01
       -1   -1    0    0    0  501  0.00000000000E+00  0.00000000000E+00  0.51899178125E+03  0.51899178128E+03  0.50400001928E-02 0.  1.
        1   -1    0    0  501    0  0.00000000000E+00  0.00000000000E+00 -0.30824717929E+03  0.30824717933E+03  0.50400001928E-02 0. -1.
    10030    2    1    2    0    0  0.00000000000E+00  0.00000000000E+00  0.21074460196E+03  0.82723896061E+03  0.79994437975E+03 0.  0.
        3    1    3    3  502    0 -0.25989307680E+03 -0.30340763868E+03  0.85289692434E+02  0.40850330282E+03  0.10100000352E+00 0. -1.
       -3    1    3    3    0  502  0.25989307680E+03  0.30340763868E+03  0.12545490953E+03  0.41873565779E+03  0.10100000352E+00 0.  1.
</event>
<event>
 5   0  0.6970013E-04  0.7986880E+03  0.7818609E-02  0.9561918E-01
        2   -1    0    0  501    0  0.00000000000E+00  0.00000000000E+00  0.71808735076E+03  0.71808735077E+03  0.25500000920E-02 0.  1.
       -2   -1    0    0    0  501  0.00000000000E+00  0.00000000000E+00 -0.22208390555E+03  0.22208390556E+03  0.25500000920E-02 0. -1.
    10030    2    1    2    0    0  0.00000000000E+00  0.00000000000E+00  0.49600344522E+03  0.94017125633E+03  0.79868803269E+03 0.  0.
        3    1    3    3  502    0  0.21022151573E+03 -0.22845200328E+03  0.54367885002E+03  0.62607515973E+03  0.10100000352E+00 0.  1.
       -3    1    3    3    0  502 -0.21022151573E+03  0.22845200328E+03 -0.47675404803E+02  0.31409609660E+03  0.10100000352E+00 0. -1.
</event>
<event>
 5   0  0.4392552E-04  0.8004869E+03  0.7818609E-02  0.9559313E-01
       -1   -1    0    0    0  501  0.00000000000E+00  0.00000000000E+00  0.85969333075E+03  0.85969333077E+03  0.50400001928E-02 0.  1.
        1   -1    0    0  501    0  0.00000000000E+00  0.00000000000E+00 -0.18633948097E+03  0.18633948104E+03  0.50400001928E-02 0. -1.
    10030    2    1    2    0    0  0.00000000000E+00  0.00000000000E+00  0.67335384978E+03  0.10460328118E+04  0.80048687456E+03 0.  0.
        5    1    3    3  502    0 -0.36638602625E+03 -0.49043847600E+02  0.13623431112E+03  0.39398717840E+03  0.46999998093E+01 0. -1.
       -5    1    3    3    0  502  0.36638602625E+03  0.49043847600E+02  0.53711953867E+03  0.65204563340E+03  0.46999998093E+01 0.  1.
</event>
<event>
 5   0  0.4086111E-04  0.8000525E+03  0.7818609E-02  0.9559941E-01
       -1   -1    0    0    0  501  0.00000000000E+00  0.00000000000E+00  0.17467032061E+03  0.17467032069E+03  0.50400001928E-02 0.  1.
        1   -1    0    0  501    0  0.00000000000E+00  0.00000000000E+00 -0.91613162299E+03  0.91613162300E+03  0.50400001928E-02 0. -1.
    10030    2    1    2    0    0  0.00000000000E+00  0.00000000000E+00 -0.74146130237E+03  0.10908019437E+04  0.80005250918E+03 0.  0.
        3    1    3    3  502    0 -0.52960955896E+02  0.72561734292E+02 -0.90220105777E+03  0.90666246585E+03  0.10100000352E+00 0. -1.
       -3    1    3    3    0  502  0.52960955896E+02 -0.72561734292E+02  0.16073975540E+03  0.18413947784E+03  0.10100000352E+00 0.  1.
</event>
<event>
 5   0  0.4392552E-04  0.7999764E+03  0.7818609E-02  0.9560051E-01
       -1   -1    0    0    0  501  0.00000000000E+00  0.00000000000E+00  0.20545604765E+03  0.20545604772E+03  0.50400001928E-02 0.  1.
        1   -1    0    0  501    0  0.00000000000E+00  0.00000000000E+00 -0.77870949222E+03  0.77870949223E+03  0.50400001928E-02 0. -1.
    10030    2    1    2    0    0  0.00000000000E+00  0.00000000000E+00 -0.57325344456E+03  0.98416553995E+03  0.79997643610E+03 0.  0.
        5    1    3    3  502    0 -0.27372097815E+03  0.56187528085E+02 -0.63867466769E+03  0.69714247707E+03  0.46999998093E+01 0. -1.
       -5    1    3    3    0  502  0.27372097815E+03 -0.56187528085E+02  0.65421223127E+02  0.28702306288E+03  0.46999998093E+01 0.  1.
</event>
<event>
 5   0  0.6801147E-04  0.8001335E+03  0.7818609E-02  0.9559824E-01
        2   -1    0    0  501    0  0.00000000000E+00  0.00000000000E+00  0.10115338633E+04  0.10115338633E+04  0.25500000920E-02 0. -1.
       -2   -1    0    0    0  501  0.00000000000E+00  0.00000000000E+00 -0.15822840335E+03  0.15822840338E+03  0.25500000920E-02 0.  1.
    10030    2    1    2    0    0  0.00000000000E+00  0.00000000000E+00  0.85330545991E+03  0.11697622666E+04  0.80013345921E+03 0.  0.
        4    1    3    3  502    0 -0.25096159257E+03 -0.13392616593E+03  0.15392904647E+02  0.28487978742E+03  0.12699999809E+01 0.  1.
       -4    1    3    3    0  502  0.25096159257E+03  0.13392616593E+03  0.83791255526E+03  0.88488247922E+03  0.12699999809E+01 0. -1.
</event>
<event>
 5   0  0.4104786E-04  0.8004059E+03  0.7818609E-02  0.9559430E-01
       -1   -1    0    0    0  501  0.00000000000E+00  0.00000000000E+00  0.23542557323E+03  0.23542557329E+03  0.50400001928E-02 0.  1.
        1   -1    0    0  501    0  0.00000000000E+00  0.00000000000E+00 -0.68031004584E+03  0.68031004585E+03  0.50400001928E-02 0. -1.
    10030    2    1    2    0    0  0.00000000000E+00  0.00000000000E+00 -0.44488447260E+03  0.91573561914E+03  0.80040585342E+03 0.  0.
        2    1    3    3  502    0  0.73369058711E+02  0.29290437024E+02 -0.67130068240E+03  0.67593309926E+03  0.25500000920E-02 0. -1.
       -2    1    3    3    0  502 -0.73369058711E+02 -0.29290437024E+02  0.22641620979E+03  0.23980251988E+03  0.25500000920E-02 0.  1.
</event>
<event>
 5   0  0.4086111E-04  0.8001750E+03  0.7818609E-02  0.9559764E-01
        1   -1    0    0  501    0  0.00000000000E+00  0.00000000000E+00  0.82993235491E+03  0.82993235492E+03  0.50400001928E-02 0. -1.
       -1   -1    0    0    0  501  0.00000000000E+00  0.00000000000E+00 -0.19287116040E+03  0.19287116046E+03  0.50400001928E-02 0.  1.
    10030    2    1    2    0    0  0.00000000000E+00  0.00000000000E+00  0.63706119451E+03  0.10228035154E+04  0.80017502182E+03 0.  0.
        3    1    3    3  502    0  0.21407163229E+03  0.15954285245E+03 -0.62349108379E+02  0.27416784464E+03  0.10100000352E+00 0.  1.
       -3    1    3    3    0  502 -0.21407163229E+03 -0.15954285245E+03  0.69941030289E+03  0.74863567074E+03  0.10100000352E+00 0. -1.
</event>
<event>
 5   0  0.7133039E-04  0.7988980E+03  0.7818609E-02  0.9561614E-01
       -2   -1    0    0    0  501  0.00000000000E+00  0.00000000000E+00  0.37195241332E+03  0.37195241333E+03  0.25500000920E-02 0. -1.
        2   -1    0    0  501    0  0.00000000000E+00  0.00000000000E+00 -0.42897829984E+03  0.42897829985E+03  0.25500000920E-02 0.  1.
    10030    2    1    2    0    0  0.00000000000E+00  0.00000000000E+00 -0.57025886523E+02  0.80093071317E+03  0.79889802576E+03 0.  0.
        2    1    3    3  502    0 -0.13459208771E+03 -0.37460782441E+03 -0.61966418597E+02  0.40284722815E+03  0.25500000920E-02 0.  1.
       -2    1    3    3    0  502  0.13459208771E+03  0.37460782441E+03  0.49405320741E+01  0.39808348503E+03  0.25500000920E-02 0. -1.
</event>
<event>
 5   0  0.4086111E-04  0.7996183E+03  0.7818609E-02  0.9560570E-01
        1   -1    0    0  501    0  0.00000000000E+00  0.00000000000E+00  0.36079519210E+03  0.36079519213E+03  0.50400001928E-02 0. -1.
       -1   -1    0    0    0  501  0.00000000000E+00  0.00000000000E+00 -0.44304179417E+03  0.44304179420E+03  0.50400001928E-02 0.  1.
    10030    2    1    2    0    0  0.00000000000E+00  0.00000000000E+00 -0.82246602074E+02  0.80383698633E+03  0.79961828208E+03 0.  0.
        3    1    3    3  502    0  0.14201683471E+03 -0.29495088476E+03  0.18961441810E+03  0.37830998336E+03  0.10100000352E+00 0. -1.
       -3    1    3    3    0  502 -0.14201683471E+03  0.29495088476E+03 -0.27186102018E+03  0.42552700297E+03  0.10100000352E+00 0.  1.
</event>
<event>
 5   0  0.6801147E-04  0.7986873E+03  0.7818609E-02  0.9561919E-01
       -2   -1    0    0    0  501  0.00000000000E+00  0.00000000000E+00  0.19465393672E+03  0.19465393674E+03  0.25500000920E-02 0.  1.
        2   -1    0    0  501    0  0.00000000000E+00  0.00000000000E+00 -0.81927630775E+03  0.81927630775E+03  0.25500000920E-02 0. -1.
    10030    2    1    2    0    0  0.00000000000E+00  0.00000000000E+00 -0.62462237102E+03  0.10139302445E+04  0.79868731949E+03 0.  0.
        4    1    3    3  502    0  0.38863448308E+02  0.21365136354E+03 -0.73776558302E+03  0.76906237793E+03  0.12699999809E+01 0. -1.
       -4    1    3    3    0  502 -0.38863448308E+02 -0.21365136354E+03  0.11314321199E+03  0.24486786657E+03  0.12699999809E+01 0.  1.
</event>
<event>
 5   0  0.6593118E-04  0.7999074E+03  0.7818609E-02  0.9560151E-01
       -2   -1    0    0    0  501  0.00000000000E+00  0.00000000000E+00  0.24019988079E+03  0.24019988081E+03  0.25500000920E-02 0. -1.
        2   -1    0    0  501    0  0.00000000000E+00  0.00000000000E+00 -0.66595779113E+03  0.66595779114E+03  0.25500000920E-02 0.  1.
    10030    2    1    2    0    0  0.00000000000E+00  0.00000000000E+00 -0.42575791034E+03  0.90615767194E+03  0.79990744978E+03 0.  0.
        1    1    3    3  502    0 -0.32766201915E+03 -0.21458385286E+02  0.45793417873E+02  0.33154169909E+03  0.50400001928E-02 0. -1.
       -1    1    3    3    0  502  0.32766201915E+03  0.21458385286E+02 -0.47155132821E+03  0.57461597285E+03  0.50400001928E-02 0.  1.
</event>
<event>
 5   0  0.6593118E-04  0.8001561E+03  0.7818609E-02  0.9559791E-01
        2   -1    0    0  501    0  0.00000000000E+00  0.00000000000E+00  0.24808786668E+04  0.24808786668E+04  0.25500000920E-02 0. -1.
       -2   -1    0    0    0  501  0.00000000000E+00  0.00000000000E+00 -0.64518445143E+02  0.64518445193E+02  0.25500000920E-02 0.  1.
    10030    2    1    2    0    0  0.00000000000E+00  0.00000000000E+00  0.24163602216E+04  0.25453971120E+04  0.80015607036E+03 0.  0.
        1    1    3    3  502    0  0.14853793929E+03 -0.23631624198E+03  0.29639182919E+03  0.40713265905E+03  0.50400001928E-02 0.  1.
       -1    1    3    3    0  502 -0.14853793929E+03  0.23631624198E+03  0.21199683924E+04  0.21382644529E+04  0.50400001928E-02 0. -1.
</event>
<event>
 5   0  0.6970013E-04  0.8000740E+03  0.7818609E-02  0.9559910E-01
        2   -1    0    0  501    0  0.00000000000E+00  0.00000000000E+00  0.13373309558E+04  0.13373309558E+04  0.25500000920E-02 0. -1.
       -2   -1    0    0    0  501  0.00000000000E+00  0.00000000000E+00 -0.11966341581E+03  0.11966341584E+03  0.25500000920E-02 0.  1.
    10030    2    1    2    0    0  0.00000000000E+00  0.00000000000E+00  0.12176675400E+04  0.14569943716E+04  0.80007397224E+03 0.  0.
        3    1    3    3  502    0  0.39142558740E+03 -0.35297880504E+02  0.74474071616E+03  0.84207996968E+03  0.10100000352E+00 0.  1.
       -3    1    3    3    0  502 -0.39142558740E+03  0.35297880504E+02  0.47292682381E+03  0.61491440194E+03  0.10100000352E+00 0. -1.
</event>
<event>
 5   0  0.6672462E-04  0.8003399E+03  0.7818609E-02  0.9559525E-01
        2   -1    0    0  501    0  0.00000000000E+00  0.00000000000E+00  0.11815509109E+04  0.11815509109E+04  0.25500000920E-02 0. -1.
       -2   -1    0    0    0  501  0.00000000000E+00  0.00000000000E+00 -0.13553033822E+03  0.13553033824E+03  0.25500000920E-02 0.  1.
    10030    2    1    2    0    0  0.00000000000E+00  0.00000000000E+00  0.10460205727E+04  0.13170812492E+04  0.80033991428E+03 0.  0.
        5    1    3    3  502    0 -0.29456923568E+03  0.47593285701E+02  0.84272617232E+02  0.31009695172E+03  0.46999998093E+01 0.  1.
       -5    1    3    3    0  502  0.29456923568E+03 -0.47593285701E+02  0.96174795549E+03  0.10069842975E+04  0.46999998093E+01 0. -1.
</event>
<event>
 5   0  0.4086111E-04  0.8001766E+03  0.7818609E-02  0.9559761E-01
        1   -1    0    0  501    0  0.00000000000E+00  0.00000000000E+00  0.94882509495E+03  0.94882509496E+03  0.50400001928E-02 0. -1.
       -1   -1    0    0    0  501  0.00000000000E+00  0.00000000000E+00 -0.16870407348E+03  0.16870407356E+03  0.50400001928E-02 0.  1.
    10030    2    1    2    0    0  0.00000000000E+00  0.00000000000E+00  0.78012102147E+03  0.11175291685E+04  0.80017662698E+03 0.  0.
        3    1    3    3  502    0  0.18272160545E+03  0.27279653104E+03  0.70934706267E+03  0.78165107175E+03  0.10100000352E+00 0. -1.
       -3    1    3    3    0  502 -0.18272160545E+03 -0.27279653104E+03  0.70773958798E+02  0.33587809677E+03  0.10100000352E+00 0.  1.
</event>
<event>
 5   0  0.4169155E-04  0.8000951E+03  0.7818609E-02  0.9559879E-01
       -1   -1    0    0    0  501  0.00000000000E+00  0.00000000000E+00  0.41347201847E+03  0.41347201850E+03  0.50400001928E-02 0.  1.
        1   -1    0    0  501    0  0.00000000000E+00  0.00000000000E+00 -0.38705892287E+03  0.38705892291E+03  0.50400001928E-02 0. -1.
    10030    2    1    2    0    0  0.00000000000E+00  0.00000000000E+00  0.26413095593E+02  0.80053094141E+03  0.80009507968E+03 0.  0.
        4    1    3    3  502    0 -0.30647894355E+03  0.17447542400E+03 -0.17574919766E+03  0.39403097568E+03  0.12699999809E+01 0. -1.
       -4    1    3    3    0  502  0.30647894355E+03 -0.17447542400E+03  0.20216229325E+03  0.40649996572E+03  0.12699999809E+01 0.  1.
</event>
<event>
 5   0  0.6801147E-04  0.7996823E+03  0.7818609E-02  0.9560477E-01
        2   -1    0    0  501    0  0.00000000000E+00  0.00000000000E+00  0.29524901549E+03  0.29524901550E+03  0.25500000920E-02 0. -1.
       -2   -1    0    0    0  501  0.00000000000E+00  0.00000000000E+00 -0.54148511167E+03  0.54148511168E+03  0.25500000920E-02 0.  1.
    10030    2    1    2    0    0  0.00000000000E+00  0.00000000000E+00 -0.24623609618E+03  0.83673412718E+03  0.79968230225E+03 0.  0.
        4    1    3    3  502    0  0.74544226102E+02 -0.17489457777E+03  0.24492714333E+03  0.31005785495E+03  0.12699999809E+01 0. -1.
       -4    1    3    3    0  502 -0.74544226102E+02  0.17489457777E+03 -0.49116323951E+03  0.52667627223E+03  0.12699999809E+01 0.  1.
</event>
<event>
 5   0  0.4086111E-04  0.8003080E+03  0.7818609E-02  0.9559571E-01
        1   -1    0    0  501    0  0.00000000000E+00  0.00000000000E+00  0.44339099375E+03  0.44339099378E+03  0.50400001928E-02 0.  1.
       -1   -1    0    0    0  501  0.00000000000E+00  0.00000000000E+00 -0.36113324555E+03  0.36113324558E+03  0.50400001928E-02 0. -1.
    10030    2    1    2    0    0  0.00000000000E+00  0.00000000000E+00  0.82257748203E+02  0.80452423936E+03  0.80030801232E+03 0.  0.
        3    1    3    3  502    0 -0.32856511643E+03 -0.16297805843E+03  0.20199169547E+03  0.41870937237E+03  0.10100000352E+00 0.  1.
       -3    1    3    3    0  502  0.32856511643E+03  0.16297805843E+03 -0.11973394727E+03  0.38581486700E+03  0.10100000352E+00 0. -1.
</event>
<event>
 5   0  0.4104786E-04  0.7993036E+03  0.7818609E-02  0.9561026E-01
       -1   -1    0    0    0  501  0.00000000000E+00  0.00000000000E+00  0.28217406250E+03  0.28217406254E+03  0.50400001928E-02 0. -1.
        1   -1    0    0  501    0  0.00000000000E+00  0.00000000000E+00 -0.56603911548E+03  0.56603911550E+03  0.50400001928E-02 0.  1.
    10030    2    1    2    0    0  0.00000000000E+00  0.00000000000E+00 -0.28386505298E+03  0.84821317804E+03  0.79930358882E+03 0.  0.
        2    1    3    3  502    0  0.24069412593E+03  0.15953174969E+03 -0.43513137660E+03  0.52222921818E+03  0.25500000920E-02 0.  1.
       -2    1    3    3    0  502 -0.24069412593E+03 -0.15953174969E+03  0.15126632362E+03  0.32598395986E+03  0.25500000920E-02 0. -1.
</event>
<event>
 5   0  0.4086111E-04  0.7998418E+03  0.7818609E-02  0.9560246E-01
       -1   -1    0    0    0  501  0.00000000000E+00  0.00000000000E+00  0.18606081788E+03  0.18606081795E+03  0.50400001928E-02 0.  1.
        1   -1    0    0  501    0  0.00000000000E+00  0.00000000000E+00 -0.85959370858E+03  0.85959370860E+03  0.50400001928E-02 0. -1.
    10030    2    1    2    0    0  0.00000000000E+00  0.00000000000E+00 -0.67353289070E+03  0.10456545265E+04  0.79984175561E+03 0.  0.
        3    1    3    3  502    0 -0.91210863582E+02 -0.23951545252E+02 -0.84485020507E+03  0.85009703996E+03  0.10100000352E+00 0. -1.
       -3    1    3    3    0  502  0.91210863582E+02  0.23951545252E+02  0.17131731436E+03  0.19555748658E+03  0.10100000352E+00 0.  1.
</event>
<event>
 5   0  0.4087283E-04  0.8000469E+03  0.7818609E-02  0.9559949E-01
       -1   -1    0    0    0  501  0.00000000000E+00  0.00000000000E+00  0.34994843044E+03  0.34994843047E+03  0.50400001928E-02 0.  1.
        1   -1    0    0  501    0  0.00000000000E+00  0.00000000000E+00 -0.45726387792E+03  0.45726387795E+03  0.50400001928E-02 0. -1.
    10030    2    1    2    0    0  0.00000000000E+00  0.00000000000E+00 -0.10731544748E+03  0.80721230842E+03  0.80004693962E+03 0.  0.
        1    1    3    3  502    0 -0.34333643987E+02 -0.37835038689E+03  0.72727730190E+02  0.38680374498E+03  0.50400001928E-02 0.  1.
       -1    1    3    3    0  502  0.34333643987E+02  0.37835038689E+03 -0.18004317767E+03  0.42040856345E+03  0.50400001928E-02 0. -1.
</event>
<event>
 5   0  0.4392552E-04  0.8006517E+03  0.7818609E-02  0.9559074E-01
        1   -1    0    0  501    0  0.00000000000E+00  0.00000000000E+00  0.10152864466E+04  0.10152864466E+04  0.50400001928E-02 0.  1.
       -1   -1    0    0    0  501  0.00000000000E+00  0.00000000000E+00 -0.15784786580E+03  0.15784786588E+03  0.50400001928E-02 0. -1.
    10030    2    1    2    0    0  0.00000000000E+00  0.00000000000E+00  0.85743858084E+03  0.11731343125E+04  0.80065173160E+03 0.  0.
        5    1    3    3  502    0  0.14346728052E+03 -0.17507954321E+03  0.91247189823E+03  0.94013975668E+03  0.46999998093E+01 0.  1.
       -5    1    3    3    0  502 -0.14346728052E+03  0.17507954321E+03 -0.55033317393E+02  0.23299455584E+03  0.46999998093E+01 0. -1.
</event>
<event>
 5   0  0.2736375E-04  0.8000192E+03  0.7818609E-02  0.9559989E-01
       -4   -1    0    0    0  501  0.00000000000E+00  0.00000000000E+00  0.20273062550E+03  0.20273460340E+03  0.12699999809E+01 0. -1.
        4   -1    0    0  501    0  0.00000000000E+00  0.00000000000E+00 -0.78925021570E+03  0.78925123749E+03  0.12699999809E+01 0.  1.
    10030    2    1    2    0    0  0.00000000000E+00  0.00000000000E+00 -0.58651959020E+03  0.99198584089E+03  0.80001917404E+03 0.  0.
        5    1    3    3  502    0 -0.23448364105E+03  0.37262746956E+01 -0.69502952988E+03  0.73354250077E+03  0.46999998093E+01 0.  1.
       -5    1    3    3    0  502  0.23448364105E+03 -0.37262746956E+01  0.10850993967E+03  0.25844334012E+03  0.46999998093E+01 0. -1.
</event>
<event>
 5   0  0.2736375E-04  0.8010108E+03  0.7818609E-02  0.9558555E-01
        3   -1    0    0  501    0  0.00000000000E+00  0.00000000000E+00  0.29556268442E+03  0.29556270168E+03  0.10100000352E+00 0. -1.
       -3   -1    0    0    0  501  0.00000000000E+00  0.00000000000E+00 -0.54270916463E+03  0.54270917403E+03  0.10100000352E+00 0.  1.
    10030    2    1    2    0    0  0.00000000000E+00  0.00000000000E+00 -0.24714648021E+03  0.83827187571E+03  0.80101083321E+03 0.  0.
        2    1    3    3  502    0  0.11727931456E+03 -0.35455872165E+03  0.27858475181E+02  0.37448954507E+03  0.25500000920E-02 0. -1.
       -2    1    3    3    0  502 -0.11727931456E+03  0.35455872165E+03 -0.27500495539E+03  0.46378233064E+03  0.25500000920E-02 0.  1.
</event>
<event>
 5   0  0.2736375E-04  0.8009349E+03  0.7818609E-02  0.9558665E-01
       -4   -1    0    0    0  501  0.00000000000E+00  0.00000000000E+00  0.33756930439E+03  0.33757169337E+03  0.12699999809E+01 0. -1.
        4   -1    0    0  501    0  0.00000000000E+00  0.00000000000E+00 -0.47508024353E+03  0.47508194102E+03  0.12699999809E+01 0.  1.
    10030    2    1    2    0    0  0.00000000000E+00  0.00000000000E+00 -0.13751093913E+03  0.81265363440E+03  0.80093487321E+03 0.  0.
        4    1    3    3  502    0 -0.34038883506E+03 -0.20976365170E+03 -0.45904712982E+02  0.40246018957E+03  0.12699999809E+01 0.  1.
       -4    1    3    3    0  502  0.34038883506E+03  0.20976365170E+03 -0.91606226153E+02  0.41019344483E+03  0.12699999809E+01 0. -1.
</event>
<event>
 5   0  0.6672462E-04  0.8004298E+03  0.7818609E-02  0.9559395E-01
        2   -1    0    0  501    0  0.00000000000E+00  0.00000000000E+00  0.54767630751E+03  0.54767630752E+03  0.25500000920E-02 0.  1.
       -2   -1    0    0    0  501  0.00000000000E+00  0.00000000000E+00 -0.29245732301E+03  0.29245732302E+03  0.25500000920E-02 0. -1.
    10030    2    1    2    0    0  0.00000000000E+00  0.00000000000E+00  0.25521898451E+03  0.84013363053E+03  0.80042975151E+03 0.  0.
        5    1    3    3  502    0 -0.38089251773E+03  0.11294633427E+03  0.77120716568E+02  0.40472914327E+03  0.46999998093E+01 0. -1.
       -5    1    3    3    0  502  0.38089251773E+03 -0.11294633427E+03  0.17809826794E+03  0.43540448726E+03  0.46999998093E+01 0.  1.
</event>
<event>
 5   0  0.4087283E-04  0.8001495E+03  0.7818609E-02  0.9559801E-01
        1   -1    0    0  501    0  0.00000000000E+00  0.00000000000E+00  0.88390351473E+03  0.88390351475E+03  0.50400001928E-02 0. -1.
       -1   -1    0    0    0  501  0.00000000000E+00  0.00000000000E+00 -0.18108288747E+03  0.18108288754E+03  0.50400001928E-02 0.  1.
    10030    2    1    2    0    0  0.00000000000E+00  0.00000000000E+00  0.70282062726E+03  0.10649864023E+04  0.80014948789E+03 0.  0.
        1    1    3    3  502    0 -0.33732962080E+03  0.12539124906E+03  0.58403028252E+03  0.68600700386E+03  0.50400001928E-02 0.  1.
       -1    1    3    3    0  502  0.33732962080E+03 -0.12539124906E+03  0.11879034474E+03  0.37897939843E+03  0.50400001928E-02 0. -1.
</event>
<event>
 5   0  0.6672462E-04  0.8006879E+03  0.7818609E-02  0.9559022E-01
       -2   -1    0    0    0  501  0.00000000000E+00  0.00000000000E+00  0.51211572744E+03  0.51211572745E+03  0.25500000920E-02 0.  1.
        2   -1    0    0  501    0  0.00000000000E+00  0.00000000000E+00 -0.31296692585E+03  0.31296692586E+03  0.25500000920E-02 0. -1.
    10030    2    1    2    0    0  0.00000000000E+00  0.00000000000E+00  0.19914880159E+03  0.82508265330E+03  0.80068791649E+03 0.  0.
        5    1    3    3  502    0 -0.37301264484E+03  0.48278377836E+02 -0.41655859199E+02  0.37845281817E+03  0.46999998093E+01 0. -1.
       -5    1    3    3    0  502  0.37301264484E+03 -0.48278377836E+02  0.24080466079E+03  0.44662983514E+03  0.46999998093E+01 0.  1.
</event>
<event>
 5   0  0.4086111E-04  0.8005113E+03  0.7818609E-02  0.9559277E-01
       -1   -1    0    0    0  501  0.00000000000E+00  0.00000000000E+00  0.94213908187E+02  0.94213908321E+02  0.50400001928E-02 0.  1.
        1   -1    0    0  501    0  0.00000000000E+00  0.00000000000E+00 -0.17004347502E+04  0.17004347502E+04  0.50400001928E-02 0. -1.
    10030    2    1    2    0    0  0.00000000000E+00  0.00000000000E+00 -0.16062208420E+04  0.17946486585E+04  0.80051134547E+03 0.  0.
        3    1    3    3  502    0  0.95813198559E+02  0.37117782611E+03 -0.10611840201E+04  0.11283016806E+04  0.10100000352E+00 0.  1.
       -3    1    3    3    0  502 -0.95813198559E+02 -0.37117782611E+03 -0.54503682186E+03  0.66634697793E+03  0.10100000352E+00 0. -1.
</event>
<event>
 5   0  0.6801147E-04  0.7999802E+03  0.7818609E-02  0.9560046E-01
        2   -1    0    0  501    0  0.00000000000E+00  0.00000000000E+00  0.11880574165E+04  0.11880574165E+04  0.25500000920E-02 0. -1.
       -2   -1    0    0    0  501  0.00000000000E+00  0.00000000000E+00 -0.13466694401E+03  0.13466694403E+03  0.25500000920E-02 0.  1.
    10030    2    1    2    0    0  0.00000000000E+00  0.00000000000E+00  0.10533904725E+04  0.13227243605E+04  0.79998015375E+03 0.  0.
        4    1    3    3  502    0  0.38173402540E+02  0.39773588843E+03  0.49623396397E+03  0.63710344961E+03  0.12699999809E+01 0. -1.
       -4    1    3    3    0  502 -0.38173402540E+02 -0.39773588843E+03  0.55715650851E+03  0.68562091091E+03  0.12699999809E+01 0.  1.
</event>
<event>
 5   0  0.4169155E-04  0.7999094E+03  0.7818609E-02  0.9560148E-01
        1   -1    0    0  501    0  0.00000000000E+00  0.00000000000E+00  0.10928008006E+04  0.10928008006E+04  0.50400001928E-02 0. -1.
       -1   -1    0    0    0  501  0.00000000000E+00  0.00000000000E+00 -0.14637961793E+03  0.14637961802E+03  0.50400001928E-02 0.  1.
    10030    2    1    2    0    0  0.00000000000E+00  0.00000000000E+00  0.94642118267E+03  0.12391804186E+04  0.79990940419E+03 0.  0.
        4    1    3    3  502    0  0.12886003955E+03 -0.25382175067E+03  0.90844140248E+03  0.95199673610E+03  0.12699999809E+01 0. -1.
       -4    1    3    3    0  502 -0.12886003955E+03  0.25382175067E+03  0.37979780190E+02  0.28718368253E+03  0.12699999809E+01 0.  1.
</event>
<event>
 5   0  0.6801147E-04  0.8009030E+03  0.7818609E-02  0.9558711E-01
        2   -1    0    0  501    0  0.00000000000E+00  0.00000000000E+00  0.15258749089E+04  0.15258749089E+04  0.25500000920E-02 0.  1.
       -2   -1    0    0    0  501  0.00000000000E+00  0.00000000000E+00 -0.10509472377E+03  0.10509472380E+03  0.25500000920E-02 0. -1.
    10030    2    1    2    0    0  0.00000000000E+00  0.00000000000E+00  0.14207801851E+04  0.16309696327E+04  0.80090299557E+03 0.  0.
        4    1    3    3  502    0  0.44206050000E+02 -0.32825101301E+03  0.11687273954E+04  0.12147543950E+04  0.12699999809E+01 0.  1.
       -4    1    3    3    0  502 -0.44206050000E+02  0.32825101301E+03  0.25205278965E+03  0.41621523767E+03  0.12699999809E+01 0. -1.
</event>
<event>
 5   0  0.7133039E-04  0.8001960E+03  0.7818609E-02  0.9559733E-01
        2   -1    0    0  501    0  0.00000000000E+00  0.00000000000E+00  0.15703173964E+04  0.15703173964E+04  0.25500000920E-02 0. -1.
       -2   -1    0    0    0  501  0.00000000000E+00  0.00000000000E+00 -0.10194016773E+03  0.10194016776E+03  0.25500000920E-02 0.  1.
    10030    2    1    2    0    0  0.00000000000E+00  0.00000000000E+00  0.14683772287E+04  0.16722575641E+04  0.80019602299E+03 0.  0.
        2    1    3    3  502    0 -0.28019284963E+03 -0.22712250947E+03  0.37230889125E+03  0.51836915205E+03  0.25500000920E-02 0.  1.
       -2    1    3    3    0  502  0.28019284963E+03  0.22712250947E+03  0.10960683374E+04  0.11538884121E+04  0.25500000920E-02 0. -1.
</event>
<event>
 5   0  0.4087283E-04  0.8002314E+03  0.7818609E-02  0.9559682E-01
       -1   -1    0    0    0  501  0.00000000000E+00  0.00000000000E+00  0.18665196478E+03  0.18665196485E+03  0.50400001928E-02 0.  1.
        1   -1    0    0  501    0  0.00000000000E+00  0.00000000000E+00 -0.85770625114E+03  0.85770625115E+03  0.50400001928E-02 0. -1.
    10030    2    1    2    0    0  0.00000000000E+00  0.00000000000E+00 -0.67105428636E+03  0.10443582160E+04  0.80023135910E+03 0.  0.
        1    1    3    3  502    0  0.13368166109E+03  0.10265356223E+02 -0.82751684173E+03  0.83830799079E+03  0.50400001928E-02 0. -1.
       -1    1    3    3    0  502 -0.13368166109E+03 -0.10265356223E+02  0.15646255537E+03  0.20605022521E+03  0.50400001928E-02 0.  1.
</event>
<event>
 5   0  0.4392552E-04  0.8005282E+03  0.7818609E-02  0.9559253E-01
        1   -1    0    0  501    0  0.00000000000E+00  0.00000000000E+00  0.13215153675E+03  0.13215153685E+03  0.50400001928E-02 0.  1.
       -1   -1    0    0    0  501  0.00000000000E+00  0.00000000000E+00 -0.12123305390E+04  0.12123305390E+04  0.50400001928E-02 0. -1.
    10030    2    1    2    0    0  0.00000000000E+00  0.00000000000E+00 -0.10801790022E+04  0.13444820758E+04  0.80052818526E+03 0.  0.
        5    1    3    3  502    0  0.20826654546E+03  0.10277840017E+03 -0.10875398021E+04  0.11120716095E+04  0.46999998093E+01 0. -1.
       -5    1    3    3    0  502 -0.20826654546E+03 -0.10277840017E+03  0.73607998617E+01  0.23241046635E+03  0.46999998093E+01 0.  1.
</event>
<event>
 5   0  0.4087283E-04  0.7997052E+03  0.7818609E-02  0.9560444E-01
       -1   -1    0    0    0  501  0.00000000000E+00  0.00000000000E+00  0.15453790374E+03  0.15453790383E+03  0.50400001928E-02 0.  1.
        1   -1    0    0  501    0  0.00000000000E+00  0.00000000000E+00 -0.10345816789E+04  0.10345816789E+04  0.50400001928E-02 0. -1.
    10030    2    1    2    0    0  0.00000000000E+00  0.00000000000E+00 -0.88004377512E+03  0.11891195827E+04  0.79970515556E+03 0.  0.
        1    1    3    3  502    0 -0.21578683114E+03  0.54110059766E+02  0.54016791976E+02  0.22893158127E+03  0.50400001928E-02 0.  1.
       -1    1    3    3    0  502  0.21578683114E+03 -0.54110059766E+02 -0.93406056709E+03  0.96018800143E+03  0.50400001928E-02 0. -1.
</event>
<event>
 5   0  0.6672462E-04  0.8000384E+03  0.7818609E-02  0.9559962E-01
       -2   -1    0    0    0  501  0.00000000000E+00  0.00000000000E+00  0.80287807145E+02  0.80287807185E+02  0.25500000920E-02 0.  1.
        2   -1    0    0  501    0  0.00000000000E+00  0.00000000000E+00 -0.19930218521E+04  0.19930218522E+04  0.25500000920E-02 0. -1.
    10030    2    1    2    0    0  0.00000000000E+00  0.00000000000E+00 -0.19127340450E+04  0.20733096593E+04  0.80003838444E+03 0.  0.
        5    1    3    3  502    0  0.31905050689E+03  0.65642104167E+02 -0.15579729159E+04  0.15916669904E+04  0.46999998093E+01 0. -1.
       -5    1    3    3    0  502 -0.31905050689E+03 -0.65642104167E+02 -0.35476112913E+03  0.48164266892E+03  0.46999998093E+01 0.  1.
</event>
<event>
 5   0  0.6970013E-04  0.8003748E+03  0.7818609E-02  0.9559475E-01
       -2   -1    0    0    0  501  0.00000000000E+00  0.00000000000E+00  0.90729372245E+02  0.90729372281E+02  0.25500000920E-02 0. -1.
        2   -1    0    0  501    0  0.00000000000E+00  0.00000000000E+00 -0.17651389792E+04  0.17651389792E+04  0.25500000920E-02 0.  1.
    10030    2    1    2    0    0  0.00000000000E+00  0.00000000000E+00 -0.16744096070E+04  0.18558683515E+04  0.80037479108E+03 0.  0.
        3    1    3    3  502    0 -0.17867351899E+03  0.33737129502E+03 -0.11155157941E+04  0.11790331268E+04  0.10100000352E+00 0.  1.
       -3    1    3    3    0  502  0.17867351899E+03 -0.33737129502E+03 -0.55889381294E+03  0.67683522472E+03  0.10100000352E+00 0. -1.
</event>
<event>
 5   0  0.6970013E-04  0.8002927E+03  0.7818609E-02  0.9559594E-01
        2   -1    0    0  501    0  0.00000000000E+00  0.00000000000E+00  0.11222787271E+03  0.11222787274E+03  0.25500000920E-02 0. -1.
       -2   -1    0    0    0  501  0.00000000000E+00  0.00000000000E+00 -0.14267140982E+04  0.14267140982E+04  0.25500000920E-02 0.  1.
    10030    2    1    2    0    0  0.00000000000E+00  0.00000000000E+00 -0.13144862255E+04  0.15389419709E+04  0.80029266706E+03 0.  0.
        3    1    3    3  502    0  0.29707653602E+03 -0.19840474543E+03 -0.31058382680E+03  0.47337219493E+03  0.10100000352E+00 0. -1.
       -3    1    3    3    0  502 -0.29707653602E+03  0.19840474543E+03 -0.10039023987E+04  0.10655697760E+04  0.10100000352E+00 0.  1.
</event>
<event>
 5   0  0.4104786E-04  0.8000350E+03  0.7818609E-02  0.9559966E-01
        1   -1    0    0  501    0  0.00000000000E+00  0.00000000000E+00  0.38812628747E+03  0.38812628751E+03  0.50400001928E-02 0. -1.
       -1   -1    0    0    0  501  0.00000000000E+00  0.00000000000E+00 -0.41227306582E+03  0.41227306585E+03  0.50400001928E-02 0.  1.
    10030    2    1    2    0    0  0.00000000000E+00  0.00000000000E+00 -0.24146778348E+02  0.80039935336E+03  0.80003503545E+03 0.  0.
        2    1    3    3  502    0  0.12015409400E+03  0.79410340792E+02 -0.38543363958E+03  0.41146336295E+03  0.25500000920E-02 0.  1.
       -2    1    3    3    0  502 -0.12015409400E+03 -0.79410340792E+02  0.36128686123E+03  0.38893599040E+03  0.25500000920E-02 0. -1.
</event>
<event>
 5   0  0.6801147E-04  0.8003234E+03  0.7818609E-02  0.9559549E-01
        2   -1    0    0  501    0  0.00000000000E+00  0.00000000000E+00  0.12309180385E+04  0.12309180385E+04  0.25500000920E-02 0.  1.
       -2   -1    0    0    0  501  0.00000000000E+00  0.00000000000E+00 -0.13008938918E+03  0.13008938921E+03  0.25500000920E-02 0. -1.
    10030    2    1    2    0    0  0.00000000000E+00  0.00000000000E+00  0.11008286493E+04  0.13610074277E+04  0.80032337411E+03 0.  0.
        4    1    3    3  502    0  0.27085632653E+03 -0.13477100649E+03  0.10500280072E+03  0.32023987083E+03  0.12699999809E+01 0. -1.
       -4    1    3    3    0  502 -0.27085632653E+03  0.13477100649E+03  0.99582584863E+03  0.10407675569E+04  0.12699999809E+01 0.  1.
</event>
<event>
 5   0  0.4087283E-04  0.7999119E+03  0.7818609E-02  0.9560145E-01
       -1   -1    0    0    0  501  0.00000000000E+00  0.00000000000E+00  0.10594183876E+04  0.10594183877E+04  0.50400001928E-02 0. -1.
        1   -1    0    0  501    0  0.00000000000E+00  0.00000000000E+00 -0.15099298672E+03  0.15099298680E+03  0.50400001928E-02 0.  1.
    10030    2    1    2    0    0  0.00000000000E+00  0.00000000000E+00  0.90842540092E+03  0.12104113745E+04  0.79991186163E+03 0.  0.
        1    1    3    3  502    0  0.25396931465E+03 -0.30694899685E+03  0.40078547412E+03  0.56510803899E+03  0.50400001928E-02 0. -1.
       -1    1    3    3    0  502 -0.25396931465E+03  0.30694899685E+03  0.50763992681E+03  0.64530333546E+03  0.50400001928E-02 0.  1.
</event>
<event>
 5   0  0.6970013E-04  0.8001242E+03  0.7818609E-02  0.9559837E-01
        2   -1    0    0  501    0  0.00000000000E+00  0.00000000000E+00  0.61269249530E+03  0.61269249531E+03  0.25500000920E-02 0. -1.
       -2   -1    0    0    0  501  0.00000000000E+00  0.00000000000E+00 -0.26122348533E+03  0.26122348535E+03  0.25500000920E-02 0.  1.
    10030    2    1    2    0    0  0.00000000000E+00  0.00000000000E+00  0.35146900997E+03  0.87391598065E+03  0.80012416303E+03 0.  0.
        3    1    3    3  502    0 -0.27436668412E+03 -0.28126730957E+03  0.25791517776E+03  0.47000917641E+03  0.10100000352E+00 0.  1.
       -3    1    3    3    0  502  0.27436668412E+03  0.28126730957E+03  0.93553832203E+02  0.40390680424E+03  0.10100000352E+00 0. -1.
</event>
<event>
 5   0  0.4087283E-04  0.7993002E+03  0.7818609E-02  0.9561031E-01
        1   -1    0    0  501    0  0.00000000000E+00  0.00000000000E+00  0.80314115624E+03  0.80314115625E+03  0.50400001928E-02 0. -1.
       -1   -1    0    0    0  501  0.00000000000E+00  0.00000000000E+00 -0.19886938347E+03  0.19886938353E+03  0.50400001928E-02 0.  1.
    10030    2    1    2    0    0  0.00000000000E+00  0.00000000000E+00  0.60427177277E+03  0.10020105398E+04  0.79930016044E+03 0.  0.
        1    1    3    3  502    0 -0.70303569052E+02 -0.13618623939E+03 -0.16056486763E+03  0.22196927797E+03  0.50400001928E-02 0.  1.
       -1    1    3    3    0  502  0.70303569052E+02  0.13618623939E+03  0.76483664039E+03  0.78004126182E+03  0.50400001928E-02 0. -1.
</event>
<event>
 5   0  0.6672462E-04  0.7999333E+03  0.7818609E-02  0.9560114E-01
       -2   -1    0    0    0  501  0.00000000000E+00  0.00000000000E+00  0.77594851997E+02  0.77594852039E+02  0.25500000920E-02 0.  1.
        2   -1    0    0  501    0  0.00000000000E+00  0.00000000000E+00 -0.20616488100E+04  0.20616488100E+04  0.25500000920E-02 0. -1.
    10030    2    1    2    0    0  0.00000000000E+00  0.00000000000E+00 -0.19840539580E+04  0.21392436621E+04  0.79993333305E+03 0.  0.
        5    1    3    3  502    0  0.15991761317E+03  0.76468817971E+02 -0.19507847972E+04  0.19588273375E+04  0.46999998093E+01 0. -1.
       -5    1    3    3    0  502 -0.15991761317E+03 -0.76468817971E+02 -0.33269160865E+02  0.18041632461E+03  0.46999998093E+01 0.  1.
</event>
<event>
 5   0  0.4392552E-04  0.7995105E+03  0.7818609E-02  0.9560726E-01
       -1   -1    0    0    0  501  0.00000000000E+00  0.00000000000E+00  0.83198192137E+03  0.83198192138E+03  0.50400001928E-02 0. -1.
        1   -1    0    0  501    0  0.00000000000E+00  0.00000000000E+00 -0.19207662390E+03  0.19207662397E+03  0.50400001928E-02 0.  1.
    10030    2    1    2    0    0  0.00000000000E+00  0.00000000000E+00  0.63990529747E+03  0.10240585454E+04  0.79951054689E+03 0.  0.
        5    1    3    3  502    0  0.35053333782E+03 -0.34483518353E+02  0.77875944073E+02  0.36076236864E+03  0.46999998093E+01 0.  1.
       -5    1    3    3    0  502 -0.35053333782E+03  0.34483518353E+02  0.56202935340E+03  0.66329617671E+03  0.46999998093E+01 0. -1.
</event>
<event>
 5   0  0.4104786E-04  0.8001707E+03  0.7818609E-02  0.9559770E-01
        1   -1    0    0  501    0  0.00000000000E+00  0.00000000000E+00  0.30942726008E+03  0.30942726012E+03  0.50400001928E-02 0. -1.
       -1   -1    0    0    0  501  0.00000000000E+00  0.00000000000E+00 -0.51730510324E+03  0.51730510327E+03  0.50400001928E-02 0.  1.
    10030    2    1    2    0    0  0.00000000000E+00  0.00000000000E+00 -0.20787784316E+03  0.82673236339E+03  0.80017073365E+03 0.  0.
        2    1    3    3  502    0 -0.27895720203E+03 -0.28492619339E+03 -0.13770787554E+03  0.42185722139E+03  0.25500000920E-02 0. -1.
       -2    1    3    3    0  502  0.27895720203E+03  0.28492619339E+03 -0.70169967623E+02  0.40487514200E+03  0.25500000920E-02 0.  1.
</event>
<event>
 5   0  0.7133039E-04  0.8003871E+03  0.7818609E-02  0.9559457E-01
        2   -1    0    0  501    0  0.00000000000E+00  0.00000000000E+00  0.16034387435E+04  0.16034387435E+04  0.25500000920E-02 0. -1.
       -2   -1    0    0    0  501  0.00000000000E+00  0.00000000000E+00 -0.99882135875E+02  0.99882135908E+02  0.25500000920E-02 0.  1.
    10030    2    1    2    0    0  0.00000000000E+00  0.00000000000E+00  0.15035566076E+04  0.17033208794E+04  0.80038712252E+03 0.  0.
        2    1    3    3  502    0 -0.16181643243E+03  0.35353932469E+03  0.55010835644E+03  0.67364220157E+03  0.25500000920E-02 0.  1.
       -2    1    3    3    0  502  0.16181643243E+03 -0.35353932469E+03  0.95344825117E+03  0.10296786778E+04  0.25500000920E-02 0. -1.
</event>
<event>
 5   0  0.6970013E-04  0.8002504E+03  0.7818609E-02  0.9559655E-01
        2   -1    0    0  501    0  0.00000000000E+00  0.00000000000E+00  0.68298533224E+03  0.68298533224E+03  0.25500000920E-02 0. -1.
       -2   -1    0    0    0  501  0.00000000000E+00  0.00000000000E+00 -0.23441230530E+03  0.23441230531E+03  0.25500000920E-02 0.  1.
    10030    2    1    2    0    0  0.00000000000E+00  0.00000000000E+00  0.44857302694E+03  0.91739763756E+03  0.80025037638E+03 0.  0.
        3    1    3    3  502    0  0.22773039945E+03  0.26871830082E+03  0.44188748188E+03  0.56509752864E+03  0.10100000352E+00 0. -1.
       -3    1    3    3    0  502 -0.22773039945E+03 -0.26871830082E+03  0.66855450633E+01  0.35230010892E+03  0.10100000352E+00 0.  1.
</event>
<event>
 5   0  0.4086111E-04  0.8021279E+03  0.7818609E-02  0.9556942E-01
        1   -1    0    0  501    0  0.00000000000E+00  0.00000000000E+00  0.12762677579E+04  0.12762677579E+04  0.50400001928E-02 0.  1.
       -1   -1    0    0    0  501  0.00000000000E+00  0.00000000000E+00 -0.12603333951E+03  0.12603333961E+03  0.50400001928E-02 0. -1.
    10030    2    1    2    0    0  0.00000000000E+00  0.00000000000E+00  0.11502344184E+04  0.14023010975E+04  0.80212788932E+03 0.  0.
        3    1    3    3  502    0 -0.95719684882E+02  0.25301587306E+03  0.57473953681E+02  0.27655479682E+03  0.10100000352E+00 0. -1.
       -3    1    3    3    0  502  0.95719684882E+02 -0.25301587306E+03  0.10927604647E+04  0.11257463007E+04  0.10100000352E+00 0.  1.
</event>
<event>
 5   0  0.6672462E-04  0.8001628E+03  0.7818609E-02  0.9559781E-01
        2   -1    0    0  501    0  0.00000000000E+00  0.00000000000E+00  0.54588026739E+03  0.54588026740E+03  0.25500000920E-02 0. -1.
       -2   -1    0    0    0  501  0.00000000000E+00  0.00000000000E+00 -0.29322387136E+03  0.29322387137E+03  0.25500000920E-02 0.  1.
    10030    2    1    2    0    0  0.00000000000E+00  0.00000000000E+00  0.25265639604E+03  0.83910413877E+03  0.80016279671E+03 0.  0.
        5    1    3    3  502    0 -0.50381355878E+02  0.82371326868E+02 -0.28079190302E+03  0.29696716874E+03  0.46999998093E+01 0.  1.
       -5    1    3    3    0  502  0.50381355878E+02 -0.82371326868E+02  0.53344829905E+03  0.54213697003E+03  0.46999998093E+01 0. -1.
</event>
<event>
 5   0  0.6801147E-04  0.7999410E+03  0.7818609E-02  0.9560103E-01
        2   -1    0    0  501    0  0.00000000000E+00  0.00000000000E+00  0.11655068076E+04  0.11655068076E+04  0.25500000920E-02 0. -1.
       -2   -1    0    0    0  501  0.00000000000E+00  0.00000000000E+00 -0.13725907571E+03  0.13725907574E+03  0.25500000920E-02 0.  1.
    10030    2    1    2    0    0  0.00000000000E+00  0.00000000000E+00  0.10282477319E+04  0.13027658833E+04  0.79994096573E+03 0.  0.
        4    1    3    3  502    0  0.25132532287E+03  0.12772597392E+03  0.52065589279E+02  0.28668934548E+03  0.12699999809E+01 0.  1.
       -4    1    3    3    0  502 -0.25132532287E+03 -0.12772597392E+03  0.97618214261E+03  0.10160765379E+04  0.12699999809E+01 0. -1.
</event>
<event>
 5   0  0.7133039E-04  0.7991706E+03  0.7818609E-02  0.9561218E-01
       -2   -1    0    0    0  501  0.00000000000E+00  0.00000000000E+00  0.82231132020E+02  0.82231132060E+02  0.25500000920E-02 0.  1.
        2   -1    0    0  501    0  0.00000000000E+00  0.00000000000E+00 -0.19417027684E+04  0.19417027684E+04  0.25500000920E-02 0. -1.
    10030    2    1    2    0    0  0.00000000000E+00  0.00000000000E+00 -0.18594716363E+04  0.20239339004E+04  0.79917061190E+03 0.  0.
        2    1    3    3  502    0  0.27552686694E+02  0.21557951925E+03 -0.80541511164E+02  0.23177707974E+03  0.25500000920E-02 0.  1.
       -2    1    3    3    0  502 -0.27552686694E+02 -0.21557951925E+03 -0.17789301252E+04  0.17921568207E+04  0.25500000920E-02 0. -1.
</event>
<event>
 5   0  0.2736375E-04  0.8001960E+03  0.7818609E-02  0.9559733E-01
       -4   -1    0    0    0  501  0.00000000000E+00  0.00000000000E+00  0.44548985327E+03  0.44549166352E+03  0.12699999809E+01 0.  1.
        4   -1    0    0  501    0  0.00000000000E+00  0.00000000000E+00 -0.35932756049E+03  0.35932980481E+03  0.12699999809E+01 0. -1.
    10030    2    1    2    0    0  0.00000000000E+00  0.00000000000E+00  0.86162292782E+02  0.80482146834E+03  0.80019601049E+03 0.  0.
        1    1    3    3  502    0 -0.25364630426E+03  0.72029948388E+02  0.34574193355E+03  0.43481288593E+03  0.50400001928E-02 0.  1.
       -1    1    3    3    0  502  0.25364630426E+03 -0.72029948388E+02 -0.25957964077E+03  0.37000858241E+03  0.50400001928E-02 0. -1.
</event>
<event>
 5   0  0.6801147E-04  0.8003010E+03  0.7818609E-02  0.9559582E-01
       -2   -1    0    0    0  501  0.00000000000E+00  0.00000000000E+00  0.24467513960E+03  0.24467513962E+03  0.25500000920E-02 0. -1.
        2   -1    0    0  501    0  0.00000000000E+00  0.00000000000E+00 -0.65442048928E+03  0.65442048928E+03  0.25500000920E-02 0.  1.
    10030    2    1    2    0    0  0.00000000000E+00  0.00000000000E+00 -0.40974534967E+03  0.89909562890E+03  0.80030100483E+03 0.  0.
        4    1    3    3  502    0  0.24808958127E+03  0.29199861734E+03 -0.75275504078E+02  0.39048642393E+03  0.12699999809E+01 0. -1.
       -4    1    3    3    0  502 -0.24808958127E+03 -0.29199861734E+03 -0.33446984559E+03  0.50860920496E+03  0.12699999809E+01 0.  1.
</event>
<event>
 5   0  0.6672462E-04  0.7999708E+03  0.7818609E-02  0.9560059E-01
        2   -1    0    0  501    0  0.00000000000E+00  0.00000000000E+00  0.12317804408E+04  0.12317804408E+04  0.25500000920E-02 0. -1.
       -2   -1    0    0    0  501  0.00000000000E+00  0.00000000000E+00 -0.12988379982E+03  0.12988379985E+03  0.25500000920E-02 0.  1.
    10030    2    1    2    0    0  0.00000000000E+00  0.00000000000E+00  0.11018966410E+04  0.13616642407E+04  0.79997081002E+03 0.  0.
        5    1    3    3  502    0 -0.23834573635E+03  0.27456274945E+03  0.83461351038E+03  0.91038189521E+03  0.46999998093E+01 0. -1.
       -5    1    3    3    0  502  0.23834573635E+03 -0.27456274945E+03  0.26728313064E+03  0.45128234548E+03  0.46999998093E+01 0.  1.
</event>
<event>
 5   0  0.6801147E-04  0.8002715E+03  0.7818609E-02  0.9559624E-01
        2   -1    0    0  501    0  0.00000000000E+00  0.00000000000E+00  0.94811911904E+03  0.94811911904E+03  0.25500000920E-02 0.  1.
       -2   -1    0    0    0  501  0.00000000000E+00  0.00000000000E+00 -0.16886974965E+03  0.16886974967E+03  0.25500000920E-02 0. -1.
    10030    2    1    2    0    0  0.00000000000E+00  0.00000000000E+00  0.77924936939E+03  0.11169888687E+04  0.80027154961E+03 0.  0.
        4    1    3    3  502    0  0.20952209466E+03 -0.23607838293E+03  0.46384867289E+02  0.31903868080E+03  0.12699999809E+01 0. -1.
       -4    1    3    3    0  502 -0.20952209466E+03  0.23607838293E+03  0.73286450210E+03  0.79795018790E+03  0.12699999809E+01 0.  1.
</event>
<event>
 5   0  0.7133039E-04  0.7999793E+03  0.7818609E-02  0.9560047E-01
        2   -1    0    0  501    0  0.00000000000E+00  0.00000000000E+00  0.38583983353E+03  0.38583983354E+03  0.25500000920E-02 0. -1.
       -2   -1    0    0    0  501  0.00000000000E+00  0.00000000000E+00 -0.41465841030E+03  0.41465841031E+03  0.25500000920E-02 0.  1.
    10030    2    1    2    0    0  0.00000000000E+00  0.00000000000E+00 -0.28818576767E+02  0.80049824385E+03  0.79997932976E+03 0.  0.
        2    1    3    3  502    0 -0.86613650252E+01 -0.49536618486E+02 -0.41148255862E+03  0.41454407711E+03  0.25500000920E-02 0.  1.
       -2    1    3    3    0  502  0.86613650252E+01  0.49536618486E+02  0.38266398185E+03  0.38595416674E+03  0.25500000920E-02 0. -1.
</event>
<event>
 5   0  0.6672462E-04  0.7983121E+03  0.7818609E-02  0.9562464E-01
        2   -1    0    0  501    0  0.00000000000E+00  0.00000000000E+00  0.10166523816E+04  0.10166523816E+04  0.25500000920E-02 0.  1.
       -2   -1    0    0    0  501  0.00000000000E+00  0.00000000000E+00 -0.15671585085E+03  0.15671585087E+03  0.25500000920E-02 0. -1.
    10030    2    1    2    0    0  0.00000000000E+00  0.00000000000E+00  0.85993653075E+03  0.11733682325E+04  0.79831207685E+03 0.  0.
        5    1    3    3  502    0 -0.12768428946E+03  0.34194337132E+03  0.19262713694E+03  0.41274186951E+03  0.46999998093E+01 0. -1.
       -5    1    3    3    0  502  0.12768428946E+03 -0.34194337132E+03  0.66730939380E+03  0.76062636295E+03  0.46999998093E+01 0.  1.
</event>
<event>
 5   0  0.4087283E-04  0.7999846E+03  0.7818609E-02  0.9560039E-01
        1   -1    0    0  501    0  0.00000000000E+00  0.00000000000E+00  0.16818479641E+03  0.16818479648E+03  0.50400001928E-02 0.  1.
       -1   -1    0    0    0  501  0.00000000000E+00  0.00000000000E+00 -0.95129776301E+03  0.95129776303E+03  0.50400001928E-02 0. -1.
    10030    2    1    2    0    0  0.00000000000E+00  0.00000000000E+00 -0.78311296660E+03  0.11194825595E+04  0.79998455146E+03 0.  0.
        1    1    3    3  502    0  0.34940608632E+03 -0.14621159182E+03 -0.21163200243E+03  0.43387849361E+03  0.50400001928E-02 0.  1.
       -1    1    3    3    0  502 -0.34940608632E+03  0.14621159182E+03 -0.57148096417E+03  0.68560406590E+03  0.50400001928E-02 0. -1.
</event>
<event>
 5   0  0.6970013E-04  0.7999700E+03  0.7818609E-02  0.9560061E-01
        2   -1    0    0  501    0  0.00000000000E+00  0.00000000000E+00  0.19263094956E+04  0.19263094956E+04  0.25500000920E-02 0. -1.
       -2   -1    0    0    0  501  0.00000000000E+00  0.00000000000E+00 -0.83054150440E+02  0.83054150479E+02  0.25500000920E-02 0.  1.
    10030    2    1    2    0    0  0.00000000000E+00  0.00000000000E+00  0.18432553452E+04  0.20093636461E+04  0.79996999615E+03 0.  0.
        3    1    3    3  502    0  0.35060594833E+03 -0.93743711830E+02  0.49926011059E+03  0.61723016999E+03  0.10100000352E+00 0.  1.
       -3    1    3    3    0  502 -0.35060594833E+03  0.93743711830E+02  0.13439952346E+04  0.13921334761E+04  0.10100000352E+00 0. -1.
</event>
<event>
 5   0  0.4087283E-04  0.7999483E+03  0.7818609E-02  0.9560092E-01
       -1   -1    0    0    0  501  0.00000000000E+00  0.00000000000E+00  0.15819086825E+03  0.15819086833E+03  0.50400001928E-02 0.  1.
        1   -1    0    0  501    0  0.00000000000E+00  0.00000000000E+00 -0.10113056578E+04  0.10113056578E+04  0.50400001928E-02 0. -1.
    10030    2    1    2    0    0  0.00000000000E+00  0.00000000000E+00 -0.85311478959E+03  0.11694965262E+04  0.79994829866E+03 0.  0.
        1    1    3    3  502    0 -0.89835976863E+02 -0.24114546486E+03  0.21094521767E+02  0.25819879325E+03  0.50400001928E-02 0.  1.
       -1    1    3    3    0  502  0.89835976863E+02  0.24114546486E+03 -0.87420931135E+03  0.91129773293E+03  0.50400001928E-02 0. -1.
</event>
<event>
 5   0  0.7133039E-04  0.7999818E+03  0.7818609E-02  0.9560043E-01
        2   -1    0    0  501    0  0.00000000000E+00  0.00000000000E+00  0.38880226930E+03  0.38880226931E+03  0.25500000920E-02 0.  1.
       -2   -1    0    0    0  501  0.00000000000E+00  0.00000000000E+00 -0.41150154416E+03  0.41150154417E+03  0.25500000920E-02 0. -1.
    10030    2    1    2    0    0  0.00000000000E+00  0.00000000000E+00 -0.22699274863E+02  0.80030381348E+03  0.79998183529E+03 0.  0.
        2    1    3    3  502    0 -0.46282674272E+02 -0.58809660991E+02  0.38173607467E+03  0.38900269006E+03  0.25500000920E-02 0.  1.
       -2    1    3    3    0  502  0.46282674272E+02  0.58809660991E+02 -0.40443534954E+03  0.41130112342E+03  0.25500000920E-02 0. -1.
</event>
<event>
 5   0  0.6672462E-04  0.8010798E+03  0.7818609E-02  0.9558455E-01
       -2   -1    0    0    0  501  0.00000000000E+00  0.00000000000E+00  0.15001444660E+03  0.15001444662E+03  0.25500000920E-02 0.  1.
        2   -1    0    0  501    0  0.00000000000E+00  0.00000000000E+00 -0.10694450596E+04  0.10694450596E+04  0.25500000920E-02 0. -1.
    10030    2    1    2    0    0  0.00000000000E+00  0.00000000000E+00 -0.91943061303E+03  0.12194595063E+04  0.80107979329E+03 0.  0.
        5    1    3    3  502    0  0.16607243360E+03 -0.16002214863E+03  0.38750690485E+02  0.23390349990E+03  0.46999998093E+01 0.  1.
       -5    1    3    3    0  502 -0.16607243360E+03  0.16002214863E+03 -0.95818130351E+03  0.98555600635E+03  0.46999998093E+01 0. -1.
</event>
<event>
 5   0  0.4087283E-04  0.8007441E+03  0.7818609E-02  0.9558941E-01
       -1   -1    0    0    0  501  0.00000000000E+00  0.00000000000E+00  0.23368700627E+03  0.23368700632E+03  0.50400001928E-02 0. -1.
        1   -1    0    0  501    0  0.00000000000E+00  0.00000000000E+00 -0.68595078827E+03  0.68595078829E+03  0.50400001928E-02 0.  1.
    10030    2    1    2    0    0  0.00000000000E+00  0.00000000000E+00 -0.45226378200E+03  0.91963779461E+03  0.80074411941E+03 0.  0.
        1    1    3    3  502    0 -0.23570926747E+03  0.30887488978E+03 -0.33709677444E+03  0.51438972741E+03  0.50400001928E-02 0.  1.
       -1    1    3    3    0  502  0.23570926747E+03 -0.30887488978E+03 -0.11516700756E+03  0.40524806719E+03  0.50400001928E-02 0. -1.
</event>
<event>
 5   0  0.4169155E-04  0.7998867E+03  0.7818609E-02  0.9560181E-01
       -1   -1    0    0    0  501  0.00000000000E+00  0.00000000000E+00  0.31328775747E+03  0.31328775751E+03  0.50400001928E-02 0. -1.
        1   -1    0    0  501    0  0.00000000000E+00  0.00000000000E+00 -0.51056799489E+03  0.51056799492E+03  0.50400001928E-02 0.  1.
    10030    2    1    2    0    0  0.00000000000E+00  0.00000000000E+00 -0.19728023743E+03  0.82385575242E+03  0.79988674743E+03 0.  0.
        4    1    3    3  502    0  0.18401928284E+02 -0.14675426219E+03  0.28408270518E+03  0.32028119007E+03  0.12699999809E+01 0. -1.
       -4    1    3    3    0  502 -0.18401928284E+02  0.14675426219E+03 -0.48136294260E+03  0.50357456235E+03  0.12699999809E+01 0.  1.
</event>
<event>
 5   0  0.4086111E-04  0.7999607E+03  0.7818609E-02  0.9560074E-01
        1   -1    0    0  501    0  0.00000000000E+00  0.00000000000E+00  0.55640828022E+03  0.55640828024E+03  0.50400001928E-02 0.  1.
       -1   -1    0    0    0  501  0.00000000000E+00  0.00000000000E+00 -0.28753033961E+03  0.28753033966E+03  0.50400001928E-02 0. -1.
    10030    2    1    2    0    0  0.00000000000E+00  0.00000000000E+00  0.26887794061E+03  0.84393861990E+03  0.79996065354E+03 0.  0.
        3    1    3    3  502    0 -0.13085399264E+03  0.81964348706E+02 -0.25482160387E+03  0.29795130784E+03  0.10100000352E+00 0. -1.
       -3    1    3    3    0  502  0.13085399264E+03 -0.81964348706E+02  0.52369954447E+03  0.54598731206E+03  0.10100000352E+00 0.  1.
</event>
<event>
 5   0  0.4392552E-04  0.7999041E+03  0.7818609E-02  0.9560156E-01
       -1   -1    0    0    0  501  0.00000000000E+00  0.00000000000E+00  0.11812960231E+03  0.11812960242E+03  0.50400001928E-02 0. -1.
        1   -1    0    0  501    0  0.00000000000E+00  0.00000000000E+00 -0.13541200425E+04  0.13541200425E+04  0.50400001928E-02 0.  1.
    10030    2    1    2    0    0  0.00000000000E+00  0.00000000000E+00 -0.12359904402E+04  0.14722496449E+04  0.79990414973E+03 0.  0.
        5    1    3    3  502    0 -0.36776104514E+02  0.17049180784E+02 -0.13502783838E+04  0.13508948738E+04  0.46999998093E+01 0.  1.
       -5    1    3    3    0  502  0.36776104514E+02 -0.17049180784E+02  0.11428794357E+03  0.12135477112E+03  0.46999998093E+01 0. -1.
</event>
<event>
 5   0  0.4392552E-04  0.7998835E+03  0.7818609E-02  0.9560186E-01
        1   -1    0    0  501    0  0.00000000000E+00  0.00000000000E+00  0.28372052992E+03  0.28372052996E+03  0.50400001928E-02 0.  1.
       -1   -1    0    0    0  501  0.00000000000E+00  0.00000000000E+00 -0.56377105693E+03  0.56377105695E+03  0.50400001928E-02 0. -1.
    10030    2    1    2    0    0  0.00000000000E+00  0.00000000000E+00 -0.28005052702E+03  0.84749158692E+03  0.79988354916E+03 0.  0.
        5    1    3    3  502    0  0.35314777182E+03 -0.11240110820E+03 -0.29924937156E+03  0.47636082358E+03  0.46999998093E+01 0. -1.
       -5    1    3    3    0  502 -0.35314777182E+03  0.11240110820E+03  0.19198844548E+02  0.37113076333E+03  0.46999998093E+01 0.  1.
</event>
<event>
 5   0  0.4086111E-04  0.8000664E+03  0.7818609E-02  0.9559921E-01
       -1   -1    0    0    0  501  0.00000000000E+00  0.00000000000E+00  0.10837105407E+03  0.10837105419E+03  0.50400001928E-02 0.  1.
        1   -1    0    0  501    0  0.00000000000E+00  0.00000000000E+00 -0.14766539628E+04  0.14766539628E+04  0.50400001928E-02 0. -1.
    10030    2    1    2    0    0  0.00000000000E+00  0.00000000000E+00 -0.13682829087E+04  0.15850250170E+04  0.80006636361E+03 0.  0.
        3    1    3    3  502    0 -0.85400612098E+02  0.48999843953E+02 -0.14522741325E+04  0.14556079195E+04  0.10100000352E+00 0. -1.
       -3    1    3    3    0  502  0.85400612098E+02 -0.48999843953E+02  0.83991223751E+02  0.12941709749E+03  0.10100000352E+00 0.  1.
</event>
<event>
 5   0  0.6672462E-04  0.8010599E+03  0.7818609E-02  0.9558484E-01
       -2   -1    0    0    0  501  0.00000000000E+00  0.00000000000E+00  0.14748411116E+03  0.14748411118E+03  0.25500000920E-02 0.  1.
        2   -1    0    0  501    0  0.00000000000E+00  0.00000000000E+00 -0.10877392347E+04  0.10877392347E+04  0.25500000920E-02 0. -1.
    10030    2    1    2    0    0  0.00000000000E+00  0.00000000000E+00 -0.94025512351E+03  0.12352233458E+04  0.80105993336E+03 0.  0.
        5    1    3    3  502    0 -0.20746857315E+03  0.21434963760E+03 -0.58058800259E+02  0.30394389330E+03  0.46999998093E+01 0.  1.
       -5    1    3    3    0  502  0.20746857315E+03 -0.21434963760E+03 -0.88219632325E+03  0.93127945255E+03  0.46999998093E+01 0. -1.
</event>
<event>
 5   0  0.2736375E-04  0.8043962E+03  0.7818609E-02  0.9553676E-01
       -3   -1    0    0    0  501  0.00000000000E+00  0.00000000000E+00  0.51678743267E+03  0.51678744254E+03  0.10100000352E+00 0.  1.
        3   -1    0    0  501    0  0.00000000000E+00  0.00000000000E+00 -0.31301707780E+03  0.31301709410E+03  0.10100000352E+00 0. -1.
    10030    2    1    2    0    0  0.00000000000E+00  0.00000000000E+00  0.20377035487E+03  0.82980453664E+03  0.80439617820E+03 0.  0.
        3    1    3    3  502    0  0.10371097827E+03 -0.19086865735E+03  0.45106854309E+03  0.50064923063E+03  0.10100000352E+00 0.  1.
       -3    1    3    3    0  502 -0.10371097827E+03  0.19086865735E+03 -0.24729818822E+03  0.32915530600E+03  0.10100000352E+00 0. -1.
</event>
<event>
 5   0  0.4392552E-04  0.8000023E+03  0.7818609E-02  0.9560014E-01
       -1   -1    0    0    0  501  0.00000000000E+00  0.00000000000E+00  0.81454442491E+03  0.81454442493E+03  0.50400001928E-02 0.  1.
        1   -1    0    0  501    0  0.00000000000E+00  0.00000000000E+00 -0.19642995622E+03  0.19642995629E+03  0.50400001928E-02 0. -1.
    10030    2    1    2    0    0  0.00000000000E+00  0.00000000000E+00  0.61811446869E+03  0.10109743812E+04  0.80000231441E+03 0.  0.
        5    1    3    3  502    0  0.33755332164E+03  0.20978652181E+03  0.36594131115E+03  0.54026638142E+03  0.46999998093E+01 0.  1.
       -5    1    3    3    0  502 -0.33755332164E+03 -0.20978652181E+03  0.25217315754E+03  0.47070799979E+03  0.46999998093E+01 0. -1.
</event>
<event>
 5   0  0.6672462E-04  0.8000327E+03  0.7818609E-02  0.9559970E-01
        2   -1    0    0  501    0  0.00000000000E+00  0.00000000000E+00  0.29891622078E+03  0.29891622079E+03  0.25500000920E-02 0. -1.
       -2   -1    0    0    0  501  0.00000000000E+00  0.00000000000E+00 -0.53531082040E+03  0.53531082041E+03  0.25500000920E-02 0.  1.
    10030    2    1    2    0    0  0.00000000000E+00  0.00000000000E+00 -0.23639459962E+03  0.83422704120E+03  0.80003271779E+03 0.  0.
        5    1    3    3  502    0 -0.15290399656E+03 -0.16372959022E+03 -0.46372714777E+03  0.51502618230E+03  0.46999998093E+01 0.  1.
       -5    1    3    3    0  502  0.15290399656E+03  0.16372959022E+03  0.22733254815E+03  0.31920085890E+03  0.46999998093E+01 0. -1.
</event>
<event>
 5   0  0.4169155E-04  0.8003427E+03  0.7818609E-02  0.9559521E-01
       -1   -1    0    0    0  501  0.00000000000E+00  0.00000000000E+00  0.61389531640E+03  0.61389531642E+03  0.50400001928E-02 0. -1.
        1   -1    0    0  501    0  0.00000000000E+00  0.00000000000E+00 -0.26085406957E+03  0.26085406962E+03  0.50400001928E-02 0.  1.
    10030    2    1    2    0    0  0.00000000000E+00  0.00000000000E+00  0.35304124683E+03  0.87474938604E+03  0.80034265562E+03 0.  0.
        4    1    3    3  502    0 -0.16992790332E+03  0.28571885384E+03  0.41999694389E+03  0.53563961909E+03  0.12699999809E+01 0. -1.
       -4    1    3    3    0  502  0.16992790332E+03 -0.28571885384E+03 -0.66955697063E+02  0.33910976694E+03  0.12699999809E+01 0.  1.
</event>
<event>
 5   0  0.4392552E-04  0.8003058E+03  0.7818609E-02  0.9559575E-01
        1   -1    0    0  501    0  0.00000000000E+00  0.00000000000E+00  0.14913560392E+04  0.14913560392E+04  0.50400001928E-02 0. -1.
       -1   -1    0    0    0  501  0.00000000000E+00  0.00000000000E+00 -0.10736694163E+03  0.10736694175E+03  0.50400001928E-02 0.  1.
    10030    2    1    2    0    0  0.00000000000E+00  0.00000000000E+00  0.13839890975E+04  0.15987229809E+04  0.80030578382E+03 0.  0.
        5    1    3    3  502    0  0.29910041327E+03  0.35602841062E+02  0.12181428876E+04  0.12548397524E+04  0.46999998093E+01 0.  1.
       -5    1    3    3    0  502 -0.29910041327E+03 -0.35602841062E+02  0.16584620988E+03  0.34388322850E+03  0.46999998093E+01 0. -1.
</event>
<event>
 5   0  0.6970013E-04  0.8003352E+03  0.7818609E-02  0.9559532E-01
       -2   -1    0    0    0  501  0.00000000000E+00  0.00000000000E+00  0.16948096316E+03  0.16948096318E+03  0.25500000920E-02 0.  1.
        2   -1    0    0  501    0  0.00000000000E+00  0.00000000000E+00 -0.94485013019E+03  0.94485013019E+03  0.25500000920E-02 0. -1.
    10030    2    1    2    0    0  0.00000000000E+00  0.00000000000E+00 -0.77536916703E+03  0.11143310934E+04  0.80033520507E+03 0.  0.
        3    1    3    3  502    0 -0.39073895194E+03 -0.10545178231E+02 -0.26834983562E+03  0.47413054513E+03  0.10100000352E+00 0.  1.
       -3    1    3    3    0  502  0.39073895194E+03  0.10545178231E+02 -0.50701933141E+03  0.64020054824E+03  0.10100000352E+00 0. -1.
</event>
<event>
 5   0  0.6672462E-04  0.7996876E+03  0.7818609E-02  0.9560469E-01
       -2   -1    0    0    0  501  0.00000000000E+00  0.00000000000E+00  0.10050186627E+03  0.10050186630E+03  0.25500000920E-02 0. -1.
        2   -1    0    0  501    0  0.00000000000E+00  0.00000000000E+00 -0.15907671355E+04  0.15907671355E+04  0.25500000920E-02 0.  1.
    10030    2    1    2    0    0  0.00000000000E+00  0.00000000000E+00 -0.14902652692E+04  0.16912690018E+04  0.79968760387E+03 0.  0.
        5    1    3    3  502    0  0.39646718037E+03 -0.24859863924E+02 -0.64940539481E+03  0.76128424044E+03  0.46999998093E+01 0. -1.
       -5    1    3    3    0  502 -0.39646718037E+03  0.24859863924E+02 -0.84085987441E+03  0.92998476134E+03  0.46999998093E+01 0.  1.
</event>
<event>
 5   0  0.4392552E-04  0.8000592E+03  0.7818609E-02  0.9559931E-01
        1   -1    0    0  501    0  0.00000000000E+00  0.00000000000E+00  0.18990386941E+03  0.18990386948E+03  0.50400001928E-02 0. -1.
       -1   -1    0    0    0  501  0.00000000000E+00  0.00000000000E+00 -0.84265627171E+03  0.84265627172E+03  0.50400001928E-02 0.  1.
    10030    2    1    2    0    0  0.00000000000E+00  0.00000000000E+00 -0.65275240230E+03  0.10325601412E+04  0.80005921436E+03 0.  0.
        5    1    3    3  502    0 -0.13681974242E+03 -0.34807587736E+03 -0.50946537368E+03  0.63202335027E+03  0.46999998093E+01 0.  1.
       -5    1    3    3    0  502  0.13681974242E+03  0.34807587736E+03 -0.14328702862E+03  0.40053679093E+03  0.46999998093E+01 0. -1.
</event>
<event>
 5   0  0.6801147E-04  0.7990742E+03  0.7818609E-02  0.9561358E-01
        2   -1    0    0  501    0  0.00000000000E+00  0.00000000000E+00  0.10401526080E+04  0.10401526080E+04  0.25500000920E-02 0. -1.
       -2   -1    0    0    0  501  0.00000000000E+00  0.00000000000E+00 -0.15346774490E+03  0.15346774492E+03  0.25500000920E-02 0.  1.
    10030    2    1    2    0    0  0.00000000000E+00  0.00000000000E+00  0.88668486306E+03  0.11936203529E+04  0.79907415203E+03 0.  0.
        4    1    3    3  502    0 -0.34968299554E+02  0.68445267897E+02 -0.14231727525E+03  0.16175090852E+03  0.12699999809E+01 0.  1.
       -4    1    3    3    0  502  0.34968299554E+02 -0.68445267897E+02  0.10290021383E+04  0.10318694444E+04  0.12699999809E+01 0. -1.
</event>
<event>
 5   0  0.4087283E-04  0.8006500E+03  0.7818609E-02  0.9559077E-01
        1   -1    0    0  501    0  0.00000000000E+00  0.00000000000E+00  0.14674308275E+03  0.14674308283E+03  0.50400001928E-02 0.  1.
       -1   -1    0    0    0  501  0.00000000000E+00  0.00000000000E+00 -0.10921135600E+04  0.10921135600E+04  0.50400001928E-02 0. -1.
    10030    2    1    2    0    0  0.00000000000E+00  0.00000000000E+00 -0.94537047727E+03  0.12388566429E+04  0.80065001234E+03 0.  0.
        1    1    3    3  502    0 -0.72880029041E+02 -0.29592686164E+03 -0.87431939846E+03  0.92591501587E+03  0.50400001928E-02 0. -1.
       -1    1    3    3    0  502  0.72880029041E+02  0.29592686164E+03 -0.71051078812E+02  0.31294162699E+03  0.50400001928E-02 0.  1.
</event>
<event>
 5   0  0.4104786E-04  0.7989157E+03  0.7818609E-02  0.9561588E-01
       -1   -1    0    0    0  501  0.00000000000E+00  0.00000000000E+00  0.40444311327E+03  0.40444311330E+03  0.50400001928E-02 0. -1.
        1   -1    0    0  501    0  0.00000000000E+00  0.00000000000E+00 -0.39453406860E+03  0.39453406863E+03  0.50400001928E-02 0.  1.
    10030    2    1    2    0    0  0.00000000000E+00  0.00000000000E+00  0.99090446711E+01  0.79897718193E+03  0.79891573278E+03 0.  0.
        2    1    3    3  502    0 -0.63200731617E+02  0.39435418068E+03 -0.25981918521E+01  0.39939492098E+03  0.25500000920E-02 0. -1.
       -2    1    3    3    0  502  0.63200731617E+02 -0.39435418068E+03  0.12507236523E+02  0.39958226095E+03  0.25500000920E-02 0.  1.
</event>
<event>
 5   0  0.4169155E-04  0.7999266E+03  0.7818609E-02  0.9560123E-01
       -1   -1    0    0    0  501  0.00000000000E+00  0.00000000000E+00  0.17005842526E+03  0.17005842534E+03  0.50400001928E-02 0. -1.
        1   -1    0    0  501    0  0.00000000000E+00  0.00000000000E+00 -0.94068037602E+03  0.94068037603E+03  0.50400001928E-02 0.  1.
    10030    2    1    2    0    0  0.00000000000E+00  0.00000000000E+00 -0.77062195075E+03  0.11107388014E+04  0.79992655531E+03 0.  0.
        4    1    3    3  502    0 -0.62915041016E+02  0.90051168912E+01  0.16299898314E+03  0.17495621144E+03  0.12699999809E+01 0. -1.
       -4    1    3    3    0  502  0.62915041016E+02 -0.90051168912E+01 -0.93362093389E+03  0.93578258993E+03  0.12699999809E+01 0.  1.
</event>
<event>
 5   0  0.4169155E-04  0.7996924E+03  0.7818609E-02  0.9560462E-01
        1   -1    0    0  501    0  0.00000000000E+00  0.00000000000E+00  0.56157263066E+03  0.56157263068E+03  0.50400001928E-02 0.  1.
       -1   -1    0    0    0  501  0.00000000000E+00  0.00000000000E+00 -0.28469512481E+03  0.28469512486E+03  0.50400001928E-02 0. -1.
    10030    2    1    2    0    0  0.00000000000E+00  0.00000000000E+00  0.27687750585E+03  0.84626775554E+03  0.79969241639E+03 0.  0.
        4    1    3    3  502    0 -0.26378566335E+03 -0.18296786057E+03 -0.11380320414E+03  0.34060665931E+03  0.12699999809E+01 0. -1.
       -4    1    3    3    0  502  0.26378566335E+03  0.18296786057E+03  0.39068070998E+03  0.50566109624E+03  0.12699999809E+01 0.  1.
</event>
<event>
 5   0  0.4087283E-04  0.8000223E+03  0.7818609E-02  0.9559985E-01
       -1   -1    0    0    0  501  0.00000000000E+00  0.00000000000E+00  0.38285365314E+03  0.38285365317E+03  0.50400001928E-02 0.  1.
        1   -1    0    0  501    0  0.00000000000E+00  0.00000000000E+00 -0.41793757402E+03  0.41793757405E+03  0.50400001928E-02 0. -1.
    10030    2    1    2    0    0  0.00000000000E+00  0.00000000000E+00 -0.35083920882E+02  0.80079122723E+03  0.80002231725E+03 0.  0.
        1    1    3    3  502    0  0.35092788223E+03  0.16379604937E+03 -0.11778511820E+03  0.40478742373E+03  0.50400001928E-02 0.  1.
       -1    1    3    3    0  502 -0.35092788223E+03 -0.16379604937E+03  0.82701197317E+02  0.39600380349E+03  0.50400001928E-02 0. -1.
</event>
<event>
 5   0  0.4392552E-04  0.7995637E+03  0.7818609E-02  0.9560649E-01
       -1   -1    0    0    0  501  0.00000000000E+00  0.00000000000E+00  0.20404896727E+03  0.20404896733E+03  0.50400001928E-02 0. -1.
        1   -1    0    0  501    0  0.00000000000E+00  0.00000000000E+00 -0.78327045808E+03  0.78327045810E+03  0.50400001928E-02 0.  1.
    10030    2    1    2    0    0  0.00000000000E+00  0.00000000000E+00 -0.57922149081E+03  0.98731942543E+03  0.79956370129E+03 0.  0.
        5    1    3    3  502    0 -0.33560978983E+03  0.21062357777E+03 -0.35503555891E+03  0.53204187865E+03  0.46999998093E+01 0.  1.
       -5    1    3    3    0  502  0.33560978983E+03 -0.21062357777E+03 -0.22418593190E+03  0.45527754678E+03  0.46999998093E+01 0. -1.
</event>
<event>
 5   0  0.6801147E-04  0.8001876E+03  0.7818609E-02  0.9559746E-01
        2   -1    0    0  501    0  0.00000000000E+00  0.00000000000E+00  0.48219453690E+03  0.48219453691E+03  0.25500000920E-02 0.  1.
       -2   -1    0    0    0  501  0.00000000000E+00  0.00000000000E+00 -0.33197193836E+03  0.33197193837E+03  0.25500000920E-02 0. -1.
    10030    2    1    2    0    0  0.00000000000E+00  0.00000000000E+00  0.15022259854E+03  0.81416647527E+03  0.80018761572E+03 0.  0.
        4    1    3    3  502    0  0.22065018405E+03 -0.82907923571E+02 -0.25382135767E+03  0.34639157325E+03  0.12699999809E+01 0. -1.
       -4    1    3    3    0  502 -0.22065018405E+03  0.82907923571E+02  0.40404395621E+03  0.46777490202E+03  0.12699999809E+01 0.  1.
</event>
<event>
 5   0  0.4392552E-04  0.7993384E+03  0.7818609E-02  0.9560975E-01
       -1   -1    0    0    0  501  0.00000000000E+00  0.00000000000E+00  0.26972173576E+03  0.26972173581E+03  0.50400001928E-02 0. -1.
        1   -1    0    0  501    0  0.00000000000E+00  0.00000000000E+00 -0.59222313736E+03  0.59222313738E+03  0.50400001928E-02 0.  1.
    10030    2    1    2    0    0  0.00000000000E+00  0.00000000000E+00 -0.32250140160E+03  0.86194487319E+03  0.79933835788E+03 0.  0.
        5    1    3    3  502    0  0.11634037989E+03 -0.16404244425E+03 -0.53365222659E+03  0.57030850988E+03  0.46999998093E+01 0.  1.
       -5    1    3    3    0  502 -0.11634037989E+03  0.16404244425E+03  0.21115082499E+03  0.29163636330E+03  0.46999998093E+01 0. -1.
</event>
<event>
 5   0  0.6801147E-04  0.8000900E+03  0.7818609E-02  0.9559887E-01
       -2   -1    0    0    0  501  0.00000000000E+00  0.00000000000E+00  0.99741703903E+02  0.99741703935E+02  0.25500000920E-02 0.  1.
        2   -1    0    0  501    0  0.00000000000E+00  0.00000000000E+00 -0.16045042686E+04  0.16045042686E+04  0.25500000920E-02 0. -1.
    10030    2    1    2    0    0  0.00000000000E+00  0.00000000000E+00 -0.15047625647E+04  0.17042459725E+04  0.80008996918E+03 0.  0.
        4    1    3    3  502    0 -0.17758469871E+03 -0.18858872883E+03 -0.10303419940E+03  0.27878251919E+03  0.12699999809E+01 0.  1.
       -4    1    3    3    0  502  0.17758469871E+03  0.18858872883E+03 -0.14017283653E+04  0.14254634533E+04  0.12699999809E+01 0. -1.
</event>
<event>
 5   0  0.4087283E-04  0.7998470E+03  0.7818609E-02  0.9560239E-01
        1   -1    0    0  501    0  0.00000000000E+00  0.00000000000E+00  0.92143468579E+03  0.92143468580E+03  0.50400001928E-02 0. -1.
       -1   -1    0    0    0  501  0.00000000000E+00  0.00000000000E+00 -0.17357585662E+03  0.17357585669E+03  0.50400001928E-02 0.  1.
    10030    2    1    2    0    0  0.00000000000E+00  0.00000000000E+00  0.74785882917E+03  0.10950105425E+04  0.79984702276E+03 0.  0.
        1    1    3    3  502    0 -0.35311297226E+03  0.10295870841E+02  0.63057701183E+03  0.72278775862E+03  0.50400001928E-02 0. -1.
       -1    1    3    3    0  502  0.35311297226E+03 -0.10295870841E+02  0.11728181734E+03  0.37222278388E+03  0.50400001928E-02 0.  1.
</event>
<event>
 5   0  0.2736375E-04  0.7996715E+03  0.7818609E-02  0.9560493E-01
        3   -1    0    0  501    0  0.00000000000E+00  0.00000000000E+00  0.36659880457E+03  0.36659881848E+03  0.10100000352E+00 0. -1.
       -3   -1    0    0    0  501  0.00000000000E+00  0.00000000000E+00 -0.43608600940E+03  0.43608602110E+03  0.10100000352E+00 0.  1.
    10030    2    1    2    0    0  0.00000000000E+00  0.00000000000E+00 -0.69487204835E+02  0.80268483958E+03  0.79967148258E+03 0.  0.
        1    1    3    3  502    0  0.31460565502E+03 -0.10919792268E+03  0.18737675999E+03  0.38211379810E+03  0.50400001928E-02 0. -1.
       -1    1    3    3    0  502 -0.31460565502E+03  0.10919792268E+03 -0.25686396482E+03  0.42057104149E+03  0.50400001928E-02 0.  1.
</event>
<event>
 5   0  0.6593118E-04  0.7997856E+03  0.7818609E-02  0.9560328E-01
       -2   -1    0    0    0  501  0.00000000000E+00  0.00000000000E+00  0.70284126511E+03  0.70284126511E+03  0.25500000920E-02 0. -1.
        2   -1    0    0  501    0  0.00000000000E+00  0.00000000000E+00 -0.22752541168E+03  0.22752541169E+03  0.25500000920E-02 0.  1.
    10030    2    1    2    0    0  0.00000000000E+00  0.00000000000E+00  0.47531585343E+03  0.93036667681E+03  0.79978559176E+03 0.  0.
        1    1    3    3  502    0  0.26861226115E+03 -0.28420655599E+03  0.14041289453E+03  0.41550173800E+03  0.50400001928E-02 0.  1.
       -1    1    3    3    0  502 -0.26861226115E+03  0.28420655599E+03  0.33490295890E+03  0.51486493881E+03  0.50400001928E-02 0. -1.
</event>
<event>
 5   0  0.4087283E-04  0.8001298E+03  0.7818609E-02  0.9559829E-01
        1   -1    0    0  501    0  0.00000000000E+00  0.00000000000E+00  0.34732041229E+03  0.34732041233E+03  0.50400001928E-02 0.  1.
       -1   -1    0    0    0  501  0.00000000000E+00  0.00000000000E+00 -0.46081918624E+03  0.46081918627E+03  0.50400001928E-02 0. -1.
    10030    2    1    2    0    0  0.00000000000E+00  0.00000000000E+00 -0.11349877395E+03  0.80813959860E+03  0.80012976393E+03 0.  0.
        1    1    3    3  502    0 -0.35703993839E+03 -0.11453879148E+03 -0.19762780045E+03  0.42385539975E+03  0.50400001928E-02 0. -1.
       -1    1    3    3    0  502  0.35703993839E+03  0.11453879148E+03  0.84129026495E+02  0.38428419885E+03  0.50400001928E-02 0.  1.
</event>
<event>
 5   0  0.7133039E-04  0.7997292E+03  0.7818609E-02  0.9560409E-01
        2   -1    0    0  501    0  0.00000000000E+00  0.00000000000E+00  0.43428274911E+03  0.43428274911E+03  0.25500000920E-02 0.  1.
       -2   -1    0    0    0  501  0.00000000000E+00  0.00000000000E+00 -0.36817417834E+03  0.36817417835E+03  0.25500000920E-02 0. -1.
    10030    2    1    2    0    0  0.00000000000E+00  0.00000000000E+00  0.66108570763E+02  0.80245692746E+03  0.79972918998E+03 0.  0.
        2    1    3    3  502    0  0.22515108341E+03 -0.26667359969E+03  0.22887081488E+03  0.41736035873E+03  0.25500000920E-02 0.  1.
       -2    1    3    3    0  502 -0.22515108341E+03  0.26667359969E+03 -0.16276224411E+03  0.38509656873E+03  0.25500000920E-02 0. -1.
</event>
<event>
 5   0  0.4087283E-04  0.8006873E+03  0.7818609E-02  0.9559023E-01
        1   -1    0    0  501    0  0.00000000000E+00  0.00000000000E+00  0.69859062184E+03  0.69859062185E+03  0.50400001928E-02 0. -1.
       -1   -1    0    0    0  501  0.00000000000E+00  0.00000000000E+00 -0.22942624256E+03  0.22942624261E+03  0.50400001928E-02 0.  1.
    10030    2    1    2    0    0  0.00000000000E+00  0.00000000000E+00  0.46916437928E+03  0.92801686446E+03  0.80068725851E+03 0.  0.
        1    1    3    3  502    0  0.14720927162E+03  0.14453411355E+02 -0.19659325022E+03  0.24602515483E+03  0.50400001928E-02 0.  1.
       -1    1    3    3    0  502 -0.14720927162E+03 -0.14453411355E+02  0.66575762950E+03  0.68199170964E+03  0.50400001928E-02 0. -1.
</event>
<event>
 5   0  0.4086111E-04  0.8004230E+03  0.7818609E-02  0.9559405E-01
        1   -1    0    0  501    0  0.00000000000E+00  0.00000000000E+00  0.39261603075E+03  0.39261603078E+03  0.50400001928E-02 0. -1.
       -1   -1    0    0    0  501  0.00000000000E+00  0.00000000000E+00 -0.40795394849E+03  0.40795394852E+03  0.50400001928E-02 0.  1.
    10030    2    1    2    0    0  0.00000000000E+00  0.00000000000E+00 -0.15337917742E+02  0.80056997931E+03  0.80042303818E+03 0.  0.
        3    1    3    3  502    0  0.40501883412E+02  0.39221574200E+03 -0.76206417161E+02  0.40159808148E+03  0.10100000352E+00 0. -1.
       -3    1    3    3    0  502 -0.40501883412E+02 -0.39221574200E+03  0.60868499418E+02  0.39897189783E+03  0.10100000352E+00 0.  1.
</event>
<event>
 5   0  0.4087283E-04  0.8000326E+03  0.7818609E-02  0.9559970E-01
       -1   -1    0    0    0  501  0.00000000000E+00  0.00000000000E+00  0.12819404610E+03  0.12819404620E+03  0.50400001928E-02 0.  1.
        1   -1    0    0  501    0  0.00000000000E+00  0.00000000000E+00 -0.12482096086E+04  0.12482096087E+04  0.50400001928E-02 0. -1.
    10030    2    1    2    0    0  0.00000000000E+00  0.00000000000E+00 -0.11200155625E+04  0.13764036549E+04  0.80003259981E+03 0.  0.
        1    1    3    3  502    0  0.12576861303E+03 -0.36167790666E+03 -0.36096914304E+03  0.52623889484E+03  0.50400001928E-02 0.  1.
       -1    1    3    3    0  502 -0.12576861303E+03  0.36167790666E+03 -0.75904641951E+03  0.85016476002E+03  0.50400001928E-02 0. -1.
</event>
<event>
 5   0  0.6672462E-04  0.7998206E+03  0.7818609E-02  0.9560277E-01
       -2   -1    0    0    0  501  0.00000000000E+00  0.00000000000E+00  0.27378998862E+03  0.27378998864E+03  0.25500000920E-02 0. -1.
        2   -1    0    0  501    0  0.00000000000E+00  0.00000000000E+00 -0.58412743900E+03  0.58412743901E+03  0.25500000920E-02 0.  1.
    10030    2    1    2    0    0  0.00000000000E+00  0.00000000000E+00 -0.31033745037E+03  0.85791742764E+03  0.79982059210E+03 0.  0.
        5    1    3    3  502    0  0.62291446889E+02 -0.20733144868E+03  0.20546656007E+03  0.29850485971E+03  0.46999998093E+01 0. -1.
       -5    1    3    3    0  502 -0.62291446889E+02  0.20733144868E+03 -0.51580401044E+03  0.55941256793E+03  0.46999998093E+01 0.  1.
</event>
<event>
 5   0  0.6970013E-04  0.8000443E+03  0.7818609E-02  0.9559953E-01
       -2   -1    0    0    0  501  0.00000000000E+00  0.00000000000E+00  0.42407215920E+03  0.42407215920E+03  0.25500000920E-02 0. -1.
        2   -1    0    0  501    0  0.00000000000E+00  0.00000000000E+00 -0.37733611034E+03  0.37733611034E+03  0.25500000920E-02 0.  1.
    10030    2    1    2    0    0  0.00000000000E+00  0.00000000000E+00  0.46736048862E+02  0.80140826955E+03  0.80004434642E+03 0.  0.
        3    1    3    3  502    0  0.46174007048E+02  0.27491556342E+03  0.31074930088E+03  0.41746346443E+03  0.10100000352E+00 0. -1.
       -3    1    3    3    0  502 -0.46174007048E+02 -0.27491556342E+03 -0.26401325201E+03  0.38394480512E+03  0.10100000352E+00 0.  1.
</event>
<event>
 5   0  0.6593118E-04  0.7990566E+03  0.7818609E-02  0.9561384E-01
       -2   -1    0    0    0  501  0.00000000000E+00  0.00000000000E+00  0.15319221019E+03  0.15319221021E+03  0.25500000920E-02 0.  1.
        2   -1    0    0  501    0  0.00000000000E+00  0.00000000000E+00 -0.10419776504E+04  0.10419776504E+04  0.25500000920E-02 0. -1.
    10030    2    1    2    0    0  0.00000000000E+00  0.00000000000E+00 -0.88878544022E+03  0.11951698606E+04  0.79905659187E+03 0.  0.
        1    1    3    3  502    0  0.38875812384E+02  0.31100467499E+03 -0.81498170052E+03  0.87317261115E+03  0.50400001928E-02 0. -1.
       -1    1    3    3    0  502 -0.38875812384E+02 -0.31100467499E+03 -0.73803739702E+02  0.32199724948E+03  0.50400001928E-02 0.  1.
</event>
<event>
 5   0  0.4104786E-04  0.7999977E+03  0.7818609E-02  0.9560020E-01
        1   -1    0    0  501    0  0.00000000000E+00  0.00000000000E+00  0.75035168522E+03  0.75035168524E+03  0.50400001928E-02 0. -1.
       -1   -1    0    0    0  501  0.00000000000E+00  0.00000000000E+00 -0.21323213071E+03  0.21323213076E+03  0.50400001928E-02 0.  1.
    10030    2    1    2    0    0  0.00000000000E+00  0.00000000000E+00  0.53711955451E+03  0.96358381600E+03  0.79999772163E+03 0.  0.
        2    1    3    3  502    0 -0.10691300344E+01 -0.27627193317E+02 -0.21207985855E+03  0.21387442871E+03  0.25500000920E-02 0.  1.
       -2    1    3    3    0  502  0.10691300344E+01  0.27627193317E+02  0.74919941306E+03  0.74970938729E+03  0.25500000920E-02 0. -1.
</event>
<event>
 5   0  0.4087283E-04  0.8001614E+03  0.7818609E-02  0.9559784E-01
        1   -1    0    0  501    0  0.00000000000E+00  0.00000000000E+00  0.33865708873E+03  0.33865708876E+03  0.50400001928E-02 0.  1.
       -1   -1    0    0    0  501  0.00000000000E+00  0.00000000000E+00 -0.47264493363E+03  0.47264493366E+03  0.50400001928E-02 0. -1.
    10030    2    1    2    0    0  0.00000000000E+00  0.00000000000E+00 -0.13398784491E+03  0.81130202242E+03  0.80016137685E+03 0.  0.
        1    1    3    3  502    0 -0.33660650567E+02 -0.38103453743E+03 -0.18586185064E+03  0.42528224235E+03  0.50400001928E-02 0. -1.
       -1    1    3    3    0  502  0.33660650567E+02  0.38103453743E+03  0.51874005737E+02  0.38601978007E+03  0.50400001928E-02 0.  1.
</event>
<event>
 5   0  0.6672462E-04  0.8003260E+03  0.7818609E-02  0.9559545E-01
        2   -1    0    0  501    0  0.00000000000E+00  0.00000000000E+00  0.53468770763E+03  0.53468770764E+03  0.25500000920E-02 0.  1.
       -2   -1    0    0    0  501  0.00000000000E+00  0.00000000000E+00 -0.29948402699E+03  0.29948402700E+03  0.25500000920E-02 0. -1.
    10030    2    1    2    0    0  0.00000000000E+00  0.00000000000E+00  0.23520368065E+03  0.83417173464E+03  0.80032600325E+03 0.  0.
        5    1    3    3  502    0  0.53639541781E+02  0.32515942788E+02  0.52950270329E+03  0.53322573997E+03  0.46999998093E+01 0.  1.
       -5    1    3    3    0  502 -0.53639541781E+02 -0.32515942788E+02 -0.29429902264E+03  0.30094599467E+03  0.46999998093E+01 0. -1.
</event>
<event>
 5   0  0.4086111E-04  0.7997103E+03  0.7818609E-02  0.9560437E-01
        1   -1    0    0  501    0  0.00000000000E+00  0.00000000000E+00  0.38434689228E+03  0.38434689231E+03  0.50400001928E-02 0.  1.
       -1   -1    0    0    0  501  0.00000000000E+00  0.00000000000E+00 -0.41598917095E+03  0.41598917098E+03  0.50400001928E-02 0. -1.
    10030    2    1    2    0    0  0.00000000000E+00  0.00000000000E+00 -0.31642278671E+02  0.80033606330E+03  0.79971031031E+03 0.  0.
        3    1    3    3  502    0  0.23616022018E+03  0.30544413736E+03 -0.11990426930E+03  0.40428308725E+03  0.10100000352E+00 0.  1.
       -3    1    3    3    0  502 -0.23616022018E+03 -0.30544413736E+03  0.88261990631E+02  0.39605297604E+03  0.10100000352E+00 0. -1.
</event>
<event>
 5   0  0.4169155E-04  0.7997367E+03  0.7818609E-02  0.9560398E-01
        1   -1    0    0  501    0  0.00000000000E+00  0.00000000000E+00  0.22268675067E+03  0.22268675073E+03  0.50400001928E-02 0. -1.
       -1   -1    0    0    0  501  0.00000000000E+00  0.00000000000E+00 -0.71802517350E+03  0.71802517351E+03  0.50400001928E-02 0.  1.
    10030    2    1    2    0    0  0.00000000000E+00  0.00000000000E+00 -0.49533842282E+03  0.94071192425E+03  0.79973668872E+03 0.  0.
        4    1    3    3  502    0 -0.28286442801E+03 -0.28262544264E+03 -0.24542056520E+03  0.46917192178E+03  0.12699999809E+01 0. -1.
       -4    1    3    3    0  502  0.28286442801E+03  0.28262544264E+03 -0.24991785762E+03  0.47154000246E+03  0.12699999809E+01 0.  1.
</event>
<event>
 5   0  0.6970013E-04  0.7992714E+03  0.7818609E-02  0.9561072E-01
        2   -1    0    0  501    0  0.00000000000E+00  0.00000000000E+00  0.73943647618E+03  0.73943647618E+03  0.25500000920E-02 0.  1.
       -2   -1    0    0    0  501  0.00000000000E+00  0.00000000000E+00 -0.21598705650E+03  0.21598705652E+03  0.25500000920E-02 0. -1.
    10030    2    1    2    0    0  0.00000000000E+00  0.00000000000E+00  0.52344941968E+03  0.95542353270E+03  0.79927143817E+03 0.  0.
        3    1    3    3  502    0 -0.47796399911E+02 -0.25943162842E+03  0.62057298522E+03  0.67431454519E+03  0.10100000352E+00 0.  1.
       -3    1    3    3    0  502  0.47796399911E+02  0.25943162842E+03 -0.97123565548E+02  0.28110898750E+03  0.10100000352E+00 0. -1.
</event>
<event>
 5   0  0.4392552E-04  0.7999096E+03  0.7818609E-02  0.9560148E-01
       -1   -1    0    0    0  501  0.00000000000E+00  0.00000000000E+00  0.43377211264E+03  0.43377211267E+03  0.50400001928E-02 0.  1.
        1   -1    0    0  501    0  0.00000000000E+00  0.00000000000E+00 -0.36877393088E+03  0.36877393091E+03  0.50400001928E-02 0. -1.
    10030    2    1    2    0    0  0.00000000000E+00  0.00000000000E+00  0.64998181766E+02  0.80254604359E+03  0.79990961267E+03 0.  0.
        5    1    3    3  502    0  0.48527922484E+01 -0.21598970175E+03  0.37015945326E+03  0.42862012516E+03  0.46999998093E+01 0.  1.
       -5    1    3    3    0  502 -0.48527922484E+01  0.21598970175E+03 -0.30516127149E+03  0.37392591843E+03  0.46999998093E+01 0. -1.
</event>
<event>
 5   0  0.6672462E-04  0.7999917E+03  0.7818609E-02  0.9560029E-01
        2   -1    0    0  501    0  0.00000000000E+00  0.00000000000E+00  0.14095897112E+03  0.14095897114E+03  0.25500000920E-02 0. -1.
       -2   -1    0    0    0  501  0.00000000000E+00  0.00000000000E+00 -0.11350584444E+04  0.11350584444E+04  0.25500000920E-02 0.  1.
    10030    2    1    2    0    0  0.00000000000E+00  0.00000000000E+00 -0.99409947330E+03  0.12760174156E+04  0.79999167621E+03 0.  0.
        5    1    3    3  502    0  0.31263979731E+03  0.21846708568E+03 -0.30496135091E+03  0.48835952528E+03  0.46999998093E+01 0. -1.
       -5    1    3    3    0  502 -0.31263979731E+03 -0.21846708568E+03 -0.68913812239E+03  0.78765789028E+03  0.46999998093E+01 0.  1.
</event>
<event>
 5   0  0.6801147E-04  0.7998181E+03  0.7818609E-02  0.9560280E-01
        2   -1    0    0  501    0  0.00000000000E+00  0.00000000000E+00  0.11600382678E+04  0.11600382678E+04  0.25500000920E-02 0.  1.
       -2   -1    0    0    0  501  0.00000000000E+00  0.00000000000E+00 -0.13786377437E+03  0.13786377439E+03  0.25500000920E-02 0. -1.
    10030    2    1    2    0    0  0.00000000000E+00  0.00000000000E+00  0.10221744934E+04  0.12979020422E+04  0.79981811439E+03 0.  0.
        4    1    3    3  502    0  0.95235971859E+02 -0.20677130316E+03 -0.22451908631E+02  0.22875743321E+03  0.12699999809E+01 0. -1.
       -4    1    3    3    0  502 -0.95235971859E+02  0.20677130316E+03  0.10446264020E+04  0.10691446090E+04  0.12699999809E+01 0.  1.
</event>
<event>
 5   0  0.6593118E-04  0.8000105E+03  0.7818609E-02  0.9560002E-01
       -2   -1    0    0    0  501  0.00000000000E+00  0.00000000000E+00  0.24237086010E+03  0.24237086011E+03  0.25500000920E-02 0.  1.
        2   -1    0    0  501    0  0.00000000000E+00  0.00000000000E+00 -0.66016276648E+03  0.66016276648E+03  0.25500000920E-02 0. -1.
    10030    2    1    2    0    0  0.00000000000E+00  0.00000000000E+00 -0.41779190638E+03  0.90253362659E+03  0.80001054373E+03 0.  0.
        1    1    3    3  502    0 -0.28793105551E+03  0.24785225655E+03 -0.35011421672E+03  0.51663816988E+03  0.50400001928E-02 0. -1.
       -1    1    3    3    0  502  0.28793105551E+03 -0.24785225655E+03 -0.67677689659E+02  0.38589545671E+03  0.50400001928E-02 0.  1.
</event>
<event>
 5   0  0.6593118E-04  0.8004192E+03  0.7818609E-02  0.9559411E-01
        2   -1    0    0  501    0  0.00000000000E+00  0.00000000000E+00  0.84438811466E+03  0.84438811467E+03  0.25500000920E-02 0. -1.
       -2   -1    0    0    0  501  0.00000000000E+00  0.00000000000E+00 -0.18968495006E+03  0.18968495007E+03  0.25500000920E-02 0.  1.
    10030    2    1    2    0    0  0.00000000000E+00  0.00000000000E+00  0.65470316461E+03  0.10340730647E+04  0.80041918360E+03 0.  0.
        1    1    3    3  502    0 -0.15520148661E+03 -0.60941613008E+02 -0.14267509763E+03  0.21944832000E+03  0.50400001928E-02 0.  1.
       -1    1    3    3    0  502  0.15520148661E+03  0.60941613008E+02  0.79737826223E+03  0.81462474474E+03  0.50400001928E-02 0. -1.
</event>
<event>
 5   0  0.4104786E-04  0.7999913E+03  0.7818609E-02  0.9560030E-01
       -1   -1    0    0    0  501  0.00000000000E+00  0.00000000000E+00  0.42353456900E+03  0.42353456903E+03  0.50400001928E-02 0.  1.
        1   -1    0    0  501    0  0.00000000000E+00  0.00000000000E+00 -0.37776499322E+03  0.37776499326E+03  0.50400001928E-02 0. -1.
    10030    2    1    2    0    0  0.00000000000E+00  0.00000000000E+00  0.45769575780E+02  0.80129956229E+03  0.79999133399E+03 0.  0.
        2    1    3    3  502    0 -0.36884908401E+02 -0.19618426814E+03 -0.32430543002E+03  0.38081855979E+03  0.25500000920E-02 0. -1.
       -2    1    3    3    0  502  0.36884908401E+02  0.19618426814E+03  0.37007500580E+03  0.42048100250E+03  0.25500000920E-02 0.  1.
</event>
<event>
 5   0  0.6593118E-04  0.8008651E+03  0.7818609E-02  0.9558766E-01
       -2   -1    0    0    0  501  0.00000000000E+00  0.00000000000E+00  0.21849018577E+03  0.21849018578E+03  0.25500000920E-02 0. -1.
        2   -1    0    0  501    0  0.00000000000E+00  0.00000000000E+00 -0.73388290935E+03  0.73388290935E+03  0.25500000920E-02 0.  1.
    10030    2    1    2    0    0  0.00000000000E+00  0.00000000000E+00 -0.51539272358E+03  0.95237309513E+03  0.80086506530E+03 0.  0.
        1    1    3    3  502    0  0.26627469431E+03 -0.28522762639E+03 -0.15074148422E+03  0.41830611611E+03  0.50400001928E-02 0.  1.
       -1    1    3    3    0  502 -0.26627469431E+03  0.28522762639E+03 -0.36465123936E+03  0.53406697902E+03  0.50400001928E-02 0. -1.
</event>
<event>
 5   0  0.4392552E-04  0.7998723E+03  0.7818609E-02  0.9560202E-01
       -1   -1    0    0    0  501  0.00000000000E+00  0.00000000000E+00  0.62459703574E+02  0.62459703777E+02  0.50400001928E-02 0. -1.
        1   -1    0    0  501    0  0.00000000000E+00  0.00000000000E+00 -0.25608341159E+04  0.25608341159E+04  0.50400001928E-02 0.  1.
    10030    2    1    2    0    0  0.00000000000E+00  0.00000000000E+00 -0.24983744124E+04  0.26232938197E+04  0.79987233996E+03 0.  0.
        5    1    3    3  502    0 -0.37446870453E+03  0.10921237865E+03 -0.15383298122E+04  0.15870207483E+04  0.46999998093E+01 0.  1.
       -5    1    3    3    0  502  0.37446870453E+03 -0.10921237865E+03 -0.96004460012E+03  0.10362730714E+04  0.46999998093E+01 0. -1.
</event>
<event>
 5   0  0.4086111E-04  0.8004913E+03  0.7818609E-02  0.9559306E-01
        1   -1    0    0  501    0  0.00000000000E+00  0.00000000000E+00  0.68017868157E+03  0.68017868159E+03  0.50400001928E-02 0. -1.
       -1   -1    0    0    0  501  0.00000000000E+00  0.00000000000E+00 -0.23552132255E+03  0.23552132260E+03  0.50400001928E-02 0.  1.
    10030    2    1    2    0    0  0.00000000000E+00  0.00000000000E+00  0.44465735903E+03  0.91570000419E+03  0.80049130585E+03 0.  0.
        3    1    3    3  502    0 -0.10306484271E+03  0.14298753179E+03  0.63339142135E+03  0.65745912336E+03  0.10100000352E+00 0. -1.
       -3    1    3    3    0  502  0.10306484271E+03 -0.14298753179E+03 -0.18873406232E+03  0.25824088083E+03  0.10100000352E+00 0.  1.
</event>
<event>
 5   0  0.6801147E-04  0.8005524E+03  0.7818609E-02  0.9559218E-01
       -2   -1    0    0    0  501  0.00000000000E+00  0.00000000000E+00  0.27517670798E+03  0.27517670799E+03  0.25500000920E-02 0. -1.
        2   -1    0    0  501    0  0.00000000000E+00  0.00000000000E+00 -0.58224777954E+03  0.58224777954E+03  0.25500000920E-02 0.  1.
    10030    2    1    2    0    0  0.00000000000E+00  0.00000000000E+00 -0.30707107156E+03  0.85742448753E+03  0.80055237732E+03 0.  0.
        4    1    3    3  502    0 -0.43767343780E+02  0.91254618445E+02 -0.56831537093E+03  0.57725813940E+03  0.12699999809E+01 0.  1.
       -4    1    3    3    0  502  0.43767343780E+02 -0.91254618445E+02  0.26124429937E+03  0.28016634813E+03  0.12699999809E+01 0. -1.
</event>
<event>
 5   0  0.4169155E-04  0.8001032E+03  0.7818609E-02  0.9559868E-01
        1   -1    0    0  501    0  0.00000000000E+00  0.00000000000E+00  0.74394353538E+03  0.74394353540E+03  0.50400001928E-02 0. -1.
       -1   -1    0    0    0  501  0.00000000000E+00  0.00000000000E+00 -0.21512558750E+03  0.21512558756E+03  0.50400001928E-02 0.  1.
    10030    2    1    2    0    0  0.00000000000E+00  0.00000000000E+00  0.52881794788E+03  0.95906912296E+03  0.80010321872E+03 0.  0.
        4    1    3    3  502    0  0.39913258425E+03 -0.14852935509E+02  0.23727934078E+03  0.46457564289E+03  0.12699999809E+01 0.  1.
       -4    1    3    3    0  502 -0.39913258425E+03  0.14852935509E+02  0.29153860710E+03  0.49449348007E+03  0.12699999809E+01 0. -1.
</event>
<event>
 5   0  0.6970013E-04  0.7994908E+03  0.7818609E-02  0.9560754E-01
        2   -1    0    0  501    0  0.00000000000E+00  0.00000000000E+00  0.46350617841E+03  0.46350617842E+03  0.25500000920E-02 0. -1.
       -2   -1    0    0    0  501  0.00000000000E+00  0.00000000000E+00 -0.34475570443E+03  0.34475570444E+03  0.25500000920E-02 0.  1.
    10030    2    1    2    0    0  0.00000000000E+00  0.00000000000E+00  0.11875047398E+03  0.80826188286E+03  0.79949083560E+03 0.  0.
        3    1    3    3  502    0  0.15785791545E+03 -0.11069690592E+03  0.41339327894E+03  0.45614355166E+03  0.10100000352E+00 0. -1.
       -3    1    3    3    0  502 -0.15785791545E+03  0.11069690592E+03 -0.29464280496E+03  0.35211833120E+03  0.10100000352E+00 0.  1.
</event>
<event>
 5   0  0.6970013E-04  0.7999100E+03  0.7818609E-02  0.9560147E-01
       -2   -1    0    0    0  501  0.00000000000E+00  0.00000000000E+00  0.14335118001E+03  0.14335118004E+03  0.25500000920E-02 0. -1.
        2   -1    0    0  501    0  0.00000000000E+00  0.00000000000E+00 -0.11158890747E+04  0.11158890747E+04  0.25500000920E-02 0.  1.
    10030    2    1    2    0    0  0.00000000000E+00  0.00000000000E+00 -0.97253789465E+03  0.12592402547E+04  0.79991003403E+03 0.  0.
        3    1    3    3  502    0  0.10261412150E+03  0.90064317301E+02 -0.10780669823E+04  0.10866782724E+04  0.10100000352E+00 0.  1.
       -3    1    3    3    0  502 -0.10261412150E+03 -0.90064317301E+02  0.10552908767E+03  0.17256198228E+03  0.10100000352E+00 0. -1.
</event>
<event>
 5   0  0.6970013E-04  0.7994761E+03  0.7818609E-02  0.9560776E-01
        2   -1    0    0  501    0  0.00000000000E+00  0.00000000000E+00  0.53013591024E+03  0.53013591024E+03  0.25500000920E-02 0. -1.
       -2   -1    0    0    0  501  0.00000000000E+00  0.00000000000E+00 -0.30141424569E+03  0.30141424570E+03  0.25500000920E-02 0.  1.
    10030    2    1    2    0    0  0.00000000000E+00  0.00000000000E+00  0.22872166455E+03  0.83155015594E+03  0.79947611723E+03 0.  0.
        3    1    3    3  502    0 -0.28085582201E+03  0.27669632201E+03  0.45762981856E+02  0.39690692622E+03  0.10100000352E+00 0.  1.
       -3    1    3    3    0  502  0.28085582201E+03 -0.27669632201E+03  0.18295868269E+03  0.43464322972E+03  0.10100000352E+00 0. -1.
</event>
<event>
 5   0  0.4104786E-04  0.8000956E+03  0.7818609E-02  0.9559879E-01
       -1   -1    0    0    0  501  0.00000000000E+00  0.00000000000E+00  0.10628999951E+03  0.10628999962E+03  0.50400001928E-02 0. -1.
        1   -1    0    0  501    0  0.00000000000E+00  0.00000000000E+00 -0.15056755352E+04  0.15056755352E+04  0.50400001928E-02 0.  1.
    10030    2    1    2    0    0  0.00000000000E+00  0.00000000000E+00 -0.13993855356E+04  0.16119655348E+04  0.80009562426E+03 0.  0.
        2    1    3    3  502    0 -0.25843854413E+03  0.25104549761E+03 -0.34943375681E+03  0.50191460764E+03  0.25500000920E-02 0. -1.
       -2    1    3    3    0  502  0.25843854413E+03 -0.25104549761E+03 -0.10499517788E+04  0.11100509271E+04  0.25500000920E-02 0.  1.
</event>
<event>
 5   0  0.6672462E-04  0.7996904E+03  0.7818609E-02  0.9560465E-01
        2   -1    0    0  501    0  0.00000000000E+00  0.00000000000E+00  0.64520814699E+03  0.64520814699E+03  0.25500000920E-02 0.  1.
       -2   -1    0    0    0  501  0.00000000000E+00  0.00000000000E+00 -0.24779006702E+03  0.24779006704E+03  0.25500000920E-02 0. -1.
    10030    2    1    2    0    0  0.00000000000E+00  0.00000000000E+00  0.39741807996E+03  0.89299821403E+03  0.79969036506E+03 0.  0.
        5    1    3    3  502    0  0.20980663222E+03 -0.32766342726E+03  0.30149174598E+03  0.49224131011E+03  0.46999998093E+01 0. -1.
       -5    1    3    3    0  502 -0.20980663222E+03  0.32766342726E+03  0.95926333978E+02  0.40075690391E+03  0.46999998093E+01 0.  1.
</event>
<event>
 5   0  0.6672462E-04  0.8001122E+03  0.7818609E-02  0.9559855E-01
        2   -1    0    0  501    0  0.00000000000E+00  0.00000000000E+00  0.43498416876E+03  0.43498416877E+03  0.25500000920E-02 0. -1.
       -2   -1    0    0    0  501  0.00000000000E+00  0.00000000000E+00 -0.36793270627E+03  0.36793270628E+03  0.25500000920E-02 0.  1.
    10030    2    1    2    0    0  0.00000000000E+00  0.00000000000E+00  0.67051462490E+02  0.80291687505E+03  0.80011224813E+03 0.  0.
        5    1    3    3  502    0 -0.20830519305E+03 -0.29703259415E+03 -0.13559810016E+03  0.38733493285E+03  0.46999998093E+01 0.  1.
       -5    1    3    3    0  502  0.20830519305E+03  0.29703259415E+03  0.20264956265E+03  0.41558194220E+03  0.46999998093E+01 0. -1.
</event>
<event>
 5   0  0.6801147E-04  0.8000911E+03  0.7818609E-02  0.9559885E-01
        2   -1    0    0  501    0  0.00000000000E+00  0.00000000000E+00  0.29488958791E+03  0.29488958792E+03  0.25500000920E-02 0.  1.
       -2   -1    0    0    0  501  0.00000000000E+00  0.00000000000E+00 -0.54269949718E+03  0.54269949719E+03  0.25500000920E-02 0. -1.
    10030    2    1    2    0    0  0.00000000000E+00  0.00000000000E+00 -0.24780990927E+03  0.83758908511E+03  0.80009107255E+03 0.  0.
        4    1    3    3  502    0 -0.10966585590E+03  0.38352208536E+03 -0.15564123487E+03  0.42818406884E+03  0.12699999809E+01 0.  1.
       -4    1    3    3    0  502  0.10966585590E+03 -0.38352208536E+03 -0.92168674395E+02  0.40940501628E+03  0.12699999809E+01 0. -1.
</event>
<event>
 5   0  0.6801147E-04  0.8001462E+03  0.7818609E-02  0.9559805E-01
       -2   -1    0    0    0  501  0.00000000000E+00  0.00000000000E+00  0.25069946600E+03  0.25069946601E+03  0.25500000920E-02 0. -1.
        2   -1    0    0  501    0  0.00000000000E+00  0.00000000000E+00 -0.63844770958E+03  0.63844770958E+03  0.25500000920E-02 0.  1.
    10030    2    1    2    0    0  0.00000000000E+00  0.00000000000E+00 -0.38774824357E+03  0.88914717559E+03  0.80014623630E+03 0.  0.
        4    1    3    3  502    0 -0.37097272997E+00  0.38820946997E+03 -0.86422312428E+02  0.39771492200E+03  0.12699999809E+01 0. -1.
       -4    1    3    3    0  502  0.37097272997E+00 -0.38820946997E+03 -0.30132593115E+03  0.49143225360E+03  0.12699999809E+01 0.  1.
</event>
<event>
 5   0  0.4104786E-04  0.8002139E+03  0.7818609E-02  0.9559708E-01
        1   -1    0    0  501    0  0.00000000000E+00  0.00000000000E+00  0.86445785781E+03  0.86445785783E+03  0.50400001928E-02 0.  1.
       -1   -1    0    0    0  501  0.00000000000E+00  0.00000000000E+00 -0.18518608146E+03  0.18518608153E+03  0.50400001928E-02 0. -1.
    10030    2    1    2    0    0  0.00000000000E+00  0.00000000000E+00  0.67927177635E+03  0.10496439394E+04  0.80021387972E+03 0.  0.
        2    1    3    3  502    0  0.55370617098E+02 -0.28160788434E+03  0.70530895963E+03  0.76146545182E+03  0.25500000920E-02 0.  1.
       -2    1    3    3    0  502 -0.55370617098E+02  0.28160788434E+03 -0.26037183288E+02  0.28817848754E+03  0.25500000920E-02 0. -1.
</event>
<event>
 5   0  0.6970013E-04  0.7992418E+03  0.7818609E-02  0.9561115E-01
       -2   -1    0    0    0  501  0.00000000000E+00  0.00000000000E+00  0.61789302374E+03  0.61789302375E+03  0.25500000920E-02 0.  1.
        2   -1    0    0  501    0  0.00000000000E+00  0.00000000000E+00 -0.25845388048E+03  0.25845388049E+03  0.25500000920E-02 0. -1.
    10030    2    1    2    0    0  0.00000000000E+00  0.00000000000E+00  0.35943914327E+03  0.87634690423E+03  0.79924176496E+03 0.  0.
        3    1    3    3  502    0  0.53866920054E+02 -0.45169090603E+02  0.61105999279E+03  0.61509041353E+03  0.10100000352E+00 0.  1.
       -3    1    3    3    0  502 -0.53866920054E+02  0.45169090603E+02 -0.25162084952E+03  0.26125649071E+03  0.10100000352E+00 0. -1.
</event>
<event>
 5   0  0.4169155E-04  0.8000555E+03  0.7818609E-02  0.9559937E-01
        1   -1    0    0  501    0  0.00000000000E+00  0.00000000000E+00  0.60372383530E+03  0.60372383532E+03  0.50400001928E-02 0. -1.
       -1   -1    0    0    0  501  0.00000000000E+00  0.00000000000E+00 -0.26505859304E+03  0.26505859309E+03  0.50400001928E-02 0.  1.
    10030    2    1    2    0    0  0.00000000000E+00  0.00000000000E+00  0.33866524226E+03  0.86878242842E+03  0.80005547408E+03 0.  0.
        4    1    3    3  502    0  0.53902852204E+01 -0.39372707524E+03  0.92774456217E+02  0.40454762090E+03  0.12699999809E+01 0.  1.
       -4    1    3    3    0  502 -0.53902852204E+01  0.39372707524E+03  0.24589078605E+03  0.46423480752E+03  0.12699999809E+01 0. -1.
</event>
<event>
 5   0  0.6593118E-04  0.7999716E+03  0.7818609E-02  0.9560058E-01
       -2   -1    0    0    0  501  0.00000000000E+00  0.00000000000E+00  0.32376666157E+03  0.32376666158E+03  0.25500000920E-02 0. -1.
        2   -1    0    0  501    0  0.00000000000E+00  0.00000000000E+00 -0.49414799989E+03  0.49414799989E+03  0.25500000920E-02 0.  1.
    10030    2    1    2    0    0  0.00000000000E+00  0.00000000000E+00 -0.17038133831E+03  0.81791466148E+03  0.79997162013E+03 0.  0.
        1    1    3    3  502    0 -0.27506933532E+03 -0.29029083675E+03 -0.92892156781E+02  0.41056164208E+03  0.50400001928E-02 0.  1.
       -1    1    3    3    0  502  0.27506933532E+03  0.29029083675E+03 -0.77489181531E+02  0.40735301940E+03  0.50400001928E-02 0. -1.
</event>
<event>
 5   0  0.7133039E-04  0.7992306E+03  0.7818609E-02  0.9561131E-01
       -2   -1    0    0    0  501  0.00000000000E+00  0.00000000000E+00  0.30125651450E+03  0.30125651451E+03  0.25500000920E-02 0. -1.
        2   -1    0    0  501    0  0.00000000000E+00  0.00000000000E+00 -0.53008777497E+03  0.53008777497E+03  0.25500000920E-02 0.  1.
    10030    2    1    2    0    0  0.00000000000E+00  0.00000000000E+00 -0.22883126046E+03  0.83134428948E+03  0.79923061872E+03 0.  0.
        2    1    3    3  502    0  0.96850364589E+02  0.55100621413E+02 -0.51360160317E+03  0.52554988192E+03  0.25500000920E-02 0.  1.
       -2    1    3    3    0  502 -0.96850364589E+02 -0.55100621413E+02  0.28477034271E+03  0.30579440756E+03  0.25500000920E-02 0. -1.
</event>
<event>
 5   0  0.4169155E-04  0.7996175E+03  0.7818609E-02  0.9560571E-01
       -1   -1    0    0    0  501  0.00000000000E+00  0.00000000000E+00  0.25363793532E+03  0.25363793537E+03  0.50400001928E-02 0.  1.
        1   -1    0    0  501    0  0.00000000000E+00  0.00000000000E+00 -0.63021740856E+03  0.63021740858E+03  0.50400001928E-02 0. -1.
    10030    2    1    2    0    0  0.00000000000E+00  0.00000000000E+00 -0.37657947323E+03  0.88385534395E+03  0.79961751442E+03 0.  0.
        4    1    3    3  502    0  0.20451103467E+02  0.26829108570E+03 -0.51515708355E+03  0.58119427727E+03  0.12699999809E+01 0. -1.
       -4    1    3    3    0  502 -0.20451103467E+02 -0.26829108570E+03  0.13857761032E+03  0.30266106668E+03  0.12699999809E+01 0.  1.
</event>
<event>
 5   0  0.4104786E-04  0.7988417E+03  0.7818609E-02  0.9561695E-01
        1   -1    0    0  501    0  0.00000000000E+00  0.00000000000E+00  0.13243305272E+04  0.13243305272E+04  0.50400001928E-02 0. -1.
       -1   -1    0    0    0  501  0.00000000000E+00  0.00000000000E+00 -0.12046615234E+03  0.12046615244E+03  0.50400001928E-02 0.  1.
    10030    2    1    2    0    0  0.00000000000E+00  0.00000000000E+00  0.12038643748E+04  0.14447966796E+04  0.79884166920E+03 0.  0.
        2    1    3    3  502    0  0.16809241638E+03 -0.70839962363E+02  0.12445979755E+04  0.12578940661E+04  0.25500000920E-02 0. -1.
       -2    1    3    3    0  502 -0.16809241638E+03  0.70839962363E+02 -0.40733600733E+02  0.18690261354E+03  0.25500000920E-02 0.  1.
</event>
<event>
 5   0  0.6801147E-04  0.7999455E+03  0.7818609E-02  0.9560096E-01
       -2   -1    0    0    0  501  0.00000000000E+00  0.00000000000E+00  0.20507241492E+03  0.20507241494E+03  0.25500000920E-02 0. -1.
        2   -1    0    0  501    0  0.00000000000E+00  0.00000000000E+00 -0.78010599048E+03  0.78010599048E+03  0.25500000920E-02 0.  1.
    10030    2    1    2    0    0  0.00000000000E+00  0.00000000000E+00 -0.57503357556E+03  0.98517840542E+03  0.79994554658E+03 0.  0.
        4    1    3    3  502    0 -0.17970544922E+03 -0.10716315901E+03  0.13229529620E+03  0.24755130665E+03  0.12699999809E+01 0. -1.
       -4    1    3    3    0  502  0.17970544922E+03  0.10716315901E+03 -0.70732887175E+03  0.73762709877E+03  0.12699999809E+01 0.  1.
</event>
<event>
 5   0  0.6801147E-04  0.8028722E+03  0.7818609E-02  0.9555869E-01
        2   -1    0    0  501    0  0.00000000000E+00  0.00000000000E+00  0.36872469773E+03  0.36872469774E+03  0.25500000920E-02 0. -1.
       -2   -1    0    0    0  501  0.00000000000E+00  0.00000000000E+00 -0.43704950456E+03  0.43704950457E+03  0.25500000920E-02 0.  1.
    10030    2    1    2    0    0  0.00000000000E+00  0.00000000000E+00 -0.68324806832E+02  0.80577420230E+03  0.80287221017E+03 0.  0.
        4    1    3    3  502    0 -0.27147406885E+03  0.17831027644E+03 -0.27093165617E+03  0.42296370997E+03  0.12699999809E+01 0.  1.
       -4    1    3    3    0  502  0.27147406885E+03 -0.17831027644E+03  0.20260684933E+03  0.38281049233E+03  0.12699999809E+01 0. -1.
</event>
<event>
 5   0  0.4169155E-04  0.8002927E+03  0.7818609E-02  0.9559594E-01
        1   -1    0    0  501    0  0.00000000000E+00  0.00000000000E+00  0.45268567921E+03  0.45268567924E+03  0.50400001928E-02 0. -1.
       -1   -1    0    0    0  501  0.00000000000E+00  0.00000000000E+00 -0.35370480401E+03  0.35370480405E+03  0.50400001928E-02 0.  1.
    10030    2    1    2    0    0  0.00000000000E+00  0.00000000000E+00  0.98980875200E+02  0.80639048329E+03  0.80029269514E+03 0.  0.
        4    1    3    3  502    0 -0.22500093242E+03  0.14577790937E+03 -0.24982320018E+03  0.36645581275E+03  0.12699999809E+01 0.  1.
       -4    1    3    3    0  502  0.22500093242E+03 -0.14577790937E+03  0.34880407538E+03  0.43993467055E+03  0.12699999809E+01 0. -1.
</event>
<event>
 5   0  0.4104786E-04  0.8020533E+03  0.7818609E-02  0.9557050E-01
        1   -1    0    0  501    0  0.00000000000E+00  0.00000000000E+00  0.15755901044E+04  0.15755901044E+04  0.50400001928E-02 0. -1.
       -1   -1    0    0    0  501  0.00000000000E+00  0.00000000000E+00 -0.10207119403E+03  0.10207119416E+03  0.50400001928E-02 0.  1.
    10030    2    1    2    0    0  0.00000000000E+00  0.00000000000E+00  0.14735189103E+04  0.16776612985E+04  0.80205327347E+03 0.  0.
        2    1    3    3  502    0 -0.32380056944E+03  0.10492137202E+02  0.12311530066E+04  0.12730650492E+04  0.25500000920E-02 0. -1.
       -2    1    3    3    0  502  0.32380056944E+03 -0.10492137202E+02  0.24236590375E+03  0.40459624939E+03  0.25500000920E-02 0.  1.
</event>
<event>
 5   0  0.6672462E-04  0.8000835E+03  0.7818609E-02  0.9559896E-01
       -2   -1    0    0    0  501  0.00000000000E+00  0.00000000000E+00  0.20446021911E+03  0.20446021912E+03  0.25500000920E-02 0. -1.
        2   -1    0    0  501    0  0.00000000000E+00  0.00000000000E+00 -0.78271177070E+03  0.78271177071E+03  0.25500000920E-02 0.  1.
    10030    2    1    2    0    0  0.00000000000E+00  0.00000000000E+00 -0.57825155160E+03  0.98717198983E+03  0.80008354600E+03 0.  0.
        5    1    3    3  502    0  0.51262152284E+02  0.21072888675E+02  0.19966562342E+03  0.20726872911E+03  0.46999998093E+01 0. -1.
       -5    1    3    3    0  502 -0.51262152284E+02 -0.21072888675E+02 -0.77791717502E+03  0.77990326072E+03  0.46999998093E+01 0.  1.
</event>
<event>
 5   0  0.6672462E-04  0.7994814E+03  0.7818609E-02  0.9560768E-01
       -2   -1    0    0    0  501  0.00000000000E+00  0.00000000000E+00  0.50160829632E+03  0.50160829633E+03  0.25500000920E-02 0. -1.
        2   -1    0    0  501    0  0.00000000000E+00  0.00000000000E+00 -0.31856060772E+03  0.31856060773E+03  0.25500000920E-02 0.  1.
    10030    2    1    2    0    0  0.00000000000E+00  0.00000000000E+00  0.18304768860E+03  0.82016890405E+03  0.79948144123E+03 0.  0.
        5    1    3    3  502    0  0.32578434223E+03 -0.12766294950E+03 -0.10670474672E+03  0.36584321681E+03  0.46999998093E+01 0.  1.
       -5    1    3    3    0  502 -0.32578434223E+03  0.12766294950E+03  0.28975243532E+03  0.45432568724E+03  0.46999998093E+01 0. -1.
</event>
<event>
 5   0  0.4086111E-04  0.8002263E+03  0.7818609E-02  0.9559690E-01
       -1   -1    0    0    0  501  0.00000000000E+00  0.00000000000E+00  0.23085740861E+03  0.23085740866E+03  0.50400001928E-02 0. -1.
        1   -1    0    0  501    0  0.00000000000E+00  0.00000000000E+00 -0.69346058961E+03  0.69346058962E+03  0.50400001928E-02 0.  1.
    10030    2    1    2    0    0  0.00000000000E+00  0.00000000000E+00 -0.46260318100E+03  0.92431799829E+03  0.80022625481E+03 0.  0.
        3    1    3    3  502    0 -0.24759886695E+03  0.41141898063E+02  0.12861493735E+03  0.28202777700E+03  0.10100000352E+00 0. -1.
       -3    1    3    3    0  502  0.24759886695E+03 -0.41141898063E+02 -0.59121811835E+03  0.64229022128E+03  0.10100000352E+00 0.  1.
</event>
<event>
 5   0  0.7133039E-04  0.8001399E+03  0.7818609E-02  0.9559815E-01
        2   -1    0    0  501    0  0.00000000000E+00  0.00000000000E+00  0.13055412456E+04  0.13055412456E+04  0.25500000920E-02 0.  1.
       -2   -1    0    0    0  501  0.00000000000E+00  0.00000000000E+00 -0.12259741626E+03  0.12259741628E+03  0.25500000920E-02 0. -1.
    10030    2    1    2    0    0  0.00000000000E+00  0.00000000000E+00  0.11829438293E+04  0.14281386618E+04  0.80013994662E+03 0.  0.
        2    1    3    3  502    0 -0.12175103415E+03  0.37473581322E+03  0.46773920132E+03  0.61158008836E+03  0.25500000920E-02 0.  1.
       -2    1    3    3    0  502  0.12175103415E+03 -0.37473581322E+03  0.71520462798E+03  0.81655857348E+03  0.25500000920E-02 0. -1.
</event>
<event>
 5   0  0.4169155E-04  0.7998034E+03  0.7818609E-02  0.9560302E-01
        1   -1    0    0  501    0  0.00000000000E+00  0.00000000000E+00  0.83281188361E+03  0.83281188363E+03  0.50400001928E-02 0.  1.
       -1   -1    0    0    0  501  0.00000000000E+00  0.00000000000E+00 -0.19202579551E+03  0.19202579558E+03  0.50400001928E-02 0. -1.
    10030    2    1    2    0    0  0.00000000000E+00  0.00000000000E+00  0.64078608810E+03  0.10248376792E+04  0.79980338710E+03 0.  0.
        4    1    3    3  502    0 -0.63510246687E+02 -0.14731284360E+03  0.78977245426E+03  0.80590121462E+03  0.12699999809E+01 0.  1.
       -4    1    3    3    0  502  0.63510246687E+02  0.14731284360E+03 -0.14898636616E+03  0.21893646458E+03  0.12699999809E+01 0. -1.
</event>
<event>
 5   0  0.6970013E-04  0.8009337E+03  0.7818609E-02  0.9558667E-01
       -2   -1    0    0    0  501  0.00000000000E+00  0.00000000000E+00  0.12292058588E+03  0.12292058590E+03  0.25500000920E-02 0. -1.
        2   -1    0    0  501    0  0.00000000000E+00  0.00000000000E+00 -0.13046934743E+04  0.13046934743E+04  0.25500000920E-02 0.  1.
    10030    2    1    2    0    0  0.00000000000E+00  0.00000000000E+00 -0.11817728885E+04  0.14276140602E+04  0.80093367084E+03 0.  0.
        3    1    3    3  502    0  0.18395740524E+01  0.38719030959E+03 -0.40864187183E+03  0.56294574293E+03  0.10100000352E+00 0. -1.
       -3    1    3    3    0  502 -0.18395740524E+01 -0.38719030959E+03 -0.77313101663E+03  0.86466831730E+03  0.10100000352E+00 0.  1.
</event>
<event>
 5   0  0.6672462E-04  0.8000150E+03  0.7818609E-02  0.9559995E-01
       -2   -1    0    0    0  501  0.00000000000E+00  0.00000000000E+00  0.41058919327E+03  0.41058919328E+03  0.25500000920E-02 0.  1.
        2   -1    0    0  501    0  0.00000000000E+00  0.00000000000E+00 -0.38969849452E+03  0.38969849453E+03  0.25500000920E-02 0. -1.
    10030    2    1    2    0    0  0.00000000000E+00  0.00000000000E+00  0.20890698747E+02  0.80028768781E+03  0.80001497609E+03 0.  0.
        5    1    3    3  502    0  0.10075644844E+03 -0.52429685283E+02 -0.37319961692E+03  0.39012918100E+03  0.46999998093E+01 0. -1.
       -5    1    3    3    0  502 -0.10075644844E+03  0.52429685283E+02  0.39409031567E+03  0.41015850681E+03  0.46999998093E+01 0.  1.
</event>
<event>
 5   0  0.7133039E-04  0.7994452E+03  0.7818609E-02  0.9560820E-01
       -2   -1    0    0    0  501  0.00000000000E+00  0.00000000000E+00  0.14663377077E+03  0.14663377080E+03  0.25500000920E-02 0.  1.
        2   -1    0    0  501    0  0.00000000000E+00  0.00000000000E+00 -0.10896410374E+04  0.10896410374E+04  0.25500000920E-02 0. -1.
    10030    2    1    2    0    0  0.00000000000E+00  0.00000000000E+00 -0.94300726661E+03  0.12362748082E+04  0.79944524295E+03 0.  0.
        2    1    3    3  502    0  0.20799802065E+03  0.41135100150E+02 -0.99551481540E+03  0.10178433184E+04  0.25500000920E-02 0. -1.
       -2    1    3    3    0  502 -0.20799802065E+03 -0.41135100150E+02  0.52507548789E+02  0.21843148982E+03  0.25500000920E-02 0.  1.
</event>
<event>
 5   0  0.4087283E-04  0.7996490E+03  0.7818609E-02  0.9560525E-01
       -1   -1    0    0    0  501  0.00000000000E+00  0.00000000000E+00  0.12269427266E+03  0.12269427277E+03  0.50400001928E-02 0.  1.
        1   -1    0    0  501    0  0.00000000000E+00  0.00000000000E+00 -0.13029103556E+04  0.13029103556E+04  0.50400001928E-02 0. -1.
    10030    2    1    2    0    0  0.00000000000E+00  0.00000000000E+00 -0.11802160830E+04  0.14256046284E+04  0.79964901929E+03 0.  0.
        1    1    3    3  502    0 -0.24244220235E+03  0.31179492780E+03 -0.47926880170E+03  0.62104177218E+03  0.50400001928E-02 0. -1.
       -1    1    3    3    0  502  0.24244220235E+03 -0.31179492780E+03 -0.70094728128E+03  0.80456285624E+03  0.50400001928E-02 0.  1.
</event>
<event>
 5   0  0.7133039E-04  0.8001498E+03  0.7818609E-02  0.9559800E-01
       -2   -1    0    0    0  501  0.00000000000E+00  0.00000000000E+00  0.30600607815E+03  0.30600607816E+03  0.25500000920E-02 0. -1.
        2   -1    0    0  501    0  0.00000000000E+00  0.00000000000E+00 -0.52306127873E+03  0.52306127874E+03  0.25500000920E-02 0.  1.
    10030    2    1    2    0    0  0.00000000000E+00  0.00000000000E+00 -0.21705520059E+03  0.82906735690E+03  0.80014981233E+03 0.  0.
        2    1    3    3  502    0 -0.32294813363E+03  0.23565595123E+03 -0.92789652052E+02  0.41041338173E+03  0.25500000920E-02 0.  1.
       -2    1    3    3    0  502  0.32294813363E+03 -0.23565595123E+03 -0.12426554854E+03  0.41865397517E+03  0.25500000920E-02 0. -1.
</event>
<event>
 5   0  0.4086111E-04  0.8039546E+03  0.7818609E-02  0.9554311E-01
       -1   -1    0    0    0  501  0.00000000000E+00  0.00000000000E+00  0.19676018737E+03  0.19676018743E+03  0.50400001928E-02 0.  1.
        1   -1    0    0  501    0  0.00000000000E+00  0.00000000000E+00 -0.82123187811E+03  0.82123187813E+03  0.50400001928E-02 0. -1.
    10030    2    1    2    0    0  0.00000000000E+00  0.00000000000E+00 -0.62447169075E+03  0.10179920656E+04  0.80395457148E+03 0.  0.
        3    1    3    3  502    0 -0.88929827623E+02 -0.11023521934E+02 -0.80842337939E+03  0.81337470014E+03  0.10100000352E+00 0. -1.
       -3    1    3    3    0  502  0.88929827623E+02  0.11023521934E+02  0.18395168864E+03  0.20461736542E+03  0.10100000352E+00 0.  1.
</event>
<event>
 5   0  0.4169155E-04  0.7999966E+03  0.7818609E-02  0.9560022E-01
        1   -1    0    0  501    0  0.00000000000E+00  0.00000000000E+00  0.22721504826E+03  0.22721504831E+03  0.50400001928E-02 0.  1.
       -1   -1    0    0    0  501  0.00000000000E+00  0.00000000000E+00 -0.70417267028E+03  0.70417267030E+03  0.50400001928E-02 0. -1.
    10030    2    1    2    0    0  0.00000000000E+00  0.00000000000E+00 -0.47695762202E+03  0.93138771861E+03  0.79999656823E+03 0.  0.
        4    1    3    3  502    0 -0.25072998899E+03  0.18102466728E+03  0.56883891697E+02  0.31444053107E+03  0.12699999809E+01 0.  1.
       -4    1    3    3    0  502  0.25072998899E+03 -0.18102466728E+03 -0.53384151372E+03  0.61694718754E+03  0.12699999809E+01 0. -1.
</event>
<event>
 5   0  0.6970013E-04  0.8004293E+03  0.7818609E-02  0.9559396E-01
       -2   -1    0    0    0  501  0.00000000000E+00  0.00000000000E+00  0.26575473520E+03  0.26575473521E+03  0.25500000920E-02 0. -1.
        2   -1    0    0  501    0  0.00000000000E+00  0.00000000000E+00 -0.60270526966E+03  0.60270526967E+03  0.25500000920E-02 0.  1.
    10030    2    1    2    0    0  0.00000000000E+00  0.00000000000E+00 -0.33695053446E+03  0.86846000488E+03  0.80042933317E+03 0.  0.
        3    1    3    3  502    0 -0.16954150809E+03 -0.82943913588E+02 -0.55138356342E+03  0.58279315368E+03  0.10100000352E+00 0.  1.
       -3    1    3    3    0  502  0.16954150809E+03  0.82943913588E+02  0.21443302896E+03  0.28566685120E+03  0.10100000352E+00 0. -1.
</event>
<event>
 5   0  0.4087283E-04  0.7999555E+03  0.7818609E-02  0.9560082E-01
        1   -1    0    0  501    0  0.00000000000E+00  0.00000000000E+00  0.30571280274E+03  0.30571280278E+03  0.50400001928E-02 0. -1.
       -1   -1    0    0    0  501  0.00000000000E+00  0.00000000000E+00 -0.52330880483E+03  0.52330880486E+03  0.50400001928E-02 0.  1.
    10030    2    1    2    0    0  0.00000000000E+00  0.00000000000E+00 -0.21759600210E+03  0.82902160763E+03  0.79995550238E+03 0.  0.
        1    1    3    3  502    0 -0.13128278670E+03  0.12164205057E+03 -0.47949628661E+03  0.51180919047E+03  0.50400001928E-02 0.  1.
       -1    1    3    3    0  502  0.13128278670E+03 -0.12164205057E+03  0.26190028451E+03  0.31721241717E+03  0.50400001928E-02 0. -1.
</event>
<event>
 5   0  0.4104786E-04  0.8009012E+03  0.7818609E-02  0.9558714E-01
        1   -1    0    0  501    0  0.00000000000E+00  0.00000000000E+00  0.97025880068E+03  0.97025880069E+03  0.50400001928E-02 0. -1.
       -1   -1    0    0    0  501  0.00000000000E+00  0.00000000000E+00 -0.16527618908E+03  0.16527618915E+03  0.50400001928E-02 0.  1.
    10030    2    1    2    0    0  0.00000000000E+00  0.00000000000E+00  0.80498261161E+03  0.11355349898E+04  0.80090118503E+03 0.  0.
        2    1    3    3  502    0 -0.25082234432E+02 -0.38538340190E+03  0.55261439119E+03  0.67418999570E+03  0.25500000920E-02 0. -1.
       -2    1    3    3    0  502  0.25082234432E+02  0.38538340190E+03  0.25236822041E+03  0.46134499414E+03  0.25500000920E-02 0.  1.
</event>
<event>
 5   0  0.4104786E-04  0.7995847E+03  0.7818609E-02  0.9560618E-01
       -1   -1    0    0    0  501  0.00000000000E+00  0.00000000000E+00  0.31101951919E+03  0.31101951923E+03  0.50400001928E-02 0.  1.
        1   -1    0    0  501    0  0.00000000000E+00  0.00000000000E+00 -0.51390319995E+03  0.51390319998E+03  0.50400001928E-02 0. -1.
    10030    2    1    2    0    0  0.00000000000E+00  0.00000000000E+00 -0.20288368077E+03  0.82492271921E+03  0.79958470767E+03 0.  0.
        2    1    3    3  502    0 -0.16954386666E+03  0.45615116145E+02 -0.47200071197E+03  0.50359759098E+03  0.25500000920E-02 0. -1.
       -2    1    3    3    0  502  0.16954386666E+03 -0.45615116145E+02  0.26911703120E+03  0.32132512823E+03  0.25500000920E-02 0.  1.
</event>
<event>
 5   0  0.6801147E-04  0.7995655E+03  0.7818609E-02  0.9560646E-01
        2   -1    0    0  501    0  0.00000000000E+00  0.00000000000E+00  0.37866332281E+03  0.37866332281E+03  0.25500000920E-02 0. -1.
       -2   -1    0    0    0  501  0.00000000000E+00  0.00000000000E+00 -0.42208012670E+03  0.42208012670E+03  0.25500000920E-02 0.  1.
    10030    2    1    2    0    0  0.00000000000E+00  0.00000000000E+00 -0.43416803890E+02  0.80074344952E+03  0.79956554021E+03 0.  0.
        4    1    3    3  502    0  0.18347187128E+03  0.30958461712E+03 -0.19609156560E+03  0.40982688749E+03  0.12699999809E+01 0.  1.
       -4    1    3    3    0  502 -0.18347187128E+03 -0.30958461712E+03  0.15267476171E+03  0.39091656203E+03  0.12699999809E+01 0. -1.
</event>
<event>
 5   0  0.4169155E-04  0.7991093E+03  0.7818609E-02  0.9561307E-01
        1   -1    0    0  501    0  0.00000000000E+00  0.00000000000E+00  0.64575322332E+03  0.64575322334E+03  0.50400001928E-02 0. -1.
       -1   -1    0    0    0  501  0.00000000000E+00  0.00000000000E+00 -0.24722124717E+03  0.24722124722E+03  0.50400001928E-02 0.  1.
    10030    2    1    2    0    0  0.00000000000E+00  0.00000000000E+00  0.39853197615E+03  0.89297447057E+03  0.79910929732E+03 0.  0.
        4    1    3    3  502    0 -0.43286724248E+02 -0.47519899683E+02 -0.24140312427E+03  0.24981785899E+03  0.12699999809E+01 0.  1.
       -4    1    3    3    0  502  0.43286724248E+02  0.47519899683E+02  0.63993510042E+03  0.64315661158E+03  0.12699999809E+01 0. -1.
</event>
<event>
 5   0  0.4169155E-04  0.7998499E+03  0.7818609E-02  0.9560234E-01
       -1   -1    0    0    0  501  0.00000000000E+00  0.00000000000E+00  0.18161893820E+03  0.18161893827E+03  0.50400001928E-02 0. -1.
        1   -1    0    0  501    0  0.00000000000E+00  0.00000000000E+00 -0.88063492072E+03  0.88063492073E+03  0.50400001928E-02 0.  1.
    10030    2    1    2    0    0  0.00000000000E+00  0.00000000000E+00 -0.69901598251E+03  0.10622538590E+04  0.79984993414E+03 0.  0.
        4    1    3    3  502    0  0.34606049804E+03  0.13992073610E+03 -0.54013381028E+03  0.65656821931E+03  0.12699999809E+01 0.  1.
       -4    1    3    3    0  502 -0.34606049804E+03 -0.13992073610E+03 -0.15888217224E+03  0.40568563969E+03  0.12699999809E+01 0. -1.
</event>
<event>
 5   0  0.6672462E-04  0.7992129E+03  0.7818609E-02  0.9561157E-01
        2   -1    0    0  501    0  0.00000000000E+00  0.00000000000E+00  0.51799695667E+03  0.51799695667E+03  0.25500000920E-02 0. -1.
       -2   -1    0    0    0  501  0.00000000000E+00  0.00000000000E+00 -0.30827462653E+03  0.30827462654E+03  0.25500000920E-02 0.  1.
    10030    2    1    2    0    0  0.00000000000E+00  0.00000000000E+00  0.20972233014E+03  0.82627158322E+03  0.79921290873E+03 0.  0.
        5    1    3    3  502    0 -0.17533694894E+03  0.21388749445E+03  0.40302141327E+03  0.48881413185E+03  0.46999998093E+01 0. -1.
       -5    1    3    3    0  502  0.17533694894E+03 -0.21388749445E+03 -0.19329908313E+03  0.33745745137E+03  0.46999998093E+01 0.  1.
</event>
<event>
 5   0  0.6593118E-04  0.7999912E+03  0.7818609E-02  0.9560030E-01
       -2   -1    0    0    0  501  0.00000000000E+00  0.00000000000E+00  0.25904327758E+03  0.25904327759E+03  0.25500000920E-02 0.  1.
        2   -1    0    0  501    0  0.00000000000E+00  0.00000000000E+00 -0.61764380982E+03  0.61764380982E+03  0.25500000920E-02 0. -1.
    10030    2    1    2    0    0  0.00000000000E+00  0.00000000000E+00 -0.35860053224E+03  0.87668708741E+03  0.79999119215E+03 0.  0.
        1    1    3    3  502    0  0.10750477043E+01  0.78807937944E+02 -0.60905025150E+03  0.61412869636E+03  0.50400001928E-02 0. -1.
       -1    1    3    3    0  502 -0.10750477043E+01 -0.78807937944E+02  0.25044971926E+03  0.26255839105E+03  0.50400001928E-02 0.  1.
</event>
<event>
 5   0  0.6593118E-04  0.7985143E+03  0.7818609E-02  0.9562170E-01
       -2   -1    0    0    0  501  0.00000000000E+00  0.00000000000E+00  0.58992747338E+03  0.58992747339E+03  0.25500000920E-02 0. -1.
        2   -1    0    0  501    0  0.00000000000E+00  0.00000000000E+00 -0.27021337099E+03  0.27021337100E+03  0.25500000920E-02 0.  1.
    10030    2    1    2    0    0  0.00000000000E+00  0.00000000000E+00  0.31971410239E+03  0.86014084439E+03  0.79851434860E+03 0.  0.
        1    1    3    3  502    0 -0.20167793558E+03  0.44932533785E+02 -0.20814238139E+03  0.29328513983E+03  0.50400001928E-02 0.  1.
       -1    1    3    3    0  502  0.20167793558E+03 -0.44932533785E+02  0.52785648378E+03  0.56685570455E+03  0.50400001928E-02 0. -1.
</event>
<event>
 5   0  0.2736375E-04  0.8002244E+03  0.7818609E-02  0.9559692E-01
        3   -1    0    0  501    0  0.00000000000E+00  0.00000000000E+00  0.25476013605E+03  0.25476015607E+03  0.10100000352E+00 0. -1.
       -3   -1    0    0    0  501  0.00000000000E+00  0.00000000000E+00 -0.62839405483E+03  0.62839406295E+03  0.10100000352E+00 0.  1.
    10030    2    1    2    0    0  0.00000000000E+00  0.00000000000E+00 -0.37363391879E+03  0.88315421902E+03  0.80022438685E+03 0.  0.
        3    1    3    3  502    0 -0.37716324705E+03 -0.12933445947E+03 -0.15004361236E+03  0.42601949855E+03  0.10100000352E+00 0. -1.
       -3    1    3    3    0  502  0.37716324705E+03  0.12933445947E+03 -0.22359030643E+03  0.45713472047E+03  0.10100000352E+00 0.  1.
</event>
<event>
 5   0  0.4087283E-04  0.8002523E+03  0.7818609E-02  0.9559652E-01
        1   -1    0    0  501    0  0.00000000000E+00  0.00000000000E+00  0.96530018464E+03  0.96530018465E+03  0.50400001928E-02 0. -1.
       -1   -1    0    0    0  501  0.00000000000E+00  0.00000000000E+00 -0.16585610260E+03  0.16585610268E+03  0.50400001928E-02 0.  1.
    10030    2    1    2    0    0  0.00000000000E+00  0.00000000000E+00  0.79944408204E+03  0.11311562873E+04  0.80025227650E+03 0.  0.
        1    1    3    3  502    0  0.33420204337E+03  0.21553916476E+03  0.46218511777E+03  0.60972388870E+03  0.50400001928E-02 0. -1.
       -1    1    3    3    0  502 -0.33420204337E+03 -0.21553916476E+03  0.33725896426E+03  0.52143239862E+03  0.50400001928E-02 0.  1.
</event>
<event>
 5   0  0.6672462E-04  0.7998304E+03  0.7818609E-02  0.9560263E-01
        2   -1    0    0  501    0  0.00000000000E+00  0.00000000000E+00  0.14093861976E+04  0.14093861976E+04  0.25500000920E-02 0. -1.
       -2   -1    0    0    0  501  0.00000000000E+00  0.00000000000E+00 -0.11347646944E+03  0.11347646947E+03  0.25500000920E-02 0.  1.
    10030    2    1    2    0    0  0.00000000000E+00  0.00000000000E+00  0.12959097282E+04  0.15228626671E+04  0.79983040655E+03 0.  0.
        5    1    3    3  502    0 -0.20227160422E+03  0.11626410056E+03  0.29588722894E+02  0.23522058897E+03  0.46999998093E+01 0.  1.
       -5    1    3    3    0  502  0.20227160422E+03 -0.11626410056E+03  0.12663210053E+04  0.12876420781E+04  0.46999998093E+01 0. -1.
</event>
<event>
 5   0  0.7133039E-04  0.8004297E+03  0.7818609E-02  0.9559395E-01
        2   -1    0    0  501    0  0.00000000000E+00  0.00000000000E+00  0.11104815021E+04  0.11104815021E+04  0.25500000920E-02 0. -1.
       -2   -1    0    0    0  501  0.00000000000E+00  0.00000000000E+00 -0.14423645048E+03  0.14423645050E+03  0.25500000920E-02 0.  1.
    10030    2    1    2    0    0  0.00000000000E+00  0.00000000000E+00  0.96624505167E+03  0.12547179526E+04  0.80042966013E+03 0.  0.
        2    1    3    3  502    0  0.24916387969E+02  0.10762321637E+03 -0.11986360165E+03  0.16300572413E+03  0.25500000920E-02 0.  1.
       -2    1    3    3    0  502 -0.24916387969E+02 -0.10762321637E+03  0.10861086533E+04  0.10917122285E+04  0.25500000920E-02 0. -1.
</event>
<event>
 5   0  0.4392552E-04  0.7998147E+03  0.7818609E-02  0.9560285E-01
       -1   -1    0    0    0  501  0.00000000000E+00  0.00000000000E+00  0.10798280786E+04  0.10798280786E+04  0.50400001928E-02 0. -1.
        1   -1    0    0  501    0  0.00000000000E+00  0.00000000000E+00 -0.14810309080E+03  0.14810309088E+03  0.50400001928E-02 0.  1.
    10030    2    1    2    0    0  0.00000000000E+00  0.00000000000E+00  0.93172498781E+03  0.12279311695E+04  0.79981466860E+03 0.  0.
        5    1    3    3  502    0 -0.18794146150E+03 -0.13966008441E+03  0.96352874375E+03  0.99158290735E+03  0.46999998093E+01 0. -1.
       -5    1    3    3    0  502  0.18794146150E+03  0.13966008441E+03 -0.31803755943E+02  0.23634826214E+03  0.46999998093E+01 0.  1.
</event>
<event>
 5   0  0.6593118E-04  0.8000525E+03  0.7818609E-02  0.9559941E-01
        2   -1    0    0  501    0  0.00000000000E+00  0.00000000000E+00  0.49606611064E+03  0.49606611065E+03  0.25500000920E-02 0.  1.
       -2   -1    0    0    0  501  0.00000000000E+00  0.00000000000E+00 -0.32258000490E+03  0.32258000491E+03  0.25500000920E-02 0. -1.
    10030    2    1    2    0    0  0.00000000000E+00  0.00000000000E+00  0.17348610575E+03  0.81864611556E+03  0.80005251929E+03 0.  0.
        1    1    3    3  502    0  0.10981980843E+03 -0.40013232933E+01  0.48031784823E+03  0.49272876541E+03  0.50400001928E-02 0.  1.
       -1    1    3    3    0  502 -0.10981980843E+03  0.40013232933E+01 -0.30683174248E+03  0.32591735015E+03  0.50400001928E-02 0. -1.
</event>
<event>
 5   0  0.6801147E-04  0.8001999E+03  0.7818609E-02  0.9559728E-01
        2   -1    0    0  501    0  0.00000000000E+00  0.00000000000E+00  0.72241711367E+03  0.72241711367E+03  0.25500000920E-02 0. -1.
       -2   -1    0    0    0  501  0.00000000000E+00  0.00000000000E+00 -0.22158938722E+03  0.22158938723E+03  0.25500000920E-02 0.  1.
    10030    2    1    2    0    0  0.00000000000E+00  0.00000000000E+00  0.50082772645E+03  0.94400650091E+03  0.80019988889E+03 0.  0.
        4    1    3    3  502    0  0.68308920085E+02  0.36098420968E+03  0.63502271608E+02  0.37284026017E+03  0.12699999809E+01 0.  1.
       -4    1    3    3    0  502 -0.68308920085E+02 -0.36098420968E+03  0.43732545484E+03  0.57116624074E+03  0.12699999809E+01 0. -1.
</event>
<event>
 5   0  0.6593118E-04  0.7995565E+03  0.7818609E-02  0.9560659E-01
       -2   -1    0    0    0  501  0.00000000000E+00  0.00000000000E+00  0.19249135722E+03  0.19249135724E+03  0.25500000920E-02 0. -1.
        2   -1    0    0  501    0  0.00000000000E+00  0.00000000000E+00 -0.83028476748E+03  0.83028476748E+03  0.25500000920E-02 0.  1.
    10030    2    1    2    0    0  0.00000000000E+00  0.00000000000E+00 -0.63779341025E+03  0.10227761247E+04  0.79955648152E+03 0.  0.
        1    1    3    3  502    0  0.10310181903E+03  0.22348005291E+03 -0.72188757691E+03  0.76268931608E+03  0.50400001928E-02 0.  1.
       -1    1    3    3    0  502 -0.10310181903E+03 -0.22348005291E+03  0.84094166660E+02  0.26008680864E+03  0.50400001928E-02 0. -1.
</event>
<event>
 5   0  0.7133039E-04  0.8005530E+03  0.7818609E-02  0.9559217E-01
       -2   -1    0    0    0  501  0.00000000000E+00  0.00000000000E+00  0.21053050985E+03  0.21053050986E+03  0.25500000920E-02 0.  1.
        2   -1    0    0  501    0  0.00000000000E+00  0.00000000000E+00 -0.76103589514E+03  0.76103589515E+03  0.25500000920E-02 0. -1.
    10030    2    1    2    0    0  0.00000000000E+00  0.00000000000E+00 -0.55050538530E+03  0.97156640501E+03  0.80055299644E+03 0.  0.
        2    1    3    3  502    0 -0.76320057667E+02  0.17016332595E+02 -0.75167659294E+03  0.75573276174E+03  0.25500000920E-02 0. -1.
       -2    1    3    3    0  502  0.76320057667E+02 -0.17016332595E+02  0.20117120765E+03  0.21583364328E+03  0.25500000920E-02 0.  1.
</event>
<event>
 5   0  0.4104786E-04  0.8004293E+03  0.7818609E-02  0.9559396E-01
       -1   -1    0    0    0  501  0.00000000000E+00  0.00000000000E+00  0.18354650765E+03  0.18354650772E+03  0.50400001928E-02 0. -1.
        1   -1    0    0  501    0  0.00000000000E+00  0.00000000000E+00 -0.87264945775E+03  0.87264945776E+03  0.50400001928E-02 0.  1.
    10030    2    1    2    0    0  0.00000000000E+00  0.00000000000E+00 -0.68910295010E+03  0.10561959655E+04  0.80042928585E+03 0.  0.
        2    1    3    3  502    0 -0.32618725911E+03 -0.92474945163E+02 -0.63945768916E+02  0.34502000646E+03  0.25500000920E-02 0. -1.
       -2    1    3    3    0  502  0.32618725911E+03  0.92474945163E+02 -0.62515718119E+03  0.71117595902E+03  0.25500000920E-02 0.  1.
</event>
<event>
 5   0  0.4104786E-04  0.8000469E+03  0.7818609E-02  0.9559949E-01
       -1   -1    0    0    0  501  0.00000000000E+00  0.00000000000E+00  0.31036875389E+03  0.31036875393E+03  0.50400001928E-02 0.  1.
        1   -1    0    0  501    0  0.00000000000E+00  0.00000000000E+00 -0.51557621913E+03  0.51557621916E+03  0.50400001928E-02 0. -1.
    10030    2    1    2    0    0  0.00000000000E+00  0.00000000000E+00 -0.20520746524E+03  0.82594497309E+03  0.80004687037E+03 0.  0.
        2    1    3    3  502    0  0.95176028044E+02  0.26850130268E+03 -0.39252777613E+03  0.48500461946E+03  0.25500000920E-02 0. -1.
       -2    1    3    3    0  502 -0.95176028044E+02 -0.26850130268E+03  0.18732031089E+03  0.34094035363E+03  0.25500000920E-02 0.  1.
</event>
<event>
 5   0  0.6593118E-04  0.7967484E+03  0.7818609E-02  0.9564736E-01
       -2   -1    0    0    0  501  0.00000000000E+00  0.00000000000E+00  0.23642285927E+03  0.23642285928E+03  0.25500000920E-02 0.  1.
        2   -1    0    0  501    0  0.00000000000E+00  0.00000000000E+00 -0.67126343006E+03  0.67126343006E+03  0.25500000920E-02 0. -1.
    10030    2    1    2    0    0  0.00000000000E+00  0.00000000000E+00 -0.43484057079E+03  0.90768628934E+03  0.79674844076E+03 0.  0.
        1    1    3    3  502    0  0.34807011661E+03 -0.95072780763E+02 -0.40978085483E+03  0.54599632666E+03  0.50400001928E-02 0. -1.
       -1    1    3    3    0  502 -0.34807011661E+03  0.95072780763E+02 -0.25059715961E+02  0.36168996268E+03  0.50400001928E-02 0.  1.
</event>
<event>
 5   0  0.4087283E-04  0.7998612E+03  0.7818609E-02  0.9560218E-01
       -1   -1    0    0    0  501  0.00000000000E+00  0.00000000000E+00  0.85470841130E+03  0.85470841131E+03  0.50400001928E-02 0. -1.
        1   -1    0    0  501    0  0.00000000000E+00  0.00000000000E+00 -0.18713340411E+03  0.18713340418E+03  0.50400001928E-02 0.  1.
    10030    2    1    2    0    0  0.00000000000E+00  0.00000000000E+00  0.66757500719E+03  0.10418418155E+04  0.79986122439E+03 0.  0.
        1    1    3    3  502    0 -0.10396857043E+03 -0.15638286733E+03 -0.12613487777E+03  0.22621908020E+03  0.50400001928E-02 0.  1.
       -1    1    3    3    0  502  0.10396857043E+03  0.15638286733E+03  0.79370988496E+03  0.81562273530E+03  0.50400001928E-02 0. -1.
</event>
<event>
 5   0  0.4392552E-04  0.7999193E+03  0.7818609E-02  0.9560134E-01
       -1   -1    0    0    0  501  0.00000000000E+00  0.00000000000E+00  0.47853000875E+03  0.47853000877E+03  0.50400001928E-02 0.  1.
        1   -1    0    0  501    0  0.00000000000E+00  0.00000000000E+00 -0.33428980379E+03  0.33428980382E+03  0.50400001928E-02 0. -1.
    10030    2    1    2    0    0  0.00000000000E+00  0.00000000000E+00  0.14424020496E+03  0.81281981260E+03  0.79991925282E+03 0.  0.
        5    1    3    3  502    0 -0.39885377079E+03 -0.24365507812E+02  0.55497665924E+02  0.40346014595E+03  0.46999998093E+01 0.  1.
       -5    1    3    3    0  502  0.39885377079E+03  0.24365507812E+02  0.88742539038E+02  0.40935966665E+03  0.46999998093E+01 0. -1.
</event>
<event>
 5   0  0.6593118E-04  0.7997755E+03  0.7818609E-02  0.9560342E-01
       -2   -1    0    0    0  501  0.00000000000E+00  0.00000000000E+00  0.37570595807E+03  0.37570595807E+03  0.25500000920E-02 0. -1.
        2   -1    0    0  501    0  0.00000000000E+00  0.00000000000E+00 -0.42562592981E+03  0.42562592982E+03  0.25500000920E-02 0.  1.
    10030    2    1    2    0    0  0.00000000000E+00  0.00000000000E+00 -0.49919971745E+02  0.80133188789E+03  0.79977546285E+03 0.  0.
        1    1    3    3  502    0 -0.20756174902E+03  0.26214387369E+03  0.19480429028E+03  0.38697545362E+03  0.50400001928E-02 0. -1.
       -1    1    3    3    0  502  0.20756174902E+03 -0.26214387369E+03 -0.24472426203E+03  0.41435643427E+03  0.50400001928E-02 0.  1.
</event>
<event>
 5   0  0.4169155E-04  0.8001711E+03  0.7818609E-02  0.9559770E-01
        1   -1    0    0  501    0  0.00000000000E+00  0.00000000000E+00  0.18334979155E+04  0.18334979155E+04  0.50400001928E-02 0. -1.
       -1   -1    0    0    0  501  0.00000000000E+00  0.00000000000E+00 -0.87302220773E+02  0.87302220919E+02  0.50400001928E-02 0.  1.
    10030    2    1    2    0    0  0.00000000000E+00  0.00000000000E+00  0.17461956947E+04  0.19208001364E+04  0.80017108159E+03 0.  0.
        4    1    3    3  502    0  0.60841647046E+01 -0.23237002730E+03  0.16547649930E+04  0.16710121608E+04  0.12699999809E+01 0. -1.
       -4    1    3    3    0  502 -0.60841647046E+01  0.23237002730E+03  0.91430701751E+02  0.24978797563E+03  0.12699999809E+01 0.  1.
</event>
<event>
 5   0  0.7133039E-04  0.7996235E+03  0.7818609E-02  0.9560562E-01
       -2   -1    0    0    0  501  0.00000000000E+00  0.00000000000E+00  0.16986954221E+03  0.16986954223E+03  0.25500000920E-02 0. -1.
        2   -1    0    0  501    0  0.00000000000E+00  0.00000000000E+00 -0.94101293012E+03  0.94101293013E+03  0.25500000920E-02 0.  1.
    10030    2    1    2    0    0  0.00000000000E+00  0.00000000000E+00 -0.77114338791E+03  0.11108824724E+04  0.79962350057E+03 0.  0.
        2    1    3    3  502    0  0.31386854057E+03  0.92994735561E+02 -0.66683653021E+02  0.33407812138E+03  0.25500000920E-02 0. -1.
       -2    1    3    3    0  502 -0.31386854057E+03 -0.92994735561E+02 -0.70445973489E+03  0.77680435097E+03  0.25500000920E-02 0.  1.
</event>
<event>
 5   0  0.4169155E-04  0.8005590E+03  0.7818609E-02  0.9559208E-01
        1   -1    0    0  501    0  0.00000000000E+00  0.00000000000E+00  0.69907697026E+03  0.69907697028E+03  0.50400001928E-02 0. -1.
       -1   -1    0    0    0  501  0.00000000000E+00  0.00000000000E+00 -0.22919320082E+03  0.22919320087E+03  0.50400001928E-02 0.  1.
    10030    2    1    2    0    0  0.00000000000E+00  0.00000000000E+00  0.46988376944E+03  0.92827017115E+03  0.80055902584E+03 0.  0.
        4    1    3    3  502    0 -0.17655089611E+03  0.15335170003E+03 -0.14174415574E+03  0.27345928656E+03  0.12699999809E+01 0.  1.
       -4    1    3    3    0  502  0.17655089611E+03 -0.15335170003E+03  0.61162792518E+03  0.65481088459E+03  0.12699999809E+01 0. -1.
</event>
<event>
 5   0  0.4087283E-04  0.7990970E+03  0.7818609E-02  0.9561325E-01
        1   -1    0    0  501    0  0.00000000000E+00  0.00000000000E+00  0.99674243900E+03  0.99674243901E+03  0.50400001928E-02 0.  1.
       -1   -1    0    0    0  501  0.00000000000E+00  0.00000000000E+00 -0.16016074525E+03  0.16016074533E+03  0.50400001928E-02 0. -1.
    10030    2    1    2    0    0  0.00000000000E+00  0.00000000000E+00  0.83658169375E+03  0.11569031843E+04  0.79909702016E+03 0.  0.
        1    1    3    3  502    0  0.20236536724E+03  0.34438662771E+03  0.40493365858E+03  0.56879272066E+03  0.50400001928E-02 0. -1.
       -1    1    3    3    0  502 -0.20236536724E+03 -0.34438662771E+03  0.43164803516E+03  0.58811046368E+03  0.50400001928E-02 0.  1.
</event>
<event>
 5   0  0.6672462E-04  0.8007496E+03  0.7818609E-02  0.9558933E-01
        2   -1    0    0  501    0  0.00000000000E+00  0.00000000000E+00  0.45604339654E+03  0.45604339654E+03  0.25500000920E-02 0.  1.
       -2   -1    0    0    0  501  0.00000000000E+00  0.00000000000E+00 -0.35150162649E+03  0.35150162650E+03  0.25500000920E-02 0. -1.
    10030    2    1    2    0    0  0.00000000000E+00  0.00000000000E+00  0.10454177005E+03  0.80754502304E+03  0.80074963788E+03 0.  0.
        5    1    3    3  502    0  0.11224867248E+03  0.87695245547E+02 -0.32505353213E+03  0.35492549826E+03  0.46999998093E+01 0. -1.
       -5    1    3    3    0  502 -0.11224867248E+03 -0.87695245547E+02  0.42959530218E+03  0.45261952478E+03  0.46999998093E+01 0.  1.
</event>
<event>
 5   0  0.4086111E-04  0.8000862E+03  0.7818609E-02  0.9559892E-01
       -1   -1    0    0    0  501  0.00000000000E+00  0.00000000000E+00  0.10095951836E+03  0.10095951848E+03  0.50400001928E-02 0.  1.
        1   -1    0    0  501    0  0.00000000000E+00  0.00000000000E+00 -0.15851352600E+04  0.15851352600E+04  0.50400001928E-02 0. -1.
    10030    2    1    2    0    0  0.00000000000E+00  0.00000000000E+00 -0.14841757416E+04  0.16860947785E+04  0.80008622658E+03 0.  0.
        3    1    3    3  502    0  0.30760232327E+03  0.87432660465E+02 -0.12486112158E+04  0.12889118037E+04  0.10100000352E+00 0. -1.
       -3    1    3    3    0  502 -0.30760232327E+03 -0.87432660465E+02 -0.23556452584E+03  0.39718297475E+03  0.10100000352E+00 0.  1.
</event>
<event>
 5   0  0.4086111E-04  0.7978666E+03  0.7818609E-02  0.9563110E-01
        1   -1    0    0  501    0  0.00000000000E+00  0.00000000000E+00  0.20182012553E+03  0.20182012559E+03  0.50400001928E-02 0.  1.
       -1   -1    0    0    0  501  0.00000000000E+00  0.00000000000E+00 -0.78856254268E+03  0.78856254269E+03  0.50400001928E-02 0. -1.
    10030    2    1    2    0    0  0.00000000000E+00  0.00000000000E+00 -0.58674241715E+03  0.99038266829E+03  0.79786663394E+03 0.  0.
        3    1    3    3  502    0 -0.25739674089E+03 -0.30413810095E+03 -0.26871000443E+03  0.48058104764E+03  0.10100000352E+00 0.  1.
       -3    1    3    3    0  502  0.25739674089E+03  0.30413810095E+03 -0.31803241272E+03  0.50980162064E+03  0.10100000352E+00 0. -1.
</event>
<event>
 5   0  0.7133039E-04  0.8001663E+03  0.7818609E-02  0.9559776E-01
       -2   -1    0    0    0  501  0.00000000000E+00  0.00000000000E+00  0.10377929943E+03  0.10377929946E+03  0.25500000920E-02 0. -1.
        2   -1    0    0  501    0  0.00000000000E+00  0.00000000000E+00 -0.15423741974E+04  0.15423741974E+04  0.25500000920E-02 0.  1.
    10030    2    1    2    0    0  0.00000000000E+00  0.00000000000E+00 -0.14385948980E+04  0.16461534969E+04  0.80016626697E+03 0.  0.
        2    1    3    3  502    0  0.21995790269E+03  0.32992449591E+03 -0.60976166239E+03  0.72735200342E+03  0.25500000920E-02 0.  1.
       -2    1    3    3    0  502 -0.21995790269E+03 -0.32992449591E+03 -0.82883323562E+03  0.91880149349E+03  0.25500000920E-02 0. -1.
</event>
<event>
 5   0  0.6801147E-04  0.7999030E+03  0.7818609E-02  0.9560158E-01
        2   -1    0    0  501    0  0.00000000000E+00  0.00000000000E+00  0.70783137135E+03  0.70783137135E+03  0.25500000920E-02 0.  1.
       -2   -1    0    0    0  501  0.00000000000E+00  0.00000000000E+00 -0.22598769937E+03  0.22598769939E+03  0.25500000920E-02 0. -1.
    10030    2    1    2    0    0  0.00000000000E+00  0.00000000000E+00  0.48184367198E+03  0.93381907074E+03  0.79990295203E+03 0.  0.
        4    1    3    3  502    0  0.24635834220E+02  0.23486020662E+03 -0.13590810043E+03  0.27246810023E+03  0.12699999809E+01 0. -1.
       -4    1    3    3    0  502 -0.24635834220E+02 -0.23486020662E+03  0.61775177241E+03  0.66135097051E+03  0.12699999809E+01 0.  1.
</event>
<event>
 5   0  0.4086111E-04  0.8000798E+03  0.7818609E-02  0.9559902E-01
        1   -1    0    0  501    0  0.00000000000E+00  0.00000000000E+00  0.18982848925E+03  0.18982848932E+03  0.50400001928E-02 0.  1.
       -1   -1    0    0    0  501  0.00000000000E+00  0.00000000000E+00 -0.84303427772E+03  0.84303427774E+03  0.50400001928E-02 0. -1.
    10030    2    1    2    0    0  0.00000000000E+00  0.00000000000E+00 -0.65320578847E+03  0.10328627671E+04  0.80007980445E+03 0.  0.
        3    1    3    3  502    0 -0.99079546225E+02 -0.11161784934E+03  0.15254053988E+03  0.21341023237E+03  0.10100000352E+00 0.  1.
       -3    1    3    3    0  502  0.99079546225E+02  0.11161784934E+03 -0.80574632834E+03  0.81945253469E+03  0.10100000352E+00 0. -1.
</event>
<event>
 5   0  0.7133039E-04  0.8007464E+03  0.7818609E-02  0.9558937E-01
       -2   -1    0    0    0  501  0.00000000000E+00  0.00000000000E+00  0.83903422984E+02  0.83903423023E+02  0.25500000920E-02 0. -1.
        2   -1    0    0  501    0  0.00000000000E+00  0.00000000000E+00 -0.19105143123E+04  0.19105143123E+04  0.25500000920E-02 0.  1.
    10030    2    1    2    0    0  0.00000000000E+00  0.00000000000E+00 -0.18266108893E+04  0.19944177354E+04  0.80074637809E+03 0.  0.
        2    1    3    3  502    0 -0.43451912790E+02 -0.30990873695E+03 -0.29129273927E+03  0.42753123152E+03  0.25500000920E-02 0. -1.
       -2    1    3    3    0  502  0.43451912790E+02  0.30990873695E+03 -0.15353181501E+04  0.15668865038E+04  0.25500000920E-02 0.  1.
</event>
<event>
 5   0  0.6801147E-04  0.7995809E+03  0.7818609E-02  0.9560624E-01
       -2   -1    0    0    0  501  0.00000000000E+00  0.00000000000E+00  0.36502057647E+03  0.36502057648E+03  0.25500000920E-02 0.  1.
        2   -1    0    0  501    0  0.00000000000E+00  0.00000000000E+00 -0.43787230081E+03  0.43787230082E+03  0.25500000920E-02 0. -1.
    10030    2    1    2    0    0  0.00000000000E+00  0.00000000000E+00 -0.72851724336E+02  0.80289287730E+03  0.79958088939E+03 0.  0.
        4    1    3    3  502    0 -0.36148028850E+03 -0.23083811425E+02 -0.20633052908E+03  0.41686300082E+03  0.12699999809E+01 0.  1.
       -4    1    3    3    0  502  0.36148028850E+03  0.23083811425E+02  0.13347880474E+03  0.38602987648E+03  0.12699999809E+01 0. -1.
</event>
<event>
 5   0  0.6970013E-04  0.8001208E+03  0.7818609E-02  0.9559842E-01
       -2   -1    0    0    0  501  0.00000000000E+00  0.00000000000E+00  0.10109795775E+03  0.10109795778E+03  0.25500000920E-02 0.  1.
        2   -1    0    0  501    0  0.00000000000E+00  0.00000000000E+00 -0.15831015406E+04  0.15831015406E+04  0.25500000920E-02 0. -1.
    10030    2    1    2    0    0  0.00000000000E+00  0.00000000000E+00 -0.14820035829E+04  0.16841994984E+04  0.80012082263E+03 0.  0.
        3    1    3    3  502    0  0.27130871641E+03  0.19385615057E+03 -0.12062806723E+04  0.12515197550E+04  0.10100000352E+00 0. -1.
       -3    1    3    3    0  502 -0.27130871641E+03 -0.19385615057E+03 -0.27572291063E+03  0.43267974341E+03  0.10100000352E+00 0.  1.
</event>
<event>
 5   0  0.4086111E-04  0.7993036E+03  0.7818609E-02  0.9561026E-01
       -1   -1    0    0    0  501  0.00000000000E+00  0.00000000000E+00  0.12765933756E+03  0.12765933766E+03  0.50400001928E-02 0.  1.
        1   -1    0    0  501    0  0.00000000000E+00  0.00000000000E+00 -0.12511544745E+04  0.12511544745E+04  0.50400001928E-02 0. -1.
    10030    2    1    2    0    0  0.00000000000E+00  0.00000000000E+00 -0.11234951369E+04  0.13788138121E+04  0.79930357555E+03 0.  0.
        3    1    3    3  502    0 -0.38198884903E+03 -0.70710252823E+02 -0.72362495518E+03  0.82130902016E+03  0.10100000352E+00 0. -1.
       -3    1    3    3    0  502  0.38198884903E+03  0.70710252823E+02 -0.39987018172E+03  0.55750479197E+03  0.10100000352E+00 0.  1.
</event>
<event>
 5   0  0.7133039E-04  0.7996408E+03  0.7818609E-02  0.9560537E-01
       -2   -1    0    0    0  501  0.00000000000E+00  0.00000000000E+00  0.10825843037E+03  0.10825843040E+03  0.25500000920E-02 0.  1.
        2   -1    0    0  501    0  0.00000000000E+00  0.00000000000E+00 -0.14766180297E+04  0.14766180297E+04  0.25500000920E-02 0. -1.
    10030    2    1    2    0    0  0.00000000000E+00  0.00000000000E+00 -0.13683595993E+04  0.15848764601E+04  0.79964079481E+03 0.  0.
        2    1    3    3  502    0 -0.15518568412E+02 -0.39431227093E+03 -0.55675559199E+03  0.68242199715E+03  0.25500000920E-02 0.  1.
       -2    1    3    3    0  502  0.15518568412E+02  0.39431227093E+03 -0.81160400735E+03  0.90245446296E+03  0.25500000920E-02 0. -1.
</event>
<event>
 5   0  0.4392552E-04  0.7980137E+03  0.7818609E-02  0.9562897E-01
       -1   -1    0    0    0  501  0.00000000000E+00  0.00000000000E+00  0.53176230638E+03  0.53176230641E+03  0.50400001928E-02 0. -1.
        1   -1    0    0  501    0  0.00000000000E+00  0.00000000000E+00 -0.29939407664E+03  0.29939407668E+03  0.50400001928E-02 0.  1.
    10030    2    1    2    0    0  0.00000000000E+00  0.00000000000E+00  0.23236822974E+03  0.83115638309E+03  0.79801374610E+03 0.  0.
        5    1    3    3  502    0  0.38486916583E+03 -0.10301350985E+03  0.94130766997E+02  0.40941268827E+03  0.46999998093E+01 0. -1.
       -5    1    3    3    0  502 -0.38486916583E+03  0.10301350985E+03  0.13823746274E+03  0.42174369482E+03  0.46999998093E+01 0.  1.
</event>
<event>
 5   0  0.4104786E-04  0.7992801E+03  0.7818609E-02  0.9561060E-01
        1   -1    0    0  501    0  0.00000000000E+00  0.00000000000E+00  0.74838061651E+03  0.74838061653E+03  0.50400001928E-02 0.  1.
       -1   -1    0    0    0  501  0.00000000000E+00  0.00000000000E+00 -0.21341035918E+03  0.21341035924E+03  0.50400001928E-02 0. -1.
    10030    2    1    2    0    0  0.00000000000E+00  0.00000000000E+00  0.53497025734E+03  0.96179097576E+03  0.79928011662E+03 0.  0.
        2    1    3    3  502    0 -0.85610046541E+01  0.30963104758E+03 -0.36380363530E+02  0.31187851366E+03  0.25500000920E-02 0. -1.
       -2    1    3    3    0  502  0.85610046541E+01 -0.30963104758E+03  0.57135062087E+03  0.64991246210E+03  0.25500000920E-02 0.  1.
</event>
<event>
 5   0  0.7133039E-04  0.7995286E+03  0.7818609E-02  0.9560700E-01
       -2   -1    0    0    0  501  0.00000000000E+00  0.00000000000E+00  0.61375819413E+03  0.61375819413E+03  0.25500000920E-02 0.  1.
        2   -1    0    0  501    0  0.00000000000E+00  0.00000000000E+00 -0.26038182105E+03  0.26038182107E+03  0.25500000920E-02 0. -1.
    10030    2    1    2    0    0  0.00000000000E+00  0.00000000000E+00  0.35337637307E+03  0.87414001520E+03  0.79952855179E+03 0.  0.
        2    1    3    3  502    0 -0.30078605075E+03 -0.24061444482E+03  0.29364738183E+03  0.48435146768E+03  0.25500000920E-02 0.  1.
       -2    1    3    3    0  502  0.30078605075E+03  0.24061444482E+03  0.59728991242E+02  0.38978854752E+03  0.25500000920E-02 0. -1.
</event>
<event>
 5   0  0.4086111E-04  0.8006917E+03  0.7818609E-02  0.9559016E-01
       -1   -1    0    0    0  501  0.00000000000E+00  0.00000000000E+00  0.14864349191E+03  0.14864349199E+03  0.50400001928E-02 0.  1.
        1   -1    0    0  501    0  0.00000000000E+00  0.00000000000E+00 -0.10782632177E+04  0.10782632177E+04  0.50400001928E-02 0. -1.
    10030    2    1    2    0    0  0.00000000000E+00  0.00000000000E+00 -0.92961972577E+03  0.12269067097E+04  0.80069172578E+03 0.  0.
        3    1    3    3  502    0  0.98506774249E+02  0.17469306297E+03  0.66120203272E+02  0.21117088413E+03  0.10100000352E+00 0.  1.
       -3    1    3    3    0  502 -0.98506774249E+02 -0.17469306297E+03 -0.99573992904E+03  0.10157358256E+04  0.10100000352E+00 0. -1.
</event>
<event>
 5   0  0.4086111E-04  0.8005321E+03  0.7818609E-02  0.9559247E-01
        1   -1    0    0  501    0  0.00000000000E+00  0.00000000000E+00  0.49918840228E+03  0.49918840230E+03  0.50400001928E-02 0. -1.
       -1   -1    0    0    0  501  0.00000000000E+00  0.00000000000E+00 -0.32094674918E+03  0.32094674922E+03  0.50400001928E-02 0.  1.
    10030    2    1    2    0    0  0.00000000000E+00  0.00000000000E+00  0.17824165310E+03  0.82013515152E+03  0.80053206048E+03 0.  0.
        3    1    3    3  502    0  0.35244176816E+03 -0.15347105104E+02 -0.10461882496E+03  0.36796174029E+03  0.10100000352E+00 0.  1.
       -3    1    3    3    0  502 -0.35244176816E+03  0.15347105104E+02  0.28286047806E+03  0.45217341123E+03  0.10100000352E+00 0. -1.
</event>
<event>
 5   0  0.4086111E-04  0.8000098E+03  0.7818609E-02  0.9560003E-01
        1   -1    0    0  501    0  0.00000000000E+00  0.00000000000E+00  0.25071606032E+04  0.25071606032E+04  0.50400001928E-02 0.  1.
       -1   -1    0    0    0  501  0.00000000000E+00  0.00000000000E+00 -0.63818778444E+02  0.63818778643E+02  0.50400001928E-02 0. -1.
    10030    2    1    2    0    0  0.00000000000E+00  0.00000000000E+00  0.24433418247E+04  0.25709793818E+04  0.80000981824E+03 0.  0.
        3    1    3    3  502    0  0.18790680651E+03 -0.53906911764E+01  0.86981252903E+02  0.20713226702E+03  0.10100000352E+00 0. -1.
       -3    1    3    3    0  502 -0.18790680651E+03  0.53906911764E+01  0.23563605718E+04  0.23638471148E+04  0.10100000352E+00 0.  1.
</event>
<event>
 5   0  0.2736375E-04  0.8001046E+03  0.7818609E-02  0.9559866E-01
       -4   -1    0    0    0  501  0.00000000000E+00  0.00000000000E+00  0.26118999635E+03  0.26119308393E+03  0.12699999809E+01 0. -1.
        4   -1    0    0  501    0  0.00000000000E+00  0.00000000000E+00 -0.61273369910E+03  0.61273501525E+03  0.12699999809E+01 0.  1.
    10030    2    1    2    0    0  0.00000000000E+00  0.00000000000E+00 -0.35154370275E+03  0.87392809918E+03  0.80010458541E+03 0.  0.
        5    1    3    3  502    0  0.37070021638E+03 -0.15023876436E+03 -0.16984836182E+03  0.43458128440E+03  0.46999998093E+01 0.  1.
       -5    1    3    3    0  502 -0.37070021638E+03  0.15023876436E+03 -0.18169534092E+03  0.43934681478E+03  0.46999998093E+01 0. -1.
</event>
<event>
 5   0  0.6672462E-04  0.7999320E+03  0.7818609E-02  0.9560116E-01
       -2   -1    0    0    0  501  0.00000000000E+00  0.00000000000E+00  0.12042685878E+03  0.12042685880E+03  0.25500000920E-02 0.  1.
        2   -1    0    0  501    0  0.00000000000E+00  0.00000000000E+00 -0.13283813167E+04  0.13283813167E+04  0.25500000920E-02 0. -1.
    10030    2    1    2    0    0  0.00000000000E+00  0.00000000000E+00 -0.12079544579E+04  0.14488081755E+04  0.79993197023E+03 0.  0.
        5    1    3    3  502    0  0.66155504312E+02 -0.49426354430E+02 -0.13127216511E+04  0.13153249555E+04  0.46999998093E+01 0. -1.
       -5    1    3    3    0  502 -0.66155504312E+02  0.49426354430E+02  0.10476719318E+03  0.13348322002E+03  0.46999998093E+01 0.  1.
</event>
<event>
 5   0  0.4169155E-04  0.7998750E+03  0.7818609E-02  0.9560198E-01
        1   -1    0    0  501    0  0.00000000000E+00  0.00000000000E+00  0.68409811221E+03  0.68409811223E+03  0.50400001928E-02 0. -1.
       -1   -1    0    0    0  501  0.00000000000E+00  0.00000000000E+00 -0.23381148901E+03  0.23381148906E+03  0.50400001928E-02 0.  1.
    10030    2    1    2    0    0  0.00000000000E+00  0.00000000000E+00  0.45028662320E+03  0.91790960129E+03  0.79987498592E+03 0.  0.
        4    1    3    3  502    0  0.12841989336E+02  0.10833261244E+03  0.66669175318E+03  0.67555930773E+03  0.12699999809E+01 0. -1.
       -4    1    3    3    0  502 -0.12841989336E+02 -0.10833261244E+03 -0.21640512997E+03  0.24235029356E+03  0.12699999809E+01 0.  1.
</event>
<event>
 5   0  0.4086111E-04  0.8002899E+03  0.7818609E-02  0.9559598E-01
       -1   -1    0    0    0  501  0.00000000000E+00  0.00000000000E+00  0.15058912429E+03  0.15058912438E+03  0.50400001928E-02 0. -1.
        1   -1    0    0  501    0  0.00000000000E+00  0.00000000000E+00 -0.10632639028E+04  0.10632639028E+04  0.50400001928E-02 0.  1.
    10030    2    1    2    0    0  0.00000000000E+00  0.00000000000E+00 -0.91267477853E+03  0.12138530272E+04  0.80028989766E+03 0.  0.
        3    1    3    3  502    0 -0.55598360427E+02 -0.18794709299E+03 -0.98547091335E+03  0.10047727199E+04  0.10100000352E+00 0.  1.
       -3    1    3    3    0  502  0.55598360427E+02  0.18794709299E+03  0.72796134821E+02  0.20908030728E+03  0.10100000352E+00 0. -1.
</event>
<event>
 5   0  0.7133039E-04  0.8022591E+03  0.7818609E-02  0.9556753E-01
        2   -1    0    0  501    0  0.00000000000E+00  0.00000000000E+00  0.65856606149E+03  0.65856606150E+03  0.25500000920E-02 0.  1.
       -2   -1    0    0    0  501  0.00000000000E+00  0.00000000000E+00 -0.24432616286E+03  0.24432616287E+03  0.25500000920E-02 0. -1.
    10030    2    1    2    0    0  0.00000000000E+00  0.00000000000E+00  0.41423989863E+03  0.90289222437E+03  0.80225910728E+03 0.  0.
        2    1    3    3  502    0  0.37969412450E+03 -0.18054612924E+02  0.35129596999E+03  0.51759294408E+03  0.25500000920E-02 0. -1.
       -2    1    3    3    0  502 -0.37969412450E+03  0.18054612924E+02  0.62943928647E+02  0.38529928029E+03  0.25500000920E-02 0.  1.
</event>
<event>
 5   0  0.2736375E-04  0.7996933E+03  0.7818609E-02  0.9560461E-01
       -4   -1    0    0    0  501  0.00000000000E+00  0.00000000000E+00  0.95753007885E+03  0.95753092107E+03  0.12699999809E+01 0.  1.
        4   -1    0    0  501    0  0.00000000000E+00  0.00000000000E+00 -0.16696514481E+03  0.16696997479E+03  0.12699999809E+01 0. -1.
    10030    2    1    2    0    0  0.00000000000E+00  0.00000000000E+00  0.79056493404E+03  0.11245008959E+04  0.79969328487E+03 0.  0.
        4    1    3    3  502    0  0.35650059638E+03  0.12737134689E+03  0.57623352964E+03  0.68946561104E+03  0.12699999809E+01 0. -1.
       -4    1    3    3    0  502 -0.35650059638E+03 -0.12737134689E+03  0.21433140440E+03  0.43503528482E+03  0.12699999809E+01 0.  1.
</event>
<event>
 5   0  0.6672462E-04  0.7999422E+03  0.7818609E-02  0.9560101E-01
       -2   -1    0    0    0  501  0.00000000000E+00  0.00000000000E+00  0.50332752063E+03  0.50332752064E+03  0.25500000920E-02 0.  1.
        2   -1    0    0  501    0  0.00000000000E+00  0.00000000000E+00 -0.31783854249E+03  0.31783854250E+03  0.25500000920E-02 0. -1.
    10030    2    1    2    0    0  0.00000000000E+00  0.00000000000E+00  0.18548897814E+03  0.82116606314E+03  0.79994221182E+03 0.  0.
        5    1    3    3  502    0 -0.23513396632E+03 -0.12645376377E+03  0.39843084866E+03  0.47963295097E+03  0.46999998093E+01 0.  1.
       -5    1    3    3    0  502  0.23513396632E+03  0.12645376377E+03 -0.21294187052E+03  0.34153311217E+03  0.46999998093E+01 0. -1.
</event>
<event>
 5   0  0.4087283E-04  0.8001598E+03  0.7818609E-02  0.9559786E-01
       -1   -1    0    0    0  501  0.00000000000E+00  0.00000000000E+00  0.19953647057E+03  0.19953647063E+03  0.50400001928E-02 0. -1.
        1   -1    0    0  501    0  0.00000000000E+00  0.00000000000E+00 -0.80217886811E+03  0.80217886812E+03  0.50400001928E-02 0.  1.
    10030    2    1    2    0    0  0.00000000000E+00  0.00000000000E+00 -0.60264239754E+03  0.10017153388E+04  0.80015983440E+03 0.  0.
        1    1    3    3  502    0  0.36566243363E+02  0.18021365403E+03 -0.74613994215E+03  0.76846526568E+03  0.50400001928E-02 0.  1.
       -1    1    3    3    0  502 -0.36566243363E+02 -0.18021365403E+03  0.14349754461E+03  0.23325007307E+03  0.50400001928E-02 0. -1.
</event>
<event>
 5   0  0.6970013E-04  0.7999616E+03  0.7818609E-02  0.9560073E-01
        2   -1    0    0  501    0  0.00000000000E+00  0.00000000000E+00  0.43692978218E+03  0.43692978218E+03  0.25500000920E-02 0. -1.
       -2   -1    0    0    0  501  0.00000000000E+00  0.00000000000E+00 -0.36615644131E+03  0.36615644132E+03  0.25500000920E-02 0.  1.
    10030    2    1    2    0    0  0.00000000000E+00  0.00000000000E+00  0.70773340863E+02  0.80308622351E+03  0.79996163446E+03 0.  0.
        3    1    3    3  502    0 -0.45909990727E+02 -0.34905491734E+03 -0.15519048262E+03  0.38474817565E+03  0.10100000352E+00 0.  1.
       -3    1    3    3    0  502  0.45909990727E+02  0.34905491734E+03  0.22596382348E+03  0.41833804786E+03  0.10100000352E+00 0. -1.
</event>
<event>
 5   0  0.6672462E-04  0.8002250E+03  0.7818609E-02  0.9559691E-01
       -2   -1    0    0    0  501  0.00000000000E+00  0.00000000000E+00  0.12577639725E+03  0.12577639727E+03  0.25500000920E-02 0. -1.
        2   -1    0    0  501    0  0.00000000000E+00  0.00000000000E+00 -0.12728144987E+04  0.12728144987E+04  0.25500000920E-02 0.  1.
    10030    2    1    2    0    0  0.00000000000E+00  0.00000000000E+00 -0.11470381015E+04  0.13985908960E+04  0.80022502343E+03 0.  0.
        5    1    3    3  502    0 -0.20402500113E+03  0.15041309221E+03 -0.32514040225E+02  0.25559646360E+03  0.46999998093E+01 0. -1.
       -5    1    3    3    0  502  0.20402500113E+03 -0.15041309221E+03 -0.11145240612E+04  0.11429944324E+04  0.46999998093E+01 0.  1.
</event>
<event>
 5   0  0.4087283E-04  0.7997665E+03  0.7818609E-02  0.9560355E-01
       -1   -1    0    0    0  501  0.00000000000E+00  0.00000000000E+00  0.19993634636E+03  0.19993634643E+03  0.50400001928E-02 0. -1.
        1   -1    0    0  501    0  0.00000000000E+00  0.00000000000E+00 -0.79978754492E+03  0.79978754493E+03  0.50400001928E-02 0.  1.
    10030    2    1    2    0    0  0.00000000000E+00  0.00000000000E+00 -0.59985119855E+03  0.99972389136E+03  0.79976646501E+03 0.  0.
        1    1    3    3  502    0 -0.16421346388E+03  0.19683631831E+03 -0.68357375571E+03  0.73005731107E+03  0.50400001928E-02 0.  1.
       -1    1    3    3    0  502  0.16421346388E+03 -0.19683631831E+03  0.83722557157E+02  0.26966658029E+03  0.50400001928E-02 0. -1.
</event>
<event>
 5   0  0.7133039E-04  0.7991882E+03  0.7818609E-02  0.9561193E-01
       -2   -1    0    0    0  501  0.00000000000E+00  0.00000000000E+00  0.15151499322E+03  0.15151499324E+03  0.25500000920E-02 0.  1.
        2   -1    0    0  501    0  0.00000000000E+00  0.00000000000E+00 -0.10538591561E+04  0.10538591561E+04  0.25500000920E-02 0. -1.
    10030    2    1    2    0    0  0.00000000000E+00  0.00000000000E+00 -0.90234416292E+03  0.12053741494E+04  0.79918824545E+03 0.  0.
        2    1    3    3  502    0  0.19660228561E+03 -0.23744412344E+03 -0.67699321060E+02  0.31561902436E+03  0.25500000920E-02 0.  1.
       -2    1    3    3    0  502 -0.19660228561E+03  0.23744412344E+03 -0.83464484186E+03  0.88975512503E+03  0.25500000920E-02 0. -1.
</event>
<event>
 5   0  0.6672462E-04  0.7996757E+03  0.7818609E-02  0.9560487E-01
       -2   -1    0    0    0  501  0.00000000000E+00  0.00000000000E+00  0.21409080990E+03  0.21409080991E+03  0.25500000920E-02 0.  1.
        2   -1    0    0  501    0  0.00000000000E+00  0.00000000000E+00 -0.74674055584E+03  0.74674055584E+03  0.25500000920E-02 0. -1.
    10030    2    1    2    0    0  0.00000000000E+00  0.00000000000E+00 -0.53264974594E+03  0.96083136576E+03  0.79967566024E+03 0.  0.
        5    1    3    3  502    0  0.23068786221E+03  0.24877101469E+03 -0.12167847644E+02  0.33952032934E+03  0.46999998093E+01 0. -1.
       -5    1    3    3    0  502 -0.23068786221E+03 -0.24877101469E+03 -0.52048189830E+03  0.62131103642E+03  0.46999998093E+01 0.  1.
</event>
<event>
 5   0  0.4104786E-04  0.8006648E+03  0.7818609E-02  0.9559055E-01
       -1   -1    0    0    0  501  0.00000000000E+00  0.00000000000E+00  0.15141835316E+03  0.15141835325E+03  0.50400001928E-02 0.  1.
        1   -1    0    0  501    0  0.00000000000E+00  0.00000000000E+00 -0.10584320862E+04  0.10584320862E+04  0.50400001928E-02 0. -1.
    10030    2    1    2    0    0  0.00000000000E+00  0.00000000000E+00 -0.90701373304E+03  0.12098504395E+04  0.80066483247E+03 0.  0.
        2    1    3    3  502    0  0.21859714001E+03  0.23295093927E+03 -0.81809212683E+03  0.87825143195E+03  0.25500000920E-02 0. -1.
       -2    1    3    3    0  502 -0.21859714001E+03 -0.23295093927E+03 -0.88921606212E+02  0.33159900752E+03  0.25500000920E-02 0.  1.
</event>
<event>
 5   0  0.6672462E-04  0.8006454E+03  0.7818609E-02  0.9559083E-01
       -2   -1    0    0    0  501  0.00000000000E+00  0.00000000000E+00  0.48222379295E+03  0.48222379296E+03  0.25500000920E-02 0.  1.
        2   -1    0    0  501    0  0.00000000000E+00  0.00000000000E+00 -0.33233171778E+03  0.33233171779E+03  0.25500000920E-02 0. -1.
    10030    2    1    2    0    0  0.00000000000E+00  0.00000000000E+00  0.14989207517E+03  0.81455551075E+03  0.80064539335E+03 0.  0.
        5    1    3    3  502    0  0.14082927257E+03 -0.35719952463E+03 -0.40209634141E+02  0.38608715219E+03  0.46999998093E+01 0. -1.
       -5    1    3    3    0  502 -0.14082927257E+03  0.35719952463E+03  0.19010170931E+03  0.42846835856E+03  0.46999998093E+01 0.  1.
</event>
<event>
 5   0  0.4169155E-04  0.8002579E+03  0.7818609E-02  0.9559644E-01
       -1   -1    0    0    0  501  0.00000000000E+00  0.00000000000E+00  0.26291586824E+03  0.26291586829E+03  0.50400001928E-02 0. -1.
        1   -1    0    0  501    0  0.00000000000E+00  0.00000000000E+00 -0.60895219742E+03  0.60895219744E+03  0.50400001928E-02 0.  1.
    10030    2    1    2    0    0  0.00000000000E+00  0.00000000000E+00 -0.34603632918E+03  0.87186806573E+03  0.80025794774E+03 0.  0.
        4    1    3    3  502    0  0.10978185827E+03 -0.34642812694E+03  0.94080135912E+01  0.36353077883E+03  0.12699999809E+01 0. -1.
       -4    1    3    3    0  502 -0.10978185827E+03  0.34642812694E+03 -0.35544434277E+03  0.50833728690E+03  0.12699999809E+01 0.  1.
</event>
<event>
 5   0  0.4392552E-04  0.7983153E+03  0.7818609E-02  0.9562459E-01
        1   -1    0    0  501    0  0.00000000000E+00  0.00000000000E+00  0.30477560315E+03  0.30477560320E+03  0.50400001928E-02 0.  1.
       -1   -1    0    0    0  501  0.00000000000E+00  0.00000000000E+00 -0.52276769321E+03  0.52276769324E+03  0.50400001928E-02 0. -1.
    10030    2    1    2    0    0  0.00000000000E+00  0.00000000000E+00 -0.21799209006E+03  0.82754329643E+03  0.79831532376E+03 0.  0.
        5    1    3    3  502    0 -0.36344952780E+03  0.15895626217E+03 -0.63313355819E+02  0.40173787918E+03  0.46999998093E+01 0.  1.
       -5    1    3    3    0  502  0.36344952780E+03 -0.15895626217E+03 -0.15467873424E+03  0.42580541726E+03  0.46999998093E+01 0. -1.
</event>
<event>
 5   0  0.4392552E-04  0.8010075E+03  0.7818609E-02  0.9558560E-01
        1   -1    0    0  501    0  0.00000000000E+00  0.00000000000E+00  0.12270554668E+04  0.12270554668E+04  0.50400001928E-02 0.  1.
       -1   -1    0    0    0  501  0.00000000000E+00  0.00000000000E+00 -0.13072210347E+03  0.13072210357E+03  0.50400001928E-02 0. -1.
    10030    2    1    2    0    0  0.00000000000E+00  0.00000000000E+00  0.10963333633E+04  0.13577775704E+04  0.80100754495E+03 0.  0.
        5    1    3    3  502    0  0.39133215107E+02  0.39844975778E+03  0.56402854647E+03  0.69169639961E+03  0.46999998093E+01 0. -1.
       -5    1    3    3    0  502 -0.39133215107E+02 -0.39844975778E+03  0.53230481685E+03  0.66608117076E+03  0.46999998093E+01 0.  1.
</event>
<event>
 5   0  0.4392552E-04  0.7999677E+03  0.7818609E-02  0.9560064E-01
        1   -1    0    0  501    0  0.00000000000E+00  0.00000000000E+00  0.29831489305E+03  0.29831489310E+03  0.50400001928E-02 0.  1.
       -1   -1    0    0    0  501  0.00000000000E+00  0.00000000000E+00 -0.53630266770E+03  0.53630266772E+03  0.50400001928E-02 0. -1.
    10030    2    1    2    0    0  0.00000000000E+00  0.00000000000E+00 -0.23798777464E+03  0.83461756082E+03  0.79996768181E+03 0.  0.
        5    1    3    3  502    0  0.28868503839E+03 -0.70443147218E+02  0.16030208530E+03  0.33766867923E+03  0.46999998093E+01 0.  1.
       -5    1    3    3    0  502 -0.28868503839E+03  0.70443147218E+02 -0.39828985994E+03  0.49694888159E+03  0.46999998093E+01 0. -1.
</event>
<event>
 5   0  0.6970013E-04  0.8013647E+03  0.7818609E-02  0.9558044E-01
        2   -1    0    0  501    0  0.00000000000E+00  0.00000000000E+00  0.96230923226E+03  0.96230923227E+03  0.25500000920E-02 0.  1.
       -2   -1    0    0    0  501  0.00000000000E+00  0.00000000000E+00 -0.16683446353E+03  0.16683446355E+03  0.25500000920E-02 0. -1.
    10030    2    1    2    0    0  0.00000000000E+00  0.00000000000E+00  0.79547476874E+03  0.11291436958E+04  0.80136469731E+03 0.  0.
        3    1    3    3  502    0 -0.28513934732E+03  0.26341672049E+03  0.53760419487E+03  0.66310715316E+03  0.10100000352E+00 0.  1.
       -3    1    3    3    0  502  0.28513934732E+03 -0.26341672049E+03  0.25787057387E+03  0.46603654266E+03  0.10100000352E+00 0. -1.
</event>
<event>
 5   0  0.4086111E-04  0.8004902E+03  0.7818609E-02  0.9559308E-01
       -1   -1    0    0    0  501  0.00000000000E+00  0.00000000000E+00  0.21776880465E+03  0.21776880470E+03  0.50400001928E-02 0. -1.
        1   -1    0    0  501    0  0.00000000000E+00  0.00000000000E+00 -0.73562478976E+03  0.73562478978E+03  0.50400001928E-02 0.  1.
    10030    2    1    2    0    0  0.00000000000E+00  0.00000000000E+00 -0.51785598511E+03  0.95339359448E+03  0.80049017775E+03 0.  0.
        3    1    3    3  502    0 -0.61176508003E+01  0.38861256691E+03 -0.14506966392E+03  0.41485222719E+03  0.10100000352E+00 0. -1.
       -3    1    3    3    0  502  0.61176508003E+01 -0.38861256691E+03 -0.37278632120E+03  0.53854136729E+03  0.10100000352E+00 0.  1.
</event>
<event>
 5   0  0.4392552E-04  0.8002090E+03  0.7818609E-02  0.9559715E-01
        1   -1    0    0  501    0  0.00000000000E+00  0.00000000000E+00  0.80063999095E+03  0.80063999096E+03  0.50400001928E-02 0.  1.
       -1   -1    0    0    0  501  0.00000000000E+00  0.00000000000E+00 -0.19994454255E+03  0.19994454262E+03  0.50400001928E-02 0. -1.
    10030    2    1    2    0    0  0.00000000000E+00  0.00000000000E+00  0.60069544839E+03  0.10005845336E+04  0.80020896466E+03 0.  0.
        5    1    3    3  502    0 -0.26286243759E+03  0.17816527618E+03 -0.39451868516E+01  0.31761168308E+03  0.46999998093E+01 0.  1.
       -5    1    3    3    0  502  0.26286243759E+03 -0.17816527618E+03  0.60464063525E+03  0.68297285050E+03  0.46999998093E+01 0. -1.
</event>
<event>
 5   0  0.6970013E-04  0.8006138E+03  0.7818609E-02  0.9559129E-01
        2   -1    0    0  501    0  0.00000000000E+00  0.00000000000E+00  0.15117337189E+04  0.15117337189E+04  0.25500000920E-02 0. -1.
       -2   -1    0    0    0  501  0.00000000000E+00  0.00000000000E+00 -0.10600122659E+03  0.10600122662E+03  0.25500000920E-02 0.  1.
    10030    2    1    2    0    0  0.00000000000E+00  0.00000000000E+00  0.14057324923E+04  0.16177349455E+04  0.80061383578E+03 0.  0.
        3    1    3    3  502    0 -0.12108696736E+03 -0.13391422839E+03  0.14247971133E+04  0.14361900635E+04  0.10100000352E+00 0. -1.
       -3    1    3    3    0  502  0.12108696736E+03  0.13391422839E+03 -0.19064620953E+02  0.18154488206E+03  0.10100000352E+00 0.  1.
</event>
<event>
 5   0  0.6593118E-04  0.8000210E+03  0.7818609E-02  0.9559987E-01
       -2   -1    0    0    0  501  0.00000000000E+00  0.00000000000E+00  0.22488816819E+03  0.22488816821E+03  0.25500000920E-02 0.  1.
        2   -1    0    0  501    0  0.00000000000E+00  0.00000000000E+00 -0.71150206491E+03  0.71150206491E+03  0.25500000920E-02 0. -1.
    10030    2    1    2    0    0  0.00000000000E+00  0.00000000000E+00 -0.48661389672E+03  0.93639023312E+03  0.80002098985E+03 0.  0.
        1    1    3    3  502    0 -0.22318984465E+03  0.22959626937E+03  0.37310576031E+02  0.32236661237E+03  0.50400001928E-02 0.  1.
       -1    1    3    3    0  502  0.22318984465E+03 -0.22959626937E+03 -0.52392447275E+03  0.61402362075E+03  0.50400001928E-02 0. -1.
</event>
<event>
 5   0  0.6801147E-04  0.7996547E+03  0.7818609E-02  0.9560517E-01
       -2   -1    0    0    0  501  0.00000000000E+00  0.00000000000E+00  0.71425381887E+03  0.71425381888E+03  0.25500000920E-02 0.  1.
        2   -1    0    0  501    0  0.00000000000E+00  0.00000000000E+00 -0.22381664311E+03  0.22381664312E+03  0.25500000920E-02 0. -1.
    10030    2    1    2    0    0  0.00000000000E+00  0.00000000000E+00  0.49043717576E+03  0.93807046200E+03  0.79965465565E+03 0.  0.
        4    1    3    3  502    0  0.10374463373E+03  0.36455741477E+03  0.95930059522E+02  0.39098497018E+03  0.12699999809E+01 0. -1.
       -4    1    3    3    0  502 -0.10374463373E+03 -0.36455741477E+03  0.39450711624E+03  0.54708549182E+03  0.12699999809E+01 0.  1.
</event>
<event>
 5   0  0.4104786E-04  0.7994257E+03  0.7818609E-02  0.9560849E-01
       -1   -1    0    0    0  501  0.00000000000E+00  0.00000000000E+00  0.46977111633E+03  0.46977111635E+03  0.50400001928E-02 0. -1.
        1   -1    0    0  501    0  0.00000000000E+00  0.00000000000E+00 -0.34010252718E+03  0.34010252722E+03  0.50400001928E-02 0.  1.
    10030    2    1    2    0    0  0.00000000000E+00  0.00000000000E+00  0.12966858915E+03  0.80987364357E+03  0.79942565354E+03 0.  0.
        2    1    3    3  502    0  0.17172094724E+03  0.33341131080E+03 -0.75244877387E+02  0.38250879398E+03  0.25500000920E-02 0.  1.
       -2    1    3    3    0  502 -0.17172094724E+03 -0.33341131080E+03  0.20491346653E+03  0.42736484959E+03  0.25500000920E-02 0. -1.
</event>
<event>
 5   0  0.6672462E-04  0.7993756E+03  0.7818609E-02  0.9560921E-01
        2   -1    0    0  501    0  0.00000000000E+00  0.00000000000E+00  0.58656074962E+03  0.58656074963E+03  0.25500000920E-02 0.  1.
       -2   -1    0    0    0  501  0.00000000000E+00  0.00000000000E+00 -0.27235090830E+03  0.27235090832E+03  0.25500000920E-02 0. -1.
    10030    2    1    2    0    0  0.00000000000E+00  0.00000000000E+00  0.31420984132E+03  0.85891165794E+03  0.79937563871E+03 0.  0.
        5    1    3    3  502    0  0.20915389730E+03  0.30623467035E+02 -0.20733981136E+03  0.29613347811E+03  0.46999998093E+01 0. -1.
       -5    1    3    3    0  502 -0.20915389730E+03 -0.30623467035E+02  0.52154965267E+03  0.56277817983E+03  0.46999998093E+01 0.  1.
</event>
<event>
 5   0  0.4169155E-04  0.7998274E+03  0.7818609E-02  0.9560267E-01
       -1   -1    0    0    0  501  0.00000000000E+00  0.00000000000E+00  0.44926245689E+03  0.44926245692E+03  0.50400001928E-02 0. -1.
        1   -1    0    0  501    0  0.00000000000E+00  0.00000000000E+00 -0.35598557064E+03  0.35598557068E+03  0.50400001928E-02 0.  1.
    10030    2    1    2    0    0  0.00000000000E+00  0.00000000000E+00  0.93276886248E+02  0.80524802760E+03  0.79982736165E+03 0.  0.
        4    1    3    3  502    0 -0.16151977496E+03  0.31753416302E+03  0.22956396769E+03  0.42381341478E+03  0.12699999809E+01 0.  1.
       -4    1    3    3    0  502  0.16151977496E+03 -0.31753416302E+03 -0.13628708144E+03  0.38143461282E+03  0.12699999809E+01 0. -1.
</event>
<event>
 5   0  0.6593118E-04  0.8000278E+03  0.7818609E-02  0.9559977E-01
        2   -1    0    0  501    0  0.00000000000E+00  0.00000000000E+00  0.97305596251E+03  0.97305596252E+03  0.25500000920E-02 0. -1.
       -2   -1    0    0    0  501  0.00000000000E+00  0.00000000000E+00 -0.16444185900E+03  0.16444185902E+03  0.25500000920E-02 0.  1.
    10030    2    1    2    0    0  0.00000000000E+00  0.00000000000E+00  0.80861410351E+03  0.11374978215E+04  0.80002782803E+03 0.  0.
        1    1    3    3  502    0 -0.36025796714E+03 -0.11641047029E+03  0.58790358591E+03  0.69926234478E+03  0.50400001928E-02 0. -1.
       -1    1    3    3    0  502  0.36025796714E+03  0.11641047029E+03  0.22071051760E+03  0.43823547676E+03  0.50400001928E-02 0.  1.
</event>
<event>
 5   0  0.6672462E-04  0.8000809E+03  0.7818609E-02  0.9559900E-01
        2   -1    0    0  501    0  0.00000000000E+00  0.00000000000E+00  0.34452308700E+03  0.34452308701E+03  0.25500000920E-02 0. -1.
       -2   -1    0    0    0  501  0.00000000000E+00  0.00000000000E+00 -0.46450400077E+03  0.46450400078E+03  0.25500000920E-02 0.  1.
    10030    2    1    2    0    0  0.00000000000E+00  0.00000000000E+00 -0.11998091378E+03  0.80902708779E+03  0.80008087660E+03 0.  0.
        5    1    3    3  502    0  0.15671265813E+03 -0.36788214887E+03 -0.49187856277E+02  0.40291148889E+03  0.46999998093E+01 0. -1.
       -5    1    3    3    0  502 -0.15671265813E+03  0.36788214887E+03 -0.70793057501E+02  0.40611559890E+03  0.46999998093E+01 0.  1.
</event>
<event>
 5   0  0.7133039E-04  0.7998528E+03  0.7818609E-02  0.9560230E-01
       -2   -1    0    0    0  501  0.00000000000E+00  0.00000000000E+00  0.86867858695E+03  0.86867858696E+03  0.25500000920E-02 0.  1.
        2   -1    0    0  501    0  0.00000000000E+00  0.00000000000E+00 -0.18412004930E+03  0.18412004932E+03  0.25500000920E-02 0. -1.
    10030    2    1    2    0    0  0.00000000000E+00  0.00000000000E+00  0.68455853765E+03  0.10527986363E+04  0.79985284713E+03 0.  0.
        2    1    3    3  502    0  0.37314002677E+01  0.21588555475E+02 -0.18332958424E+03  0.18463403137E+03  0.25500000920E-02 0. -1.
       -2    1    3    3    0  502 -0.37314002677E+01 -0.21588555475E+02  0.86788812190E+03  0.86816460490E+03  0.25500000920E-02 0.  1.
</event>
<event>
 5   0  0.4087283E-04  0.7999954E+03  0.7818609E-02  0.9560024E-01
        1   -1    0    0  501    0  0.00000000000E+00  0.00000000000E+00  0.17711664493E+04  0.17711664493E+04  0.50400001928E-02 0.  1.
       -1   -1    0    0    0  501  0.00000000000E+00  0.00000000000E+00 -0.90334906211E+02  0.90334906352E+02  0.50400001928E-02 0. -1.
    10030    2    1    2    0    0  0.00000000000E+00  0.00000000000E+00  0.16808315431E+04  0.18615013556E+04  0.79999538803E+03 0.  0.
        1    1    3    3  502    0  0.25480143998E+03  0.15111551322E+03  0.14658190914E+04  0.14954548742E+04  0.50400001928E-02 0.  1.
       -1    1    3    3    0  502 -0.25480143998E+03 -0.15111551322E+03  0.21501245169E+03  0.36604648142E+03  0.50400001928E-02 0. -1.
</event>
<event>
 5   0  0.4169155E-04  0.8004144E+03  0.7818609E-02  0.9559417E-01
        1   -1    0    0  501    0  0.00000000000E+00  0.00000000000E+00  0.29850840804E+03  0.29850840809E+03  0.50400001928E-02 0. -1.
       -1   -1    0    0    0  501  0.00000000000E+00  0.00000000000E+00 -0.53655376517E+03  0.53655376520E+03  0.50400001928E-02 0.  1.
    10030    2    1    2    0    0  0.00000000000E+00  0.00000000000E+00 -0.23804535713E+03  0.83506217328E+03  0.80041441841E+03 0.  0.
        4    1    3    3  502    0  0.33221367132E+03  0.11779571185E+02 -0.35151314458E+03  0.48380552438E+03  0.12699999809E+01 0.  1.
       -4    1    3    3    0  502 -0.33221367132E+03 -0.11779571185E+02  0.11346778745E+03  0.35125664890E+03  0.12699999809E+01 0. -1.
</event>
<event>
 5   0  0.7133039E-04  0.8000884E+03  0.7818609E-02  0.9559889E-01
       -2   -1    0    0    0  501  0.00000000000E+00  0.00000000000E+00  0.17409455370E+03  0.17409455371E+03  0.25500000920E-02 0. -1.
        2   -1    0    0  501    0  0.00000000000E+00  0.00000000000E+00 -0.91924395197E+03  0.91924395197E+03  0.25500000920E-02 0.  1.
    10030    2    1    2    0    0  0.00000000000E+00  0.00000000000E+00 -0.74514939827E+03  0.10933385057E+04  0.80008840903E+03 0.  0.
        2    1    3    3  502    0  0.78657112167E+02  0.98926390046E+02 -0.89124499294E+03  0.90016165736E+03  0.25500000920E-02 0.  1.
       -2    1    3    3    0  502 -0.78657112167E+02 -0.98926390046E+02  0.14609559466E+03  0.19317684832E+03  0.25500000920E-02 0. -1.
</event>
<event>
 5   0  0.6672462E-04  0.7996190E+03  0.7818609E-02  0.9560569E-01
       -2   -1    0    0    0  501  0.00000000000E+00  0.00000000000E+00  0.28324534266E+03  0.28324534267E+03  0.25500000920E-02 0. -1.
        2   -1    0    0  501    0  0.00000000000E+00  0.00000000000E+00 -0.56434334970E+03  0.56434334971E+03  0.25500000920E-02 0.  1.
    10030    2    1    2    0    0  0.00000000000E+00  0.00000000000E+00 -0.28109800704E+03  0.84758869238E+03  0.79961897294E+03 0.  0.
        5    1    3    3  502    0  0.14421742252E+03  0.28133880711E+03  0.11882478311E+03  0.33777449345E+03  0.46999998093E+01 0. -1.
       -5    1    3    3    0  502 -0.14421742252E+03 -0.28133880711E+03 -0.39992279015E+03  0.50981419893E+03  0.46999998093E+01 0.  1.
</event>
<event>
 5   0  0.4169155E-04  0.8002854E+03  0.7818609E-02  0.9559604E-01
        1   -1    0    0  501    0  0.00000000000E+00  0.00000000000E+00  0.79451528257E+03  0.79451528258E+03  0.50400001928E-02 0.  1.
       -1   -1    0    0    0  501  0.00000000000E+00  0.00000000000E+00 -0.20152435457E+03  0.20152435463E+03  0.50400001928E-02 0. -1.
    10030    2    1    2    0    0  0.00000000000E+00  0.00000000000E+00  0.59299092800E+03  0.99603963721E+03  0.80028539797E+03 0.  0.
        4    1    3    3  502    0 -0.11124139140E+02 -0.39982741600E+03  0.28247733756E+03  0.48967414490E+03  0.12699999809E+01 0.  1.
       -4    1    3    3    0  502  0.11124139140E+02  0.39982741600E+03  0.31051359044E+03  0.50636549231E+03  0.12699999809E+01 0. -1.
</event>
<event>
 5   0  0.4104786E-04  0.8028406E+03  0.7818609E-02  0.9555914E-01
        1   -1    0    0  501    0  0.00000000000E+00  0.00000000000E+00  0.40742244342E+03  0.40742244345E+03  0.50400001928E-02 0. -1.
       -1   -1    0    0    0  501  0.00000000000E+00  0.00000000000E+00 -0.39550660775E+03  0.39550660778E+03  0.50400001928E-02 0.  1.
    10030    2    1    2    0    0  0.00000000000E+00  0.00000000000E+00  0.11915835676E+02  0.80292905123E+03  0.80284062813E+03 0.  0.
        2    1    3    3  502    0 -0.26878256358E+03 -0.29605080392E+03 -0.29374765286E+02  0.40094017238E+03  0.25500000920E-02 0.  1.
       -2    1    3    3    0  502  0.26878256358E+03  0.29605080392E+03  0.41290600961E+02  0.40198887885E+03  0.25500000920E-02 0. -1.
</event>
<event>
 5   0  0.2736375E-04  0.7982408E+03  0.7818609E-02  0.9562567E-01
       -3   -1    0    0    0  501  0.00000000000E+00  0.00000000000E+00  0.14736291666E+03  0.14736295127E+03  0.10100000352E+00 0. -1.
        3   -1    0    0  501    0  0.00000000000E+00  0.00000000000E+00 -0.10809847055E+04  0.10809847102E+04  0.10100000352E+00 0.  1.
    10030    2    1    2    0    0  0.00000000000E+00  0.00000000000E+00 -0.93362178882E+03  0.12283476615E+04  0.79824077374E+03 0.  0.
        1    1    3    3  502    0  0.14480195887E+03 -0.72510993891E+02  0.94534465117E+02  0.18751591038E+03  0.50400001928E-02 0. -1.
       -1    1    3    3    0  502 -0.14480195887E+03  0.72510993891E+02 -0.10281562539E+04  0.10408317511E+04  0.50400001928E-02 0.  1.
</event>
<event>
 5   0  0.6801147E-04  0.7998440E+03  0.7818609E-02  0.9560243E-01
       -2   -1    0    0    0  501  0.00000000000E+00  0.00000000000E+00  0.61962529779E+03  0.61962529780E+03  0.25500000920E-02 0.  1.
        2   -1    0    0  501    0  0.00000000000E+00  0.00000000000E+00 -0.25811986554E+03  0.25811986555E+03  0.25500000920E-02 0. -1.
    10030    2    1    2    0    0  0.00000000000E+00  0.00000000000E+00  0.36150543225E+03  0.87774516335E+03  0.79984398119E+03 0.  0.
        4    1    3    3  502    0  0.33560737604E+03  0.18093462730E+03  0.31319855475E+03  0.49342131876E+03  0.12699999809E+01 0.  1.
       -4    1    3    3    0  502 -0.33560737604E+03 -0.18093462730E+03  0.48306877502E+02  0.38432384459E+03  0.12699999809E+01 0. -1.
</event>
<event>
 5   0  0.4392552E-04  0.7999097E+03  0.7818609E-02  0.9560148E-01
       -1   -1    0    0    0  501  0.00000000000E+00  0.00000000000E+00  0.15446397194E+03  0.15446397202E+03  0.50400001928E-02 0.  1.
        1   -1    0    0  501    0  0.00000000000E+00  0.00000000000E+00 -0.10356063356E+04  0.10356063356E+04  0.50400001928E-02 0. -1.
    10030    2    1    2    0    0  0.00000000000E+00  0.00000000000E+00 -0.88114236369E+03  0.11900703077E+04  0.79990966496E+03 0.  0.
        5    1    3    3  502    0  0.20279469723E+03  0.18582093014E+03 -0.86434136066E+01  0.27523064128E+03  0.46999998093E+01 0.  1.
       -5    1    3    3    0  502 -0.20279469723E+03 -0.18582093014E+03 -0.87249895008E+03  0.91483966639E+03  0.46999998093E+01 0. -1.
</event>
<event>
 5   0  0.6801147E-04  0.7973469E+03  0.7818609E-02  0.9563865E-01
        2   -1    0    0  501    0  0.00000000000E+00  0.00000000000E+00  0.13547539504E+03  0.13547539506E+03  0.25500000920E-02 0. -1.
       -2   -1    0    0    0  501  0.00000000000E+00  0.00000000000E+00 -0.11732057919E+04  0.11732057919E+04  0.25500000920E-02 0.  1.
    10030    2    1    2    0    0  0.00000000000E+00  0.00000000000E+00 -0.10377303968E+04  0.13086811869E+04  0.79734689597E+03 0.  0.
        4    1    3    3  502    0  0.52760661960E+02  0.34727072995E+03 -0.82836244454E+03  0.89975918987E+03  0.12699999809E+01 0.  1.
       -4    1    3    3    0  502 -0.52760661960E+02 -0.34727072995E+03 -0.20936795228E+03  0.40892199705E+03  0.12699999809E+01 0. -1.
</event>
<event>
 5   0  0.6801147E-04  0.8001732E+03  0.7818609E-02  0.9559766E-01
       -2   -1    0    0    0  501  0.00000000000E+00  0.00000000000E+00  0.46544539599E+03  0.46544539600E+03  0.25500000920E-02 0.  1.
        2   -1    0    0  501    0  0.00000000000E+00  0.00000000000E+00 -0.34390562322E+03  0.34390562323E+03  0.25500000920E-02 0. -1.
    10030    2    1    2    0    0  0.00000000000E+00  0.00000000000E+00  0.12153977277E+03  0.80935101923E+03  0.80017320373E+03 0.  0.
        4    1    3    3  502    0 -0.10481603158E+02  0.33716216201E+03 -0.15682425098E+03  0.37199952431E+03  0.12699999809E+01 0. -1.
       -4    1    3    3    0  502  0.10481603158E+02 -0.33716216201E+03  0.27836402375E+03  0.43735149492E+03  0.12699999809E+01 0.  1.
</event>
<event>
 5   0  0.6970013E-04  0.8007546E+03  0.7818609E-02  0.9558925E-01
        2   -1    0    0  501    0  0.00000000000E+00  0.00000000000E+00  0.55746781808E+03  0.55746781808E+03  0.25500000920E-02 0. -1.
       -2   -1    0    0    0  501  0.00000000000E+00  0.00000000000E+00 -0.28755379333E+03  0.28755379334E+03  0.25500000920E-02 0.  1.
    10030    2    1    2    0    0  0.00000000000E+00  0.00000000000E+00  0.26991402475E+03  0.84502161142E+03  0.80075460849E+03 0.  0.
        3    1    3    3  502    0  0.34728470049E+03 -0.10971069452E+03  0.31046045181E+03  0.47856953729E+03  0.10100000352E+00 0. -1.
       -3    1    3    3    0  502 -0.34728470049E+03  0.10971069452E+03 -0.40546427060E+02  0.36645207413E+03  0.10100000352E+00 0.  1.
</event>
<event>
 5   0  0.4104786E-04  0.7993142E+03  0.7818609E-02  0.9561010E-01
        1   -1    0    0  501    0  0.00000000000E+00  0.00000000000E+00  0.44179249915E+03  0.44179249918E+03  0.50400001928E-02 0. -1.
       -1   -1    0    0    0  501  0.00000000000E+00  0.00000000000E+00 -0.36154032077E+03  0.36154032080E+03  0.50400001928E-02 0.  1.
    10030    2    1    2    0    0  0.00000000000E+00  0.00000000000E+00  0.80252178385E+02  0.80333281999E+03  0.79931421077E+03 0.  0.
        2    1    3    3  502    0  0.37270078861E+03 -0.71158903594E+02  0.16628140990E+03  0.41426920556E+03  0.25500000920E-02 0. -1.
       -2    1    3    3    0  502 -0.37270078861E+03  0.71158903594E+02 -0.86029231516E+02  0.38906361443E+03  0.25500000920E-02 0.  1.
</event>
<event>
 5   0  0.4169155E-04  0.8001036E+03  0.7818609E-02  0.9559867E-01
        1   -1    0    0  501    0  0.00000000000E+00  0.00000000000E+00  0.35251891928E+03  0.35251891932E+03  0.50400001928E-02 0. -1.
       -1   -1    0    0    0  501  0.00000000000E+00  0.00000000000E+00 -0.45399387863E+03  0.45399387865E+03  0.50400001928E-02 0.  1.
    10030    2    1    2    0    0  0.00000000000E+00  0.00000000000E+00 -0.10147495934E+03  0.80651279797E+03  0.80010357200E+03 0.  0.
        4    1    3    3  502    0 -0.31386953810E+03 -0.24793326259E+03 -0.58201450666E+02  0.40419551137E+03  0.12699999809E+01 0.  1.
       -4    1    3    3    0  502  0.31386953810E+03  0.24793326259E+03 -0.43273508678E+02  0.40231728661E+03  0.12699999809E+01 0. -1.
</event>
<event>
 5   0  0.4392552E-04  0.8002401E+03  0.7818609E-02  0.9559670E-01
       -1   -1    0    0    0  501  0.00000000000E+00  0.00000000000E+00  0.21340865251E+03  0.21340865257E+03  0.50400001928E-02 0.  1.
        1   -1    0    0  501    0  0.00000000000E+00  0.00000000000E+00 -0.75018543441E+03  0.75018543443E+03  0.50400001928E-02 0. -1.
    10030    2    1    2    0    0  0.00000000000E+00  0.00000000000E+00 -0.53677678190E+03  0.96359408700E+03  0.80024012078E+03 0.  0.
        5    1    3    3  502    0  0.93239046895E+02  0.18797802845E+03  0.14180294752E+03  0.25329710810E+03  0.46999998093E+01 0.  1.
       -5    1    3    3    0  502 -0.93239046895E+02 -0.18797802845E+03 -0.67857972943E+03  0.71029697890E+03  0.46999998093E+01 0. -1.
</event>
<event>
 5   0  0.6593118E-04  0.7999936E+03  0.7818609E-02  0.9560026E-01
        2   -1    0    0  501    0  0.00000000000E+00  0.00000000000E+00  0.40394046407E+03  0.40394046408E+03  0.25500000920E-02 0. -1.
       -2   -1    0    0    0  501  0.00000000000E+00  0.00000000000E+00 -0.39609166073E+03  0.39609166074E+03  0.25500000920E-02 0.  1.
    10030    2    1    2    0    0  0.00000000000E+00  0.00000000000E+00  0.78488033419E+01  0.80003212481E+03  0.79999362311E+03 0.  0.
        1    1    3    3  502    0 -0.38995593479E+03  0.76381663311E+02  0.49726820532E+02  0.40046541208E+03  0.50400001928E-02 0. -1.
       -1    1    3    3    0  502  0.38995593479E+03 -0.76381663311E+02 -0.41878017191E+02  0.39956671273E+03  0.50400001928E-02 0.  1.
</event>
<event>
 5   0  0.6672462E-04  0.8001930E+03  0.7818609E-02  0.9559738E-01
       -2   -1    0    0    0  501  0.00000000000E+00  0.00000000000E+00  0.16246333466E+03  0.16246333468E+03  0.25500000920E-02 0.  1.
        2   -1    0    0  501    0  0.00000000000E+00  0.00000000000E+00 -0.98531290465E+03  0.98531290465E+03  0.25500000920E-02 0. -1.
    10030    2    1    2    0    0  0.00000000000E+00  0.00000000000E+00 -0.82284956999E+03  0.11477762393E+04  0.80019302718E+03 0.  0.
        5    1    3    3  502    0 -0.32088297590E+03  0.10701213949E+03 -0.71784971414E+03  0.79356649646E+03  0.46999998093E+01 0. -1.
       -5    1    3    3    0  502  0.32088297590E+03 -0.10701213949E+03 -0.10499985585E+03  0.35420974287E+03  0.46999998093E+01 0.  1.
</event>
<event>
 5   0  0.6801147E-04  0.8002041E+03  0.7818609E-02  0.9559722E-01
        2   -1    0    0  501    0  0.00000000000E+00  0.00000000000E+00  0.11546456202E+04  0.11546456202E+04  0.25500000920E-02 0.  1.
       -2   -1    0    0    0  501  0.00000000000E+00  0.00000000000E+00 -0.13864137680E+03  0.13864137683E+03  0.25500000920E-02 0. -1.
    10030    2    1    2    0    0  0.00000000000E+00  0.00000000000E+00  0.10160042434E+04  0.12932869970E+04  0.80020412027E+03 0.  0.
        4    1    3    3  502    0 -0.12620084776E+03 -0.49887444955E+02  0.11163119742E+04  0.11245307678E+04  0.12699999809E+01 0.  1.
       -4    1    3    3    0  502  0.12620084776E+03  0.49887444955E+02 -0.10030773080E+03  0.16875622921E+03  0.12699999809E+01 0. -1.
</event>
<event>
 5   0  0.4392552E-04  0.7999665E+03  0.7818609E-02  0.9560066E-01
        1   -1    0    0  501    0  0.00000000000E+00  0.00000000000E+00  0.88788840922E+03  0.88788840923E+03  0.50400001928E-02 0.  1.
       -1   -1    0    0    0  501  0.00000000000E+00  0.00000000000E+00 -0.18018773452E+03  0.18018773459E+03  0.50400001928E-02 0. -1.
    10030    2    1    2    0    0  0.00000000000E+00  0.00000000000E+00  0.70770067470E+03  0.10680761438E+04  0.79996650181E+03 0.  0.
        5    1    3    3  502    0 -0.38413391162E+03 -0.10184270009E+02  0.50193737037E+03  0.63215962793E+03  0.46999998093E+01 0.  1.
       -5    1    3    3    0  502  0.38413391162E+03  0.10184270009E+02  0.20576330433E+03  0.43591651589E+03  0.46999998093E+01 0. -1.
</event>
<event>
 5   0  0.4087283E-04  0.7999830E+03  0.7818609E-02  0.9560042E-01
        1   -1    0    0  501    0  0.00000000000E+00  0.00000000000E+00  0.68562906036E+03  0.68562906037E+03  0.50400001928E-02 0.  1.
       -1   -1    0    0    0  501  0.00000000000E+00  0.00000000000E+00 -0.23335240611E+03  0.23335240616E+03  0.50400001928E-02 0. -1.
    10030    2    1    2    0    0  0.00000000000E+00  0.00000000000E+00  0.45227665425E+03  0.91898146654E+03  0.79998297723E+03 0.  0.
        1    1    3    3  502    0  0.57800686030E+02 -0.37882563718E+03  0.94440076555E+02  0.39467544993E+03  0.50400001928E-02 0. -1.
       -1    1    3    3    0  502 -0.57800686030E+02  0.37882563718E+03  0.35783657769E+03  0.52430601661E+03  0.50400001928E-02 0.  1.
</event>
<event>
 5   0  0.2736375E-04  0.8002289E+03  0.7818609E-02  0.9559686E-01
        4   -1    0    0  501    0  0.00000000000E+00  0.00000000000E+00  0.35646191377E+03  0.35646417614E+03  0.12699999809E+01 0. -1.
       -4   -1    0    0    0  501  0.00000000000E+00  0.00000000000E+00 -0.44910813383E+03  0.44910992949E+03  0.12699999809E+01 0.  1.
    10030    2    1    2    0    0  0.00000000000E+00  0.00000000000E+00 -0.92646220055E+02  0.80557410563E+03  0.80022891573E+03 0.  0.
        1    1    3    3  502    0  0.25853390038E+03 -0.29223996755E+03  0.42855309710E+02  0.39253095913E+03  0.50400001928E-02 0. -1.
       -1    1    3    3    0  502 -0.25853390038E+03  0.29223996755E+03 -0.13550152977E+03  0.41304314650E+03  0.50400001928E-02 0.  1.
</event>
<event>
 5   0  0.4104786E-04  0.7996023E+03  0.7818609E-02  0.9560593E-01
        1   -1    0    0  501    0  0.00000000000E+00  0.00000000000E+00  0.10557724584E+04  0.10557724584E+04  0.50400001928E-02 0. -1.
       -1   -1    0    0    0  501  0.00000000000E+00  0.00000000000E+00 -0.15139717596E+03  0.15139717604E+03  0.50400001928E-02 0.  1.
    10030    2    1    2    0    0  0.00000000000E+00  0.00000000000E+00  0.90437528247E+03  0.12071696345E+04  0.79960232296E+03 0.  0.
        2    1    3    3  502    0  0.65419740827E+02  0.34731589297E+03  0.73435810717E+03  0.81497846694E+03  0.25500000920E-02 0. -1.
       -2    1    3    3    0  502 -0.65419740827E+02 -0.34731589297E+03  0.17001717530E+03  0.39219116755E+03  0.25500000920E-02 0.  1.
</event>
<event>
 5   0  0.4086111E-04  0.8004330E+03  0.7818609E-02  0.9559391E-01
       -1   -1    0    0    0  501  0.00000000000E+00  0.00000000000E+00  0.34014323198E+03  0.34014323202E+03  0.50400001928E-02 0.  1.
        1   -1    0    0  501    0  0.00000000000E+00  0.00000000000E+00 -0.47089937840E+03  0.47089937843E+03  0.50400001928E-02 0. -1.
    10030    2    1    2    0    0  0.00000000000E+00  0.00000000000E+00 -0.13075614642E+03  0.81104261045E+03  0.80043297417E+03 0.  0.
        3    1    3    3  502    0  0.11169561136E+02  0.34733095647E+03 -0.26652811223E+03  0.43795067899E+03  0.10100000352E+00 0. -1.
       -3    1    3    3    0  502 -0.11169561136E+02 -0.34733095647E+03  0.13577196581E+03  0.37309193146E+03  0.10100000352E+00 0.  1.
</event>
<event>
 5   0  0.6593118E-04  0.8001531E+03  0.7818609E-02  0.9559796E-01
        2   -1    0    0  501    0  0.00000000000E+00  0.00000000000E+00  0.91154380376E+03  0.91154380377E+03  0.25500000920E-02 0. -1.
       -2   -1    0    0    0  501  0.00000000000E+00  0.00000000000E+00 -0.17559359018E+03  0.17559359019E+03  0.25500000920E-02 0.  1.
    10030    2    1    2    0    0  0.00000000000E+00  0.00000000000E+00  0.73595021359E+03  0.10871373940E+04  0.80015310814E+03 0.  0.
        1    1    3    3  502    0  0.10365092822E+03  0.23871955466E+03  0.78081762796E+03  0.82304720937E+03  0.50400001928E-02 0. -1.
       -1    1    3    3    0  502 -0.10365092822E+03 -0.23871955466E+03 -0.44867414370E+02  0.26409018459E+03  0.50400001928E-02 0.  1.
</event>
<event>
 5   0  0.4104786E-04  0.8002029E+03  0.7818609E-02  0.9559723E-01
        1   -1    0    0  501    0  0.00000000000E+00  0.00000000000E+00  0.50581151015E+03  0.50581151018E+03  0.50400001928E-02 0.  1.
       -1   -1    0    0    0  501  0.00000000000E+00  0.00000000000E+00 -0.31648382627E+03  0.31648382631E+03  0.50400001928E-02 0. -1.
    10030    2    1    2    0    0  0.00000000000E+00  0.00000000000E+00  0.18932768389E+03  0.82229533648E+03  0.80020287960E+03 0.  0.
        2    1    3    3  502    0  0.43348871115E+02  0.32876640889E+03 -0.13537979422E+03  0.35818174846E+03  0.25500000920E-02 0. -1.
       -2    1    3    3    0  502 -0.43348871115E+02 -0.32876640889E+03  0.32470747810E+03  0.46411358802E+03  0.25500000920E-02 0.  1.
</event>
<event>
 5   0  0.4169155E-04  0.7999371E+03  0.7818609E-02  0.9560108E-01
       -1   -1    0    0    0  501  0.00000000000E+00  0.00000000000E+00  0.31198686489E+03  0.31198686493E+03  0.50400001928E-02 0. -1.
        1   -1    0    0  501    0  0.00000000000E+00  0.00000000000E+00 -0.51276141612E+03  0.51276141614E+03  0.50400001928E-02 0.  1.
    10030    2    1    2    0    0  0.00000000000E+00  0.00000000000E+00 -0.20077455122E+03  0.82474828108E+03  0.79993706422E+03 0.  0.
        4    1    3    3  502    0 -0.39686110883E+02 -0.22116260106E+03  0.24076130262E+03  0.32932582839E+03  0.12699999809E+01 0. -1.
       -4    1    3    3    0  502  0.39686110883E+02  0.22116260106E+03 -0.44153585384E+03  0.49542245269E+03  0.12699999809E+01 0.  1.
</event>
<event>
 5   0  0.6801147E-04  0.8001060E+03  0.7818609E-02  0.9559864E-01
        2   -1    0    0  501    0  0.00000000000E+00  0.00000000000E+00  0.20058983772E+04  0.20058983772E+04  0.25500000920E-02 0.  1.
       -2   -1    0    0    0  501  0.00000000000E+00  0.00000000000E+00 -0.79785899302E+02  0.79785899343E+02  0.25500000920E-02 0. -1.
    10030    2    1    2    0    0  0.00000000000E+00  0.00000000000E+00  0.19261124779E+04  0.20856842765E+04  0.80010600792E+03 0.  0.
        4    1    3    3  502    0  0.10522857373E+03  0.33030640431E+03  0.44258203991E+03  0.56218844563E+03  0.12699999809E+01 0. -1.
       -4    1    3    3    0  502 -0.10522857373E+03 -0.33030640431E+03  0.14835304380E+04  0.15234958309E+04  0.12699999809E+01 0.  1.
</event>
<event>
 5   0  0.4392552E-04  0.8000949E+03  0.7818609E-02  0.9559880E-01
        1   -1    0    0  501    0  0.00000000000E+00  0.00000000000E+00  0.27363144236E+03  0.27363144241E+03  0.50400001928E-02 0.  1.
       -1   -1    0    0    0  501  0.00000000000E+00  0.00000000000E+00 -0.58486688794E+03  0.58486688796E+03  0.50400001928E-02 0. -1.
    10030    2    1    2    0    0  0.00000000000E+00  0.00000000000E+00 -0.31123544558E+03  0.85849833037E+03  0.80009491979E+03 0.  0.
        5    1    3    3  502    0 -0.27732302132E+03 -0.82736130274E+02 -0.45193270924E+03  0.53667363368E+03  0.46999998093E+01 0. -1.
       -5    1    3    3    0  502  0.27732302132E+03  0.82736130274E+02  0.14069726366E+03  0.32182469670E+03  0.46999998093E+01 0.  1.
</event>
<event>
 5   0  0.4392552E-04  0.8002368E+03  0.7818609E-02  0.9559674E-01
       -1   -1    0    0    0  501  0.00000000000E+00  0.00000000000E+00  0.32230374018E+03  0.32230374022E+03  0.50400001928E-02 0.  1.
        1   -1    0    0  501    0  0.00000000000E+00  0.00000000000E+00 -0.49672006041E+03  0.49672006043E+03  0.50400001928E-02 0. -1.
    10030    2    1    2    0    0  0.00000000000E+00  0.00000000000E+00 -0.17441632023E+03  0.81902380065E+03  0.80023679825E+03 0.  0.
        5    1    3    3  502    0 -0.40034472567E+02 -0.43565272023E+02 -0.49218947530E+03  0.49575524356E+03  0.46999998093E+01 0. -1.
       -5    1    3    3    0  502  0.40034472567E+02  0.43565272023E+02  0.31777315508E+03  0.32326855709E+03  0.46999998093E+01 0.  1.
</event>
<event>
 5   0  0.2736375E-04  0.7992007E+03  0.7818609E-02  0.9561175E-01
       -3   -1    0    0    0  501  0.00000000000E+00  0.00000000000E+00  0.85794406781E+03  0.85794407376E+03  0.10100000352E+00 0. -1.
        3   -1    0    0  501    0  0.00000000000E+00  0.00000000000E+00 -0.18611984134E+03  0.18611986874E+03  0.10100000352E+00 0.  1.
    10030    2    1    2    0    0  0.00000000000E+00  0.00000000000E+00  0.67182422647E+03  0.10440639425E+04  0.79920067865E+03 0.  0.
        3    1    3    3  502    0 -0.33582862045E+03 -0.86057217645E+01  0.61860342828E+03  0.70393546042E+03  0.10100000352E+00 0. -1.
       -3    1    3    3    0  502  0.33582862045E+03  0.86057217645E+01  0.53220798197E+02  0.34012848208E+03  0.10100000352E+00 0.  1.
</event>
<event>
 5   0  0.4104786E-04  0.7999184E+03  0.7818609E-02  0.9560135E-01
        1   -1    0    0  501    0  0.00000000000E+00  0.00000000000E+00  0.37278647318E+03  0.37278647321E+03  0.50400001928E-02 0.  1.
       -1   -1    0    0    0  501  0.00000000000E+00  0.00000000000E+00 -0.42911258577E+03  0.42911258580E+03  0.50400001928E-02 0. -1.
    10030    2    1    2    0    0  0.00000000000E+00  0.00000000000E+00 -0.56326112591E+02  0.80189905901E+03  0.79991841452E+03 0.  0.
        2    1    3    3  502    0  0.61756164808E+00 -0.39700165900E+03  0.20502678879E+02  0.39753120441E+03  0.25500000920E-02 0. -1.
       -2    1    3    3    0  502 -0.61756164808E+00  0.39700165900E+03 -0.76828791470E+02  0.40436785460E+03  0.25500000920E-02 0.  1.
</event>
<event>
 5   0  0.6593118E-04  0.7995053E+03  0.7818609E-02  0.9560733E-01
        2   -1    0    0  501    0  0.00000000000E+00  0.00000000000E+00  0.20537180027E+03  0.20537180028E+03  0.25500000920E-02 0. -1.
       -2   -1    0    0    0  501  0.00000000000E+00  0.00000000000E+00 -0.77811155057E+03  0.77811155057E+03  0.25500000920E-02 0.  1.
    10030    2    1    2    0    0  0.00000000000E+00  0.00000000000E+00 -0.57273975030E+03  0.98348335085E+03  0.79950527192E+03 0.  0.
        1    1    3    3  502    0 -0.17985051051E+03 -0.17967201629E+03  0.93123922879E+02  0.27074028996E+03  0.50400001928E-02 0. -1.
       -1    1    3    3    0  502  0.17985051051E+03  0.17967201629E+03 -0.66586367318E+03  0.71274306089E+03  0.50400001928E-02 0.  1.
</event>
<event>
 5   0  0.4104786E-04  0.7998130E+03  0.7818609E-02  0.9560288E-01
        1   -1    0    0  501    0  0.00000000000E+00  0.00000000000E+00  0.50223537684E+03  0.50223537687E+03  0.50400001928E-02 0. -1.
       -1   -1    0    0    0  501  0.00000000000E+00  0.00000000000E+00 -0.31842682436E+03  0.31842682440E+03  0.50400001928E-02 0.  1.
    10030    2    1    2    0    0  0.00000000000E+00  0.00000000000E+00  0.18380855248E+03  0.82066220127E+03  0.79981301854E+03 0.  0.
        2    1    3    3  502    0 -0.20553278582E+03 -0.31549877211E+03 -0.46299121910E+02  0.37937687060E+03  0.25500000920E-02 0.  1.
       -2    1    3    3    0  502  0.20553278582E+03  0.31549877211E+03  0.23010767439E+03  0.44128533067E+03  0.25500000920E-02 0. -1.
</event>
<event>
 5   0  0.6593118E-04  0.8003153E+03  0.7818609E-02  0.9559561E-01
        2   -1    0    0  501    0  0.00000000000E+00  0.00000000000E+00  0.10672629724E+04  0.10672629724E+04  0.25500000920E-02 0. -1.
       -2   -1    0    0    0  501  0.00000000000E+00  0.00000000000E+00 -0.15003440430E+03  0.15003440432E+03  0.25500000920E-02 0.  1.
    10030    2    1    2    0    0  0.00000000000E+00  0.00000000000E+00  0.91722856807E+03  0.12172973767E+04  0.80031534861E+03 0.  0.
        1    1    3    3  502    0 -0.38110390138E+03  0.12174565983E+03  0.44644848909E+03  0.59948181188E+03  0.50400001928E-02 0.  1.
       -1    1    3    3    0  502  0.38110390138E+03 -0.12174565983E+03  0.47078007898E+03  0.61781556481E+03  0.50400001928E-02 0. -1.
</event>
<event>
 5   0  0.6970013E-04  0.8010087E+03  0.7818609E-02  0.9558558E-01
       -2   -1    0    0    0  501  0.00000000000E+00  0.00000000000E+00  0.77861728927E+02  0.77861728969E+02  0.25500000920E-02 0. -1.
        2   -1    0    0  501    0  0.00000000000E+00  0.00000000000E+00 -0.20601102548E+04  0.20601102548E+04  0.25500000920E-02 0.  1.
    10030    2    1    2    0    0  0.00000000000E+00  0.00000000000E+00 -0.19822485259E+04  0.21379719837E+04  0.80100872970E+03 0.  0.
        3    1    3    3  502    0 -0.37426275678E+03 -0.86579370426E+02 -0.68873593428E+03  0.78862272086E+03  0.10100000352E+00 0. -1.
       -3    1    3    3    0  502  0.37426275678E+03  0.86579370426E+02 -0.12935125916E+04  0.13493492629E+04  0.10100000352E+00 0.  1.
</event>
<event>
 5   0  0.6970013E-04  0.8003284E+03  0.7818609E-02  0.9559542E-01
        2   -1    0    0  501    0  0.00000000000E+00  0.00000000000E+00  0.56631153108E+03  0.56631153108E+03  0.25500000920E-02 0.  1.
       -2   -1    0    0    0  501  0.00000000000E+00  0.00000000000E+00 -0.28276200702E+03  0.28276200703E+03  0.25500000920E-02 0. -1.
    10030    2    1    2    0    0  0.00000000000E+00  0.00000000000E+00  0.28354952406E+03  0.84907353811E+03  0.80032839543E+03 0.  0.
        3    1    3    3  502    0 -0.25839393034E+03  0.18998699716E+03 -0.11210990487E+03  0.33975156114E+03  0.10100000352E+00 0. -1.
       -3    1    3    3    0  502  0.25839393034E+03 -0.18998699716E+03  0.39565942893E+03  0.50932197697E+03  0.10100000352E+00 0.  1.
</event>
<event>
 5   0  0.4087283E-04  0.8001319E+03  0.7818609E-02  0.9559826E-01
       -1   -1    0    0    0  501  0.00000000000E+00  0.00000000000E+00  0.21780895331E+03  0.21780895337E+03  0.50400001928E-02 0. -1.
        1   -1    0    0  501    0  0.00000000000E+00  0.00000000000E+00 -0.73483098206E+03  0.73483098208E+03  0.50400001928E-02 0.  1.
    10030    2    1    2    0    0  0.00000000000E+00  0.00000000000E+00 -0.51702202875E+03  0.95263993545E+03  0.80013190688E+03 0.  0.
        1    1    3    3  502    0 -0.24933218111E+03  0.46197222601E+02 -0.62692934330E+03  0.67627000631E+03  0.50400001928E-02 0.  1.
       -1    1    3    3    0  502  0.24933218111E+03 -0.46197222601E+02  0.10990731456E+03  0.27636992914E+03  0.50400001928E-02 0. -1.
</event>
<event>
 5   0  0.4086111E-04  0.8000447E+03  0.7818609E-02  0.9559952E-01
        1   -1    0    0  501    0  0.00000000000E+00  0.00000000000E+00  0.51985026000E+03  0.51985026002E+03  0.50400001928E-02 0.  1.
       -1   -1    0    0    0  501  0.00000000000E+00  0.00000000000E+00 -0.30781532215E+03  0.30781532220E+03  0.50400001928E-02 0. -1.
    10030    2    1    2    0    0  0.00000000000E+00  0.00000000000E+00  0.21203493784E+03  0.82766558222E+03  0.80004468695E+03 0.  0.
        3    1    3    3  502    0  0.20187851478E+03  0.34343433299E+03  0.68491335236E+02  0.40421918436E+03  0.10100000352E+00 0. -1.
       -3    1    3    3    0  502 -0.20187851478E+03 -0.34343433299E+03  0.14354360261E+03  0.42344639785E+03  0.10100000352E+00 0.  1.
</event>
<event>
 5   0  0.6970013E-04  0.8003408E+03  0.7818609E-02  0.9559524E-01
       -2   -1    0    0    0  501  0.00000000000E+00  0.00000000000E+00  0.70571275688E+03  0.70571275688E+03  0.25500000920E-02 0. -1.
        2   -1    0    0  501    0  0.00000000000E+00  0.00000000000E+00 -0.22691431924E+03  0.22691431926E+03  0.25500000920E-02 0.  1.
    10030    2    1    2    0    0  0.00000000000E+00  0.00000000000E+00  0.47879843763E+03  0.93262707614E+03  0.80034075198E+03 0.  0.
        3    1    3    3  502    0 -0.25006392775E+03 -0.24916757618E+03  0.19780791876E+02  0.35356433490E+03  0.10100000352E+00 0.  1.
       -3    1    3    3    0  502  0.25006392775E+03  0.24916757618E+03  0.45901764576E+03  0.57906274125E+03  0.10100000352E+00 0. -1.
</event>
<event>
 5   0  0.4086111E-04  0.7999528E+03  0.7818609E-02  0.9560085E-01
        1   -1    0    0  501    0  0.00000000000E+00  0.00000000000E+00  0.55253945785E+03  0.55253945787E+03  0.50400001928E-02 0.  1.
       -1   -1    0    0    0  501  0.00000000000E+00  0.00000000000E+00 -0.28953792603E+03  0.28953792607E+03  0.50400001928E-02 0. -1.
    10030    2    1    2    0    0  0.00000000000E+00  0.00000000000E+00  0.26300153183E+03  0.84207738394E+03  0.79995282036E+03 0.  0.
        3    1    3    3  502    0  0.16265740370E+03  0.31622532286E+03 -0.61239977642E+02  0.36084100496E+03  0.10100000352E+00 0.  1.
       -3    1    3    3    0  502 -0.16265740370E+03 -0.31622532286E+03  0.32424150947E+03  0.48123637899E+03  0.10100000352E+00 0. -1.
</event>
<event>
 5   0  0.7133039E-04  0.7998608E+03  0.7818609E-02  0.9560219E-01
        2   -1    0    0  501    0  0.00000000000E+00  0.00000000000E+00  0.13983344207E+04  0.13983344207E+04  0.25500000920E-02 0. -1.
       -2   -1    0    0    0  501  0.00000000000E+00  0.00000000000E+00 -0.11438202315E+03  0.11438202318E+03  0.25500000920E-02 0.  1.
    10030    2    1    2    0    0  0.00000000000E+00  0.00000000000E+00  0.12839523976E+04  0.15127164439E+04  0.79986078815E+03 0.  0.
        2    1    3    3  502    0  0.17809927489E+03 -0.28080458699E+03  0.22174219776E+03  0.39967508062E+03  0.25500000920E-02 0.  1.
       -2    1    3    3    0  502 -0.17809927489E+03  0.28080458699E+03  0.10622101998E+04  0.11130413633E+04  0.25500000920E-02 0. -1.
</event>
<event>
 5   0  0.4087283E-04  0.8004941E+03  0.7818609E-02  0.9559302E-01
        1   -1    0    0  501    0  0.00000000000E+00  0.00000000000E+00  0.78623327130E+03  0.78623327132E+03  0.50400001928E-02 0. -1.
       -1   -1    0    0    0  501  0.00000000000E+00  0.00000000000E+00 -0.20375340878E+03  0.20375340884E+03  0.50400001928E-02 0.  1.
    10030    2    1    2    0    0  0.00000000000E+00  0.00000000000E+00  0.58247986253E+03  0.98998668016E+03  0.80049412030E+03 0.  0.
        1    1    3    3  502    0 -0.35620405549E+03 -0.55233415825E+02  0.76087525753E+02  0.36840381509E+03  0.50400001928E-02 0.  1.
       -1    1    3    3    0  502  0.35620405549E+03  0.55233415825E+02  0.50639233677E+03  0.62158286507E+03  0.50400001928E-02 0. -1.
</event>
<event>
 5   0  0.4087283E-04  0.8001003E+03  0.7818609E-02  0.9559872E-01
       -1   -1    0    0    0  501  0.00000000000E+00  0.00000000000E+00  0.21894258939E+03  0.21894258945E+03  0.50400001928E-02 0. -1.
        1   -1    0    0  501    0  0.00000000000E+00  0.00000000000E+00 -0.73096838899E+03  0.73096838901E+03  0.50400001928E-02 0.  1.
    10030    2    1    2    0    0  0.00000000000E+00  0.00000000000E+00 -0.51202579960E+03  0.94991097845E+03  0.80010027342E+03 0.  0.
        1    1    3    3  502    0 -0.33356875036E+01 -0.22239008530E+03 -0.65079763690E+03  0.68775434645E+03  0.50400001928E-02 0.  1.
       -1    1    3    3    0  502  0.33356875036E+01  0.22239008530E+03  0.13877183730E+03  0.26215663200E+03  0.50400001928E-02 0. -1.
</event>
<event>
 5   0  0.4104786E-04  0.8004013E+03  0.7818609E-02  0.9559436E-01
        1   -1    0    0  501    0  0.00000000000E+00  0.00000000000E+00  0.48883306462E+03  0.48883306465E+03  0.50400001928E-02 0.  1.
       -1   -1    0    0    0  501  0.00000000000E+00  0.00000000000E+00 -0.32763852387E+03  0.32763852391E+03  0.50400001928E-02 0. -1.
    10030    2    1    2    0    0  0.00000000000E+00  0.00000000000E+00  0.16119454075E+03  0.81647158856E+03  0.80040125872E+03 0.  0.
        2    1    3    3  502    0 -0.10886731199E+03  0.47132209061E+02  0.47048458892E+03  0.48521055756E+03  0.25500000920E-02 0.  1.
       -2    1    3    3    0  502  0.10886731199E+03 -0.47132209061E+02 -0.30929004818E+03  0.33126103100E+03  0.25500000920E-02 0. -1.
</event>
<event>
 5   0  0.6801147E-04  0.7998648E+03  0.7818609E-02  0.9560213E-01
       -2   -1    0    0    0  501  0.00000000000E+00  0.00000000000E+00  0.23663398864E+03  0.23663398865E+03  0.25500000920E-02 0. -1.
        2   -1    0    0  501    0  0.00000000000E+00  0.00000000000E+00 -0.67592114079E+03  0.67592114079E+03  0.25500000920E-02 0.  1.
    10030    2    1    2    0    0  0.00000000000E+00  0.00000000000E+00 -0.43928715215E+03  0.91255512944E+03  0.79986477746E+03 0.  0.
        4    1    3    3  502    0  0.23024574021E+03 -0.32350062973E+03 -0.16518437327E+03  0.43006191228E+03  0.12699999809E+01 0.  1.
       -4    1    3    3    0  502 -0.23024574021E+03  0.32350062973E+03 -0.27410277888E+03  0.48249321716E+03  0.12699999809E+01 0. -1.
</event>
<event>
 5   0  0.4086111E-04  0.7999989E+03  0.7818609E-02  0.9560019E-01
        1   -1    0    0  501    0  0.00000000000E+00  0.00000000000E+00  0.72296812530E+03  0.72296812532E+03  0.50400001928E-02 0. -1.
       -1   -1    0    0    0  501  0.00000000000E+00  0.00000000000E+00 -0.22130930367E+03  0.22130930373E+03  0.50400001928E-02 0.  1.
    10030    2    1    2    0    0  0.00000000000E+00  0.00000000000E+00  0.50165882163E+03  0.94427742905E+03  0.79999893105E+03 0.  0.
        3    1    3    3  502    0  0.21101571919E+03  0.10072102151E+03 -0.13224265228E+03  0.26862704109E+03  0.10100000352E+00 0.  1.
       -3    1    3    3    0  502 -0.21101571919E+03 -0.10072102151E+03  0.63390147392E+03  0.67565038796E+03  0.10100000352E+00 0. -1.
</event>
<event>
 5   0  0.4392552E-04  0.8002074E+03  0.7818609E-02  0.9559717E-01
       -1   -1    0    0    0  501  0.00000000000E+00  0.00000000000E+00  0.46688880275E+03  0.46688880277E+03  0.50400001928E-02 0. -1.
        1   -1    0    0  501    0  0.00000000000E+00  0.00000000000E+00 -0.34287174769E+03  0.34287174773E+03  0.50400001928E-02 0.  1.
    10030    2    1    2    0    0  0.00000000000E+00  0.00000000000E+00  0.12401705506E+03  0.80976055050E+03  0.80020742261E+03 0.  0.
        5    1    3    3  502    0  0.32201851134E+03 -0.58675948784E+02  0.29480295445E+03  0.44053338189E+03  0.46999998093E+01 0. -1.
       -5    1    3    3    0  502 -0.32201851134E+03  0.58675948784E+02 -0.17078589939E+03  0.36922716861E+03  0.46999998093E+01 0.  1.
</event>
<event>
 5   0  0.4104786E-04  0.8012161E+03  0.7818609E-02  0.9558259E-01
       -1   -1    0    0    0  501  0.00000000000E+00  0.00000000000E+00  0.17902762848E+03  0.17902762855E+03  0.50400001928E-02 0.  1.
        1   -1    0    0  501    0  0.00000000000E+00  0.00000000000E+00 -0.89643598181E+03  0.89643598182E+03  0.50400001928E-02 0. -1.
    10030    2    1    2    0    0  0.00000000000E+00  0.00000000000E+00 -0.71740835333E+03  0.10754636104E+04  0.80121609557E+03 0.  0.
        2    1    3    3  502    0  0.10492884579E+03  0.38353739629E+03 -0.42413042096E+03  0.58137561956E+03  0.25500000920E-02 0.  1.
       -2    1    3    3    0  502 -0.10492884579E+03 -0.38353739629E+03 -0.29327793238E+03  0.49408799081E+03  0.25500000920E-02 0. -1.
</event>
<event>
 5   0  0.7133039E-04  0.7996754E+03  0.7818609E-02  0.9560487E-01
        2   -1    0    0  501    0  0.00000000000E+00  0.00000000000E+00  0.11361489867E+04  0.11361489867E+04  0.25500000920E-02 0. -1.
       -2   -1    0    0    0  501  0.00000000000E+00  0.00000000000E+00 -0.14071233089E+03  0.14071233091E+03  0.25500000920E-02 0.  1.
    10030    2    1    2    0    0  0.00000000000E+00  0.00000000000E+00  0.99543665584E+03  0.12768613176E+04  0.79967536457E+03 0.  0.
        2    1    3    3  502    0 -0.77650968316E+02  0.34961407979E+02 -0.12606415647E+03  0.15213199690E+03  0.25500000920E-02 0.  1.
       -2    1    3    3    0  502  0.77650968316E+02 -0.34961407979E+02  0.11215008123E+04  0.11247293207E+04  0.25500000920E-02 0. -1.
</event>
<event>
 5   0  0.2736375E-04  0.8000198E+03  0.7818609E-02  0.9559988E-01
        3   -1    0    0  501    0  0.00000000000E+00  0.00000000000E+00  0.44167109968E+03  0.44167111123E+03  0.10100000352E+00 0.  1.
       -3   -1    0    0    0  501  0.00000000000E+00  0.00000000000E+00 -0.36227840489E+03  0.36227841897E+03  0.10100000352E+00 0. -1.
    10030    2    1    2    0    0  0.00000000000E+00  0.00000000000E+00  0.79392694792E+02  0.80394953020E+03  0.80001977920E+03 0.  0.
        4    1    3    3  502    0  0.32328266299E+02 -0.20955932365E+03 -0.30115417105E+03  0.36831464072E+03  0.12699999809E+01 0. -1.
       -4    1    3    3    0  502 -0.32328266299E+02  0.20955932365E+03  0.38054686584E+03  0.43563488948E+03  0.12699999809E+01 0.  1.
</event>
<event>
 5   0  0.6801147E-04  0.7996761E+03  0.7818609E-02  0.9560486E-01
        2   -1    0    0  501    0  0.00000000000E+00  0.00000000000E+00  0.22382489081E+04  0.22382489081E+04  0.25500000920E-02 0. -1.
       -2   -1    0    0    0  501  0.00000000000E+00  0.00000000000E+00 -0.71426572635E+02  0.71426572681E+02  0.25500000920E-02 0.  1.
    10030    2    1    2    0    0  0.00000000000E+00  0.00000000000E+00  0.21668223355E+04  0.23096754808E+04  0.79967605508E+03 0.  0.
        4    1    3    3  502    0 -0.18091691238E+03 -0.16781402571E+03  0.17474866082E+03  0.30237589813E+03  0.12699999809E+01 0.  1.
       -4    1    3    3    0  502  0.18091691238E+03  0.16781402571E+03  0.19920736747E+04  0.20072995827E+04  0.12699999809E+01 0. -1.
</event>
<event>
 5   0  0.6801147E-04  0.8004399E+03  0.7818609E-02  0.9559381E-01
        2   -1    0    0  501    0  0.00000000000E+00  0.00000000000E+00  0.45698935758E+03  0.45698935759E+03  0.25500000920E-02 0. -1.
       -2   -1    0    0    0  501  0.00000000000E+00  0.00000000000E+00 -0.35050273075E+03  0.35050273076E+03  0.25500000920E-02 0.  1.
    10030    2    1    2    0    0  0.00000000000E+00  0.00000000000E+00  0.10648662683E+03  0.80749208835E+03  0.80043992345E+03 0.  0.
        4    1    3    3  502    0  0.23732827874E+02  0.29735903743E+02 -0.34867227201E+03  0.35074411935E+03  0.12699999809E+01 0.  1.
       -4    1    3    3    0  502 -0.23732827874E+02 -0.29735903743E+02  0.45515889884E+03  0.45674796900E+03  0.12699999809E+01 0. -1.
</event>
<event>
 5   0  0.4169155E-04  0.8009827E+03  0.7818609E-02  0.9558596E-01
       -1   -1    0    0    0  501  0.00000000000E+00  0.00000000000E+00  0.21184673710E+03  0.21184673716E+03  0.50400001928E-02 0.  1.
        1   -1    0    0  501    0  0.00000000000E+00  0.00000000000E+00 -0.75711967618E+03  0.75711967619E+03  0.50400001928E-02 0. -1.
    10030    2    1    2    0    0  0.00000000000E+00  0.00000000000E+00 -0.54527293908E+03  0.96896641335E+03  0.80098272898E+03 0.  0.
        4    1    3    3  502    0  0.32361017710E+03 -0.10249969776E+03 -0.15554224002E+02  0.33981359824E+03  0.12699999809E+01 0.  1.
       -4    1    3    3    0  502 -0.32361017710E+03  0.10249969776E+03 -0.52971871507E+03  0.62915281511E+03  0.12699999809E+01 0. -1.
</event>
<event>
 5   0  0.7133039E-04  0.7999346E+03  0.7818609E-02  0.9560112E-01
       -2   -1    0    0    0  501  0.00000000000E+00  0.00000000000E+00  0.14014035211E+03  0.14014035213E+03  0.25500000920E-02 0.  1.
        2   -1    0    0  501    0  0.00000000000E+00  0.00000000000E+00 -0.11415257643E+04  0.11415257643E+04  0.25500000920E-02 0. -1.
    10030    2    1    2    0    0  0.00000000000E+00  0.00000000000E+00 -0.10013854122E+04  0.12816661164E+04  0.79993455372E+03 0.  0.
        2    1    3    3  502    0 -0.35421686152E+03 -0.15660650876E+03 -0.34064255023E+03  0.51578341443E+03  0.25500000920E-02 0.  1.
       -2    1    3    3    0  502  0.35421686152E+03  0.15660650876E+03 -0.66074286195E+03  0.76588270198E+03  0.25500000920E-02 0. -1.
</event>
<event>
 5   0  0.2736375E-04  0.7987887E+03  0.7818609E-02  0.9561772E-01
        3   -1    0    0  501    0  0.00000000000E+00  0.00000000000E+00  0.14616016804E+03  0.14616020293E+03  0.10100000352E+00 0. -1.
       -3   -1    0    0    0  501  0.00000000000E+00  0.00000000000E+00 -0.10913767789E+04  0.10913767836E+04  0.10100000352E+00 0.  1.
    10030    2    1    2    0    0  0.00000000000E+00  0.00000000000E+00 -0.94521661088E+03  0.12375369865E+04  0.79878867764E+03 0.  0.
        1    1    3    3  502    0 -0.53780060672E+02 -0.12132945383E+03 -0.10562168299E+04  0.10645220162E+04  0.50400001928E-02 0.  1.
       -1    1    3    3    0  502  0.53780060672E+02  0.12132945383E+03  0.11100021901E+03  0.17301497028E+03  0.50400001928E-02 0. -1.
</event>
<event>
 5   0  0.6801147E-04  0.8003311E+03  0.7818609E-02  0.9559538E-01
        2   -1    0    0  501    0  0.00000000000E+00  0.00000000000E+00  0.51364509008E+03  0.51364509009E+03  0.25500000920E-02 0. -1.
       -2   -1    0    0    0  501  0.00000000000E+00  0.00000000000E+00 -0.31175700803E+03  0.31175700804E+03  0.25500000920E-02 0.  1.
    10030    2    1    2    0    0  0.00000000000E+00  0.00000000000E+00  0.20188808205E+03  0.82540209813E+03  0.80033107270E+03 0.  0.
        4    1    3    3  502    0  0.90942034755E+02 -0.52968934771E+02  0.49911419293E+03  0.51009092544E+03  0.12699999809E+01 0. -1.
       -4    1    3    3    0  502 -0.90942034755E+02  0.52968934771E+02 -0.29722611088E+03  0.31531117269E+03  0.12699999809E+01 0.  1.
</event>
<event>
 5   0  0.6672462E-04  0.8009281E+03  0.7818609E-02  0.9558675E-01
        2   -1    0    0  501    0  0.00000000000E+00  0.00000000000E+00  0.35252694377E+03  0.35252694378E+03  0.25500000920E-02 0.  1.
       -2   -1    0    0    0  501  0.00000000000E+00  0.00000000000E+00 -0.45491970203E+03  0.45491970204E+03  0.25500000920E-02 0. -1.
    10030    2    1    2    0    0  0.00000000000E+00  0.00000000000E+00 -0.10239275826E+03  0.80744664582E+03  0.80092809222E+03 0.  0.
        5    1    3    3  502    0 -0.18363229494E+03  0.33242703432E+03 -0.17919748710E+03  0.41995521461E+03  0.46999998093E+01 0. -1.
       -5    1    3    3    0  502  0.18363229494E+03 -0.33242703432E+03  0.76804728843E+02  0.38749143121E+03  0.46999998093E+01 0.  1.
</event>
<event>
 5   0  0.2736375E-04  0.7999361E+03  0.7818609E-02  0.9560110E-01
       -4   -1    0    0    0  501  0.00000000000E+00  0.00000000000E+00  0.18789780148E+03  0.18790209339E+03  0.12699999809E+01 0.  1.
        4   -1    0    0  501    0  0.00000000000E+00  0.00000000000E+00 -0.85137622265E+03  0.85137716988E+03  0.12699999809E+01 0. -1.
    10030    2    1    2    0    0  0.00000000000E+00  0.00000000000E+00 -0.66347842117E+03  0.10392792633E+04  0.79993610476E+03 0.  0.
        2    1    3    3  502    0 -0.24858244414E+03 -0.21670658296E+03 -0.62577114142E+03  0.70735033475E+03  0.25500000920E-02 0. -1.
       -2    1    3    3    0  502  0.24858244414E+03  0.21670658296E+03 -0.37707279748E+02  0.33192892851E+03  0.25500000920E-02 0.  1.
</event>
<event>
 5   0  0.6970013E-04  0.8000997E+03  0.7818609E-02  0.9559873E-01
       -2   -1    0    0    0  501  0.00000000000E+00  0.00000000000E+00  0.69098658486E+03  0.69098658487E+03  0.25500000920E-02 0.  1.
        2   -1    0    0  501    0  0.00000000000E+00  0.00000000000E+00 -0.23161067029E+03  0.23161067030E+03  0.25500000920E-02 0. -1.
    10030    2    1    2    0    0  0.00000000000E+00  0.00000000000E+00  0.45937591458E+03  0.92259725517E+03  0.80009965901E+03 0.  0.
        3    1    3    3  502    0  0.24575244472E+03  0.18310433337E+03  0.52619104741E+03  0.60893225367E+03  0.10100000352E+00 0.  1.
       -3    1    3    3    0  502 -0.24575244472E+03 -0.18310433337E+03 -0.66815132829E+02  0.31366500150E+03  0.10100000352E+00 0. -1.
</event>
<event>
 5   0  0.4392552E-04  0.7962011E+03  0.7818609E-02  0.9565532E-01
        1   -1    0    0  501    0  0.00000000000E+00  0.00000000000E+00  0.72410092845E+03  0.72410092846E+03  0.50400001928E-02 0.  1.
       -1   -1    0    0    0  501  0.00000000000E+00  0.00000000000E+00 -0.21887012900E+03  0.21887012906E+03  0.50400001928E-02 0. -1.
    10030    2    1    2    0    0  0.00000000000E+00  0.00000000000E+00  0.50523079944E+03  0.94297105752E+03  0.79620113955E+03 0.  0.
        5    1    3    3  502    0  0.28999636320E+02 -0.77032572686E+02 -0.20864876641E+03  0.22434659321E+03  0.46999998093E+01 0. -1.
       -5    1    3    3    0  502 -0.28999636320E+02  0.77032572686E+02  0.71387956586E+03  0.71862446431E+03  0.46999998093E+01 0.  1.
</event>
<event>
 5   0  0.4104786E-04  0.7999960E+03  0.7818609E-02  0.9560023E-01
        1   -1    0    0  501    0  0.00000000000E+00  0.00000000000E+00  0.18167976127E+03  0.18167976134E+03  0.50400001928E-02 0.  1.
       -1   -1    0    0    0  501  0.00000000000E+00  0.00000000000E+00 -0.88066171226E+03  0.88066171228E+03  0.50400001928E-02 0. -1.
    10030    2    1    2    0    0  0.00000000000E+00  0.00000000000E+00 -0.69898195099E+03  0.10623414736E+04  0.79999602422E+03 0.  0.
        2    1    3    3  502    0  0.42127707719E+02  0.34919127602E+03 -0.60245835296E+03  0.69761404664E+03  0.25500000920E-02 0. -1.
       -2    1    3    3    0  502 -0.42127707719E+02 -0.34919127602E+03 -0.96523598026E+02  0.36472742698E+03  0.25500000920E-02 0.  1.
</event>
<event>
 5   0  0.6593118E-04  0.8001354E+03  0.7818609E-02  0.9559821E-01
       -2   -1    0    0    0  501  0.00000000000E+00  0.00000000000E+00  0.68743421063E+03  0.68743421063E+03  0.25500000920E-02 0.  1.
        2   -1    0    0  501    0  0.00000000000E+00  0.00000000000E+00 -0.23282832301E+03  0.23282832303E+03  0.25500000920E-02 0. -1.
    10030    2    1    2    0    0  0.00000000000E+00  0.00000000000E+00  0.45460588761E+03  0.92026253366E+03  0.80013537467E+03 0.  0.
        1    1    3    3  502    0  0.34739795171E+03  0.90333817407E+02  0.24120796667E+02  0.35976012602E+03  0.50400001928E-02 0.  1.
       -1    1    3    3    0  502 -0.34739795171E+03 -0.90333817407E+02  0.43048509095E+03  0.56050240764E+03  0.50400001928E-02 0. -1.
</event>
<event>
 5   0  0.4169155E-04  0.7997203E+03  0.7818609E-02  0.9560422E-01
       -1   -1    0    0    0  501  0.00000000000E+00  0.00000000000E+00  0.29449138213E+03  0.29449138218E+03  0.50400001928E-02 0. -1.
        1   -1    0    0  501    0  0.00000000000E+00  0.00000000000E+00 -0.54292972556E+03  0.54292972558E+03  0.50400001928E-02 0.  1.
    10030    2    1    2    0    0  0.00000000000E+00  0.00000000000E+00 -0.24843834343E+03  0.83742110776E+03  0.79972026436E+03 0.  0.
        4    1    3    3  502    0 -0.10437457216E+03 -0.16914394820E+03 -0.48753807724E+03  0.52649664404E+03  0.12699999809E+01 0.  1.
       -4    1    3    3    0  502  0.10437457216E+03  0.16914394820E+03  0.23909973382E+03  0.31092446372E+03  0.12699999809E+01 0. -1.
</event>
<event>
 5   0  0.6970013E-04  0.8006393E+03  0.7818609E-02  0.9559092E-01
        2   -1    0    0  501    0  0.00000000000E+00  0.00000000000E+00  0.70965925523E+03  0.70965925523E+03  0.25500000920E-02 0.  1.
       -2   -1    0    0    0  501  0.00000000000E+00  0.00000000000E+00 -0.22582079882E+03  0.22582079883E+03  0.25500000920E-02 0. -1.
    10030    2    1    2    0    0  0.00000000000E+00  0.00000000000E+00  0.48383845641E+03  0.93548005406E+03  0.80063929434E+03 0.  0.
        3    1    3    3  502    0 -0.21904144847E+03 -0.25472092665E+03  0.49628511614E+03  0.59930028644E+03  0.10100000352E+00 0.  1.
       -3    1    3    3    0  502  0.21904144847E+03  0.25472092665E+03 -0.12446659734E+02  0.33617976762E+03  0.10100000352E+00 0. -1.
</event>
<event>
 5   0  0.4086111E-04  0.8002486E+03  0.7818609E-02  0.9559657E-01
        1   -1    0    0  501    0  0.00000000000E+00  0.00000000000E+00  0.31335912907E+03  0.31335912911E+03  0.50400001928E-02 0. -1.
       -1   -1    0    0    0  501  0.00000000000E+00  0.00000000000E+00 -0.51091359853E+03  0.51091359855E+03  0.50400001928E-02 0.  1.
    10030    2    1    2    0    0  0.00000000000E+00  0.00000000000E+00 -0.19755446945E+03  0.82427272767E+03  0.80024856212E+03 0.  0.
        3    1    3    3  502    0 -0.17300131882E+03 -0.26052107208E+02 -0.46942915902E+03  0.50097097136E+03  0.10100000352E+00 0.  1.
       -3    1    3    3    0  502  0.17300131882E+03  0.26052107208E+02  0.27187468957E+03  0.32330175631E+03  0.10100000352E+00 0. -1.
</event>
<event>
 5   0  0.4086111E-04  0.8002948E+03  0.7818609E-02  0.9559590E-01
        1   -1    0    0  501    0  0.00000000000E+00  0.00000000000E+00  0.33010081368E+03  0.33010081372E+03  0.50400001928E-02 0.  1.
       -1   -1    0    0    0  501  0.00000000000E+00  0.00000000000E+00 -0.48505772984E+03  0.48505772987E+03  0.50400001928E-02 0. -1.
    10030    2    1    2    0    0  0.00000000000E+00  0.00000000000E+00 -0.15495691616E+03  0.81515854359E+03  0.80029482400E+03 0.  0.
        3    1    3    3  502    0 -0.22708246352E+03 -0.27289966670E+03  0.11055037911E+03  0.37183607927E+03  0.10100000352E+00 0.  1.
       -3    1    3    3    0  502  0.22708246352E+03  0.27289966670E+03 -0.26550729527E+03  0.44332246432E+03  0.10100000352E+00 0. -1.
</event>
<event>
 5   0  0.4392552E-04  0.8000969E+03  0.7818609E-02  0.9559877E-01
       -1   -1    0    0    0  501  0.00000000000E+00  0.00000000000E+00  0.75005979999E+02  0.75005980168E+02  0.50400001928E-02 0. -1.
        1   -1    0    0  501    0  0.00000000000E+00  0.00000000000E+00 -0.21336801658E+04  0.21336801658E+04  0.50400001928E-02 0.  1.
    10030    2    1    2    0    0  0.00000000000E+00  0.00000000000E+00 -0.20586741858E+04  0.22086861460E+04  0.80009692421E+03 0.  0.
        5    1    3    3  502    0 -0.13349558353E+03 -0.17952030811E+03 -0.19447661808E+04  0.19575970474E+04  0.46999998093E+01 0.  1.
       -5    1    3    3    0  502  0.13349558353E+03  0.17952030811E+03 -0.11390800502E+03  0.25108909863E+03  0.46999998093E+01 0. -1.
</event>
<event>
 5   0  0.7133039E-04  0.8003488E+03  0.7818609E-02  0.9559512E-01
       -2   -1    0    0    0  501  0.00000000000E+00  0.00000000000E+00  0.11809590025E+03  0.11809590028E+03  0.25500000920E-02 0. -1.
        2   -1    0    0  501    0  0.00000000000E+00  0.00000000000E+00 -0.13560127731E+04  0.13560127731E+04  0.25500000920E-02 0.  1.
    10030    2    1    2    0    0  0.00000000000E+00  0.00000000000E+00 -0.12379168728E+04  0.14741086734E+04  0.80034879700E+03 0.  0.
        2    1    3    3  502    0 -0.11740254205E+03  0.23896236710E+03 -0.68705900278E+02  0.27496703531E+03  0.25500000920E-02 0. -1.
       -2    1    3    3    0  502  0.11740254205E+03 -0.23896236710E+03 -0.11692109726E+04  0.11991416381E+04  0.25500000920E-02 0.  1.
</event>
<event>
 5   0  0.6672462E-04  0.8001833E+03  0.7818609E-02  0.9559752E-01
       -2   -1    0    0    0  501  0.00000000000E+00  0.00000000000E+00  0.99505187158E+02  0.99505187191E+02  0.25500000920E-02 0. -1.
        2   -1    0    0  501    0  0.00000000000E+00  0.00000000000E+00 -0.16086934010E+04  0.16086934010E+04  0.25500000920E-02 0.  1.
    10030    2    1    2    0    0  0.00000000000E+00  0.00000000000E+00 -0.15091882138E+04  0.17081985881E+04  0.80018332392E+03 0.  0.
        5    1    3    3  502    0  0.56792389801E+02 -0.21181036917E+03 -0.40287525620E+02  0.22301162020E+03  0.46999998093E+01 0. -1.
       -5    1    3    3    0  502 -0.56792389801E+02  0.21181036917E+03 -0.14689006882E+04  0.14851869679E+04  0.46999998093E+01 0.  1.
</event>
<event>
 5   0  0.4169155E-04  0.8000992E+03  0.7818609E-02  0.9559873E-01
       -1   -1    0    0    0  501  0.00000000000E+00  0.00000000000E+00  0.90912965647E+02  0.90912965786E+02  0.50400001928E-02 0.  1.
        1   -1    0    0  501    0  0.00000000000E+00  0.00000000000E+00 -0.17603616680E+04  0.17603616680E+04  0.50400001928E-02 0. -1.
    10030    2    1    2    0    0  0.00000000000E+00  0.00000000000E+00 -0.16694487023E+04  0.18512746338E+04  0.80009924380E+03 0.  0.
        4    1    3    3  502    0 -0.18559184333E+03 -0.26928287888E+03 -0.13678068630E+04  0.14063622679E+04  0.12699999809E+01 0. -1.
       -4    1    3    3    0  502  0.18559184333E+03  0.26928287888E+03 -0.30164183930E+03  0.44491236585E+03  0.12699999809E+01 0.  1.
</event>
<event>
 5   0  0.6801147E-04  0.8000813E+03  0.7818609E-02  0.9559899E-01
       -2   -1    0    0    0  501  0.00000000000E+00  0.00000000000E+00  0.57875189271E+03  0.57875189272E+03  0.25500000920E-02 0.  1.
        2   -1    0    0  501    0  0.00000000000E+00  0.00000000000E+00 -0.27651315156E+03  0.27651315157E+03  0.25500000920E-02 0. -1.
    10030    2    1    2    0    0  0.00000000000E+00  0.00000000000E+00  0.30223874115E+03  0.85526504429E+03  0.80008127045E+03 0.  0.
        4    1    3    3  502    0 -0.77048877020E+02  0.20605255021E+03 -0.20604665469E+03  0.30141502900E+03  0.12699999809E+01 0. -1.
       -4    1    3    3    0  502  0.77048877020E+02 -0.20605255021E+03  0.50828539585E+03  0.55385001528E+03  0.12699999809E+01 0.  1.
</event>
<event>
 5   0  0.4392552E-04  0.8002364E+03  0.7818609E-02  0.9559675E-01
       -1   -1    0    0    0  501  0.00000000000E+00  0.00000000000E+00  0.10021109153E+03  0.10021109165E+03  0.50400001928E-02 0. -1.
        1   -1    0    0  501    0  0.00000000000E+00  0.00000000000E+00 -0.15975734724E+04  0.15975734724E+04  0.50400001928E-02 0.  1.
    10030    2    1    2    0    0  0.00000000000E+00  0.00000000000E+00 -0.14973623809E+04  0.16977845641E+04  0.80023641900E+03 0.  0.
        5    1    3    3  502    0 -0.27417194309E+03  0.25803030103E+03 -0.46149878428E+03  0.59561154163E+03  0.46999998093E+01 0. -1.
       -5    1    3    3    0  502  0.27417194309E+03 -0.25803030103E+03 -0.10358635966E+04  0.11021730224E+04  0.46999998093E+01 0.  1.
</event>
<event>
 5   0  0.7133039E-04  0.8006129E+03  0.7818609E-02  0.9559130E-01
        2   -1    0    0  501    0  0.00000000000E+00  0.00000000000E+00  0.15649097157E+04  0.15649097157E+04  0.25500000920E-02 0.  1.
       -2   -1    0    0    0  501  0.00000000000E+00  0.00000000000E+00 -0.10239904758E+03  0.10239904761E+03  0.25500000920E-02 0. -1.
    10030    2    1    2    0    0  0.00000000000E+00  0.00000000000E+00  0.14625106681E+04  0.16673087633E+04  0.80061292636E+03 0.  0.
        2    1    3    3  502    0 -0.75535544664E+02  0.14283075593E+03 -0.31474969499E+02  0.16461141229E+03  0.25500000920E-02 0. -1.
       -2    1    3    3    0  502  0.75535544664E+02 -0.14283075593E+03  0.14939856376E+04  0.15026973510E+04  0.25500000920E-02 0.  1.
</event>
<event>
 5   0  0.6970013E-04  0.8002485E+03  0.7818609E-02  0.9559658E-01
       -2   -1    0    0    0  501  0.00000000000E+00  0.00000000000E+00  0.27902900400E+03  0.27902900402E+03  0.25500000920E-02 0.  1.
        2   -1    0    0  501    0  0.00000000000E+00  0.00000000000E+00 -0.57377335527E+03  0.57377335527E+03  0.25500000920E-02 0. -1.
    10030    2    1    2    0    0  0.00000000000E+00  0.00000000000E+00 -0.29474435126E+03  0.85280235929E+03  0.80024848104E+03 0.  0.
        3    1    3    3  502    0 -0.22078411825E+03 -0.53011204002E+02  0.20372360597E+03  0.30505594971E+03  0.10100000352E+00 0.  1.
       -3    1    3    3    0  502  0.22078411825E+03  0.53011204002E+02 -0.49846795723E+03  0.54774640958E+03  0.10100000352E+00 0. -1.
</event>
<event>
 5   0  0.4104786E-04  0.7999924E+03  0.7818609E-02  0.9560028E-01
        1   -1    0    0  501    0  0.00000000000E+00  0.00000000000E+00  0.15363703397E+03  0.15363703405E+03  0.50400001928E-02 0. -1.
       -1   -1    0    0    0  501  0.00000000000E+00  0.00000000000E+00 -0.10413958144E+04  0.10413958144E+04  0.50400001928E-02 0.  1.
    10030    2    1    2    0    0  0.00000000000E+00  0.00000000000E+00 -0.88775878046E+03  0.11950328485E+04  0.79999241040E+03 0.  0.
        2    1    3    3  502    0  0.29927927323E+03  0.26463331186E+03 -0.41407466122E+03  0.57537526728E+03  0.25500000920E-02 0. -1.
       -2    1    3    3    0  502 -0.29927927323E+03 -0.26463331186E+03 -0.47368411924E+03  0.61965758121E+03  0.25500000920E-02 0.  1.
</event>
<event>
 5   0  0.4392552E-04  0.8022087E+03  0.7818609E-02  0.9556826E-01
       -1   -1    0    0    0  501  0.00000000000E+00  0.00000000000E+00  0.11241574078E+04  0.11241574078E+04  0.50400001928E-02 0. -1.
        1   -1    0    0  501    0  0.00000000000E+00  0.00000000000E+00 -0.14311579577E+03  0.14311579586E+03  0.50400001928E-02 0.  1.
    10030    2    1    2    0    0  0.00000000000E+00  0.00000000000E+00  0.98104161201E+03  0.12672732036E+04  0.80220865627E+03 0.  0.
        5    1    3    3  502    0 -0.29591884150E+03  0.97059868794E+01  0.63115696691E+02  0.30276698648E+03  0.46999998093E+01 0.  1.
       -5    1    3    3    0  502  0.29591884150E+03 -0.97059868794E+01  0.91792591532E+03  0.96450621716E+03  0.46999998093E+01 0. -1.
</event>
<event>
 5   0  0.6970013E-04  0.8005949E+03  0.7818609E-02  0.9559156E-01
       -2   -1    0    0    0  501  0.00000000000E+00  0.00000000000E+00  0.25973025428E+03  0.25973025429E+03  0.25500000920E-02 0.  1.
        2   -1    0    0  501    0  0.00000000000E+00  0.00000000000E+00 -0.61694018138E+03  0.61694018138E+03  0.25500000920E-02 0. -1.
    10030    2    1    2    0    0  0.00000000000E+00  0.00000000000E+00 -0.35720992710E+03  0.87667043567E+03  0.80059485432E+03 0.  0.
        3    1    3    3  502    0  0.70197960384E+02 -0.33106625179E+03  0.55498230462E+02  0.34294705204E+03  0.10100000352E+00 0.  1.
       -3    1    3    3    0  502 -0.70197960384E+02  0.33106625179E+03 -0.41270815756E+03  0.53372338363E+03  0.10100000352E+00 0. -1.
</event>
<event>
 5   0  0.6970013E-04  0.7995889E+03  0.7818609E-02  0.9560612E-01
        2   -1    0    0  501    0  0.00000000000E+00  0.00000000000E+00  0.13837967920E+04  0.13837967920E+04  0.25500000920E-02 0. -1.
       -2   -1    0    0    0  501  0.00000000000E+00  0.00000000000E+00 -0.11550509918E+03  0.11550509921E+03  0.25500000920E-02 0.  1.
    10030    2    1    2    0    0  0.00000000000E+00  0.00000000000E+00  0.12682916928E+04  0.14993018912E+04  0.79958885868E+03 0.  0.
        3    1    3    3  502    0 -0.21687226422E+03 -0.20459457211E+03  0.13471276480E+03  0.32716976805E+03  0.10100000352E+00 0.  1.
       -3    1    3    3    0  502  0.21687226422E+03  0.20459457211E+03  0.11335789280E+04  0.11721321231E+04  0.10100000352E+00 0. -1.
</event>
<event>
 5   0  0.7133039E-04  0.8005978E+03  0.7818609E-02  0.9559152E-01
       -2   -1    0    0    0  501  0.00000000000E+00  0.00000000000E+00  0.29922211379E+03  0.29922211380E+03  0.25500000920E-02 0. -1.
        2   -1    0    0  501    0  0.00000000000E+00  0.00000000000E+00 -0.53551931013E+03  0.53551931014E+03  0.25500000920E-02 0.  1.
    10030    2    1    2    0    0  0.00000000000E+00  0.00000000000E+00 -0.23629719635E+03  0.83474142394E+03  0.80059782653E+03 0.  0.
        2    1    3    3  502    0 -0.14928033794E+02 -0.33682754345E+03  0.10684011901E+03  0.35368128485E+03  0.25500000920E-02 0. -1.
       -2    1    3    3    0  502  0.14928033794E+02  0.33682754345E+03 -0.34313731536E+03  0.48106013909E+03  0.25500000920E-02 0.  1.
</event>
<event>
 5   0  0.4087283E-04  0.8009235E+03  0.7818609E-02  0.9558681E-01
       -1   -1    0    0    0  501  0.00000000000E+00  0.00000000000E+00  0.11485534484E+04  0.11485534484E+04  0.50400001928E-02 0.  1.
        1   -1    0    0  501    0  0.00000000000E+00  0.00000000000E+00 -0.13962746155E+03  0.13962746164E+03  0.50400001928E-02 0. -1.
    10030    2    1    2    0    0  0.00000000000E+00  0.00000000000E+00  0.10089259869E+04  0.12881809101E+04  0.80092347332E+03 0.  0.
        1    1    3    3  502    0  0.49382417532E+02 -0.17355762481E+03 -0.70534692549E+02  0.19374213576E+03  0.50400001928E-02 0. -1.
       -1    1    3    3    0  502 -0.49382417532E+02  0.17355762481E+03  0.10794606794E+04  0.10944387743E+04  0.50400001928E-02 0.  1.
</event>
<event>
 5   0  0.6801147E-04  0.7997542E+03  0.7818609E-02  0.9560373E-01
        2   -1    0    0  501    0  0.00000000000E+00  0.00000000000E+00  0.89938987159E+03  0.89938987159E+03  0.25500000920E-02 0. -1.
       -2   -1    0    0    0  501  0.00000000000E+00  0.00000000000E+00 -0.17778909106E+03  0.17778909108E+03  0.25500000920E-02 0.  1.
    10030    2    1    2    0    0  0.00000000000E+00  0.00000000000E+00  0.72160078053E+03  0.10771789627E+04  0.79975423172E+03 0.  0.
        4    1    3    3  502    0 -0.68291822699E+02  0.10030791738E+03 -0.15238785539E+03  0.19480534568E+03  0.12699999809E+01 0.  1.
       -4    1    3    3    0  502  0.68291822699E+02 -0.10030791738E+03  0.87398863592E+03  0.88237361698E+03  0.12699999809E+01 0. -1.
</event>
<event>
 5   0  0.6970013E-04  0.8000389E+03  0.7818609E-02  0.9559961E-01
        2   -1    0    0  501    0  0.00000000000E+00  0.00000000000E+00  0.38010901949E+03  0.38010901949E+03  0.25500000920E-02 0.  1.
       -2   -1    0    0    0  501  0.00000000000E+00  0.00000000000E+00 -0.42097281436E+03  0.42097281437E+03  0.25500000920E-02 0. -1.
    10030    2    1    2    0    0  0.00000000000E+00  0.00000000000E+00 -0.40863794872E+02  0.80108183386E+03  0.80003890831E+03 0.  0.
        3    1    3    3  502    0  0.96698449205E+02  0.30158902197E+03  0.22424094396E+03  0.38805996882E+03  0.10100000352E+00 0.  1.
       -3    1    3    3    0  502 -0.96698449205E+02 -0.30158902197E+03 -0.26510473883E+03  0.41302186504E+03  0.10100000352E+00 0. -1.
</event>
<event>
 5   0  0.2736375E-04  0.7997433E+03  0.7818609E-02  0.9560389E-01
        4   -1    0    0  501    0  0.00000000000E+00  0.00000000000E+00  0.14463774728E+04  0.14463780304E+04  0.12699999809E+01 0. -1.
       -4   -1    0    0    0  501  0.00000000000E+00  0.00000000000E+00 -0.11054599843E+03  0.11055329334E+03  0.12699999809E+01 0.  1.
    10030    2    1    2    0    0  0.00000000000E+00  0.00000000000E+00  0.13358314744E+04  0.15569313237E+04  0.79974334559E+03 0.  0.
        1    1    3    3  502    0 -0.10862055677E+03 -0.38374416386E+03  0.61151440764E+03  0.73007388628E+03  0.50400001928E-02 0.  1.
       -1    1    3    3    0  502  0.10862055677E+03  0.38374416386E+03  0.72431706673E+03  0.82685743743E+03  0.50400001928E-02 0. -1.
</event>
<event>
 5   0  0.4169155E-04  0.7998470E+03  0.7818609E-02  0.9560239E-01
        1   -1    0    0  501    0  0.00000000000E+00  0.00000000000E+00  0.76927300285E+03  0.76927300287E+03  0.50400001928E-02 0. -1.
       -1   -1    0    0    0  501  0.00000000000E+00  0.00000000000E+00 -0.20790903305E+03  0.20790903311E+03  0.50400001928E-02 0.  1.
    10030    2    1    2    0    0  0.00000000000E+00  0.00000000000E+00  0.56136396980E+03  0.97718203598E+03  0.79984700091E+03 0.  0.
        4    1    3    3  502    0 -0.13112575459E+03 -0.90408630239E+01  0.74212910040E+03  0.75367958396E+03  0.12699999809E+01 0. -1.
       -4    1    3    3    0  502  0.13112575459E+03  0.90408630239E+01 -0.18076513060E+03  0.22350245203E+03  0.12699999809E+01 0.  1.
</event>
<event>
 5   0  0.6593118E-04  0.8000916E+03  0.7818609E-02  0.9559884E-01
        2   -1    0    0  501    0  0.00000000000E+00  0.00000000000E+00  0.13087523717E+04  0.13087523717E+04  0.25500000920E-02 0.  1.
       -2   -1    0    0    0  501  0.00000000000E+00  0.00000000000E+00 -0.12228184228E+03  0.12228184231E+03  0.25500000920E-02 0. -1.
    10030    2    1    2    0    0  0.00000000000E+00  0.00000000000E+00  0.11864705294E+04  0.14310342140E+04  0.80009162256E+03 0.  0.
        1    1    3    3  502    0 -0.18080602385E+03  0.30388824655E+03  0.25863178088E+03  0.43809734393E+03  0.50400001928E-02 0. -1.
       -1    1    3    3    0  502  0.18080602385E+03 -0.30388824655E+03  0.92783874855E+03  0.99293687009E+03  0.50400001928E-02 0.  1.
</event>
<event>
 5   0  0.4392552E-04  0.7999138E+03  0.7818609E-02  0.9560142E-01
        1   -1    0    0  501    0  0.00000000000E+00  0.00000000000E+00  0.62442039870E+03  0.62442039872E+03  0.50400001928E-02 0. -1.
       -1   -1    0    0    0  501  0.00000000000E+00  0.00000000000E+00 -0.25618242539E+03  0.25618242544E+03  0.50400001928E-02 0.  1.
    10030    2    1    2    0    0  0.00000000000E+00  0.00000000000E+00  0.36823797331E+03  0.88060282416E+03  0.79991382594E+03 0.  0.
        5    1    3    3  502    0  0.26921132676E+03  0.16765997533E+03  0.45233182390E+03  0.55245884434E+03  0.46999998093E+01 0. -1.
       -5    1    3    3    0  502 -0.26921132676E+03 -0.16765997533E+03 -0.84093850592E+02  0.32814397982E+03  0.46999998093E+01 0.  1.
</event>
<event>
 5   0  0.4169155E-04  0.7997978E+03  0.7818609E-02  0.9560310E-01
       -1   -1    0    0    0  501  0.00000000000E+00  0.00000000000E+00  0.16816314786E+03  0.16816314793E+03  0.50400001928E-02 0.  1.
        1   -1    0    0  501    0  0.00000000000E+00  0.00000000000E+00 -0.95097596086E+03  0.95097596087E+03  0.50400001928E-02 0. -1.
    10030    2    1    2    0    0  0.00000000000E+00  0.00000000000E+00 -0.78281281300E+03  0.11191391088E+04  0.79979775235E+03 0.  0.
        4    1    3    3  502    0  0.32505389097E+03  0.13975027724E+03 -0.13064725043E+03  0.37717434824E+03  0.12699999809E+01 0.  1.
       -4    1    3    3    0  502 -0.32505389097E+03 -0.13975027724E+03 -0.65216556257E+03  0.74196476057E+03  0.12699999809E+01 0. -1.
</event>
<event>
 5   0  0.6970013E-04  0.7997209E+03  0.7818609E-02  0.9560421E-01
       -2   -1    0    0    0  501  0.00000000000E+00  0.00000000000E+00  0.35542400767E+03  0.35542400768E+03  0.25500000920E-02 0.  1.
        2   -1    0    0  501    0  0.00000000000E+00  0.00000000000E+00 -0.44985246730E+03  0.44985246731E+03  0.25500000920E-02 0. -1.
    10030    2    1    2    0    0  0.00000000000E+00  0.00000000000E+00 -0.94428459627E+02  0.80527647499E+03  0.79972086829E+03 0.  0.
        3    1    3    3  502    0  0.86358046199E+02 -0.34608304948E+03  0.13475411249E+03  0.38130023645E+03  0.10100000352E+00 0.  1.
       -3    1    3    3    0  502 -0.86358046199E+02  0.34608304948E+03 -0.22918257212E+03  0.42397623854E+03  0.10100000352E+00 0. -1.
</event>
<event>
 5   0  0.4169155E-04  0.7999103E+03  0.7818609E-02  0.9560147E-01
        1   -1    0    0  501    0  0.00000000000E+00  0.00000000000E+00  0.81586364563E+03  0.81586364565E+03  0.50400001928E-02 0. -1.
       -1   -1    0    0    0  501  0.00000000000E+00  0.00000000000E+00 -0.19606721205E+03  0.19606721212E+03  0.50400001928E-02 0.  1.
    10030    2    1    2    0    0  0.00000000000E+00  0.00000000000E+00  0.61979643358E+03  0.10119308578E+04  0.79991027110E+03 0.  0.
        4    1    3    3  502    0 -0.33585818289E+03 -0.20982884825E+03  0.38071458177E+03  0.54933966746E+03  0.12699999809E+01 0.  1.
       -4    1    3    3    0  502  0.33585818289E+03  0.20982884825E+03  0.23908185181E+03  0.46259119030E+03  0.12699999809E+01 0. -1.
</event>
<event>
 5   0  0.4087283E-04  0.7993698E+03  0.7818609E-02  0.9560930E-01
        1   -1    0    0  501    0  0.00000000000E+00  0.00000000000E+00  0.33094872444E+03  0.33094872447E+03  0.50400001928E-02 0.  1.
       -1   -1    0    0    0  501  0.00000000000E+00  0.00000000000E+00 -0.48269718110E+03  0.48269718113E+03  0.50400001928E-02 0. -1.
    10030    2    1    2    0    0  0.00000000000E+00  0.00000000000E+00 -0.15174845667E+03  0.81364590560E+03  0.79936979278E+03 0.  0.
        1    1    3    3  502    0  0.75229304938E+02  0.26750978193E+02 -0.47449699641E+03  0.48116781146E+03  0.50400001928E-02 0. -1.
       -1    1    3    3    0  502 -0.75229304938E+02 -0.26750978193E+02  0.32274853974E+03  0.33247809415E+03  0.50400001928E-02 0.  1.
</event>
<event>
 5   0  0.4104786E-04  0.7993945E+03  0.7818609E-02  0.9560894E-01
        1   -1    0    0  501    0  0.00000000000E+00  0.00000000000E+00  0.17043581108E+04  0.17043581108E+04  0.50400001928E-02 0. -1.
       -1   -1    0    0    0  501  0.00000000000E+00  0.00000000000E+00 -0.93734930710E+02  0.93734930845E+02  0.50400001928E-02 0.  1.
    10030    2    1    2    0    0  0.00000000000E+00  0.00000000000E+00  0.16106231801E+04  0.17980930417E+04  0.79939449473E+03 0.  0.
        2    1    3    3  502    0 -0.23643846575E+03 -0.21246667201E+03  0.13503371456E+04  0.13872475055E+04  0.25500000920E-02 0. -1.
       -2    1    3    3    0  502  0.23643846575E+03  0.21246667201E+03  0.26028603451E+03  0.41084553614E+03  0.25500000920E-02 0.  1.
</event>
<event>
 5   0  0.6593118E-04  0.8009096E+03  0.7818609E-02  0.9558701E-01
       -2   -1    0    0    0  501  0.00000000000E+00  0.00000000000E+00  0.36353307405E+03  0.36353307406E+03  0.25500000920E-02 0. -1.
        2   -1    0    0  501    0  0.00000000000E+00  0.00000000000E+00 -0.44112646583E+03  0.44112646584E+03  0.25500000920E-02 0.  1.
    10030    2    1    2    0    0  0.00000000000E+00  0.00000000000E+00 -0.77593391784E+02  0.80465953990E+03  0.80090963329E+03 0.  0.
        1    1    3    3  502    0  0.23477945439E+03  0.19885340372E+02 -0.36411398973E+03  0.43370014584E+03  0.50400001928E-02 0.  1.
       -1    1    3    3    0  502 -0.23477945439E+03 -0.19885340372E+02  0.28652059794E+03  0.37095939405E+03  0.50400001928E-02 0. -1.
</event>
<event>
 5   0  0.4392552E-04  0.8000624E+03  0.7818609E-02  0.9559927E-01
       -1   -1    0    0    0  501  0.00000000000E+00  0.00000000000E+00  0.49713135797E+03  0.49713135800E+03  0.50400001928E-02 0.  1.
        1   -1    0    0  501    0  0.00000000000E+00  0.00000000000E+00 -0.32189672115E+03  0.32189672119E+03  0.50400001928E-02 0. -1.
    10030    2    1    2    0    0  0.00000000000E+00  0.00000000000E+00  0.17523463682E+03  0.81902807919E+03  0.80006238291E+03 0.  0.
        5    1    3    3  502    0 -0.39389225196E+03 -0.91621186821E+01  0.16931128652E+02  0.39439042038E+03  0.46999998093E+01 0.  1.
       -5    1    3    3    0  502  0.39389225196E+03  0.91621186821E+01  0.15830350817E+03  0.42463765880E+03  0.46999998093E+01 0. -1.
</event>
<event>
 5   0  0.6970013E-04  0.7999407E+03  0.7818609E-02  0.9560103E-01
        2   -1    0    0  501    0  0.00000000000E+00  0.00000000000E+00  0.20343985184E+03  0.20343985185E+03  0.25500000920E-02 0.  1.
       -2   -1    0    0    0  501  0.00000000000E+00  0.00000000000E+00 -0.78635665165E+03  0.78635665166E+03  0.25500000920E-02 0. -1.
    10030    2    1    2    0    0  0.00000000000E+00  0.00000000000E+00 -0.58291679981E+03  0.98979650351E+03  0.79994069958E+03 0.  0.
        3    1    3    3  502    0  0.13780255390E+03 -0.20799956161E+03 -0.67825826605E+03  0.72269471228E+03  0.10100000352E+00 0. -1.
       -3    1    3    3    0  502 -0.13780255390E+03  0.20799956161E+03  0.95341466232E+02  0.26710179123E+03  0.10100000352E+00 0.  1.
</event>
<event>
 5   0  0.7133039E-04  0.7997982E+03  0.7818609E-02  0.9560309E-01
        2   -1    0    0  501    0  0.00000000000E+00  0.00000000000E+00  0.14771894238E+04  0.14771894238E+04  0.25500000920E-02 0.  1.
       -2   -1    0    0    0  501  0.00000000000E+00  0.00000000000E+00 -0.10825915148E+03  0.10825915151E+03  0.25500000920E-02 0. -1.
    10030    2    1    2    0    0  0.00000000000E+00  0.00000000000E+00  0.13689302723E+04  0.15854485753E+04  0.79979815857E+03 0.  0.
        2    1    3    3  502    0  0.47666792737E+01 -0.16884292013E+03  0.14030046187E+04  0.14131357377E+04  0.25500000920E-02 0.  1.
       -2    1    3    3    0  502 -0.47666792737E+01  0.16884292013E+03 -0.34074346439E+02  0.17231283760E+03  0.25500000920E-02 0. -1.
</event>
<event>
 5   0  0.6801147E-04  0.8001044E+03  0.7818609E-02  0.9559866E-01
       -2   -1    0    0    0  501  0.00000000000E+00  0.00000000000E+00  0.93098647139E+02  0.93098647174E+02  0.25500000920E-02 0. -1.
        2   -1    0    0  501    0  0.00000000000E+00  0.00000000000E+00 -0.17190557214E+04  0.17190557214E+04  0.25500000920E-02 0.  1.
    10030    2    1    2    0    0  0.00000000000E+00  0.00000000000E+00 -0.16259570743E+04  0.18121543686E+04  0.80010439833E+03 0.  0.
        4    1    3    3  502    0  0.26366758494E+03  0.27120149521E+03 -0.51793878657E+03  0.64135251296E+03  0.12699999809E+01 0. -1.
       -4    1    3    3    0  502 -0.26366758494E+03 -0.27120149521E+03 -0.11080182877E+04  0.11708018557E+04  0.12699999809E+01 0.  1.
</event>
<event>
 5   0  0.6970013E-04  0.7998451E+03  0.7818609E-02  0.9560241E-01
        2   -1    0    0  501    0  0.00000000000E+00  0.00000000000E+00  0.79042432358E+03  0.79042432358E+03  0.25500000920E-02 0.  1.
       -2   -1    0    0    0  501  0.00000000000E+00  0.00000000000E+00 -0.20234452860E+03  0.20234452862E+03  0.25500000920E-02 0. -1.
    10030    2    1    2    0    0  0.00000000000E+00  0.00000000000E+00  0.58807979498E+03  0.99276885220E+03  0.79984507791E+03 0.  0.
        3    1    3    3  502    0 -0.12872555591E+03 -0.25436204684E+03  0.64216914633E+03  0.70260340329E+03  0.10100000352E+00 0.  1.
       -3    1    3    3    0  502  0.12872555591E+03  0.25436204684E+03 -0.54089351352E+02  0.29016544892E+03  0.10100000352E+00 0. -1.
</event>
<event>
 5   0  0.4087283E-04  0.7996208E+03  0.7818609E-02  0.9560566E-01
       -1   -1    0    0    0  501  0.00000000000E+00  0.00000000000E+00  0.20987020804E+03  0.20987020810E+03  0.50400001928E-02 0.  1.
        1   -1    0    0  501    0  0.00000000000E+00  0.00000000000E+00 -0.76165336322E+03  0.76165336323E+03  0.50400001928E-02 0. -1.
    10030    2    1    2    0    0  0.00000000000E+00  0.00000000000E+00 -0.55178315518E+03  0.97152357134E+03  0.79962078470E+03 0.  0.
        1    1    3    3  502    0 -0.31729935132E+03  0.21816646212E+03 -0.40659583528E+03  0.55999612216E+03  0.50400001928E-02 0. -1.
       -1    1    3    3    0  502  0.31729935132E+03 -0.21816646212E+03 -0.14518731989E+03  0.41152744917E+03  0.50400001928E-02 0.  1.
</event>
<event>
 5   0  0.4392552E-04  0.7992598E+03  0.7818609E-02  0.9561089E-01
       -1   -1    0    0    0  501  0.00000000000E+00  0.00000000000E+00  0.31102455991E+03  0.31102455995E+03  0.50400001928E-02 0.  1.
        1   -1    0    0  501    0  0.00000000000E+00  0.00000000000E+00 -0.51347725695E+03  0.51347725698E+03  0.50400001928E-02 0. -1.
    10030    2    1    2    0    0  0.00000000000E+00  0.00000000000E+00 -0.20245269704E+03  0.82450181693E+03  0.79925975226E+03 0.  0.
        5    1    3    3  502    0  0.11093875845E+03  0.66237548317E+02  0.28885226737E+03  0.31646886624E+03  0.46999998093E+01 0.  1.
       -5    1    3    3    0  502 -0.11093875845E+03 -0.66237548317E+02 -0.49130496442E+03  0.50803295069E+03  0.46999998093E+01 0. -1.
</event>
<event>
 5   0  0.4392552E-04  0.7991972E+03  0.7818609E-02  0.9561180E-01
       -1   -1    0    0    0  501  0.00000000000E+00  0.00000000000E+00  0.35235259971E+03  0.35235259974E+03  0.50400001928E-02 0. -1.
        1   -1    0    0  501    0  0.00000000000E+00  0.00000000000E+00 -0.45317966222E+03  0.45317966225E+03  0.50400001928E-02 0.  1.
    10030    2    1    2    0    0  0.00000000000E+00  0.00000000000E+00 -0.10082706251E+03  0.80553226199E+03  0.79919717753E+03 0.  0.
        5    1    3    3  502    0 -0.33027531699E+03  0.38870653648E+02  0.17284676082E+03  0.37482103123E+03  0.46999998093E+01 0. -1.
       -5    1    3    3    0  502  0.33027531699E+03 -0.38870653648E+02 -0.27367382333E+03  0.43071123076E+03  0.46999998093E+01 0.  1.
</event>
<event>
 5   0  0.6801147E-04  0.8004905E+03  0.7818609E-02  0.9559307E-01
       -2   -1    0    0    0  501  0.00000000000E+00  0.00000000000E+00  0.74289636179E+02  0.74289636222E+02  0.25500000920E-02 0. -1.
        2   -1    0    0  501    0  0.00000000000E+00  0.00000000000E+00 -0.21563745314E+04  0.21563745314E+04  0.25500000920E-02 0.  1.
    10030    2    1    2    0    0  0.00000000000E+00  0.00000000000E+00 -0.20820848952E+04  0.22306641676E+04  0.80049054823E+03 0.  0.
        4    1    3    3  502    0 -0.26843340296E+03 -0.23065088995E+03 -0.52017270903E+03  0.62915624847E+03  0.12699999809E+01 0.  1.
       -4    1    3    3    0  502  0.26843340296E+03  0.23065088995E+03 -0.15619121862E+04  0.16015079191E+04  0.12699999809E+01 0. -1.
</event>
<event>
 5   0  0.7133039E-04  0.8000605E+03  0.7818609E-02  0.9559930E-01
        2   -1    0    0  501    0  0.00000000000E+00  0.00000000000E+00  0.63458533730E+03  0.63458533730E+03  0.25500000920E-02 0. -1.
       -2   -1    0    0    0  501  0.00000000000E+00  0.00000000000E+00 -0.25217126237E+03  0.25217126238E+03  0.25500000920E-02 0.  1.
    10030    2    1    2    0    0  0.00000000000E+00  0.00000000000E+00  0.38241407492E+03  0.88675659968E+03  0.80006046170E+03 0.  0.
        2    1    3    3  502    0 -0.27385852548E+03 -0.29077792722E+03  0.21533500233E+03  0.45378349262E+03  0.25500000920E-02 0.  1.
       -2    1    3    3    0  502  0.27385852548E+03  0.29077792722E+03  0.16707907260E+03  0.43297310707E+03  0.25500000920E-02 0. -1.
</event>
<event>
 5   0  0.4104786E-04  0.7998417E+03  0.7818609E-02  0.9560246E-01
       -1   -1    0    0    0  501  0.00000000000E+00  0.00000000000E+00  0.16555205216E+03  0.16555205224E+03  0.50400001928E-02 0. -1.
        1   -1    0    0  501    0  0.00000000000E+00  0.00000000000E+00 -0.96608107814E+03  0.96608107815E+03  0.50400001928E-02 0.  1.
    10030    2    1    2    0    0  0.00000000000E+00  0.00000000000E+00 -0.80052902598E+03  0.11316331304E+04  0.79984174707E+03 0.  0.
        2    1    3    3  502    0  0.17547045834E+03 -0.26134392706E+03 -0.51270298727E+02  0.31893443448E+03  0.25500000920E-02 0. -1.
       -2    1    3    3    0  502 -0.17547045834E+03  0.26134392706E+03 -0.74925872725E+03  0.81269869591E+03  0.25500000920E-02 0.  1.
</event>
<event>
 5   0  0.2736375E-04  0.7990178E+03  0.7818609E-02  0.9561440E-01
        4   -1    0    0  501    0  0.00000000000E+00  0.00000000000E+00  0.58344218369E+03  0.58344356591E+03  0.12699999809E+01 0. -1.
       -4   -1    0    0    0  501  0.00000000000E+00  0.00000000000E+00 -0.27355837945E+03  0.27356132743E+03  0.12699999809E+01 0.  1.
    10030    2    1    2    0    0  0.00000000000E+00  0.00000000000E+00  0.30988380424E+03  0.85700489334E+03  0.79901778145E+03 0.  0.
        2    1    3    3  502    0  0.35025669913E+02  0.13860143378E+03 -0.24518705406E+03  0.28382009527E+03  0.25500000920E-02 0.  1.
       -2    1    3    3    0  502 -0.35025669913E+02 -0.13860143378E+03  0.55507085830E+03  0.57318479807E+03  0.25500000920E-02 0. -1.
</event>
<event>
 5   0  0.6593118E-04  0.7994579E+03  0.7818609E-02  0.9560802E-01
       -2   -1    0    0    0  501  0.00000000000E+00  0.00000000000E+00  0.45974176278E+03  0.45974176278E+03  0.25500000920E-02 0.  1.
        2   -1    0    0  501    0  0.00000000000E+00  0.00000000000E+00 -0.34754995517E+03  0.34754995518E+03  0.25500000920E-02 0. -1.
    10030    2    1    2    0    0  0.00000000000E+00  0.00000000000E+00  0.11219180760E+03  0.80729171797E+03  0.79945788895E+03 0.  0.
        1    1    3    3  502    0  0.11880284606E+03  0.17856506643E+03  0.39671955251E+03  0.45098337281E+03  0.50400001928E-02 0.  1.
       -1    1    3    3    0  502 -0.11880284606E+03 -0.17856506643E+03 -0.28452774491E+03  0.35630834516E+03  0.50400001928E-02 0. -1.
</event>
<event>
 5   0  0.4169155E-04  0.7999061E+03  0.7818609E-02  0.9560153E-01
       -1   -1    0    0    0  501  0.00000000000E+00  0.00000000000E+00  0.21420322715E+03  0.21420322721E+03  0.50400001928E-02 0.  1.
        1   -1    0    0  501    0  0.00000000000E+00  0.00000000000E+00 -0.74677879128E+03  0.74677879130E+03  0.50400001928E-02 0. -1.
    10030    2    1    2    0    0  0.00000000000E+00  0.00000000000E+00 -0.53257556413E+03  0.96098201851E+03  0.79990606222E+03 0.  0.
        4    1    3    3  502    0  0.25590002352E+03  0.30705120140E+03 -0.24948785998E+03  0.47118050416E+03  0.12699999809E+01 0.  1.
       -4    1    3    3    0  502 -0.25590002352E+03 -0.30705120140E+03 -0.28308770415E+03  0.48980151435E+03  0.12699999809E+01 0. -1.
</event>
<event>
 5   0  0.4392552E-04  0.8000103E+03  0.7818609E-02  0.9560002E-01
        1   -1    0    0  501    0  0.00000000000E+00  0.00000000000E+00  0.54076395828E+03  0.54076395830E+03  0.50400001928E-02 0.  1.
       -1   -1    0    0    0  501  0.00000000000E+00  0.00000000000E+00 -0.29588531809E+03  0.29588531813E+03  0.50400001928E-02 0. -1.
    10030    2    1    2    0    0  0.00000000000E+00  0.00000000000E+00  0.24487864019E+03  0.83664927643E+03  0.80001028952E+03 0.  0.
        5    1    3    3  502    0  0.15528246580E+03  0.15700442055E+03 -0.22632925531E+03  0.31624366249E+03  0.46999998093E+01 0. -1.
       -5    1    3    3    0  502 -0.15528246580E+03 -0.15700442055E+03  0.47120789549E+03  0.52040561395E+03  0.46999998093E+01 0.  1.
</event>
<event>
 5   0  0.4087283E-04  0.7988137E+03  0.7818609E-02  0.9561736E-01
       -1   -1    0    0    0  501  0.00000000000E+00  0.00000000000E+00  0.90112997017E+02  0.90112997158E+02  0.50400001928E-02 0. -1.
        1   -1    0    0  501    0  0.00000000000E+00  0.00000000000E+00 -0.17702867923E+04  0.17702867923E+04  0.50400001928E-02 0.  1.
    10030    2    1    2    0    0  0.00000000000E+00  0.00000000000E+00 -0.16801737953E+04  0.18603997895E+04  0.79881374193E+03 0.  0.
        1    1    3    3  502    0 -0.12372290379E+03 -0.31839604078E+03 -0.35803042568E+03  0.49484258249E+03  0.50400001928E-02 0. -1.
       -1    1    3    3    0  502  0.12372290379E+03  0.31839604078E+03 -0.13221433696E+04  0.13655572070E+04  0.50400001928E-02 0.  1.
</event>
<event>
 5   0  0.4086111E-04  0.7997915E+03  0.7818609E-02  0.9560319E-01
        1   -1    0    0  501    0  0.00000000000E+00  0.00000000000E+00  0.47127683931E+03  0.47127683934E+03  0.50400001928E-02 0. -1.
       -1   -1    0    0    0  501  0.00000000000E+00  0.00000000000E+00 -0.33932628765E+03  0.33932628768E+03  0.50400001928E-02 0.  1.
    10030    2    1    2    0    0  0.00000000000E+00  0.00000000000E+00  0.13195055166E+03  0.81060312702E+03  0.79979152374E+03 0.  0.
        3    1    3    3  502    0  0.20625260094E+03 -0.30045950936E+03  0.23282311796E+03  0.43246117353E+03  0.10100000352E+00 0. -1.
       -3    1    3    3    0  502 -0.20625260094E+03  0.30045950936E+03 -0.10087256629E+03  0.37814195349E+03  0.10100000352E+00 0.  1.
</event>
<event>
 5   0  0.6593118E-04  0.8001383E+03  0.7818609E-02  0.9559817E-01
        2   -1    0    0  501    0  0.00000000000E+00  0.00000000000E+00  0.19832064889E+04  0.19832064889E+04  0.25500000920E-02 0. -1.
       -2   -1    0    0    0  501  0.00000000000E+00  0.00000000000E+00 -0.80705320846E+02  0.80705320886E+02  0.25500000920E-02 0.  1.
    10030    2    1    2    0    0  0.00000000000E+00  0.00000000000E+00  0.19025011681E+04  0.20639118098E+04  0.80013827814E+03 0.  0.
        1    1    3    3  502    0 -0.17403299184E+03 -0.35866562377E+03  0.86466406217E+03  0.95214098344E+03  0.50400001928E-02 0. -1.
       -1    1    3    3    0  502  0.17403299184E+03  0.35866562377E+03  0.10378371059E+04  0.11117708264E+04  0.50400001928E-02 0.  1.
</event>
<event>
 5   0  0.6593118E-04  0.7999583E+03  0.7818609E-02  0.9560077E-01
       -2   -1    0    0    0  501  0.00000000000E+00  0.00000000000E+00  0.10804669884E+03  0.10804669887E+03  0.25500000920E-02 0. -1.
        2   -1    0    0  501    0  0.00000000000E+00  0.00000000000E+00 -0.14806869487E+04  0.14806869487E+04  0.25500000920E-02 0.  1.
    10030    2    1    2    0    0  0.00000000000E+00  0.00000000000E+00 -0.13726402499E+04  0.15887336476E+04  0.79995834103E+03 0.  0.
        1    1    3    3  502    0  0.11702625440E+03  0.14243676845E+03 -0.13912873482E+04  0.14034471356E+04  0.50400001928E-02 0.  1.
       -1    1    3    3    0  502 -0.11702625440E+03 -0.14243676845E+03  0.18647098288E+02  0.18528651199E+03  0.50400001928E-02 0. -1.
</event>
<event>
 5   0  0.4392552E-04  0.8003188E+03  0.7818609E-02  0.9559556E-01
        1   -1    0    0  501    0  0.00000000000E+00  0.00000000000E+00  0.24793463101E+03  0.24793463106E+03  0.50400001928E-02 0. -1.
       -1   -1    0    0    0  501  0.00000000000E+00  0.00000000000E+00 -0.64584582680E+03  0.64584582682E+03  0.50400001928E-02 0.  1.
    10030    2    1    2    0    0  0.00000000000E+00  0.00000000000E+00 -0.39791119579E+03  0.89378045788E+03  0.80031880345E+03 0.  0.
        5    1    3    3  502    0  0.18600817989E+03  0.13206416974E+03 -0.56607835401E+03  0.61033333580E+03  0.46999998093E+01 0.  1.
       -5    1    3    3    0  502 -0.18600817989E+03 -0.13206416974E+03  0.16816715822E+03  0.28344712208E+03  0.46999998093E+01 0. -1.
</event>
<event>
 5   0  0.6801147E-04  0.7999406E+03  0.7818609E-02  0.9560103E-01
        2   -1    0    0  501    0  0.00000000000E+00  0.00000000000E+00  0.96610912344E+03  0.96610912344E+03  0.25500000920E-02 0. -1.
       -2   -1    0    0    0  501  0.00000000000E+00  0.00000000000E+00 -0.16558815276E+03  0.16558815277E+03  0.25500000920E-02 0.  1.
    10030    2    1    2    0    0  0.00000000000E+00  0.00000000000E+00  0.80052097068E+03  0.11316972762E+04  0.79994056060E+03 0.  0.
        4    1    3    3  502    0  0.18918853097E+03  0.29100401823E+02  0.89710049811E+03  0.91729496360E+03  0.12699999809E+01 0. -1.
       -4    1    3    3    0  502 -0.18918853097E+03 -0.29100401823E+02 -0.96579527426E+02  0.21440231262E+03  0.12699999809E+01 0.  1.
</event>
<event>
 5   0  0.4104786E-04  0.7998670E+03  0.7818609E-02  0.9560210E-01
       -1   -1    0    0    0  501  0.00000000000E+00  0.00000000000E+00  0.36341315269E+03  0.36341315273E+03  0.50400001928E-02 0. -1.
        1   -1    0    0  501    0  0.00000000000E+00  0.00000000000E+00 -0.44012392808E+03  0.44012392811E+03  0.50400001928E-02 0.  1.
    10030    2    1    2    0    0  0.00000000000E+00  0.00000000000E+00 -0.76710775385E+02  0.80353708083E+03  0.79986704971E+03 0.  0.
        2    1    3    3  502    0 -0.18786746399E+03  0.65707756353E+02 -0.38684058406E+03  0.43503716020E+03  0.25500000920E-02 0.  1.
       -2    1    3    3    0  502  0.18786746399E+03 -0.65707756353E+02  0.31012980867E+03  0.36849992063E+03  0.25500000920E-02 0. -1.
</event>
<event>
 5   0  0.6672462E-04  0.8000035E+03  0.7818609E-02  0.9560012E-01
        2   -1    0    0  501    0  0.00000000000E+00  0.00000000000E+00  0.12554082135E+04  0.12554082135E+04  0.25500000920E-02 0. -1.
       -2   -1    0    0    0  501  0.00000000000E+00  0.00000000000E+00 -0.12744968538E+03  0.12744968541E+03  0.25500000920E-02 0.  1.
    10030    2    1    2    0    0  0.00000000000E+00  0.00000000000E+00  0.11279585281E+04  0.13828578989E+04  0.80000345464E+03 0.  0.
        5    1    3    3  502    0 -0.48664206848E+02 -0.21928875807E+03 -0.80778669037E+01  0.22481794051E+03  0.46999998093E+01 0.  1.
       -5    1    3    3    0  502  0.48664206848E+02  0.21928875807E+03  0.11360363950E+04  0.11580399584E+04  0.46999998093E+01 0. -1.
</event>
<event>
 5   0  0.6672462E-04  0.7999355E+03  0.7818609E-02  0.9560110E-01
       -2   -1    0    0    0  501  0.00000000000E+00  0.00000000000E+00  0.17337148675E+03  0.17337148677E+03  0.25500000920E-02 0. -1.
        2   -1    0    0  501    0  0.00000000000E+00  0.00000000000E+00 -0.92272505074E+03  0.92272505075E+03  0.25500000920E-02 0.  1.
    10030    2    1    2    0    0  0.00000000000E+00  0.00000000000E+00 -0.74935356399E+03  0.10960965375E+04  0.79993553220E+03 0.  0.
        5    1    3    3  502    0  0.11070044242E+03 -0.32946544875E+02 -0.89933764279E+03  0.90673609639E+03  0.46999998093E+01 0.  1.
       -5    1    3    3    0  502 -0.11070044242E+03  0.32946544875E+02  0.14998407879E+03  0.18936044112E+03  0.46999998093E+01 0. -1.
</event>
<event>
 5   0  0.6970013E-04  0.7997649E+03  0.7818609E-02  0.9560357E-01
       -2   -1    0    0    0  501  0.00000000000E+00  0.00000000000E+00  0.50698597392E+03  0.50698597393E+03  0.25500000920E-02 0. -1.
        2   -1    0    0  501    0  0.00000000000E+00  0.00000000000E+00 -0.31540512338E+03  0.31540512339E+03  0.25500000920E-02 0.  1.
    10030    2    1    2    0    0  0.00000000000E+00  0.00000000000E+00  0.19158085054E+03  0.82239109732E+03  0.79976489962E+03 0.  0.
        3    1    3    3  502    0 -0.83299846650E+02 -0.35576195042E+03  0.26286963534E+03  0.45011763485E+03  0.10100000352E+00 0. -1.
       -3    1    3    3    0  502  0.83299846650E+02  0.35576195042E+03 -0.71288784794E+02  0.37227346247E+03  0.10100000352E+00 0.  1.
</event>
<event>
 5   0  0.6672462E-04  0.8011216E+03  0.7818609E-02  0.9558395E-01
        2   -1    0    0  501    0  0.00000000000E+00  0.00000000000E+00  0.54140012338E+03  0.54140012338E+03  0.25500000920E-02 0. -1.
       -2   -1    0    0    0  501  0.00000000000E+00  0.00000000000E+00 -0.29635928038E+03  0.29635928039E+03  0.25500000920E-02 0.  1.
    10030    2    1    2    0    0  0.00000000000E+00  0.00000000000E+00  0.24504084300E+03  0.83775940377E+03  0.80112159119E+03 0.  0.
        5    1    3    3  502    0 -0.21476482585E+03  0.19704791828E+03 -0.16477094500E+03  0.33484827435E+03  0.46999998093E+01 0.  1.
       -5    1    3    3    0  502  0.21476482585E+03 -0.19704791828E+03  0.40981178800E+03  0.50291112942E+03  0.46999998093E+01 0. -1.
</event>
<event>
 5   0  0.7133039E-04  0.7998031E+03  0.7818609E-02  0.9560302E-01
        2   -1    0    0  501    0  0.00000000000E+00  0.00000000000E+00  0.43777610856E+03  0.43777610857E+03  0.25500000920E-02 0. -1.
       -2   -1    0    0    0  501  0.00000000000E+00  0.00000000000E+00 -0.36530373041E+03  0.36530373041E+03  0.25500000920E-02 0.  1.
    10030    2    1    2    0    0  0.00000000000E+00  0.00000000000E+00  0.72472378153E+02  0.80307983898E+03  0.79980308963E+03 0.  0.
        2    1    3    3  502    0  0.26202526832E+03  0.19202654832E+03 -0.19793551309E+03  0.38040754967E+03  0.25500000920E-02 0.  1.
       -2    1    3    3    0  502 -0.26202526832E+03 -0.19202654832E+03  0.27040789124E+03  0.42267228931E+03  0.25500000920E-02 0. -1.
</event>
<event>
 5   0  0.6672462E-04  0.7999833E+03  0.7818609E-02  0.9560041E-01
        2   -1    0    0  501    0  0.00000000000E+00  0.00000000000E+00  0.15869642474E+04  0.15869642474E+04  0.25500000920E-02 0. -1.
       -2   -1    0    0    0  501  0.00000000000E+00  0.00000000000E+00 -0.10081722316E+03  0.10081722319E+03  0.25500000920E-02 0.  1.
    10030    2    1    2    0    0  0.00000000000E+00  0.00000000000E+00  0.14861470243E+04  0.16877814706E+04  0.79998332159E+03 0.  0.
        5    1    3    3  502    0 -0.23547965018E+03 -0.52387420745E+02  0.14161404394E+04  0.14365482733E+04  0.46999998093E+01 0. -1.
       -5    1    3    3    0  502  0.23547965018E+03  0.52387420745E+02  0.70006584878E+02  0.25123319730E+03  0.46999998093E+01 0.  1.
</event>
<event>
 5   0  0.7133039E-04  0.8002293E+03  0.7818609E-02  0.9559685E-01
        2   -1    0    0  501    0  0.00000000000E+00  0.00000000000E+00  0.97876590979E+03  0.97876590980E+03  0.25500000920E-02 0. -1.
       -2   -1    0    0    0  501  0.00000000000E+00  0.00000000000E+00 -0.16356487462E+03  0.16356487464E+03  0.25500000920E-02 0.  1.
    10030    2    1    2    0    0  0.00000000000E+00  0.00000000000E+00  0.81520103517E+03  0.11423307844E+04  0.80022927548E+03 0.  0.
        2    1    3    3  502    0  0.54507437901E+02  0.29345291644E+03  0.27213998480E+02  0.29971032127E+03  0.25500000920E-02 0.  1.
       -2    1    3    3    0  502 -0.54507437901E+02 -0.29345291644E+03  0.78798703669E+03  0.84262046317E+03  0.25500000920E-02 0. -1.
</event>
<event>
 5   0  0.6801147E-04  0.7998149E+03  0.7818609E-02  0.9560285E-01
       -2   -1    0    0    0  501  0.00000000000E+00  0.00000000000E+00  0.19289399392E+03  0.19289399394E+03  0.25500000920E-02 0.  1.
        2   -1    0    0  501    0  0.00000000000E+00  0.00000000000E+00 -0.82908743498E+03  0.82908743499E+03  0.25500000920E-02 0. -1.
    10030    2    1    2    0    0  0.00000000000E+00  0.00000000000E+00 -0.63619344106E+03  0.10219814289E+04  0.79981494524E+03 0.  0.
        4    1    3    3  502    0  0.17004582409E+03 -0.36134896841E+03 -0.34476865353E+03  0.52759425378E+03  0.12699999809E+01 0. -1.
       -4    1    3    3    0  502 -0.17004582409E+03  0.36134896841E+03 -0.29142478753E+03  0.49438717515E+03  0.12699999809E+01 0.  1.
</event>
<event>
 5   0  0.6593118E-04  0.7993667E+03  0.7818609E-02  0.9560934E-01
        2   -1    0    0  501    0  0.00000000000E+00  0.00000000000E+00  0.83914885599E+03  0.83914885599E+03  0.25500000920E-02 0. -1.
       -2   -1    0    0    0  501  0.00000000000E+00  0.00000000000E+00 -0.19036765354E+03  0.19036765356E+03  0.25500000920E-02 0.  1.
    10030    2    1    2    0    0  0.00000000000E+00  0.00000000000E+00  0.64878120245E+03  0.10295165095E+04  0.79936674611E+03 0.  0.
        1    1    3    3  502    0 -0.26225265466E+03  0.11288373741E+03 -0.35828930027E+02  0.28775493966E+03  0.50400001928E-02 0. -1.
       -1    1    3    3    0  502  0.26225265466E+03 -0.11288373741E+03  0.68461013248E+03  0.74176156989E+03  0.50400001928E-02 0.  1.
</event>
<event>
 5   0  0.4087283E-04  0.7992264E+03  0.7818609E-02  0.9561138E-01
       -1   -1    0    0    0  501  0.00000000000E+00  0.00000000000E+00  0.32482626119E+03  0.32482626123E+03  0.50400001928E-02 0. -1.
        1   -1    0    0  501    0  0.00000000000E+00  0.00000000000E+00 -0.49161885690E+03  0.49161885693E+03  0.50400001928E-02 0.  1.
    10030    2    1    2    0    0  0.00000000000E+00  0.00000000000E+00 -0.16679259572E+03  0.81644511816E+03  0.79922641409E+03 0.  0.
        1    1    3    3  502    0  0.19494170232E+03 -0.14537975658E+03 -0.40732919888E+03  0.47439921713E+03  0.50400001928E-02 0.  1.
       -1    1    3    3    0  502 -0.19494170232E+03  0.14537975658E+03  0.24053660316E+03  0.34204590103E+03  0.50400001928E-02 0. -1.
</event>
<event>
 5   0  0.4392552E-04  0.7999411E+03  0.7818609E-02  0.9560102E-01
       -1   -1    0    0    0  501  0.00000000000E+00  0.00000000000E+00  0.11472845924E+03  0.11472845935E+03  0.50400001928E-02 0.  1.
        1   -1    0    0  501    0  0.00000000000E+00  0.00000000000E+00 -0.13943919614E+04  0.13943919614E+04  0.50400001928E-02 0. -1.
    10030    2    1    2    0    0  0.00000000000E+00  0.00000000000E+00 -0.12796635022E+04  0.15091204208E+04  0.79994110133E+03 0.  0.
        5    1    3    3  502    0  0.20182833270E+03  0.16886647867E+03 -0.71661361847E+02  0.27277830610E+03  0.46999998093E+01 0.  1.
       -5    1    3    3    0  502 -0.20182833270E+03 -0.16886647867E+03 -0.12080021403E+04  0.12363421147E+04  0.46999998093E+01 0. -1.
</event>
<event>
 5   0  0.4104786E-04  0.7998639E+03  0.7818609E-02  0.9560214E-01
        1   -1    0    0  501    0  0.00000000000E+00  0.00000000000E+00  0.55162741513E+03  0.55162741516E+03  0.50400001928E-02 0.  1.
       -1   -1    0    0    0  501  0.00000000000E+00  0.00000000000E+00 -0.28995213682E+03  0.28995213687E+03  0.50400001928E-02 0. -1.
    10030    2    1    2    0    0  0.00000000000E+00  0.00000000000E+00  0.26167527831E+03  0.84157955202E+03  0.79986385785E+03 0.  0.
        2    1    3    3  502    0 -0.18455232910E+03 -0.24919936652E+03 -0.13489238844E+03  0.33816540763E+03  0.25500000920E-02 0. -1.
       -2    1    3    3    0  502  0.18455232910E+03  0.24919936652E+03  0.39656766675E+03  0.50341414439E+03  0.25500000920E-02 0.  1.
</event>
<event>
 5   0  0.4392552E-04  0.7999871E+03  0.7818609E-02  0.9560036E-01
       -1   -1    0    0    0  501  0.00000000000E+00  0.00000000000E+00  0.35139098089E+03  0.35139098093E+03  0.50400001928E-02 0.  1.
        1   -1    0    0  501    0  0.00000000000E+00  0.00000000000E+00 -0.45531861527E+03  0.45531861530E+03  0.50400001928E-02 0. -1.
    10030    2    1    2    0    0  0.00000000000E+00  0.00000000000E+00 -0.10392763438E+03  0.80670959623E+03  0.79998713706E+03 0.  0.
        5    1    3    3  502    0  0.97246610486E+02  0.32146774581E+03 -0.27098553539E+03  0.43157115894E+03  0.46999998093E+01 0. -1.
       -5    1    3    3    0  502 -0.97246610486E+02 -0.32146774581E+03  0.16705790100E+03  0.37513843729E+03  0.46999998093E+01 0.  1.
</event>
<event>
 5   0  0.6593118E-04  0.7993496E+03  0.7818609E-02  0.9560959E-01
       -2   -1    0    0    0  501  0.00000000000E+00  0.00000000000E+00  0.26948603416E+03  0.26948603417E+03  0.25500000920E-02 0. -1.
        2   -1    0    0  501    0  0.00000000000E+00  0.00000000000E+00 -0.59275775880E+03  0.59275775881E+03  0.25500000920E-02 0.  1.
    10030    2    1    2    0    0  0.00000000000E+00  0.00000000000E+00 -0.32327172464E+03  0.86224379298E+03  0.79934957970E+03 0.  0.
        1    1    3    3  502    0 -0.17997412447E+03 -0.26821532374E+03  0.92278102327E+02  0.33592468436E+03  0.50400001928E-02 0. -1.
       -1    1    3    3    0  502  0.17997412447E+03  0.26821532374E+03 -0.41554982697E+03  0.52631910861E+03  0.50400001928E-02 0.  1.
</event>
<event>
 5   0  0.6801147E-04  0.8040780E+03  0.7818609E-02  0.9554133E-01
        2   -1    0    0  501    0  0.00000000000E+00  0.00000000000E+00  0.30196147109E+03  0.30196147110E+03  0.25500000920E-02 0. -1.
       -2   -1    0    0    0  501  0.00000000000E+00  0.00000000000E+00 -0.53528476877E+03  0.53528476878E+03  0.25500000920E-02 0.  1.
    10030    2    1    2    0    0  0.00000000000E+00  0.00000000000E+00 -0.23332329768E+03  0.83724623988E+03  0.80407804655E+03 0.  0.
        4    1    3    3  502    0 -0.13299683504E+03 -0.20651298360E+03 -0.44806387460E+03  0.51097810046E+03  0.12699999809E+01 0.  1.
       -4    1    3    3    0  502  0.13299683504E+03  0.20651298360E+03  0.21474057692E+03  0.32626813942E+03  0.12699999809E+01 0. -1.
</event>
<event>
 5   0  0.4169155E-04  0.8003594E+03  0.7818609E-02  0.9559497E-01
       -1   -1    0    0    0  501  0.00000000000E+00  0.00000000000E+00  0.32897059737E+03  0.32897059741E+03  0.50400001928E-02 0.  1.
        1   -1    0    0  501    0  0.00000000000E+00  0.00000000000E+00 -0.48680273715E+03  0.48680273718E+03  0.50400001928E-02 0. -1.
    10030    2    1    2    0    0  0.00000000000E+00  0.00000000000E+00 -0.15783213978E+03  0.81577333459E+03  0.80035938745E+03 0.  0.
        4    1    3    3  502    0 -0.10086034030E+03 -0.29701766445E+03  0.17436486291E+03  0.35888301653E+03  0.12699999809E+01 0.  1.
       -4    1    3    3    0  502  0.10086034030E+03  0.29701766445E+03 -0.33219700269E+03  0.45689031806E+03  0.12699999809E+01 0. -1.
</event>
<event>
 5   0  0.4104786E-04  0.7997867E+03  0.7818609E-02  0.9560326E-01
       -1   -1    0    0    0  501  0.00000000000E+00  0.00000000000E+00  0.16417809797E+03  0.16417809805E+03  0.50400001928E-02 0.  1.
        1   -1    0    0  501    0  0.00000000000E+00  0.00000000000E+00 -0.97403189317E+03  0.97403189318E+03  0.50400001928E-02 0. -1.
    10030    2    1    2    0    0  0.00000000000E+00  0.00000000000E+00 -0.80985379520E+03  0.11382099912E+04  0.79978673066E+03 0.  0.
        2    1    3    3  502    0 -0.37695952845E+03 -0.88825121625E+02 -0.26313799793E+03  0.46822002764E+03  0.25500000920E-02 0.  1.
       -2    1    3    3    0  502  0.37695952845E+03  0.88825121625E+02 -0.54671579727E+03  0.66998996359E+03  0.25500000920E-02 0. -1.
</event>
<event>
 5   0  0.4104786E-04  0.8000020E+03  0.7818609E-02  0.9560014E-01
        1   -1    0    0  501    0  0.00000000000E+00  0.00000000000E+00  0.47165278003E+03  0.47165278005E+03  0.50400001928E-02 0.  1.
       -1   -1    0    0    0  501  0.00000000000E+00  0.00000000000E+00 -0.33923426219E+03  0.33923426223E+03  0.50400001928E-02 0. -1.
    10030    2    1    2    0    0  0.00000000000E+00  0.00000000000E+00  0.13241851783E+03  0.81088704228E+03  0.80000195717E+03 0.  0.
        2    1    3    3  502    0  0.38056548227E+03 -0.28804067367E+02  0.18759267795E+03  0.42526553284E+03  0.25500000920E-02 0. -1.
       -2    1    3    3    0  502 -0.38056548227E+03  0.28804067367E+02 -0.55174160115E+02  0.38562150944E+03  0.25500000920E-02 0.  1.
</event>
<event>
 5   0  0.7133039E-04  0.8000132E+03  0.7818609E-02  0.9559998E-01
       -2   -1    0    0    0  501  0.00000000000E+00  0.00000000000E+00  0.15283327129E+04  0.15283327129E+04  0.25500000920E-02 0.  1.
        2   -1    0    0  501    0  0.00000000000E+00  0.00000000000E+00 -0.10469270498E+03  0.10469270501E+03  0.25500000920E-02 0. -1.
    10030    2    1    2    0    0  0.00000000000E+00  0.00000000000E+00  0.14236400079E+04  0.16330254179E+04  0.80001321453E+03 0.  0.
        2    1    3    3  502    0  0.11716976233E+03 -0.23030097395E+02 -0.67461422779E+02  0.13715021750E+03  0.25500000920E-02 0. -1.
       -2    1    3    3    0  502 -0.11716976233E+03  0.23030097395E+02  0.14911014307E+04  0.14958752004E+04  0.25500000920E-02 0.  1.
</event>
<event>
 5   0  0.4169155E-04  0.7999695E+03  0.7818609E-02  0.9560061E-01
        1   -1    0    0  501    0  0.00000000000E+00  0.00000000000E+00  0.32824214073E+03  0.32824214077E+03  0.50400001928E-02 0. -1.
       -1   -1    0    0    0  501  0.00000000000E+00  0.00000000000E+00 -0.48740780251E+03  0.48740780253E+03  0.50400001928E-02 0.  1.
    10030    2    1    2    0    0  0.00000000000E+00  0.00000000000E+00 -0.15916566178E+03  0.81564994330E+03  0.79996945074E+03 0.  0.
        4    1    3    3  502    0  0.22076145185E+03 -0.32509492480E+03 -0.35295979284E+01  0.39298396877E+03  0.12699999809E+01 0. -1.
       -4    1    3    3    0  502 -0.22076145185E+03  0.32509492480E+03 -0.15563606385E+03  0.42266597453E+03  0.12699999809E+01 0.  1.
</event>
<event>
 5   0  0.4104786E-04  0.7997259E+03  0.7818609E-02  0.9560414E-01
       -1   -1    0    0    0  501  0.00000000000E+00  0.00000000000E+00  0.30090811359E+03  0.30090811364E+03  0.50400001928E-02 0. -1.
        1   -1    0    0  501    0  0.00000000000E+00  0.00000000000E+00 -0.53135948936E+03  0.53135948938E+03  0.50400001928E-02 0.  1.
    10030    2    1    2    0    0  0.00000000000E+00  0.00000000000E+00 -0.23045137576E+03  0.83226760302E+03  0.79972590707E+03 0.  0.
        2    1    3    3  502    0 -0.27946714899E+02  0.25372904211E+03 -0.43553365297E+03  0.50482572098E+03  0.25500000920E-02 0.  1.
       -2    1    3    3    0  502  0.27946714899E+02 -0.25372904211E+03  0.20508227720E+03  0.32744188204E+03  0.25500000920E-02 0. -1.
</event>
<event>
 5   0  0.4086111E-04  0.7998563E+03  0.7818609E-02  0.9560225E-01
       -1   -1    0    0    0  501  0.00000000000E+00  0.00000000000E+00  0.43357681311E+03  0.43357681314E+03  0.50400001928E-02 0.  1.
        1   -1    0    0  501    0  0.00000000000E+00  0.00000000000E+00 -0.36889084858E+03  0.36889084862E+03  0.50400001928E-02 0. -1.
    10030    2    1    2    0    0  0.00000000000E+00  0.00000000000E+00  0.64685964528E+02  0.80246766176E+03  0.79985628344E+03 0.  0.
        3    1    3    3  502    0 -0.22022730129E+03 -0.33359883081E+03  0.19882118786E+02  0.40022937548E+03  0.10100000352E+00 0.  1.
       -3    1    3    3    0  502  0.22022730129E+03  0.33359883081E+03  0.44803845742E+02  0.40223828628E+03  0.10100000352E+00 0. -1.
</event>
<event>
 5   0  0.4169155E-04  0.8020182E+03  0.7818609E-02  0.9557100E-01
        1   -1    0    0  501    0  0.00000000000E+00  0.00000000000E+00  0.42983518151E+03  0.42983518154E+03  0.50400001928E-02 0. -1.
       -1   -1    0    0    0  501  0.00000000000E+00  0.00000000000E+00 -0.37411618883E+03  0.37411618886E+03  0.50400001928E-02 0.  1.
    10030    2    1    2    0    0  0.00000000000E+00  0.00000000000E+00  0.55718992681E+02  0.80395137041E+03  0.80201820418E+03 0.  0.
        4    1    3    3  502    0  0.77640128737E+02  0.38858442238E+03 -0.33777283592E+02  0.39770386054E+03  0.12699999809E+01 0. -1.
       -4    1    3    3    0  502 -0.77640128737E+02 -0.38858442238E+03  0.89496276274E+02  0.40624750986E+03  0.12699999809E+01 0.  1.
</event>
<event>
 5   0  0.6801147E-04  0.7999726E+03  0.7818609E-02  0.9560057E-01
       -2   -1    0    0    0  501  0.00000000000E+00  0.00000000000E+00  0.39592348872E+03  0.39592348872E+03  0.25500000920E-02 0.  1.
        2   -1    0    0  501    0  0.00000000000E+00  0.00000000000E+00 -0.40409080138E+03  0.40409080139E+03  0.25500000920E-02 0. -1.
    10030    2    1    2    0    0  0.00000000000E+00  0.00000000000E+00 -0.81673126663E+01  0.80001429012E+03  0.79997259915E+03 0.  0.
        4    1    3    3  502    0  0.36019655002E+03  0.53709225770E+02  0.16133715048E+03  0.39831837091E+03  0.12699999809E+01 0. -1.
       -4    1    3    3    0  502 -0.36019655002E+03 -0.53709225770E+02 -0.16950446314E+03  0.40169591921E+03  0.12699999809E+01 0.  1.
</event>
<event>
 5   0  0.7133039E-04  0.7994197E+03  0.7818609E-02  0.9560857E-01
       -2   -1    0    0    0  501  0.00000000000E+00  0.00000000000E+00  0.30633876018E+03  0.30633876019E+03  0.25500000920E-02 0.  1.
        2   -1    0    0  501    0  0.00000000000E+00  0.00000000000E+00 -0.52154018792E+03  0.52154018793E+03  0.25500000920E-02 0. -1.
    10030    2    1    2    0    0  0.00000000000E+00  0.00000000000E+00 -0.21520142774E+03  0.82787894812E+03  0.79941972595E+03 0.  0.
        2    1    3    3  502    0  0.21394629739E+03  0.16066730615E+03 -0.41512500236E+03  0.49387829374E+03  0.25500000920E-02 0. -1.
       -2    1    3    3    0  502 -0.21394629739E+03 -0.16066730615E+03  0.19992357462E+03  0.33400065438E+03  0.25500000920E-02 0.  1.
</event>
<event>
 5   0  0.6672462E-04  0.7999075E+03  0.7818609E-02  0.9560151E-01
       -2   -1    0    0    0  501  0.00000000000E+00  0.00000000000E+00  0.12239399134E+03  0.12239399136E+03  0.25500000920E-02 0.  1.
        2   -1    0    0  501    0  0.00000000000E+00  0.00000000000E+00 -0.13069512902E+04  0.13069512902E+04  0.25500000920E-02 0. -1.
    10030    2    1    2    0    0  0.00000000000E+00  0.00000000000E+00 -0.11845572989E+04  0.14293452816E+04  0.79990745692E+03 0.  0.
        5    1    3    3  502    0 -0.89426378348E+02 -0.29932025486E+03 -0.14608865749E+03  0.34489661923E+03  0.46999998093E+01 0.  1.
       -5    1    3    3    0  502  0.89426378348E+02  0.29932025486E+03 -0.10384686414E+04  0.10844486623E+04  0.46999998093E+01 0. -1.
</event>
<event>
 5   0  0.6970013E-04  0.8021892E+03  0.7818609E-02  0.9556854E-01
       -2   -1    0    0    0  501  0.00000000000E+00  0.00000000000E+00  0.12233004891E+03  0.12233004894E+03  0.25500000920E-02 0. -1.
        2   -1    0    0  501    0  0.00000000000E+00  0.00000000000E+00 -0.13151052812E+04  0.13151052812E+04  0.25500000920E-02 0.  1.
    10030    2    1    2    0    0  0.00000000000E+00  0.00000000000E+00 -0.11927752323E+04  0.14374353302E+04  0.80218923802E+03 0.  0.
        3    1    3    3  502    0  0.13112250915E+03  0.15342032969E+02  0.82283438826E+02  0.15556048626E+03  0.10100000352E+00 0. -1.
       -3    1    3    3    0  502 -0.13112250915E+03 -0.15342032969E+02 -0.12750586711E+04  0.12818748439E+04  0.10100000352E+00 0.  1.
</event>
<event>
 5   0  0.6593118E-04  0.8006928E+03  0.7818609E-02  0.9559015E-01
        2   -1    0    0  501    0  0.00000000000E+00  0.00000000000E+00  0.75602227204E+03  0.75602227205E+03  0.25500000920E-02 0.  1.
       -2   -1    0    0    0  501  0.00000000000E+00  0.00000000000E+00 -0.21200069182E+03  0.21200069184E+03  0.25500000920E-02 0. -1.
    10030    2    1    2    0    0  0.00000000000E+00  0.00000000000E+00  0.54402158022E+03  0.96802296388E+03  0.80069281179E+03 0.  0.
        1    1    3    3  502    0  0.66451698160E+02  0.39424748495E+03  0.29709059371E+03  0.49810614177E+03  0.50400001928E-02 0. -1.
       -1    1    3    3    0  502 -0.66451698160E+02 -0.39424748495E+03  0.24693098652E+03  0.46991682211E+03  0.50400001928E-02 0.  1.
</event>
<event>
 5   0  0.4086111E-04  0.8010468E+03  0.7818609E-02  0.9558503E-01
       -1   -1    0    0    0  501  0.00000000000E+00  0.00000000000E+00  0.20995642791E+03  0.20995642797E+03  0.50400001928E-02 0. -1.
        1   -1    0    0  501    0  0.00000000000E+00  0.00000000000E+00 -0.76405845608E+03  0.76405845610E+03  0.50400001928E-02 0.  1.
    10030    2    1    2    0    0  0.00000000000E+00  0.00000000000E+00 -0.55410202817E+03  0.97401488406E+03  0.80104677563E+03 0.  0.
        3    1    3    3  502    0 -0.21558002041E+02  0.38853279226E+03 -0.16172045184E+03  0.42139766594E+03  0.10100000352E+00 0.  1.
       -3    1    3    3    0  502  0.21558002041E+02 -0.38853279226E+03 -0.39238157633E+03  0.55261721812E+03  0.10100000352E+00 0. -1.
</event>
<event>
 5   0  0.4087283E-04  0.8001729E+03  0.7818609E-02  0.9559767E-01
        1   -1    0    0  501    0  0.00000000000E+00  0.00000000000E+00  0.12994803107E+04  0.12994803107E+04  0.50400001928E-02 0.  1.
       -1   -1    0    0    0  501  0.00000000000E+00  0.00000000000E+00 -0.12317937336E+03  0.12317937346E+03  0.50400001928E-02 0. -1.
    10030    2    1    2    0    0  0.00000000000E+00  0.00000000000E+00  0.11763009373E+04  0.14226596841E+04  0.80017290742E+03 0.  0.
        1    1    3    3  502    0  0.59206073535E+02 -0.38677316059E+03  0.43971285592E+03  0.58859683365E+03  0.50400001928E-02 0. -1.
       -1    1    3    3    0  502 -0.59206073535E+02  0.38677316059E+03  0.73658808137E+03  0.83406285047E+03  0.50400001928E-02 0.  1.
</event>
<event>
 5   0  0.6672462E-04  0.7995420E+03  0.7818609E-02  0.9560680E-01
        2   -1    0    0  501    0  0.00000000000E+00  0.00000000000E+00  0.12329517508E+04  0.12329517508E+04  0.25500000920E-02 0. -1.
       -2   -1    0    0    0  501  0.00000000000E+00  0.00000000000E+00 -0.12962132176E+03  0.12962132178E+03  0.25500000920E-02 0.  1.
    10030    2    1    2    0    0  0.00000000000E+00  0.00000000000E+00  0.11033304290E+04  0.13625730726E+04  0.79954195791E+03 0.  0.
        5    1    3    3  502    0 -0.16162541594E+03  0.35504136855E+03  0.40292529444E+03  0.56084581781E+03  0.46999998093E+01 0.  1.
       -5    1    3    3    0  502  0.16162541594E+03 -0.35504136855E+03  0.70040513458E+03  0.80172725474E+03  0.46999998093E+01 0. -1.
</event>
<event>
 5   0  0.4104786E-04  0.7999154E+03  0.7818609E-02  0.9560140E-01
       -1   -1    0    0    0  501  0.00000000000E+00  0.00000000000E+00  0.33504214207E+03  0.33504214211E+03  0.50400001928E-02 0.  1.
        1   -1    0    0  501    0  0.00000000000E+00  0.00000000000E+00 -0.47745081697E+03  0.47745081700E+03  0.50400001928E-02 0. -1.
    10030    2    1    2    0    0  0.00000000000E+00  0.00000000000E+00 -0.14240867490E+03  0.81249295911E+03  0.79991535672E+03 0.  0.
        2    1    3    3  502    0 -0.65358746261E+02  0.19295757189E+03  0.27839021085E+03  0.34497173764E+03  0.25500000920E-02 0.  1.
       -2    1    3    3    0  502  0.65358746261E+02 -0.19295757189E+03 -0.42079888576E+03  0.46752122147E+03  0.25500000920E-02 0. -1.
</event>
<event>
 5   0  0.6593118E-04  0.8000309E+03  0.7818609E-02  0.9559972E-01
       -2   -1    0    0    0  501  0.00000000000E+00  0.00000000000E+00  0.37214951105E+03  0.37214951106E+03  0.25500000920E-02 0.  1.
        2   -1    0    0  501    0  0.00000000000E+00  0.00000000000E+00 -0.42996796432E+03  0.42996796433E+03  0.25500000920E-02 0. -1.
    10030    2    1    2    0    0  0.00000000000E+00  0.00000000000E+00 -0.57818453274E+02  0.80211747539E+03  0.80003091864E+03 0.  0.
        1    1    3    3  502    0 -0.19957172375E+03 -0.32302192037E+03 -0.15509586481E+03  0.41015455778E+03  0.50400001928E-02 0. -1.
       -1    1    3    3    0  502  0.19957172375E+03  0.32302192037E+03  0.97277411539E+02  0.39196291761E+03  0.50400001928E-02 0.  1.
</event>
<event>
 5   0  0.6970013E-04  0.8000682E+03  0.7818609E-02  0.9559918E-01
       -2   -1    0    0    0  501  0.00000000000E+00  0.00000000000E+00  0.22388631371E+03  0.22388631372E+03  0.25500000920E-02 0.  1.
        2   -1    0    0  501    0  0.00000000000E+00  0.00000000000E+00 -0.71477021841E+03  0.71477021842E+03  0.25500000920E-02 0. -1.
    10030    2    1    2    0    0  0.00000000000E+00  0.00000000000E+00 -0.49088390471E+03  0.93865653214E+03  0.80006817049E+03 0.  0.
        3    1    3    3  502    0  0.33385922590E+03 -0.21505141518E+03 -0.30192939470E+03  0.49886918473E+03  0.10100000352E+00 0. -1.
       -3    1    3    3    0  502 -0.33385922590E+03  0.21505141518E+03 -0.18895451001E+03  0.43978734741E+03  0.10100000352E+00 0.  1.
</event>
<event>
 5   0  0.2736375E-04  0.7999726E+03  0.7818609E-02  0.9560057E-01
       -3   -1    0    0    0  501  0.00000000000E+00  0.00000000000E+00  0.15928790711E+04  0.15928790743E+04  0.10100000352E+00 0.  1.
        3   -1    0    0  501    0  0.00000000000E+00  0.00000000000E+00 -0.10044013501E+03  0.10044018580E+03  0.10100000352E+00 0. -1.
    10030    2    1    2    0    0  0.00000000000E+00  0.00000000000E+00  0.14924389361E+04  0.16933192601E+04  0.79997258619E+03 0.  0.
        1    1    3    3  502    0 -0.28789898748E+03 -0.27470073171E+03  0.83201110222E+03  0.92227370842E+03  0.50400001928E-02 0.  1.
       -1    1    3    3    0  502  0.28789898748E+03  0.27470073171E+03  0.66042783383E+03  0.77104555165E+03  0.50400001928E-02 0. -1.
</event>
<event>
 5   0  0.4087283E-04  0.7992516E+03  0.7818609E-02  0.9561101E-01
        1   -1    0    0  501    0  0.00000000000E+00  0.00000000000E+00  0.12122326311E+04  0.12122326311E+04  0.50400001928E-02 0. -1.
       -1   -1    0    0    0  501  0.00000000000E+00  0.00000000000E+00 -0.13174102786E+03  0.13174102796E+03  0.50400001928E-02 0.  1.
    10030    2    1    2    0    0  0.00000000000E+00  0.00000000000E+00  0.10804916033E+04  0.13439736591E+04  0.79925158217E+03 0.  0.
        1    1    3    3  502    0 -0.37966286165E+01  0.22646545194E+03 -0.13386483013E+02  0.22689251478E+03  0.50400001928E-02 0.  1.
       -1    1    3    3    0  502  0.37966286165E+01 -0.22646545194E+03  0.10938780863E+04  0.11170811443E+04  0.50400001928E-02 0. -1.
</event>
<event>
 5   0  0.6970013E-04  0.8002579E+03  0.7818609E-02  0.9559644E-01
       -2   -1    0    0    0  501  0.00000000000E+00  0.00000000000E+00  0.27152169837E+03  0.27152169838E+03  0.25500000920E-02 0.  1.
        2   -1    0    0  501    0  0.00000000000E+00  0.00000000000E+00 -0.58965148345E+03  0.58965148345E+03  0.25500000920E-02 0. -1.
    10030    2    1    2    0    0  0.00000000000E+00  0.00000000000E+00 -0.31812978508E+03  0.86117318183E+03  0.80025788903E+03 0.  0.
        3    1    3    3  502    0  0.39254686886E+03 -0.78398780796E+01 -0.76066459984E+02  0.39992577371E+03  0.10100000352E+00 0.  1.
       -3    1    3    3    0  502 -0.39254686886E+03  0.78398780796E+01 -0.24206332510E+03  0.46124740812E+03  0.10100000352E+00 0. -1.
</event>
<event>
 5   0  0.6593118E-04  0.8000692E+03  0.7818609E-02  0.9559917E-01
       -2   -1    0    0    0  501  0.00000000000E+00  0.00000000000E+00  0.15479113793E+03  0.15479113795E+03  0.25500000920E-02 0. -1.
        2   -1    0    0  501    0  0.00000000000E+00  0.00000000000E+00 -0.10338297148E+04  0.10338297148E+04  0.25500000920E-02 0.  1.
    10030    2    1    2    0    0  0.00000000000E+00  0.00000000000E+00 -0.87903857686E+03  0.11886208528E+04  0.80006919200E+03 0.  0.
        1    1    3    3  502    0 -0.17637961761E+03  0.22982344956E+03 -0.29687604269E+02  0.29122146444E+03  0.50400001928E-02 0. -1.
       -1    1    3    3    0  502  0.17637961761E+03 -0.22982344956E+03 -0.84935097259E+03  0.89739938832E+03  0.50400001928E-02 0.  1.
</event>
<event>
 5   0  0.4104786E-04  0.8000193E+03  0.7818609E-02  0.9559989E-01
       -1   -1    0    0    0  501  0.00000000000E+00  0.00000000000E+00  0.54644857956E+03  0.54644857958E+03  0.50400001928E-02 0. -1.
        1   -1    0    0  501    0  0.00000000000E+00  0.00000000000E+00 -0.29281386958E+03  0.29281386962E+03  0.50400001928E-02 0.  1.
    10030    2    1    2    0    0  0.00000000000E+00  0.00000000000E+00  0.25363470998E+03  0.83926244921E+03  0.80001930761E+03 0.  0.
        2    1    3    3  502    0 -0.26573055475E+03 -0.10806260600E+03 -0.16563602625E+03  0.33124846829E+03  0.25500000920E-02 0.  1.
       -2    1    3    3    0  502  0.26573055475E+03  0.10806260600E+03  0.41927073623E+03  0.50801398092E+03  0.25500000920E-02 0. -1.
</event>
<event>
 5   0  0.6801147E-04  0.7998544E+03  0.7818609E-02  0.9560228E-01
       -2   -1    0    0    0  501  0.00000000000E+00  0.00000000000E+00  0.57579736080E+03  0.57579736080E+03  0.25500000920E-02 0. -1.
        2   -1    0    0  501    0  0.00000000000E+00  0.00000000000E+00 -0.27777441857E+03  0.27777441858E+03  0.25500000920E-02 0.  1.
    10030    2    1    2    0    0  0.00000000000E+00  0.00000000000E+00  0.29802294223E+03  0.85357177938E+03  0.79985442955E+03 0.  0.
        4    1    3    3  502    0 -0.99572457103E+02  0.16563659581E+03 -0.22463133994E+03  0.29632922210E+03  0.12699999809E+01 0.  1.
       -4    1    3    3    0  502  0.99572457103E+02 -0.16563659581E+03  0.52265428217E+03  0.55724255729E+03  0.12699999809E+01 0. -1.
</event>
<event>
 5   0  0.7133039E-04  0.8007441E+03  0.7818609E-02  0.9558941E-01
        2   -1    0    0  501    0  0.00000000000E+00  0.00000000000E+00  0.12658564466E+03  0.12658564469E+03  0.25500000920E-02 0.  1.
       -2   -1    0    0    0  501  0.00000000000E+00  0.00000000000E+00 -0.12663187251E+04  0.12663187251E+04  0.25500000920E-02 0. -1.
    10030    2    1    2    0    0  0.00000000000E+00  0.00000000000E+00 -0.11397330805E+04  0.13929043698E+04  0.80074408443E+03 0.  0.
        2    1    3    3  502    0 -0.20084973916E+03 -0.22277266618E+03 -0.10855288817E+03  0.31898590573E+03  0.25500000920E-02 0. -1.
       -2    1    3    3    0  502  0.20084973916E+03  0.22277266618E+03 -0.10311801923E+04  0.10739184641E+04  0.25500000920E-02 0.  1.
</event>
<event>
 5   0  0.4086111E-04  0.7947888E+03  0.7818609E-02  0.9567591E-01
        1   -1    0    0  501    0  0.00000000000E+00  0.00000000000E+00  0.20935487817E+03  0.20935487823E+03  0.50400001928E-02 0.  1.
       -1   -1    0    0    0  501  0.00000000000E+00  0.00000000000E+00 -0.75432826922E+03  0.75432826924E+03  0.50400001928E-02 0. -1.
    10030    2    1    2    0    0  0.00000000000E+00  0.00000000000E+00 -0.54497339105E+03  0.96368314747E+03  0.79478878438E+03 0.  0.
        3    1    3    3  502    0 -0.10534625801E+03  0.37683998663E+03 -0.35663192946E+03  0.52942662656E+03  0.10100000352E+00 0. -1.
       -3    1    3    3    0  502  0.10534625801E+03 -0.37683998663E+03 -0.18834146159E+03  0.43425652091E+03  0.10100000352E+00 0.  1.
</event>
<event>
 5   0  0.4169155E-04  0.7999563E+03  0.7818609E-02  0.9560080E-01
        1   -1    0    0  501    0  0.00000000000E+00  0.00000000000E+00  0.10613132328E+04  0.10613132328E+04  0.50400001928E-02 0.  1.
       -1   -1    0    0    0  501  0.00000000000E+00  0.00000000000E+00 -0.15074017074E+03  0.15074017083E+03  0.50400001928E-02 0. -1.
    10030    2    1    2    0    0  0.00000000000E+00  0.00000000000E+00  0.91057306205E+03  0.12120534036E+04  0.79995634377E+03 0.  0.
        4    1    3    3  502    0 -0.12797980065E+03 -0.36461449229E+03  0.29886345626E+03  0.48851155130E+03  0.12699999809E+01 0.  1.
       -4    1    3    3    0  502  0.12797980065E+03  0.36461449229E+03  0.61170960579E+03  0.72354185233E+03  0.12699999809E+01 0. -1.
</event>
<event>
 5   0  0.4392552E-04  0.8001199E+03  0.7818609E-02  0.9559844E-01
        1   -1    0    0  501    0  0.00000000000E+00  0.00000000000E+00  0.20540692194E+04  0.20540692194E+04  0.50400001928E-02 0. -1.
       -1   -1    0    0    0  501  0.00000000000E+00  0.00000000000E+00 -0.77917516576E+02  0.77917516739E+02  0.50400001928E-02 0.  1.
    10030    2    1    2    0    0  0.00000000000E+00  0.00000000000E+00  0.19761517028E+04  0.21319867362E+04  0.80011992259E+03 0.  0.
        5    1    3    3  502    0 -0.38853834994E+02  0.20731738637E+03  0.82369040952E+02  0.22648811909E+03  0.46999998093E+01 0.  1.
       -5    1    3    3    0  502  0.38853834994E+02 -0.20731738637E+03  0.18937826619E+04  0.19054986171E+04  0.46999998093E+01 0. -1.
</event>
<event>
 5   0  0.4169155E-04  0.7999619E+03  0.7818609E-02  0.9560072E-01
        1   -1    0    0  501    0  0.00000000000E+00  0.00000000000E+00  0.17847695989E+04  0.17847695989E+04  0.50400001928E-02 0. -1.
       -1   -1    0    0    0  501  0.00000000000E+00  0.00000000000E+00 -0.89638879021E+02  0.89638879163E+02  0.50400001928E-02 0.  1.
    10030    2    1    2    0    0  0.00000000000E+00  0.00000000000E+00  0.16951307199E+04  0.18744084781E+04  0.79996186483E+03 0.  0.
        4    1    3    3  502    0 -0.11207511846E+03 -0.38395502852E+03  0.84542131506E+03  0.93526526128E+03  0.12699999809E+01 0. -1.
       -4    1    3    3    0  502  0.11207511846E+03  0.38395502852E+03  0.84970940481E+03  0.93914321678E+03  0.12699999809E+01 0.  1.
</event>
<event>
 5   0  0.4087283E-04  0.8001596E+03  0.7818609E-02  0.9559786E-01
       -1   -1    0    0    0  501  0.00000000000E+00  0.00000000000E+00  0.97470452654E+03  0.97470452655E+03  0.50400001928E-02 0.  1.
        1   -1    0    0  501    0  0.00000000000E+00  0.00000000000E+00 -0.16421783140E+03  0.16421783148E+03  0.50400001928E-02 0. -1.
    10030    2    1    2    0    0  0.00000000000E+00  0.00000000000E+00  0.81048669514E+03  0.11389223580E+04  0.80015964321E+03 0.  0.
        1    1    3    3  502    0  0.44539904530E+02  0.16802569977E+03  0.91814505572E+03  0.93445533989E+03  0.50400001928E-02 0.  1.
       -1    1    3    3    0  502 -0.44539904530E+02 -0.16802569977E+03 -0.10765836058E+03  0.20446701814E+03  0.50400001928E-02 0. -1.
</event>
<event>
 5   0  0.6672462E-04  0.7995343E+03  0.7818609E-02  0.9560691E-01
       -2   -1    0    0    0  501  0.00000000000E+00  0.00000000000E+00  0.60714625231E+03  0.60714625231E+03  0.25500000920E-02 0.  1.
        2   -1    0    0  501    0  0.00000000000E+00  0.00000000000E+00 -0.26322122198E+03  0.26322122199E+03  0.25500000920E-02 0. -1.
    10030    2    1    2    0    0  0.00000000000E+00  0.00000000000E+00  0.34392503033E+03  0.87036747430E+03  0.79953431061E+03 0.  0.
        5    1    3    3  502    0  0.28922185673E+02  0.95500008012E+02 -0.24941572271E+03  0.26867645429E+03  0.46999998093E+01 0. -1.
       -5    1    3    3    0  502 -0.28922185673E+02 -0.95500008012E+02  0.59334075304E+03  0.60169102002E+03  0.46999998093E+01 0.  1.
</event>
<event>
 5   0  0.4169155E-04  0.7998605E+03  0.7818609E-02  0.9560219E-01
        1   -1    0    0  501    0  0.00000000000E+00  0.00000000000E+00  0.63047448425E+03  0.63047448427E+03  0.50400001928E-02 0. -1.
       -1   -1    0    0    0  501  0.00000000000E+00  0.00000000000E+00 -0.25368863379E+03  0.25368863384E+03  0.50400001928E-02 0.  1.
    10030    2    1    2    0    0  0.00000000000E+00  0.00000000000E+00  0.37678585046E+03  0.88416311812E+03  0.79986051430E+03 0.  0.
        4    1    3    3  502    0 -0.34527543119E+03 -0.32914956995E+02  0.40848647156E+03  0.53587435853E+03  0.12699999809E+01 0. -1.
       -4    1    3    3    0  502  0.34527543119E+03  0.32914956995E+02 -0.31700621099E+02  0.34828875959E+03  0.12699999809E+01 0.  1.
</event>
<event>
 5   0  0.6672462E-04  0.7994571E+03  0.7818609E-02  0.9560803E-01
        2   -1    0    0  501    0  0.00000000000E+00  0.00000000000E+00  0.71267264590E+03  0.71267264591E+03  0.25500000920E-02 0. -1.
       -2   -1    0    0    0  501  0.00000000000E+00  0.00000000000E+00 -0.22420238309E+03  0.22420238310E+03  0.25500000920E-02 0.  1.
    10030    2    1    2    0    0  0.00000000000E+00  0.00000000000E+00  0.48847026281E+03  0.93687502901E+03  0.79945707973E+03 0.  0.
        5    1    3    3  502    0 -0.33150723347E+03  0.12402828676E+03  0.26627116731E+02  0.35498049961E+03  0.46999998093E+01 0.  1.
       -5    1    3    3    0  502  0.33150723347E+03 -0.12402828676E+03  0.46184314608E+03  0.58189452940E+03  0.46999998093E+01 0. -1.
</event>
<event>
 5   0  0.6970013E-04  0.7998331E+03  0.7818609E-02  0.9560259E-01
        2   -1    0    0  501    0  0.00000000000E+00  0.00000000000E+00  0.14863789886E+04  0.14863789886E+04  0.25500000920E-02 0. -1.
       -2   -1    0    0    0  501  0.00000000000E+00  0.00000000000E+00 -0.10759923144E+03  0.10759923147E+03  0.25500000920E-02 0.  1.
    10030    2    1    2    0    0  0.00000000000E+00  0.00000000000E+00  0.13787797572E+04  0.15939782201E+04  0.79983307464E+03 0.  0.
        3    1    3    3  502    0 -0.11959418342E+03  0.48134489237E+02  0.14438332008E+04  0.14495771865E+04  0.10100000352E+00 0. -1.
       -3    1    3    3    0  502  0.11959418342E+03 -0.48134489237E+02 -0.65053443624E+02  0.14440103355E+03  0.10100000352E+00 0.  1.
</event>
<event>
 5   0  0.6970013E-04  0.7998707E+03  0.7818609E-02  0.9560204E-01
       -2   -1    0    0    0  501  0.00000000000E+00  0.00000000000E+00  0.23364331705E+03  0.23364331707E+03  0.25500000920E-02 0.  1.
        2   -1    0    0  501    0  0.00000000000E+00  0.00000000000E+00 -0.68458314312E+03  0.68458314313E+03  0.25500000920E-02 0. -1.
    10030    2    1    2    0    0  0.00000000000E+00  0.00000000000E+00 -0.45093982607E+03  0.91822646019E+03  0.79987068046E+03 0.  0.
        3    1    3    3  502    0  0.34130848905E+03  0.37587214642E+02 -0.46085662928E+03  0.57471134177E+03  0.10100000352E+00 0. -1.
       -3    1    3    3    0  502 -0.34130848905E+03 -0.37587214642E+02  0.99168032110E+01  0.34351511843E+03  0.10100000352E+00 0.  1.
</event>
<event>
 5   0  0.4392552E-04  0.7998832E+03  0.7818609E-02  0.9560186E-01
       -1   -1    0    0    0  501  0.00000000000E+00  0.00000000000E+00  0.52617990346E+03  0.52617990349E+03  0.50400001928E-02 0.  1.
        1   -1    0    0  501    0  0.00000000000E+00  0.00000000000E+00 -0.30398969948E+03  0.30398969953E+03  0.50400001928E-02 0. -1.
    10030    2    1    2    0    0  0.00000000000E+00  0.00000000000E+00  0.22219020398E+03  0.83016960301E+03  0.79988316836E+03 0.  0.
        5    1    3    3  502    0  0.91449634554E+01  0.33387509338E+03  0.33936604582E+03  0.47618022994E+03  0.46999998093E+01 0.  1.
       -5    1    3    3    0  502 -0.91449634554E+01 -0.33387509338E+03 -0.11717584184E+03  0.35398937307E+03  0.46999998093E+01 0. -1.
</event>
<event>
 5   0  0.6672462E-04  0.8001181E+03  0.7818609E-02  0.9559846E-01
       -2   -1    0    0    0  501  0.00000000000E+00  0.00000000000E+00  0.82363140158E+02  0.82363140198E+02  0.25500000920E-02 0. -1.
        2   -1    0    0  501    0  0.00000000000E+00  0.00000000000E+00 -0.19431900358E+04  0.19431900358E+04  0.25500000920E-02 0.  1.
    10030    2    1    2    0    0  0.00000000000E+00  0.00000000000E+00 -0.18608268957E+04  0.20255531760E+04  0.80011807457E+03 0.  0.
        5    1    3    3  502    0  0.75861104354E+02 -0.14812676636E+03 -0.18513221700E+04  0.18587932412E+04  0.46999998093E+01 0.  1.
       -5    1    3    3    0  502 -0.75861104354E+02  0.14812676636E+03 -0.95047256075E+01  0.16675993485E+03  0.46999998093E+01 0. -1.
</event>
<event>
 5   0  0.6970013E-04  0.7998253E+03  0.7818609E-02  0.9560270E-01
       -2   -1    0    0    0  501  0.00000000000E+00  0.00000000000E+00  0.14380563829E+03  0.14380563832E+03  0.25500000920E-02 0.  1.
        2   -1    0    0  501    0  0.00000000000E+00  0.00000000000E+00 -0.11121269257E+04  0.11121269257E+04  0.25500000920E-02 0. -1.
    10030    2    1    2    0    0  0.00000000000E+00  0.00000000000E+00 -0.96832128739E+03  0.12559325640E+04  0.79982528699E+03 0.  0.
        3    1    3    3  502    0  0.11435694615E+03  0.19763383483E+03 -0.99970663423E+03  0.10254511244E+04  0.10100000352E+00 0. -1.
       -3    1    3    3    0  502 -0.11435694615E+03 -0.19763383483E+03  0.31385346845E+02  0.23048143960E+03  0.10100000352E+00 0.  1.
</event>
<event>
 5   0  0.4087283E-04  0.7999694E+03  0.7818609E-02  0.9560061E-01
       -1   -1    0    0    0  501  0.00000000000E+00  0.00000000000E+00  0.42892922872E+03  0.42892922875E+03  0.50400001928E-02 0. -1.
        1   -1    0    0  501    0  0.00000000000E+00  0.00000000000E+00 -0.37299339035E+03  0.37299339038E+03  0.50400001928E-02 0.  1.
    10030    2    1    2    0    0  0.00000000000E+00  0.00000000000E+00  0.55935838376E+02  0.80192261914E+03  0.79996941758E+03 0.  0.
        1    1    3    3  502    0  0.15888383946E+03  0.34588387417E+03 -0.95246949574E+02  0.39236680578E+03  0.50400001928E-02 0.  1.
       -1    1    3    3    0  502 -0.15888383946E+03 -0.34588387417E+03  0.15118278795E+03  0.40955581335E+03  0.50400001928E-02 0. -1.
</event>
<event>
 5   0  0.4086111E-04  0.7997865E+03  0.7818609E-02  0.9560326E-01
        1   -1    0    0  501    0  0.00000000000E+00  0.00000000000E+00  0.76557720914E+03  0.76557720915E+03  0.50400001928E-02 0.  1.
       -1   -1    0    0    0  501  0.00000000000E+00  0.00000000000E+00 -0.20888110404E+03  0.20888110410E+03  0.50400001928E-02 0. -1.
    10030    2    1    2    0    0  0.00000000000E+00  0.00000000000E+00  0.55669610510E+03  0.97445831325E+03  0.79978650328E+03 0.  0.
        3    1    3    3  502    0  0.81689850309E+02  0.16584671058E+03 -0.15368744122E+03  0.24041256798E+03  0.10100000352E+00 0. -1.
       -3    1    3    3    0  502 -0.81689850309E+02 -0.16584671058E+03  0.71038354632E+03  0.73404574527E+03  0.10100000352E+00 0.  1.
</event>
<event>
 5   0  0.4104786E-04  0.8028246E+03  0.7818609E-02  0.9555938E-01
        1   -1    0    0  501    0  0.00000000000E+00  0.00000000000E+00  0.21498690343E+04  0.21498690343E+04  0.50400001928E-02 0.  1.
       -1   -1    0    0    0  501  0.00000000000E+00  0.00000000000E+00 -0.74949613480E+02  0.74949613650E+02  0.50400001928E-02 0. -1.
    10030    2    1    2    0    0  0.00000000000E+00  0.00000000000E+00  0.20749194208E+04  0.22248186480E+04  0.80282464673E+03 0.  0.
        2    1    3    3  502    0 -0.14506338811E+03 -0.10366010859E+03  0.20341161239E+04  0.20419150839E+04  0.25500000920E-02 0.  1.
       -2    1    3    3    0  502  0.14506338811E+03  0.10366010859E+03  0.40803296972E+02  0.18290356402E+03  0.25500000920E-02 0. -1.
</event>
<event>
 5   0  0.2736375E-04  0.8000995E+03  0.7818609E-02  0.9559873E-01
        3   -1    0    0  501    0  0.00000000000E+00  0.00000000000E+00  0.14184505764E+04  0.14184505800E+04  0.10100000352E+00 0. -1.
       -3   -1    0    0    0  501  0.00000000000E+00  0.00000000000E+00 -0.11282716076E+03  0.11282720596E+03  0.10100000352E+00 0.  1.
    10030    2    1    2    0    0  0.00000000000E+00  0.00000000000E+00  0.13056234156E+04  0.15312777859E+04  0.80009946524E+03 0.  0.
        1    1    3    3  502    0 -0.20122349548E+03 -0.16011929834E+03  0.12393110774E+04  0.12657096947E+04  0.50400001928E-02 0. -1.
       -1    1    3    3    0  502  0.20122349548E+03  0.16011929834E+03  0.66312338253E+02  0.26556809120E+03  0.50400001928E-02 0.  1.
</event>
<event>
 5   0  0.6593118E-04  0.7999279E+03  0.7818609E-02  0.9560121E-01
       -2   -1    0    0    0  501  0.00000000000E+00  0.00000000000E+00  0.10745442245E+03  0.10745442248E+03  0.25500000920E-02 0. -1.
        2   -1    0    0  501    0  0.00000000000E+00  0.00000000000E+00 -0.14887351623E+04  0.14887351623E+04  0.25500000920E-02 0.  1.
    10030    2    1    2    0    0  0.00000000000E+00  0.00000000000E+00 -0.13812807398E+04  0.15961895848E+04  0.79992793943E+03 0.  0.
        1    1    3    3  502    0  0.25387739649E+03 -0.21128533633E+03 -0.11407205391E+04  0.11875767656E+04  0.50400001928E-02 0.  1.
       -1    1    3    3    0  502 -0.25387739649E+03  0.21128533633E+03 -0.24056020074E+03  0.40861281919E+03  0.50400001928E-02 0. -1.
</event>
<event>
 5   0  0.6672462E-04  0.8003252E+03  0.7818609E-02  0.9559546E-01
        2   -1    0    0  501    0  0.00000000000E+00  0.00000000000E+00  0.14122792520E+04  0.14122792520E+04  0.25500000920E-02 0.  1.
       -2   -1    0    0    0  501  0.00000000000E+00  0.00000000000E+00 -0.11338417449E+03  0.11338417452E+03  0.25500000920E-02 0. -1.
    10030    2    1    2    0    0  0.00000000000E+00  0.00000000000E+00  0.12988950775E+04  0.15256634265E+04  0.80032522681E+03 0.  0.
        5    1    3    3  502    0 -0.24218988278E+03  0.25268435085E+03  0.27978811471E+03  0.44811694859E+03  0.46999998093E+01 0. -1.
       -5    1    3    3    0  502  0.24218988278E+03 -0.25268435085E+03  0.10191069628E+04  0.10775464779E+04  0.46999998093E+01 0.  1.
</event>
<event>
 5   0  0.7133039E-04  0.7995408E+03  0.7818609E-02  0.9560682E-01
       -2   -1    0    0    0  501  0.00000000000E+00  0.00000000000E+00  0.52203153670E+03  0.52203153670E+03  0.25500000920E-02 0. -1.
        2   -1    0    0  501    0  0.00000000000E+00  0.00000000000E+00 -0.30614313083E+03  0.30614313084E+03  0.25500000920E-02 0.  1.
    10030    2    1    2    0    0  0.00000000000E+00  0.00000000000E+00  0.21588840587E+03  0.82817466755E+03  0.79954079082E+03 0.  0.
        2    1    3    3  502    0  0.38553534143E+03  0.10356046178E+03  0.85871413995E+02  0.40833340359E+03  0.25500000920E-02 0.  1.
       -2    1    3    3    0  502 -0.38553534143E+03 -0.10356046178E+03  0.13001699187E+03  0.41984126396E+03  0.25500000920E-02 0. -1.
</event>
<event>
 5   0  0.6970013E-04  0.8044712E+03  0.7818609E-02  0.9553568E-01
       -2   -1    0    0    0  501  0.00000000000E+00  0.00000000000E+00  0.11539435359E+03  0.11539435362E+03  0.25500000920E-02 0.  1.
        2   -1    0    0  501    0  0.00000000000E+00  0.00000000000E+00 -0.14020917370E+04  0.14020917370E+04  0.25500000920E-02 0. -1.
    10030    2    1    2    0    0  0.00000000000E+00  0.00000000000E+00 -0.12866973834E+04  0.15174860906E+04  0.80447117956E+03 0.  0.
        3    1    3    3  502    0  0.34023039523E+03  0.17796188507E+03 -0.41725587115E+03  0.56703582479E+03  0.10100000352E+00 0.  1.
       -3    1    3    3    0  502 -0.34023039523E+03 -0.17796188507E+03 -0.86944151225E+03  0.95045026583E+03  0.10100000352E+00 0. -1.
</event>
<event>
 5   0  0.4104786E-04  0.7998102E+03  0.7818609E-02  0.9560292E-01
        1   -1    0    0  501    0  0.00000000000E+00  0.00000000000E+00  0.29443199124E+03  0.29443199128E+03  0.50400001928E-02 0.  1.
       -1   -1    0    0    0  501  0.00000000000E+00  0.00000000000E+00 -0.54316136462E+03  0.54316136464E+03  0.50400001928E-02 0. -1.
    10030    2    1    2    0    0  0.00000000000E+00  0.00000000000E+00 -0.24872937338E+03  0.83759335592E+03  0.79981018292E+03 0.  0.
        2    1    3    3  502    0 -0.69000052756E+02  0.29214133430E+03 -0.40107502159E+03  0.50096780279E+03  0.25500000920E-02 0. -1.
       -2    1    3    3    0  502  0.69000052756E+02 -0.29214133430E+03  0.15234564820E+03  0.33662555313E+03  0.25500000920E-02 0.  1.
</event>
<event>
 5   0  0.4087283E-04  0.7985235E+03  0.7818609E-02  0.9562157E-01
        1   -1    0    0  501    0  0.00000000000E+00  0.00000000000E+00  0.36685191746E+03  0.36685191749E+03  0.50400001928E-02 0. -1.
       -1   -1    0    0    0  501  0.00000000000E+00  0.00000000000E+00 -0.43453490930E+03  0.43453490933E+03  0.50400001928E-02 0.  1.
    10030    2    1    2    0    0  0.00000000000E+00  0.00000000000E+00 -0.67682991845E+02  0.80138682682E+03  0.79852354932E+03 0.  0.
        1    1    3    3  502    0  0.17713453647E+03  0.16784248524E+03  0.28330146808E+03  0.37390836538E+03  0.50400001928E-02 0. -1.
       -1    1    3    3    0  502 -0.17713453647E+03 -0.16784248524E+03 -0.35098445992E+03  0.42747846144E+03  0.50400001928E-02 0.  1.
</event>
<event>
 5   0  0.6970013E-04  0.7999751E+03  0.7818609E-02  0.9560053E-01
       -2   -1    0    0    0  501  0.00000000000E+00  0.00000000000E+00  0.12976078497E+03  0.12976078499E+03  0.25500000920E-02 0. -1.
        2   -1    0    0  501    0  0.00000000000E+00  0.00000000000E+00 -0.12329614952E+04  0.12329614952E+04  0.25500000920E-02 0.  1.
    10030    2    1    2    0    0  0.00000000000E+00  0.00000000000E+00 -0.11032007102E+04  0.13627222801E+04  0.79997512828E+03 0.  0.
        3    1    3    3  502    0 -0.37145495039E+03  0.14546976816E+03 -0.60125857974E+03  0.72156227973E+03  0.10100000352E+00 0.  1.
       -3    1    3    3    0  502  0.37145495039E+03 -0.14546976816E+03 -0.50194213044E+03  0.64116000042E+03  0.10100000352E+00 0. -1.
</event>
<event>
 5   0  0.6672462E-04  0.7998980E+03  0.7818609E-02  0.9560165E-01
        2   -1    0    0  501    0  0.00000000000E+00  0.00000000000E+00  0.35454074224E+03  0.35454074225E+03  0.25500000920E-02 0.  1.
       -2   -1    0    0    0  501  0.00000000000E+00  0.00000000000E+00 -0.45117302267E+03  0.45117302268E+03  0.25500000920E-02 0. -1.
    10030    2    1    2    0    0  0.00000000000E+00  0.00000000000E+00 -0.96632280429E+02  0.80571376493E+03  0.79989803936E+03 0.  0.
        5    1    3    3  502    0  0.18225921131E+03  0.17490821937E+03  0.26397969076E+03  0.36540206957E+03  0.46999998093E+01 0.  1.
       -5    1    3    3    0  502 -0.18225921131E+03 -0.17490821937E+03 -0.36061197119E+03  0.44031169536E+03  0.46999998093E+01 0. -1.
</event>
<event>
 5   0  0.4086111E-04  0.7992053E+03  0.7818609E-02  0.9561168E-01
        1   -1    0    0  501    0  0.00000000000E+00  0.00000000000E+00  0.13316570834E+04  0.13316570834E+04  0.50400001928E-02 0. -1.
       -1   -1    0    0    0  501  0.00000000000E+00  0.00000000000E+00 -0.11991245133E+03  0.11991245144E+03  0.50400001928E-02 0.  1.
    10030    2    1    2    0    0  0.00000000000E+00  0.00000000000E+00  0.12117446320E+04  0.14515695348E+04  0.79920526846E+03 0.  0.
        3    1    3    3  502    0  0.31112387923E+03  0.24656763516E+03  0.68887763272E+03  0.79507614101E+03  0.10100000352E+00 0. -1.
       -3    1    3    3    0  502 -0.31112387923E+03 -0.24656763516E+03  0.52286699932E+03  0.65649339381E+03  0.10100000352E+00 0.  1.
</event>
<event>
 5   0  0.4104786E-04  0.8002348E+03  0.7818609E-02  0.9559677E-01
       -1   -1    0    0    0  501  0.00000000000E+00  0.00000000000E+00  0.77822844625E+02  0.77822844788E+02  0.50400001928E-02 0.  1.
        1   -1    0    0  501    0  0.00000000000E+00  0.00000000000E+00 -0.20571585782E+04  0.20571585782E+04  0.50400001928E-02 0. -1.
    10030    2    1    2    0    0  0.00000000000E+00  0.00000000000E+00 -0.19793357335E+04  0.21349814229E+04  0.80023479699E+03 0.  0.
        2    1    3    3  502    0  0.21267803393E+03 -0.28018593967E+03 -0.48095160596E+03  0.59586118701E+03  0.25500000920E-02 0.  1.
       -2    1    3    3    0  502 -0.21267803393E+03  0.28018593967E+03 -0.14983841276E+04  0.15391202359E+04  0.25500000920E-02 0. -1.
</event>
<event>
 5   0  0.4104786E-04  0.8002027E+03  0.7818609E-02  0.9559724E-01
       -1   -1    0    0    0  501  0.00000000000E+00  0.00000000000E+00  0.16174421572E+03  0.16174421580E+03  0.50400001928E-02 0. -1.
        1   -1    0    0  501    0  0.00000000000E+00  0.00000000000E+00 -0.98971762065E+03  0.98971762066E+03  0.50400001928E-02 0.  1.
    10030    2    1    2    0    0  0.00000000000E+00  0.00000000000E+00 -0.82797340492E+03  0.11514618365E+04  0.80020272530E+03 0.  0.
        2    1    3    3  502    0  0.24684781286E+03 -0.30152079097E+03 -0.28342535962E+03  0.48184910977E+03  0.25500000920E-02 0. -1.
       -2    1    3    3    0  502 -0.24684781286E+03  0.30152079097E+03 -0.54454804530E+03  0.66961272669E+03  0.25500000920E-02 0.  1.
</event>
<event>
 5   0  0.6801147E-04  0.7998157E+03  0.7818609E-02  0.9560284E-01
        2   -1    0    0  501    0  0.00000000000E+00  0.00000000000E+00  0.86978380313E+03  0.86978380314E+03  0.25500000920E-02 0.  1.
       -2   -1    0    0    0  501  0.00000000000E+00  0.00000000000E+00 -0.18386902969E+03  0.18386902971E+03  0.25500000920E-02 0. -1.
    10030    2    1    2    0    0  0.00000000000E+00  0.00000000000E+00  0.68591477344E+03  0.10536528328E+04  0.79981573862E+03 0.  0.
        4    1    3    3  502    0  0.87641352498E+02 -0.37580914689E+03  0.48119439206E+03  0.61681697236E+03  0.12699999809E+01 0. -1.
       -4    1    3    3    0  502 -0.87641352498E+02  0.37580914689E+03  0.20472038138E+03  0.43683586048E+03  0.12699999809E+01 0.  1.
</event>
<event>
 5   0  0.2736375E-04  0.8000801E+03  0.7818609E-02  0.9559901E-01
        3   -1    0    0  501    0  0.00000000000E+00  0.00000000000E+00  0.36220229928E+03  0.36220231336E+03  0.10100000352E+00 0. -1.
       -3   -1    0    0    0  501  0.00000000000E+00  0.00000000000E+00 -0.44183048149E+03  0.44183049303E+03  0.10100000352E+00 0.  1.
    10030    2    1    2    0    0  0.00000000000E+00  0.00000000000E+00 -0.79628182210E+02  0.80403280639E+03  0.80008006246E+03 0.  0.
        5    1    3    3  502    0  0.24827296368E+03 -0.31319120491E+03 -0.56682167161E+02  0.40368694975E+03  0.46999998093E+01 0.  1.
       -5    1    3    3    0  502 -0.24827296368E+03  0.31319120491E+03 -0.22946015049E+02  0.40034585664E+03  0.46999998093E+01 0. -1.
</event>
<event>
 5   0  0.4392552E-04  0.8000361E+03  0.7818609E-02  0.9559965E-01
       -1   -1    0    0    0  501  0.00000000000E+00  0.00000000000E+00  0.37950803550E+03  0.37950803554E+03  0.50400001928E-02 0. -1.
        1   -1    0    0  501    0  0.00000000000E+00  0.00000000000E+00 -0.42163647147E+03  0.42163647150E+03  0.50400001928E-02 0.  1.
    10030    2    1    2    0    0  0.00000000000E+00  0.00000000000E+00 -0.42128435966E+02  0.80114450704E+03  0.80003607171E+03 0.  0.
        5    1    3    3  502    0 -0.20067192724E+03  0.17423776605E+03  0.27828860780E+03  0.38483069099E+03  0.46999998093E+01 0. -1.
       -5    1    3    3    0  502  0.20067192724E+03 -0.17423776605E+03 -0.32041704376E+03  0.41631381605E+03  0.46999998093E+01 0.  1.
</event>
<event>
 5   0  0.6672462E-04  0.7999568E+03  0.7818609E-02  0.9560080E-01
       -2   -1    0    0    0  501  0.00000000000E+00  0.00000000000E+00  0.39265603959E+03  0.39265603959E+03  0.25500000920E-02 0.  1.
        2   -1    0    0  501    0  0.00000000000E+00  0.00000000000E+00 -0.40743726837E+03  0.40743726838E+03  0.25500000920E-02 0. -1.
    10030    2    1    2    0    0  0.00000000000E+00  0.00000000000E+00 -0.14781228784E+02  0.80009330797E+03  0.79995675929E+03 0.  0.
        5    1    3    3  502    0  0.90561318097E+02  0.73620385672E+02  0.37521788489E+03  0.39297819871E+03  0.46999998093E+01 0.  1.
       -5    1    3    3    0  502 -0.90561318097E+02 -0.73620385672E+02 -0.38999911368E+03  0.40711510926E+03  0.46999998093E+01 0. -1.
</event>
<event>
 5   0  0.4104786E-04  0.7991863E+03  0.7818609E-02  0.9561196E-01
        1   -1    0    0  501    0  0.00000000000E+00  0.00000000000E+00  0.40544174982E+03  0.40544174985E+03  0.50400001928E-02 0.  1.
       -1   -1    0    0    0  501  0.00000000000E+00  0.00000000000E+00 -0.39382891173E+03  0.39382891177E+03  0.50400001928E-02 0. -1.
    10030    2    1    2    0    0  0.00000000000E+00  0.00000000000E+00  0.11612838087E+02  0.79927066162E+03  0.79918629400E+03 0.  0.
        2    1    3    3  502    0  0.10211466589E+03  0.28411793145E+03 -0.25599264077E+03  0.39583157541E+03  0.25500000920E-02 0. -1.
       -2    1    3    3    0  502 -0.10211466589E+03 -0.28411793145E+03  0.26760547886E+03  0.40343908621E+03  0.25500000920E-02 0.  1.
</event>
<event>
 5   0  0.2736375E-04  0.8000056E+03  0.7818609E-02  0.9560009E-01
       -3   -1    0    0    0  501  0.00000000000E+00  0.00000000000E+00  0.45505507162E+03  0.45505508283E+03  0.10100000352E+00 0. -1.
        3   -1    0    0  501    0  0.00000000000E+00  0.00000000000E+00 -0.35161072354E+03  0.35161073805E+03  0.10100000352E+00 0.  1.
    10030    2    1    2    0    0  0.00000000000E+00  0.00000000000E+00  0.10344434808E+03  0.80666582087E+03  0.80000563336E+03 0.  0.
        3    1    3    3  502    0 -0.24050784880E+03 -0.31923863786E+03  0.67502057631E+02  0.40535647426E+03  0.10100000352E+00 0.  1.
       -3    1    3    3    0  502  0.24050784880E+03  0.31923863786E+03  0.35942290447E+02  0.40130934661E+03  0.10100000352E+00 0. -1.
</event>
<event>
 5   0  0.6593118E-04  0.7979859E+03  0.7818609E-02  0.9562937E-01
       -2   -1    0    0    0  501  0.00000000000E+00  0.00000000000E+00  0.83818128008E+02  0.83818128047E+02  0.25500000920E-02 0. -1.
        2   -1    0    0  501    0  0.00000000000E+00  0.00000000000E+00 -0.18992952237E+04  0.18992952237E+04  0.25500000920E-02 0.  1.
    10030    2    1    2    0    0  0.00000000000E+00  0.00000000000E+00 -0.18154770957E+04  0.19831133518E+04  0.79798589017E+03 0.  0.
        1    1    3    3  502    0 -0.31446557289E+03  0.95978792546E+02 -0.14694856871E+04  0.15058182858E+04  0.50400001928E-02 0.  1.
       -1    1    3    3    0  502  0.31446557289E+03 -0.95978792546E+02 -0.34599140857E+03  0.47729506595E+03  0.50400001928E-02 0. -1.
</event>
<event>
 5   0  0.4086111E-04  0.7998982E+03  0.7818609E-02  0.9560164E-01
       -1   -1    0    0    0  501  0.00000000000E+00  0.00000000000E+00  0.93463196811E+03  0.93463196812E+03  0.50400001928E-02 0. -1.
        1   -1    0    0  501    0  0.00000000000E+00  0.00000000000E+00 -0.17114682388E+03  0.17114682396E+03  0.50400001928E-02 0.  1.
    10030    2    1    2    0    0  0.00000000000E+00  0.00000000000E+00  0.76348514423E+03  0.11057787921E+04  0.79989822575E+03 0.  0.
        3    1    3    3  502    0 -0.18675793495E+02  0.39863207170E+03  0.41839489963E+03  0.57819600145E+03  0.10100000352E+00 0.  1.
       -3    1    3    3    0  502  0.18675793495E+02 -0.39863207170E+03  0.34509024459E+03  0.52758279063E+03  0.10100000352E+00 0. -1.
</event>
<event>
 5   0  0.2736375E-04  0.8001676E+03  0.7818609E-02  0.9559775E-01
        4   -1    0    0  501    0  0.00000000000E+00  0.00000000000E+00  0.17951063907E+03  0.17951513151E+03  0.12699999809E+01 0.  1.
       -4   -1    0    0    0  501  0.00000000000E+00  0.00000000000E+00 -0.89166947253E+03  0.89167037696E+03  0.12699999809E+01 0. -1.
    10030    2    1    2    0    0  0.00000000000E+00  0.00000000000E+00 -0.71215883346E+03  0.10711855085E+04  0.80016760086E+03 0.  0.
        4    1    3    3  502    0  0.16295870372E+03  0.36058191605E+03 -0.27698745493E+03  0.48300985537E+03  0.12699999809E+01 0.  1.
       -4    1    3    3    0  502 -0.16295870372E+03 -0.36058191605E+03 -0.43517137853E+03  0.58817565309E+03  0.12699999809E+01 0. -1.
</event>
<event>
 5   0  0.7133039E-04  0.7989780E+03  0.7818609E-02  0.9561498E-01
       -2   -1    0    0    0  501  0.00000000000E+00  0.00000000000E+00  0.12020974236E+03  0.12020974239E+03  0.25500000920E-02 0. -1.
        2   -1    0    0  501    0  0.00000000000E+00  0.00000000000E+00 -0.13276082426E+04  0.13276082427E+04  0.25500000920E-02 0.  1.
    10030    2    1    2    0    0  0.00000000000E+00  0.00000000000E+00 -0.12073985003E+04  0.14478179850E+04  0.79897795922E+03 0.  0.
        2    1    3    3  502    0 -0.20704400152E+03  0.29690251203E+03 -0.91000703590E+03  0.97935240113E+03  0.25500000920E-02 0.  1.
       -2    1    3    3    0  502  0.20704400152E+03 -0.29690251203E+03 -0.29739146439E+03  0.46846558391E+03  0.25500000920E-02 0. -1.
</event>
<event>
 5   0  0.7133039E-04  0.8004712E+03  0.7818609E-02  0.9559335E-01
        2   -1    0    0  501    0  0.00000000000E+00  0.00000000000E+00  0.86452357600E+03  0.86452357600E+03  0.25500000920E-02 0. -1.
       -2   -1    0    0    0  501  0.00000000000E+00  0.00000000000E+00 -0.18529111490E+03  0.18529111492E+03  0.25500000920E-02 0.  1.
    10030    2    1    2    0    0  0.00000000000E+00  0.00000000000E+00  0.67923246110E+03  0.10498146909E+04  0.80047120440E+03 0.  0.
        2    1    3    3  502    0 -0.14557349031E+03  0.11931680048E+03 -0.12362297374E+03  0.22519054065E+03  0.25500000920E-02 0.  1.
       -2    1    3    3    0  502  0.14557349031E+03 -0.11931680048E+03  0.80285543483E+03  0.82462415027E+03  0.25500000920E-02 0. -1.
</event>
<event>
 5   0  0.6801147E-04  0.7998577E+03  0.7818609E-02  0.9560223E-01
       -2   -1    0    0    0  501  0.00000000000E+00  0.00000000000E+00  0.10539736209E+03  0.10539736212E+03  0.25500000920E-02 0.  1.
        2   -1    0    0  501    0  0.00000000000E+00  0.00000000000E+00 -0.15175247137E+04  0.15175247137E+04  0.25500000920E-02 0. -1.
    10030    2    1    2    0    0  0.00000000000E+00  0.00000000000E+00 -0.14121273516E+04  0.16229220758E+04  0.79985774174E+03 0.  0.
        4    1    3    3  502    0  0.12139998724E+03 -0.34539763400E+03 -0.10326277339E+04  0.10956090235E+04  0.12699999809E+01 0. -1.
       -4    1    3    3    0  502 -0.12139998724E+03  0.34539763400E+03 -0.37949961761E+03  0.52731305232E+03  0.12699999809E+01 0.  1.
</event>
<event>
 5   0  0.7133039E-04  0.8000024E+03  0.7818609E-02  0.9560014E-01
       -2   -1    0    0    0  501  0.00000000000E+00  0.00000000000E+00  0.21044562038E+03  0.21044562039E+03  0.25500000920E-02 0.  1.
        2   -1    0    0  501    0  0.00000000000E+00  0.00000000000E+00 -0.76029591197E+03  0.76029591198E+03  0.25500000920E-02 0. -1.
    10030    2    1    2    0    0  0.00000000000E+00  0.00000000000E+00 -0.54985029159E+03  0.97074153237E+03  0.80000236218E+03 0.  0.
        2    1    3    3  502    0  0.35229556842E+03  0.98932631466E+02 -0.47096385975E+03  0.59641159470E+03  0.25500000920E-02 0. -1.
       -2    1    3    3    0  502 -0.35229556842E+03 -0.98932631466E+02 -0.78886431844E+02  0.37432993767E+03  0.25500000920E-02 0.  1.
</event>
<event>
 5   0  0.7133039E-04  0.8001970E+03  0.7818609E-02  0.9559732E-01
        2   -1    0    0  501    0  0.00000000000E+00  0.00000000000E+00  0.38940727753E+03  0.38940727754E+03  0.25500000920E-02 0.  1.
       -2   -1    0    0    0  501  0.00000000000E+00  0.00000000000E+00 -0.41108329712E+03  0.41108329713E+03  0.25500000920E-02 0. -1.
    10030    2    1    2    0    0  0.00000000000E+00  0.00000000000E+00 -0.21676019587E+02  0.80049057467E+03  0.80019704467E+03 0.  0.
        2    1    3    3  502    0  0.10812224135E+03 -0.20476234209E+03 -0.33724099758E+03  0.40908376436E+03  0.25500000920E-02 0. -1.
       -2    1    3    3    0  502 -0.10812224135E+03  0.20476234209E+03  0.31556497799E+03  0.39140681030E+03  0.25500000920E-02 0.  1.
</event>
<event>
 5   0  0.6970013E-04  0.7993571E+03  0.7818609E-02  0.9560948E-01
       -2   -1    0    0    0  501  0.00000000000E+00  0.00000000000E+00  0.32296432910E+03  0.32296432911E+03  0.25500000920E-02 0. -1.
        2   -1    0    0  501    0  0.00000000000E+00  0.00000000000E+00 -0.49461482521E+03  0.49461482522E+03  0.25500000920E-02 0.  1.
    10030    2    1    2    0    0  0.00000000000E+00  0.00000000000E+00 -0.17165049611E+03  0.81757915433E+03  0.79935710467E+03 0.  0.
        3    1    3    3  502    0 -0.33818385940E+03 -0.85413118219E+02 -0.28541256675E+03  0.45069287434E+03  0.10100000352E+00 0.  1.
       -3    1    3    3    0  502  0.33818385940E+03  0.85413118219E+02  0.11376207064E+03  0.36688627999E+03  0.10100000352E+00 0. -1.
</event>
<event>
 5   0  0.4104786E-04  0.8008538E+03  0.7818609E-02  0.9558782E-01
       -1   -1    0    0    0  501  0.00000000000E+00  0.00000000000E+00  0.25402186654E+03  0.25402186659E+03  0.50400001928E-02 0. -1.
        1   -1    0    0  501    0  0.00000000000E+00  0.00000000000E+00 -0.63121215934E+03  0.63121215936E+03  0.50400001928E-02 0.  1.
    10030    2    1    2    0    0  0.00000000000E+00  0.00000000000E+00 -0.37719029280E+03  0.88523402595E+03  0.80085377174E+03 0.  0.
        2    1    3    3  502    0 -0.15976177831E+03  0.45917695951E+01  0.21723530731E+03  0.26969629012E+03  0.25500000920E-02 0. -1.
       -2    1    3    3    0  502  0.15976177831E+03 -0.45917695951E+01 -0.59442560011E+03  0.61553773583E+03  0.25500000920E-02 0.  1.
</event>
<event>
 5   0  0.4087283E-04  0.8001990E+03  0.7818609E-02  0.9559729E-01
       -1   -1    0    0    0  501  0.00000000000E+00  0.00000000000E+00  0.32459648680E+03  0.32459648684E+03  0.50400001928E-02 0.  1.
        1   -1    0    0  501    0  0.00000000000E+00  0.00000000000E+00 -0.49316491238E+03  0.49316491240E+03  0.50400001928E-02 0. -1.
    10030    2    1    2    0    0  0.00000000000E+00  0.00000000000E+00 -0.16856842558E+03  0.81776139924E+03  0.80019897025E+03 0.  0.
        1    1    3    3  502    0 -0.33207473508E+03  0.76738227063E+02 -0.29844798289E+03  0.45302713350E+03  0.50400001928E-02 0. -1.
       -1    1    3    3    0  502  0.33207473508E+03 -0.76738227063E+02  0.12987955731E+03  0.36473426574E+03  0.50400001928E-02 0.  1.
</event>
<event>
 5   0  0.4086111E-04  0.8002173E+03  0.7818609E-02  0.9559703E-01
       -1   -1    0    0    0  501  0.00000000000E+00  0.00000000000E+00  0.31766650984E+03  0.31766650988E+03  0.50400001928E-02 0. -1.
        1   -1    0    0  501    0  0.00000000000E+00  0.00000000000E+00 -0.50394655224E+03  0.50394655227E+03  0.50400001928E-02 0.  1.
    10030    2    1    2    0    0  0.00000000000E+00  0.00000000000E+00 -0.18628004241E+03  0.82161306214E+03  0.80021732654E+03 0.  0.
        3    1    3    3  502    0  0.10733068202E+03  0.10518340939E+03  0.28758925435E+03  0.32448576907E+03  0.10100000352E+00 0. -1.
       -3    1    3    3    0  502 -0.10733068202E+03 -0.10518340939E+03 -0.47386929675E+03  0.49712729307E+03  0.10100000352E+00 0.  1.
</event>
<event>
 5   0  0.2736375E-04  0.8001153E+03  0.7818609E-02  0.9559850E-01
        3   -1    0    0  501    0  0.00000000000E+00  0.00000000000E+00  0.65468062654E+03  0.65468063433E+03  0.10100000352E+00 0.  1.
       -3   -1    0    0    0  501  0.00000000000E+00  0.00000000000E+00 -0.24446438786E+03  0.24446440873E+03  0.10100000352E+00 0. -1.
    10030    2    1    2    0    0  0.00000000000E+00  0.00000000000E+00  0.41021623868E+03  0.89914504306E+03  0.80011527043E+03 0.  0.
        1    1    3    3  502    0 -0.37770014298E+03  0.12787261423E+03  0.16891457978E+03  0.43305997133E+03  0.50400001928E-02 0. -1.
       -1    1    3    3    0  502  0.37770014298E+03 -0.12787261423E+03  0.24130165890E+03  0.46608507173E+03  0.50400001928E-02 0.  1.
</event>
<event>
 5   0  0.4104786E-04  0.7998837E+03  0.7818609E-02  0.9560186E-01
        1   -1    0    0  501    0  0.00000000000E+00  0.00000000000E+00  0.51397441208E+03  0.51397441211E+03  0.50400001928E-02 0.  1.
       -1   -1    0    0    0  501  0.00000000000E+00  0.00000000000E+00 -0.31120900756E+03  0.31120900760E+03  0.50400001928E-02 0. -1.
    10030    2    1    2    0    0  0.00000000000E+00  0.00000000000E+00  0.20276540452E+03  0.82518341971E+03  0.79988365835E+03 0.  0.
        2    1    3    3  502    0 -0.79996633837E+02 -0.34151270766E+03  0.29961417379E+03  0.46130146765E+03  0.25500000920E-02 0.  1.
       -2    1    3    3    0  502  0.79996633837E+02  0.34151270766E+03 -0.96848769268E+02  0.36388195206E+03  0.25500000920E-02 0. -1.
</event>
<event>
 5   0  0.4087283E-04  0.8002417E+03  0.7818609E-02  0.9559667E-01
        1   -1    0    0  501    0  0.00000000000E+00  0.00000000000E+00  0.30430501916E+03  0.30430501920E+03  0.50400001928E-02 0.  1.
       -1   -1    0    0    0  501  0.00000000000E+00  0.00000000000E+00 -0.52610603237E+03  0.52610603239E+03  0.50400001928E-02 0. -1.
    10030    2    1    2    0    0  0.00000000000E+00  0.00000000000E+00 -0.22180101321E+03  0.83041105159E+03  0.80024172920E+03 0.  0.
        1    1    3    3  502    0  0.12165876592E+01 -0.15662709001E+03  0.27116937291E+03  0.31315547934E+03  0.50400001928E-02 0.  1.
       -1    1    3    3    0  502 -0.12165876592E+01  0.15662709001E+03 -0.49297038612E+03  0.51725557225E+03  0.50400001928E-02 0. -1.
</event>
<event>
 5   0  0.6801147E-04  0.8000424E+03  0.7818609E-02  0.9559956E-01
       -2   -1    0    0    0  501  0.00000000000E+00  0.00000000000E+00  0.58407755631E+03  0.58407755631E+03  0.25500000920E-02 0.  1.
        2   -1    0    0  501    0  0.00000000000E+00  0.00000000000E+00 -0.27396526332E+03  0.27396526333E+03  0.25500000920E-02 0. -1.
    10030    2    1    2    0    0  0.00000000000E+00  0.00000000000E+00  0.31011229299E+03  0.85804281964E+03  0.80004240267E+03 0.  0.
        4    1    3    3  502    0 -0.32160797177E+03 -0.23369337011E+03  0.20267149489E+03  0.44623046342E+03  0.12699999809E+01 0. -1.
       -4    1    3    3    0  502  0.32160797177E+03  0.23369337011E+03  0.10744079810E+03  0.41181235622E+03  0.12699999809E+01 0.  1.
</event>
<event>
 5   0  0.6801147E-04  0.8000110E+03  0.7818609E-02  0.9560001E-01
        2   -1    0    0  501    0  0.00000000000E+00  0.00000000000E+00  0.50766114633E+03  0.50766114634E+03  0.25500000920E-02 0. -1.
       -2   -1    0    0    0  501  0.00000000000E+00  0.00000000000E+00 -0.31517954438E+03  0.31517954439E+03  0.25500000920E-02 0.  1.
    10030    2    1    2    0    0  0.00000000000E+00  0.00000000000E+00  0.19248160195E+03  0.82284069072E+03  0.80001102194E+03 0.  0.
        4    1    3    3  502    0 -0.15021103487E+03 -0.59180141937E+02  0.47265874579E+03  0.49947326963E+03  0.12699999809E+01 0. -1.
       -4    1    3    3    0  502  0.15021103487E+03  0.59180141937E+02 -0.28017714384E+03  0.32336742110E+03  0.12699999809E+01 0.  1.
</event>
<event>
 5   0  0.7133039E-04  0.8007690E+03  0.7818609E-02  0.9558905E-01
        2   -1    0    0  501    0  0.00000000000E+00  0.00000000000E+00  0.97980455285E+03  0.97980455285E+03  0.25500000920E-02 0.  1.
       -2   -1    0    0    0  501  0.00000000000E+00  0.00000000000E+00 -0.16361196108E+03  0.16361196110E+03  0.25500000920E-02 0. -1.
    10030    2    1    2    0    0  0.00000000000E+00  0.00000000000E+00  0.81619259177E+03  0.11434165139E+04  0.80076899135E+03 0.  0.
        2    1    3    3  502    0  0.36397878419E+03 -0.16449190121E+03  0.44770865628E+03  0.59998431797E+03  0.25500000920E-02 0.  1.
       -2    1    3    3    0  502 -0.36397878419E+03  0.16449190121E+03  0.36848393549E+03  0.54343219598E+03  0.25500000920E-02 0. -1.
</event>
<event>
 5   0  0.4392552E-04  0.8002077E+03  0.7818609E-02  0.9559716E-01
        1   -1    0    0  501    0  0.00000000000E+00  0.00000000000E+00  0.89916219453E+03  0.89916219455E+03  0.50400001928E-02 0. -1.
       -1   -1    0    0    0  501  0.00000000000E+00  0.00000000000E+00 -0.17803584702E+03  0.17803584710E+03  0.50400001928E-02 0.  1.
    10030    2    1    2    0    0  0.00000000000E+00  0.00000000000E+00  0.72112634751E+03  0.10771980416E+04  0.80020773044E+03 0.  0.
        5    1    3    3  502    0 -0.33206113337E+02  0.37184384955E+03  0.55419578413E+03  0.66822567412E+03  0.46999998093E+01 0. -1.
       -5    1    3    3    0  502  0.33206113337E+02 -0.37184384955E+03  0.16693056338E+03  0.40897236752E+03  0.46999998093E+01 0.  1.
</event>
<event>
 5   0  0.4169155E-04  0.8003633E+03  0.7818609E-02  0.9559491E-01
        1   -1    0    0  501    0  0.00000000000E+00  0.00000000000E+00  0.12151544226E+04  0.12151544226E+04  0.50400001928E-02 0.  1.
       -1   -1    0    0    0  501  0.00000000000E+00  0.00000000000E+00 -0.13179013160E+03  0.13179013170E+03  0.50400001928E-02 0. -1.
    10030    2    1    2    0    0  0.00000000000E+00  0.00000000000E+00  0.10833642910E+04  0.13469445543E+04  0.80036332085E+03 0.  0.
        4    1    3    3  502    0 -0.10927274203E+03 -0.34398965808E+03  0.83256065662E+03  0.90742948865E+03  0.12699999809E+01 0.  1.
       -4    1    3    3    0  502  0.10927274203E+03  0.34398965808E+03  0.25080363434E+03  0.43951506563E+03  0.12699999809E+01 0. -1.
</event>
<event>
 5   0  0.4086111E-04  0.8000415E+03  0.7818609E-02  0.9559957E-01
        1   -1    0    0  501    0  0.00000000000E+00  0.00000000000E+00  0.54278087824E+03  0.54278087826E+03  0.50400001928E-02 0. -1.
       -1   -1    0    0    0  501  0.00000000000E+00  0.00000000000E+00 -0.29480882734E+03  0.29480882738E+03  0.50400001928E-02 0.  1.
    10030    2    1    2    0    0  0.00000000000E+00  0.00000000000E+00  0.24797205089E+03  0.83758970564E+03  0.80004148453E+03 0.  0.
        3    1    3    3  502    0 -0.36113561762E+03  0.15698419001E+03  0.19767116270E+03  0.44060965604E+03  0.10100000352E+00 0.  1.
       -3    1    3    3    0  502  0.36113561762E+03 -0.15698419001E+03  0.50300888194E+02  0.39698004961E+03  0.10100000352E+00 0. -1.
</event>
<event>
 5   0  0.2736375E-04  0.7998168E+03  0.7818609E-02  0.9560282E-01
       -3   -1    0    0    0  501  0.00000000000E+00  0.00000000000E+00  0.14824210693E+03  0.14824214134E+03  0.10100000352E+00 0. -1.
        3   -1    0    0  501    0  0.00000000000E+00  0.00000000000E+00 -0.10788210809E+04  0.10788210856E+04  0.10100000352E+00 0.  1.
    10030    2    1    2    0    0  0.00000000000E+00  0.00000000000E+00 -0.93057897393E+03  0.12270632269E+04  0.79981681413E+03 0.  0.
        4    1    3    3  502    0  0.27477998490E+03 -0.79410717270E+02 -0.36500440364E+02  0.28834700825E+03  0.12699999809E+01 0. -1.
       -4    1    3    3    0  502 -0.27477998490E+03  0.79410717270E+02 -0.89407853356E+03  0.93871621867E+03  0.12699999809E+01 0.  1.
</event>
<event>
 5   0  0.4169155E-04  0.7996572E+03  0.7818609E-02  0.9560513E-01
       -1   -1    0    0    0  501  0.00000000000E+00  0.00000000000E+00  0.32723415296E+03  0.32723415300E+03  0.50400001928E-02 0.  1.
        1   -1    0    0  501    0  0.00000000000E+00  0.00000000000E+00 -0.48852759641E+03  0.48852759644E+03  0.50400001928E-02 0. -1.
    10030    2    1    2    0    0  0.00000000000E+00  0.00000000000E+00 -0.16129344345E+03  0.81576174944E+03  0.79965721215E+03 0.  0.
        4    1    3    3  502    0  0.38633650227E+03 -0.10290332329E+03 -0.76526266967E+02  0.40706617320E+03  0.12699999809E+01 0. -1.
       -4    1    3    3    0  502 -0.38633650227E+03  0.10290332329E+03 -0.84767176486E+02  0.40869557624E+03  0.12699999809E+01 0.  1.
</event>
<event>
 5   0  0.4104786E-04  0.8000269E+03  0.7818609E-02  0.9559978E-01
       -1   -1    0    0    0  501  0.00000000000E+00  0.00000000000E+00  0.37311217438E+03  0.37311217441E+03  0.50400001928E-02 0.  1.
        1   -1    0    0  501    0  0.00000000000E+00  0.00000000000E+00 -0.42885432027E+03  0.42885432030E+03  0.50400001928E-02 0. -1.
    10030    2    1    2    0    0  0.00000000000E+00  0.00000000000E+00 -0.55742145890E+02  0.80196649471E+03  0.80002691943E+03 0.  0.
        2    1    3    3  502    0 -0.24179632773E+03  0.31452836022E+03 -0.79153819803E+02  0.40454774834E+03  0.25500000920E-02 0. -1.
       -2    1    3    3    0  502  0.24179632773E+03 -0.31452836022E+03  0.23411673913E+02  0.39741874637E+03  0.25500000920E-02 0.  1.
</event>
<event>
 5   0  0.6593118E-04  0.8000062E+03  0.7818609E-02  0.9560008E-01
        2   -1    0    0  501    0  0.00000000000E+00  0.00000000000E+00  0.11603259658E+04  0.11603259658E+04  0.25500000920E-02 0.  1.
       -2   -1    0    0    0  501  0.00000000000E+00  0.00000000000E+00 -0.13789442537E+03  0.13789442539E+03  0.25500000920E-02 0. -1.
    10030    2    1    2    0    0  0.00000000000E+00  0.00000000000E+00  0.10224315405E+04  0.12982203912E+04  0.80000620576E+03 0.  0.
        1    1    3    3  502    0  0.50902021888E+01  0.23721226263E+03  0.10338031617E+04  0.10606811703E+04  0.50400001928E-02 0.  1.
       -1    1    3    3    0  502 -0.50902021888E+01 -0.23721226263E+03 -0.11371621267E+02  0.23753922097E+03  0.50400001928E-02 0. -1.
</event>
<event>
 5   0  0.7133039E-04  0.8004277E+03  0.7818609E-02  0.9559398E-01
       -2   -1    0    0    0  501  0.00000000000E+00  0.00000000000E+00  0.11315061033E+03  0.11315061035E+03  0.25500000920E-02 0.  1.
        2   -1    0    0  501    0  0.00000000000E+00  0.00000000000E+00 -0.14155569790E+04  0.14155569790E+04  0.25500000920E-02 0. -1.
    10030    2    1    2    0    0  0.00000000000E+00  0.00000000000E+00 -0.13024063686E+04  0.15287075893E+04  0.80042772602E+03 0.  0.
        2    1    3    3  502    0  0.12096109302E+03  0.20359870012E+03 -0.35032839344E+02  0.23939782069E+03  0.25500000920E-02 0.  1.
       -2    1    3    3    0  502 -0.12096109302E+03 -0.20359870012E+03 -0.12673735293E+04  0.12893097686E+04  0.25500000920E-02 0. -1.
</event>
<event>
 5   0  0.6970013E-04  0.7997342E+03  0.7818609E-02  0.9560402E-01
        2   -1    0    0  501    0  0.00000000000E+00  0.00000000000E+00  0.50401515524E+03  0.50401515525E+03  0.25500000920E-02 0.  1.
       -2   -1    0    0    0  501  0.00000000000E+00  0.00000000000E+00 -0.31723985466E+03  0.31723985467E+03  0.25500000920E-02 0. -1.
    10030    2    1    2    0    0  0.00000000000E+00  0.00000000000E+00  0.18677530059E+03  0.82125500992E+03  0.79973419235E+03 0.  0.
        3    1    3    3  502    0 -0.15508605792E+03  0.20768833821E+03  0.40606032369E+03  0.48173761309E+03  0.10100000352E+00 0.  1.
       -3    1    3    3    0  502  0.15508605792E+03 -0.20768833821E+03 -0.21928502310E+03  0.33951739683E+03  0.10100000352E+00 0. -1.
</event>
<event>
 5   0  0.6672462E-04  0.7997806E+03  0.7818609E-02  0.9560335E-01
       -2   -1    0    0    0  501  0.00000000000E+00  0.00000000000E+00  0.40485519801E+03  0.40485519802E+03  0.25500000920E-02 0. -1.
        2   -1    0    0  501    0  0.00000000000E+00  0.00000000000E+00 -0.39498627732E+03  0.39498627733E+03  0.25500000920E-02 0.  1.
    10030    2    1    2    0    0  0.00000000000E+00  0.00000000000E+00  0.98689206958E+01  0.79984147535E+03  0.79978058872E+03 0.  0.
        5    1    3    3  502    0 -0.55832008239E+02 -0.29719208166E+03 -0.25671460506E+03  0.39669235560E+03  0.46999998093E+01 0.  1.
       -5    1    3    3    0  502  0.55832008239E+02  0.29719208166E+03  0.26658352575E+03  0.40314911974E+03  0.46999998093E+01 0. -1.
</event>
<event>
 5   0  0.2736375E-04  0.7999193E+03  0.7818609E-02  0.9560134E-01
       -3   -1    0    0    0  501  0.00000000000E+00  0.00000000000E+00  0.24005782655E+03  0.24005784780E+03  0.10100000352E+00 0.  1.
        3   -1    0    0  501    0  0.00000000000E+00  0.00000000000E+00 -0.66637159736E+03  0.66637160501E+03  0.10100000352E+00 0. -1.
    10030    2    1    2    0    0  0.00000000000E+00  0.00000000000E+00 -0.42631377081E+03  0.90642945281E+03  0.79991932202E+03 0.  0.
        3    1    3    3  502    0  0.15509323361E+03 -0.20718135751E+03 -0.55870237719E+03  0.61573239519E+03  0.10100000352E+00 0. -1.
       -3    1    3    3    0  502 -0.15509323361E+03  0.20718135751E+03  0.13238860638E+03  0.29069705762E+03  0.10100000352E+00 0.  1.
</event>
<event>
 5   0  0.4086111E-04  0.8000638E+03  0.7818609E-02  0.9559925E-01
       -1   -1    0    0    0  501  0.00000000000E+00  0.00000000000E+00  0.38357818744E+03  0.38357818747E+03  0.50400001928E-02 0. -1.
        1   -1    0    0  501    0  0.00000000000E+00  0.00000000000E+00 -0.41719135515E+03  0.41719135518E+03  0.50400001928E-02 0.  1.
    10030    2    1    2    0    0  0.00000000000E+00  0.00000000000E+00 -0.33613167713E+02  0.80076954265E+03  0.80006375708E+03 0.  0.
        3    1    3    3  502    0 -0.19672401569E+03 -0.25011346219E+02 -0.36453152527E+03  0.41498090186E+03  0.10100000352E+00 0.  1.
       -3    1    3    3    0  502  0.19672401569E+03  0.25011346219E+02  0.33091835756E+03  0.38578864079E+03  0.10100000352E+00 0. -1.
</event>
<event>
 5   0  0.4104786E-04  0.8000284E+03  0.7818609E-02  0.9559976E-01
        1   -1    0    0  501    0  0.00000000000E+00  0.00000000000E+00  0.56083453791E+03  0.56083453793E+03  0.50400001928E-02 0. -1.
       -1   -1    0    0    0  501  0.00000000000E+00  0.00000000000E+00 -0.28530937704E+03  0.28530937709E+03  0.50400001928E-02 0.  1.
    10030    2    1    2    0    0  0.00000000000E+00  0.00000000000E+00  0.27552516087E+03  0.84614391502E+03  0.80002838115E+03 0.  0.
        2    1    3    3  502    0 -0.10307923869E+02 -0.37345960025E+03 -0.13421195881E+02  0.37384282101E+03  0.25500000920E-02 0.  1.
       -2    1    3    3    0  502  0.10307923869E+02  0.37345960025E+03  0.28894635675E+03  0.47230109401E+03  0.25500000920E-02 0. -1.
</event>
<event>
 5   0  0.4086111E-04  0.7998215E+03  0.7818609E-02  0.9560275E-01
       -1   -1    0    0    0  501  0.00000000000E+00  0.00000000000E+00  0.25883978063E+03  0.25883978068E+03  0.50400001928E-02 0.  1.
        1   -1    0    0  501    0  0.00000000000E+00  0.00000000000E+00 -0.61786721321E+03  0.61786721323E+03  0.50400001928E-02 0. -1.
    10030    2    1    2    0    0  0.00000000000E+00  0.00000000000E+00 -0.35902743258E+03  0.87670699390E+03  0.79982151497E+03 0.  0.
        3    1    3    3  502    0 -0.14960771621E+03  0.13026349699E+02  0.22675888259E+03  0.27197749092E+03  0.10100000352E+00 0.  1.
       -3    1    3    3    0  502  0.14960771621E+03 -0.13026349699E+02 -0.58578631517E+03  0.60472950298E+03  0.10100000352E+00 0. -1.
</event>
<event>
 5   0  0.7133039E-04  0.7993011E+03  0.7818609E-02  0.9561029E-01
        2   -1    0    0  501    0  0.00000000000E+00  0.00000000000E+00  0.71063947036E+03  0.71063947037E+03  0.25500000920E-02 0.  1.
       -2   -1    0    0    0  501  0.00000000000E+00  0.00000000000E+00 -0.22475613354E+03  0.22475613356E+03  0.25500000920E-02 0. -1.
    10030    2    1    2    0    0  0.00000000000E+00  0.00000000000E+00  0.48588333682E+03  0.93539560392E+03  0.79930114403E+03 0.  0.
        2    1    3    3  502    0  0.30828512997E+03  0.14635646701E+01  0.54056404882E+03  0.62229523079E+03  0.25500000920E-02 0.  1.
       -2    1    3    3    0  502 -0.30828512997E+03 -0.14635646701E+01 -0.54680712003E+02  0.31310037313E+03  0.25500000920E-02 0. -1.
</event>
<event>
 5   0  0.6593118E-04  0.8006325E+03  0.7818609E-02  0.9559102E-01
        2   -1    0    0  501    0  0.00000000000E+00  0.00000000000E+00  0.63280571124E+03  0.63280571124E+03  0.25500000920E-02 0. -1.
       -2   -1    0    0    0  501  0.00000000000E+00  0.00000000000E+00 -0.25324218466E+03  0.25324218468E+03  0.25500000920E-02 0.  1.
    10030    2    1    2    0    0  0.00000000000E+00  0.00000000000E+00  0.37956352658E+03  0.88604789592E+03  0.80063250194E+03 0.  0.
        1    1    3    3  502    0  0.77240612610E+02  0.58054071688E+02  0.61970671521E+03  0.62719438803E+03  0.50400001928E-02 0. -1.
       -1    1    3    3    0  502 -0.77240612610E+02 -0.58054071688E+02 -0.24014318863E+03  0.25885350789E+03  0.50400001928E-02 0.  1.
</event>
<event>
 5   0  0.6593118E-04  0.7999672E+03  0.7818609E-02  0.9560065E-01
        2   -1    0    0  501    0  0.00000000000E+00  0.00000000000E+00  0.19281419522E+03  0.19281419524E+03  0.25500000920E-02 0.  1.
       -2   -1    0    0    0  501  0.00000000000E+00  0.00000000000E+00 -0.82974648015E+03  0.82974648015E+03  0.25500000920E-02 0. -1.
    10030    2    1    2    0    0  0.00000000000E+00  0.00000000000E+00 -0.63693228493E+03  0.10225606754E+04  0.79996724887E+03 0.  0.
        1    1    3    3  502    0  0.80122268428E+02  0.12150240289E+03  0.15776592344E+03  0.21464505219E+03  0.50400001928E-02 0.  1.
       -1    1    3    3    0  502 -0.80122268428E+02 -0.12150240289E+03 -0.79469820837E+03  0.80791562320E+03  0.50400001928E-02 0. -1.
</event>
<event>
 5   0  0.6970013E-04  0.7983023E+03  0.7818609E-02  0.9562478E-01
       -2   -1    0    0    0  501  0.00000000000E+00  0.00000000000E+00  0.85066866377E+03  0.85066866377E+03  0.25500000920E-02 0.  1.
        2   -1    0    0  501    0  0.00000000000E+00  0.00000000000E+00 -0.18728988709E+03  0.18728988710E+03  0.25500000920E-02 0. -1.
    10030    2    1    2    0    0  0.00000000000E+00  0.00000000000E+00  0.66337877668E+03  0.10379585509E+04  0.79830229361E+03 0.  0.
        3    1    3    3  502    0 -0.85665733154E+02 -0.18536242058E+03  0.77761272958E+03  0.80397724608E+03  0.10100000352E+00 0.  1.
       -3    1    3    3    0  502  0.85665733154E+02  0.18536242058E+03 -0.11423395290E+03  0.23398130480E+03  0.10100000352E+00 0. -1.
</event>
<event>
 5   0  0.4169155E-04  0.7998637E+03  0.7818609E-02  0.9560214E-01
       -1   -1    0    0    0  501  0.00000000000E+00  0.00000000000E+00  0.26101103698E+03  0.26101103703E+03  0.50400001928E-02 0. -1.
        1   -1    0    0  501    0  0.00000000000E+00  0.00000000000E+00 -0.61279206431E+03  0.61279206434E+03  0.50400001928E-02 0.  1.
    10030    2    1    2    0    0  0.00000000000E+00  0.00000000000E+00 -0.35178102733E+03  0.87380310137E+03  0.79986371887E+03 0.  0.
        4    1    3    3  502    0  0.25658673887E+03 -0.27010054684E+03 -0.17005947044E+02  0.37293682455E+03  0.12699999809E+01 0. -1.
       -4    1    3    3    0  502 -0.25658673887E+03  0.27010054684E+03 -0.33477508029E+03  0.50086627682E+03  0.12699999809E+01 0.  1.
</event>
<event>
 5   0  0.6593118E-04  0.7998546E+03  0.7818609E-02  0.9560228E-01
        2   -1    0    0  501    0  0.00000000000E+00  0.00000000000E+00  0.85187409564E+03  0.85187409564E+03  0.25500000920E-02 0.  1.
       -2   -1    0    0    0  501  0.00000000000E+00  0.00000000000E+00 -0.18775293062E+03  0.18775293064E+03  0.25500000920E-02 0. -1.
    10030    2    1    2    0    0  0.00000000000E+00  0.00000000000E+00  0.66412116501E+03  0.10396270263E+04  0.79985463177E+03 0.  0.
        1    1    3    3  502    0 -0.67394487677E+02 -0.33239917234E+01 -0.18030074504E+03  0.19251343999E+03  0.50400001928E-02 0. -1.
       -1    1    3    3    0  502  0.67394487677E+02  0.33239917234E+01  0.84442191005E+03  0.84711358630E+03  0.50400001928E-02 0.  1.
</event>
<event>
 5   0  0.4104786E-04  0.8000728E+03  0.7818609E-02  0.9559912E-01
        1   -1    0    0  501    0  0.00000000000E+00  0.00000000000E+00  0.42474911352E+03  0.42474911355E+03  0.50400001928E-02 0. -1.
       -1   -1    0    0    0  501  0.00000000000E+00  0.00000000000E+00 -0.37676151367E+03  0.37676151371E+03  0.50400001928E-02 0.  1.
    10030    2    1    2    0    0  0.00000000000E+00  0.00000000000E+00  0.47987599847E+02  0.80151062726E+03  0.80007279411E+03 0.  0.
        2    1    3    3  502    0  0.15648402314E+02 -0.15800313322E+03 -0.34384348296E+03  0.37873236379E+03  0.25500000920E-02 0.  1.
       -2    1    3    3    0  502 -0.15648402314E+02  0.15800313322E+03  0.39183108280E+03  0.42277826347E+03  0.25500000920E-02 0. -1.
</event>
<event>
 5   0  0.6672462E-04  0.8000617E+03  0.7818609E-02  0.9559928E-01
        2   -1    0    0  501    0  0.00000000000E+00  0.00000000000E+00  0.51927804573E+03  0.51927804574E+03  0.25500000920E-02 0. -1.
       -2   -1    0    0    0  501  0.00000000000E+00  0.00000000000E+00 -0.30816765242E+03  0.30816765243E+03  0.25500000920E-02 0.  1.
    10030    2    1    2    0    0  0.00000000000E+00  0.00000000000E+00  0.21111039331E+03  0.82744569817E+03  0.80006173840E+03 0.  0.
        5    1    3    3  502    0  0.47430540907E+02  0.32529278722E+03 -0.13014326162E+03  0.35358791293E+03  0.46999998093E+01 0.  1.
       -5    1    3    3    0  502 -0.47430540907E+02 -0.32529278722E+03  0.34125365494E+03  0.47385778524E+03  0.46999998093E+01 0. -1.
</event>
<event>
 5   0  0.6970013E-04  0.7998735E+03  0.7818609E-02  0.9560200E-01
        2   -1    0    0  501    0  0.00000000000E+00  0.00000000000E+00  0.43975776182E+03  0.43975776183E+03  0.25500000920E-02 0.  1.
       -2   -1    0    0    0  501  0.00000000000E+00  0.00000000000E+00 -0.36372161696E+03  0.36372161697E+03  0.25500000920E-02 0. -1.
    10030    2    1    2    0    0  0.00000000000E+00  0.00000000000E+00  0.76036144862E+02  0.80347937880E+03  0.79987350052E+03 0.  0.
        3    1    3    3  502    0  0.27059484165E+03 -0.15980432010E+03 -0.21046401671E+03  0.37822493517E+03  0.10100000352E+00 0. -1.
       -3    1    3    3    0  502 -0.27059484165E+03  0.15980432010E+03  0.28650016157E+03  0.42525444364E+03  0.10100000352E+00 0.  1.
</event>
<event>
 5   0  0.4104786E-04  0.7997621E+03  0.7818609E-02  0.9560361E-01
       -1   -1    0    0    0  501  0.00000000000E+00  0.00000000000E+00  0.13531756949E+03  0.13531756958E+03  0.50400001928E-02 0. -1.
        1   -1    0    0  501    0  0.00000000000E+00  0.00000000000E+00 -0.11817007270E+04  0.11817007270E+04  0.50400001928E-02 0.  1.
    10030    2    1    2    0    0  0.00000000000E+00  0.00000000000E+00 -0.10463831575E+04  0.13170182966E+04  0.79976214042E+03 0.  0.
        2    1    3    3  502    0  0.10797168798E+03 -0.33258191298E+02  0.10848916502E+03  0.15663298384E+03  0.25500000920E-02 0. -1.
       -2    1    3    3    0  502 -0.10797168798E+03  0.33258191298E+02 -0.11548723225E+04  0.11603853128E+04  0.25500000920E-02 0.  1.
</event>
<event>
 5   0  0.4104786E-04  0.7976938E+03  0.7818609E-02  0.9563361E-01
       -1   -1    0    0    0  501  0.00000000000E+00  0.00000000000E+00  0.23451426636E+03  0.23451426642E+03  0.50400001928E-02 0. -1.
        1   -1    0    0  501    0  0.00000000000E+00  0.00000000000E+00 -0.67833331574E+03  0.67833331576E+03  0.50400001928E-02 0.  1.
    10030    2    1    2    0    0  0.00000000000E+00  0.00000000000E+00 -0.44381904938E+03  0.91284758218E+03  0.79769377564E+03 0.  0.
        2    1    3    3  502    0 -0.21420692192E+03 -0.17173512887E+03 -0.55298584231E+03  0.61739039650E+03  0.25500000920E-02 0.  1.
       -2    1    3    3    0  502  0.21420692192E+03  0.17173512887E+03  0.10916679293E+03  0.29545718568E+03  0.25500000920E-02 0. -1.
</event>
<event>
 5   0  0.2736375E-04  0.7999657E+03  0.7818609E-02  0.9560067E-01
        3   -1    0    0  501    0  0.00000000000E+00  0.00000000000E+00  0.21180107224E+03  0.21180109633E+03  0.10100000352E+00 0. -1.
       -3   -1    0    0    0  501  0.00000000000E+00  0.00000000000E+00 -0.75536098011E+03  0.75536098686E+03  0.10100000352E+00 0.  1.
    10030    2    1    2    0    0  0.00000000000E+00  0.00000000000E+00 -0.54355990786E+03  0.96716208319E+03  0.79996570034E+03 0.  0.
        3    1    3    3  502    0  0.37189574486E+02 -0.72152924377E+02 -0.74529802412E+03  0.74970545143E+03  0.10100000352E+00 0.  1.
       -3    1    3    3    0  502 -0.37189574486E+02  0.72152924377E+02  0.20173811625E+03  0.21745663176E+03  0.10100000352E+00 0. -1.
</event>
<event>
 5   0  0.4392552E-04  0.7999087E+03  0.7818609E-02  0.9560149E-01
       -1   -1    0    0    0  501  0.00000000000E+00  0.00000000000E+00  0.37983867321E+03  0.37983867324E+03  0.50400001928E-02 0.  1.
        1   -1    0    0  501    0  0.00000000000E+00  0.00000000000E+00 -0.42113530390E+03  0.42113530393E+03  0.50400001928E-02 0. -1.
    10030    2    1    2    0    0  0.00000000000E+00  0.00000000000E+00 -0.41296630693E+02  0.80097397717E+03  0.79990868254E+03 0.  0.
        5    1    3    3  502    0  0.42158430279E+02 -0.39601970797E+03 -0.57199568966E+02  0.40237149878E+03  0.46999998093E+01 0. -1.
       -5    1    3    3    0  502 -0.42158430279E+02  0.39601970797E+03  0.15902938273E+02  0.39860247840E+03  0.46999998093E+01 0.  1.
</event>
<event>
 5   0  0.7133039E-04  0.7999356E+03  0.7818609E-02  0.9560110E-01
        2   -1    0    0  501    0  0.00000000000E+00  0.00000000000E+00  0.34586340476E+03  0.34586340477E+03  0.25500000920E-02 0. -1.
       -2   -1    0    0    0  501  0.00000000000E+00  0.00000000000E+00 -0.46253592172E+03  0.46253592173E+03  0.25500000920E-02 0.  1.
    10030    2    1    2    0    0  0.00000000000E+00  0.00000000000E+00 -0.11667251697E+03  0.80839932650E+03  0.79993561920E+03 0.  0.
        2    1    3    3  502    0 -0.25646657891E+03 -0.22316345296E+03 -0.27127210376E+03  0.43493170397E+03  0.25500000920E-02 0.  1.
       -2    1    3    3    0  502  0.25646657891E+03  0.22316345296E+03  0.15459958679E+03  0.37346762253E+03  0.25500000920E-02 0. -1.
</event>
<event>
 5   0  0.7133039E-04  0.8011478E+03  0.7818609E-02  0.9558357E-01
        2   -1    0    0  501    0  0.00000000000E+00  0.00000000000E+00  0.59439560505E+03  0.59439560506E+03  0.25500000920E-02 0.  1.
       -2   -1    0    0    0  501  0.00000000000E+00  0.00000000000E+00 -0.26995393404E+03  0.26995393405E+03  0.25500000920E-02 0. -1.
    10030    2    1    2    0    0  0.00000000000E+00  0.00000000000E+00  0.32444167102E+03  0.86434953911E+03  0.80114775657E+03 0.  0.
        2    1    3    3  502    0  0.12325241128E+02  0.89513153803E+02 -0.25881541191E+03  0.27413488235E+03  0.25500000920E-02 0. -1.
       -2    1    3    3    0  502 -0.12325241128E+02 -0.89513153803E+02  0.58325708292E+03  0.59021465676E+03  0.25500000920E-02 0.  1.
</event>
<event>
 5   0  0.4086111E-04  0.8003195E+03  0.7818609E-02  0.9559555E-01
       -1   -1    0    0    0  501  0.00000000000E+00  0.00000000000E+00  0.26673604182E+03  0.26673604187E+03  0.50400001928E-02 0. -1.
        1   -1    0    0  501    0  0.00000000000E+00  0.00000000000E+00 -0.60032315433E+03  0.60032315435E+03  0.50400001928E-02 0.  1.
    10030    2    1    2    0    0  0.00000000000E+00  0.00000000000E+00 -0.33358711251E+03  0.86705919622E+03  0.80031949128E+03 0.  0.
        3    1    3    3  502    0  0.13124961328E+03  0.26844773391E+03  0.12155377799E+03  0.32259258822E+03  0.10100000352E+00 0. -1.
       -3    1    3    3    0  502 -0.13124961328E+03 -0.26844773391E+03 -0.45514089050E+03  0.54446660800E+03  0.10100000352E+00 0.  1.
</event>
<event>
 5   0  0.6801147E-04  0.8000605E+03  0.7818609E-02  0.9559930E-01
        2   -1    0    0  501    0  0.00000000000E+00  0.00000000000E+00  0.39464486159E+03  0.39464486160E+03  0.25500000920E-02 0. -1.
       -2   -1    0    0    0  501  0.00000000000E+00  0.00000000000E+00 -0.40548910854E+03  0.40548910855E+03  0.25500000920E-02 0.  1.
    10030    2    1    2    0    0  0.00000000000E+00  0.00000000000E+00 -0.10844246946E+02  0.80013397015E+03  0.80006048052E+03 0.  0.
        4    1    3    3  502    0  0.18883344305E+03  0.21264131648E+03 -0.28678083141E+03  0.40388025063E+03  0.12699999809E+01 0.  1.
       -4    1    3    3    0  502 -0.18883344305E+03 -0.21264131648E+03  0.27593658446E+03  0.39625371952E+03  0.12699999809E+01 0. -1.
</event>
<event>
 5   0  0.4087283E-04  0.7996944E+03  0.7818609E-02  0.9560460E-01
        1   -1    0    0  501    0  0.00000000000E+00  0.00000000000E+00  0.27182392110E+03  0.27182392114E+03  0.50400001928E-02 0. -1.
       -1   -1    0    0    0  501  0.00000000000E+00  0.00000000000E+00 -0.58816666606E+03  0.58816666608E+03  0.50400001928E-02 0.  1.
    10030    2    1    2    0    0  0.00000000000E+00  0.00000000000E+00 -0.31634274496E+03  0.85999058723E+03  0.79969436526E+03 0.  0.
        1    1    3    3  502    0 -0.25843287638E+03 -0.30006778123E+02 -0.48469237740E+03  0.55010422564E+03  0.50400001928E-02 0.  1.
       -1    1    3    3    0  502  0.25843287638E+03  0.30006778123E+02  0.16834963244E+03  0.30988636159E+03  0.50400001928E-02 0. -1.
</event>
<event>
 5   0  0.7133039E-04  0.8000416E+03  0.7818609E-02  0.9559957E-01
       -2   -1    0    0    0  501  0.00000000000E+00  0.00000000000E+00  0.32939375850E+03  0.32939375851E+03  0.25500000920E-02 0. -1.
        2   -1    0    0  501    0  0.00000000000E+00  0.00000000000E+00 -0.48579131207E+03  0.48579131208E+03  0.25500000920E-02 0.  1.
    10030    2    1    2    0    0  0.00000000000E+00  0.00000000000E+00 -0.15639755357E+03  0.81518507059E+03  0.80004156427E+03 0.  0.
        2    1    3    3  502    0  0.19156805503E+03  0.84765281783E+02  0.26903484998E+03  0.34097393333E+03  0.25500000920E-02 0. -1.
       -2    1    3    3    0  502 -0.19156805503E+03 -0.84765281783E+02 -0.42543240355E+03  0.47421113726E+03  0.25500000920E-02 0.  1.
</event>
<event>
 5   0  0.4086111E-04  0.8001463E+03  0.7818609E-02  0.9559805E-01
       -1   -1    0    0    0  501  0.00000000000E+00  0.00000000000E+00  0.21195734882E+03  0.21195734888E+03  0.50400001928E-02 0.  1.
        1   -1    0    0  501    0  0.00000000000E+00  0.00000000000E+00 -0.75514490382E+03  0.75514490384E+03  0.50400001928E-02 0. -1.
    10030    2    1    2    0    0  0.00000000000E+00  0.00000000000E+00 -0.54318755500E+03  0.96710225271E+03  0.80014626619E+03 0.  0.
        3    1    3    3  502    0 -0.30474319892E+03 -0.35143510794E+02  0.38809954011E+02  0.30920819260E+03  0.10100000352E+00 0.  1.
       -3    1    3    3    0  502  0.30474319892E+03  0.35143510794E+02 -0.58199750901E+03  0.65789406012E+03  0.10100000352E+00 0. -1.
</event>
<event>
 5   0  0.2736375E-04  0.8000269E+03  0.7818609E-02  0.9559978E-01
        3   -1    0    0  501    0  0.00000000000E+00  0.00000000000E+00  0.15967228478E+03  0.15967231672E+03  0.10100000352E+00 0. -1.
       -3   -1    0    0    0  501  0.00000000000E+00  0.00000000000E+00 -0.10021197933E+04  0.10021197984E+04  0.10100000352E+00 0.  1.
    10030    2    1    2    0    0  0.00000000000E+00  0.00000000000E+00 -0.84244750856E+03  0.11617921151E+04  0.80002694589E+03 0.  0.
        3    1    3    3  502    0 -0.53189662702E+02 -0.22816841633E+03  0.49610598903E+02  0.23948108100E+03  0.10100000352E+00 0. -1.
       -3    1    3    3    0  502  0.53189662702E+02  0.22816841633E+03 -0.89205810746E+03  0.92231103415E+03  0.10100000352E+00 0.  1.
</event>
<event>
 5   0  0.6593118E-04  0.7999340E+03  0.7818609E-02  0.9560113E-01
        2   -1    0    0  501    0  0.00000000000E+00  0.00000000000E+00  0.10953909540E+04  0.10953909540E+04  0.25500000920E-02 0. -1.
       -2   -1    0    0    0  501  0.00000000000E+00  0.00000000000E+00 -0.14604247918E+03  0.14604247920E+03  0.25500000920E-02 0.  1.
    10030    2    1    2    0    0  0.00000000000E+00  0.00000000000E+00  0.94934847486E+03  0.12414334332E+04  0.79993402382E+03 0.  0.
        1    1    3    3  502    0  0.11911593182E+03  0.37669813908E+03  0.57138657829E+03  0.69467453896E+03  0.50400001928E-02 0.  1.
       -1    1    3    3    0  502 -0.11911593182E+03 -0.37669813908E+03  0.37796189657E+03  0.54675889429E+03  0.50400001928E-02 0. -1.
</event>
<event>
 5   0  0.6672462E-04  0.8006548E+03  0.7818609E-02  0.9559070E-01
        2   -1    0    0  501    0  0.00000000000E+00  0.00000000000E+00  0.22489008417E+03  0.22489008419E+03  0.25500000920E-02 0.  1.
       -2   -1    0    0    0  501  0.00000000000E+00  0.00000000000E+00 -0.71262377538E+03  0.71262377538E+03  0.25500000920E-02 0. -1.
    10030    2    1    2    0    0  0.00000000000E+00  0.00000000000E+00 -0.48773369120E+03  0.93751385957E+03  0.80065478413E+03 0.  0.
        5    1    3    3  502    0 -0.35270832579E+03  0.14152116251E+03 -0.96643014609E+02  0.39216497139E+03  0.46999998093E+01 0.  1.
       -5    1    3    3    0  502  0.35270832579E+03 -0.14152116251E+03 -0.39109067659E+03  0.54534888818E+03  0.46999998093E+01 0. -1.
</event>
<event>
 5   0  0.4087283E-04  0.7999325E+03  0.7818609E-02  0.9560115E-01
        1   -1    0    0  501    0  0.00000000000E+00  0.00000000000E+00  0.31729648691E+03  0.31729648695E+03  0.50400001928E-02 0. -1.
       -1   -1    0    0    0  501  0.00000000000E+00  0.00000000000E+00 -0.50417514383E+03  0.50417514386E+03  0.50400001928E-02 0.  1.
    10030    2    1    2    0    0  0.00000000000E+00  0.00000000000E+00 -0.18687865692E+03  0.82147163081E+03  0.79993250203E+03 0.  0.
        1    1    3    3  502    0  0.21213285676E+03  0.33773109140E+03 -0.12442397203E+03  0.41778459026E+03  0.50400001928E-02 0.  1.
       -1    1    3    3    0  502 -0.21213285676E+03 -0.33773109140E+03 -0.62454684891E+02  0.40368704055E+03  0.50400001928E-02 0. -1.
</event>
<event>
 5   0  0.4104786E-04  0.7939979E+03  0.7818609E-02  0.9568746E-01
        1   -1    0    0  501    0  0.00000000000E+00  0.00000000000E+00  0.41000859568E+03  0.41000859571E+03  0.50400001928E-02 0. -1.
       -1   -1    0    0    0  501  0.00000000000E+00  0.00000000000E+00 -0.38440214139E+03  0.38440214142E+03  0.50400001928E-02 0.  1.
    10030    2    1    2    0    0  0.00000000000E+00  0.00000000000E+00  0.25606454289E+02  0.79441073713E+03  0.79399794003E+03 0.  0.
        2    1    3    3  502    0 -0.31813126005E+03  0.21982025756E+03  0.10273732177E+03  0.40010423835E+03  0.25500000920E-02 0. -1.
       -2    1    3    3    0  502  0.31813126005E+03 -0.21982025756E+03 -0.77130867483E+02  0.39430649878E+03  0.25500000920E-02 0.  1.
</event>
<event>
 5   0  0.4169155E-04  0.7999664E+03  0.7818609E-02  0.9560066E-01
        1   -1    0    0  501    0  0.00000000000E+00  0.00000000000E+00  0.70082598301E+03  0.70082598302E+03  0.50400001928E-02 0.  1.
       -1   -1    0    0    0  501  0.00000000000E+00  0.00000000000E+00 -0.22828287684E+03  0.22828287690E+03  0.50400001928E-02 0. -1.
    10030    2    1    2    0    0  0.00000000000E+00  0.00000000000E+00  0.47254310617E+03  0.92910885992E+03  0.79996642830E+03 0.  0.
        4    1    3    3  502    0 -0.15651951162E+03  0.36708565891E+03  0.20479002302E+03  0.44854298002E+03  0.12699999809E+01 0.  1.
       -4    1    3    3    0  502  0.15651951162E+03 -0.36708565891E+03  0.26775308314E+03  0.48056587990E+03  0.12699999809E+01 0. -1.
</event>
<event>
 5   0  0.7133039E-04  0.8000057E+03  0.7818609E-02  0.9560009E-01
       -2   -1    0    0    0  501  0.00000000000E+00  0.00000000000E+00  0.15477191471E+03  0.15477191473E+03  0.25500000920E-02 0.  1.
        2   -1    0    0  501    0  0.00000000000E+00  0.00000000000E+00 -0.10337939403E+04  0.10337939403E+04  0.25500000920E-02 0. -1.
    10030    2    1    2    0    0  0.00000000000E+00  0.00000000000E+00 -0.87902202562E+03  0.11885658551E+04  0.80000566893E+03 0.  0.
        2    1    3    3  502    0  0.28662375322E+03 -0.10487619228E+03 -0.55378437559E+02  0.31019181642E+03  0.25500000920E-02 0.  1.
       -2    1    3    3    0  502 -0.28662375322E+03  0.10487619228E+03 -0.82364358807E+03  0.87837403866E+03  0.25500000920E-02 0. -1.
</event>
<event>
 5   0  0.7133039E-04  0.7982928E+03  0.7818609E-02  0.9562492E-01
        2   -1    0    0  501    0  0.00000000000E+00  0.00000000000E+00  0.56535216127E+03  0.56535216127E+03  0.25500000920E-02 0. -1.
       -2   -1    0    0    0  501  0.00000000000E+00  0.00000000000E+00 -0.28180281573E+03  0.28180281574E+03  0.25500000920E-02 0.  1.
    10030    2    1    2    0    0  0.00000000000E+00  0.00000000000E+00  0.28354934554E+03  0.84715497702E+03  0.79829275565E+03 0.  0.
        2    1    3    3  502    0 -0.68272808904E+02  0.60058733650E+02 -0.27066503701E+03  0.28553071672E+03  0.25500000920E-02 0.  1.
       -2    1    3    3    0  502  0.68272808904E+02 -0.60058733650E+02  0.55421438255E+03  0.56162426030E+03  0.25500000920E-02 0. -1.
</event>
<event>
 5   0  0.6801147E-04  0.8000082E+03  0.7818609E-02  0.9560005E-01
        2   -1    0    0  501    0  0.00000000000E+00  0.00000000000E+00  0.17834257619E+04  0.17834257619E+04  0.25500000920E-02 0.  1.
       -2   -1    0    0    0  501  0.00000000000E+00  0.00000000000E+00 -0.89716821229E+02  0.89716821265E+02  0.25500000920E-02 0. -1.
    10030    2    1    2    0    0  0.00000000000E+00  0.00000000000E+00  0.16937089407E+04  0.18731425832E+04  0.80000822569E+03 0.  0.
        4    1    3    3  502    0 -0.36780236842E+01 -0.19254380709E+03  0.16677329754E+04  0.16788155156E+04  0.12699999809E+01 0.  1.
       -4    1    3    3    0  502  0.36780236842E+01  0.19254380709E+03  0.25975965318E+02  0.19432706755E+03  0.12699999809E+01 0. -1.
</event>
<event>
 5   0  0.6672462E-04  0.7989057E+03  0.7818609E-02  0.9561602E-01
       -2   -1    0    0    0  501  0.00000000000E+00  0.00000000000E+00  0.17970268606E+03  0.17970268608E+03  0.25500000920E-02 0. -1.
        2   -1    0    0  501    0  0.00000000000E+00  0.00000000000E+00 -0.88792544963E+03  0.88792544963E+03  0.25500000920E-02 0.  1.
    10030    2    1    2    0    0  0.00000000000E+00  0.00000000000E+00 -0.70822276356E+03  0.10676281357E+04  0.79890572244E+03 0.  0.
        5    1    3    3  502    0 -0.21537604211E+03 -0.29352808378E+03 -0.13454516251E+03  0.38816242250E+03  0.46999998093E+01 0. -1.
       -5    1    3    3    0  502  0.21537604211E+03  0.29352808378E+03 -0.57367760106E+03  0.67946571322E+03  0.46999998093E+01 0.  1.
</event>
<event>
 5   0  0.7133039E-04  0.7999065E+03  0.7818609E-02  0.9560152E-01
        2   -1    0    0  501    0  0.00000000000E+00  0.00000000000E+00  0.11123447387E+04  0.11123447387E+04  0.25500000920E-02 0. -1.
       -2   -1    0    0    0  501  0.00000000000E+00  0.00000000000E+00 -0.14380668641E+03  0.14380668643E+03  0.25500000920E-02 0.  1.
    10030    2    1    2    0    0  0.00000000000E+00  0.00000000000E+00  0.96853805232E+03  0.12561514252E+04  0.79990652212E+03 0.  0.
        2    1    3    3  502    0 -0.32117833902E+02 -0.25584269762E+03  0.96439126020E+03  0.99826727079E+03  0.25500000920E-02 0. -1.
       -2    1    3    3    0  502  0.32117833902E+02  0.25584269762E+03  0.41467921211E+01  0.25788415437E+03  0.25500000920E-02 0.  1.
</event>
<event>
 5   0  0.6593118E-04  0.8001348E+03  0.7818609E-02  0.9559822E-01
       -2   -1    0    0    0  501  0.00000000000E+00  0.00000000000E+00  0.73413275708E+02  0.73413275752E+02  0.25500000920E-02 0. -1.
        2   -1    0    0  501    0  0.00000000000E+00  0.00000000000E+00 -0.21801768464E+04  0.21801768464E+04  0.25500000920E-02 0.  1.
    10030    2    1    2    0    0  0.00000000000E+00  0.00000000000E+00 -0.21067635706E+04  0.22535901221E+04  0.80013479856E+03 0.  0.
        1    1    3    3  502    0  0.59545576079E+02  0.31085338755E+02 -0.21641809422E+04  0.21652231119E+04  0.50400001928E-02 0.  1.
       -1    1    3    3    0  502 -0.59545576079E+02 -0.31085338755E+02  0.57417371508E+02  0.88367010204E+02  0.50400001928E-02 0. -1.
</event>
<event>
 5   0  0.6801147E-04  0.7999006E+03  0.7818609E-02  0.9560161E-01
       -2   -1    0    0    0  501  0.00000000000E+00  0.00000000000E+00  0.25534695042E+03  0.25534695043E+03  0.25500000920E-02 0. -1.
        2   -1    0    0  501    0  0.00000000000E+00  0.00000000000E+00 -0.62644271675E+03  0.62644271676E+03  0.25500000920E-02 0.  1.
    10030    2    1    2    0    0  0.00000000000E+00  0.00000000000E+00 -0.37109576633E+03  0.88178966719E+03  0.79990058718E+03 0.  0.
        4    1    3    3  502    0 -0.27749327379E+03 -0.26292527137E+03 -0.55924398756E+02  0.38634358620E+03  0.12699999809E+01 0. -1.
       -4    1    3    3    0  502  0.27749327379E+03  0.26292527137E+03 -0.31517136758E+03  0.49544608099E+03  0.12699999809E+01 0.  1.
</event>
<event>
 5   0  0.6801147E-04  0.8014746E+03  0.7818609E-02  0.9557885E-01
       -2   -1    0    0    0  501  0.00000000000E+00  0.00000000000E+00  0.22591446999E+03  0.22591447001E+03  0.25500000920E-02 0.  1.
        2   -1    0    0  501    0  0.00000000000E+00  0.00000000000E+00 -0.71084602221E+03  0.71084602222E+03  0.25500000920E-02 0. -1.
    10030    2    1    2    0    0  0.00000000000E+00  0.00000000000E+00 -0.48493155222E+03  0.93676049223E+03  0.80147464680E+03 0.  0.
        4    1    3    3  502    0  0.15619842361E+03  0.32725491389E+03 -0.43100999573E+02  0.36517534865E+03  0.12699999809E+01 0.  1.
       -4    1    3    3    0  502 -0.15619842361E+03 -0.32725491389E+03 -0.44183055265E+03  0.57158514357E+03  0.12699999809E+01 0. -1.
</event>
<event>
 5   0  0.6672462E-04  0.7997516E+03  0.7818609E-02  0.9560377E-01
        2   -1    0    0  501    0  0.00000000000E+00  0.00000000000E+00  0.50349477346E+03  0.50349477346E+03  0.25500000920E-02 0.  1.
       -2   -1    0    0    0  501  0.00000000000E+00  0.00000000000E+00 -0.31758154606E+03  0.31758154607E+03  0.25500000920E-02 0. -1.
    10030    2    1    2    0    0  0.00000000000E+00  0.00000000000E+00  0.18591322740E+03  0.82107631953E+03  0.79975158291E+03 0.  0.
        5    1    3    3  502    0 -0.16184900677E+02 -0.17154053095E+03  0.46339671052E+03  0.49441551966E+03  0.46999998093E+01 0.  1.
       -5    1    3    3    0  502  0.16184900677E+02  0.17154053095E+03 -0.27748348312E+03  0.32666079986E+03  0.46999998093E+01 0. -1.
</event>
<event>
 5   0  0.4104786E-04  0.8001414E+03  0.7818609E-02  0.9559812E-01
       -1   -1    0    0    0  501  0.00000000000E+00  0.00000000000E+00  0.10486585655E+03  0.10486585667E+03  0.50400001928E-02 0. -1.
        1   -1    0    0  501    0  0.00000000000E+00  0.00000000000E+00 -0.15262982742E+04  0.15262982742E+04  0.50400001928E-02 0.  1.
    10030    2    1    2    0    0  0.00000000000E+00  0.00000000000E+00 -0.14214324177E+04  0.16311641309E+04  0.80014142744E+03 0.  0.
        2    1    3    3  502    0  0.18571294919E+03 -0.35391500766E+03 -0.74669286289E+03  0.84693291567E+03  0.25500000920E-02 0. -1.
       -2    1    3    3    0  502 -0.18571294919E+03  0.35391500766E+03 -0.67473955479E+03  0.78423121523E+03  0.25500000920E-02 0.  1.
</event>
<event>
 5   0  0.6672462E-04  0.8010142E+03  0.7818609E-02  0.9558550E-01
       -2   -1    0    0    0  501  0.00000000000E+00  0.00000000000E+00  0.70985466692E+02  0.70985466738E+02  0.25500000920E-02 0.  1.
        2   -1    0    0  501    0  0.00000000000E+00  0.00000000000E+00 -0.22597011866E+04  0.22597011866E+04  0.25500000920E-02 0. -1.
    10030    2    1    2    0    0  0.00000000000E+00  0.00000000000E+00 -0.21887157199E+04  0.23306866534E+04  0.80101421553E+03 0.  0.
        5    1    3    3  502    0  0.74055722048E+02  0.38670650388E+03 -0.88138111588E+03  0.96533980107E+03  0.46999998093E+01 0.  1.
       -5    1    3    3    0  502 -0.74055722048E+02 -0.38670650388E+03 -0.13073346040E+04  0.13653468523E+04  0.46999998093E+01 0. -1.
</event>
<event>
 5   0  0.6970013E-04  0.7997548E+03  0.7818609E-02  0.9560372E-01
        2   -1    0    0  501    0  0.00000000000E+00  0.00000000000E+00  0.58249547472E+03  0.58249547472E+03  0.25500000920E-02 0.  1.
       -2   -1    0    0    0  501  0.00000000000E+00  0.00000000000E+00 -0.27451188761E+03  0.27451188762E+03  0.25500000920E-02 0. -1.
    10030    2    1    2    0    0  0.00000000000E+00  0.00000000000E+00  0.30798358710E+03  0.85700736235E+03  0.79975479316E+03 0.  0.
        3    1    3    3  502    0 -0.13027535999E+03  0.19559331623E+03  0.50068560498E+03  0.55309538057E+03  0.10100000352E+00 0.  1.
       -3    1    3    3    0  502  0.13027535999E+03 -0.19559331623E+03 -0.19270201787E+03  0.30391198178E+03  0.10100000352E+00 0. -1.
</event>
<event>
 5   0  0.6672462E-04  0.8001233E+03  0.7818609E-02  0.9559839E-01
       -2   -1    0    0    0  501  0.00000000000E+00  0.00000000000E+00  0.14691908094E+03  0.14691908096E+03  0.25500000920E-02 0.  1.
        2   -1    0    0  501    0  0.00000000000E+00  0.00000000000E+00 -0.10893704659E+04  0.10893704659E+04  0.25500000920E-02 0. -1.
    10030    2    1    2    0    0  0.00000000000E+00  0.00000000000E+00 -0.94245138495E+03  0.12362895468E+04  0.80012325966E+03 0.  0.
        5    1    3    3  502    0  0.15111811903E+03 -0.25796041317E+03 -0.88191181858E+03  0.93122006336E+03  0.46999998093E+01 0. -1.
       -5    1    3    3    0  502 -0.15111811903E+03  0.25796041317E+03 -0.60539566378E+02  0.30506948349E+03  0.46999998093E+01 0.  1.
</event>
<event>
 5   0  0.4169155E-04  0.8000892E+03  0.7818609E-02  0.9559888E-01
       -1   -1    0    0    0  501  0.00000000000E+00  0.00000000000E+00  0.20952070720E+03  0.20952070726E+03  0.50400001928E-02 0. -1.
        1   -1    0    0  501    0  0.00000000000E+00  0.00000000000E+00 -0.76381794183E+03  0.76381794185E+03  0.50400001928E-02 0.  1.
    10030    2    1    2    0    0  0.00000000000E+00  0.00000000000E+00 -0.55429723463E+03  0.97333864911E+03  0.80008918349E+03 0.  0.
        4    1    3    3  502    0 -0.34337424691E+03  0.10648651550E+03 -0.49061133222E+03  0.60823214617E+03  0.12699999809E+01 0.  1.
       -4    1    3    3    0  502  0.34337424691E+03 -0.10648651550E+03 -0.63685902411E+02  0.36510650295E+03  0.12699999809E+01 0. -1.
</event>
<event>
 5   0  0.4392552E-04  0.8006614E+03  0.7818609E-02  0.9559060E-01
        1   -1    0    0  501    0  0.00000000000E+00  0.00000000000E+00  0.11262571885E+04  0.11262571885E+04  0.50400001928E-02 0.  1.
       -1   -1    0    0    0  501  0.00000000000E+00  0.00000000000E+00 -0.14229846413E+03  0.14229846422E+03  0.50400001928E-02 0. -1.
    10030    2    1    2    0    0  0.00000000000E+00  0.00000000000E+00  0.98395872435E+03  0.12685556527E+04  0.80066139709E+03 0.  0.
        5    1    3    3  502    0  0.36682752392E+03 -0.16012461101E+03  0.50203176104E+03  0.64207499753E+03  0.46999998093E+01 0. -1.
       -5    1    3    3    0  502 -0.36682752392E+03  0.16012461101E+03  0.48192696331E+03  0.62648065519E+03  0.46999998093E+01 0.  1.
</event>
<event>
 5   0  0.4392552E-04  0.8009777E+03  0.7818609E-02  0.9558603E-01
        1   -1    0    0  501    0  0.00000000000E+00  0.00000000000E+00  0.13485482931E+04  0.13485482931E+04  0.50400001928E-02 0. -1.
       -1   -1    0    0    0  501  0.00000000000E+00  0.00000000000E+00 -0.11893628687E+03  0.11893628698E+03  0.50400001928E-02 0.  1.
    10030    2    1    2    0    0  0.00000000000E+00  0.00000000000E+00  0.12296120062E+04  0.14674845800E+04  0.80097771937E+03 0.  0.
        5    1    3    3  502    0 -0.21650373301E+03  0.32471575261E+03  0.77923834421E+03  0.87152089676E+03  0.46999998093E+01 0. -1.
       -5    1    3    3    0  502  0.21650373301E+03 -0.32471575261E+03  0.45037366197E+03  0.59596368329E+03  0.46999998093E+01 0.  1.
</event>
<event>
 5   0  0.2736375E-04  0.8002355E+03  0.7818609E-02  0.9559676E-01
       -3   -1    0    0    0  501  0.00000000000E+00  0.00000000000E+00  0.62762415276E+03  0.62762416089E+03  0.10100000352E+00 0. -1.
        3   -1    0    0  501    0  0.00000000000E+00  0.00000000000E+00 -0.25507974804E+03  0.25507976803E+03  0.10100000352E+00 0.  1.
    10030    2    1    2    0    0  0.00000000000E+00  0.00000000000E+00  0.37254440473E+03  0.88270392892E+03  0.80023552323E+03 0.  0.
        1    1    3    3  502    0 -0.20197774195E+02 -0.39960641726E+03  0.18517781773E+03  0.44089008041E+03  0.50400001928E-02 0.  1.
       -1    1    3    3    0  502  0.20197774195E+02  0.39960641726E+03  0.18736658699E+03  0.44181384852E+03  0.50400001928E-02 0. -1.
</event>
<event>
 5   0  0.6593118E-04  0.8011473E+03  0.7818609E-02  0.9558358E-01
       -2   -1    0    0    0  501  0.00000000000E+00  0.00000000000E+00  0.96893597915E+02  0.96893597949E+02  0.25500000920E-02 0.  1.
        2   -1    0    0  501    0  0.00000000000E+00  0.00000000000E+00 -0.16560355127E+04  0.16560355127E+04  0.25500000920E-02 0. -1.
    10030    2    1    2    0    0  0.00000000000E+00  0.00000000000E+00 -0.15591419148E+04  0.17529291107E+04  0.80114727519E+03 0.  0.
        1    1    3    3  502    0 -0.30369286880E+03 -0.12092550884E+03 -0.27297426763E+03  0.42587238472E+03  0.50400001928E-02 0. -1.
       -1    1    3    3    0  502  0.30369286880E+03  0.12092550884E+03 -0.12861676472E+04  0.13270567260E+04  0.50400001928E-02 0.  1.
</event>
<event>
 5   0  0.6593118E-04  0.8002445E+03  0.7818609E-02  0.9559663E-01
       -2   -1    0    0    0  501  0.00000000000E+00  0.00000000000E+00  0.41668211245E+03  0.41668211246E+03  0.25500000920E-02 0. -1.
        2   -1    0    0  501    0  0.00000000000E+00  0.00000000000E+00 -0.38422046624E+03  0.38422046625E+03  0.25500000920E-02 0.  1.
    10030    2    1    2    0    0  0.00000000000E+00  0.00000000000E+00  0.32461646214E+02  0.80090257871E+03  0.80024445147E+03 0.  0.
        1    1    3    3  502    0  0.37431834463E+03 -0.96196915883E+02  0.11990040121E+03  0.40465315517E+03  0.50400001928E-02 0. -1.
       -1    1    3    3    0  502 -0.37431834463E+03  0.96196915883E+02 -0.87438754998E+02  0.39624942354E+03  0.50400001928E-02 0.  1.
</event>
<event>
 5   0  0.4169155E-04  0.8000622E+03  0.7818609E-02  0.9559927E-01
        1   -1    0    0  501    0  0.00000000000E+00  0.00000000000E+00  0.36019722999E+03  0.36019723002E+03  0.50400001928E-02 0.  1.
       -1   -1    0    0    0  501  0.00000000000E+00  0.00000000000E+00 -0.44427019469E+03  0.44427019472E+03  0.50400001928E-02 0. -1.
    10030    2    1    2    0    0  0.00000000000E+00  0.00000000000E+00 -0.84072964700E+02  0.80446742474E+03  0.80006223137E+03 0.  0.
        4    1    3    3  502    0  0.33498360690E+02  0.39054125498E+03  0.38269835559E+02  0.39384109133E+03  0.12699999809E+01 0.  1.
       -4    1    3    3    0  502 -0.33498360690E+02 -0.39054125498E+03 -0.12234280026E+03  0.41062633340E+03  0.12699999809E+01 0. -1.
</event>
<event>
 5   0  0.7133039E-04  0.7998004E+03  0.7818609E-02  0.9560306E-01
       -2   -1    0    0    0  501  0.00000000000E+00  0.00000000000E+00  0.44058491867E+03  0.44058491868E+03  0.25500000920E-02 0. -1.
        2   -1    0    0  501    0  0.00000000000E+00  0.00000000000E+00 -0.36297236798E+03  0.36297236799E+03  0.25500000920E-02 0.  1.
    10030    2    1    2    0    0  0.00000000000E+00  0.00000000000E+00  0.77612550686E+02  0.80355728667E+03  0.79980035317E+03 0.  0.
        2    1    3    3  502    0  0.72950126771E+01 -0.10954465179E+03  0.42514722314E+03  0.43909385022E+03  0.25500000920E-02 0. -1.
       -2    1    3    3    0  502 -0.72950126771E+01  0.10954465179E+03 -0.34753467246E+03  0.36446343645E+03  0.25500000920E-02 0.  1.
</event>
<event>
 5   0  0.4392552E-04  0.8000807E+03  0.7818609E-02  0.9559900E-01
       -1   -1    0    0    0  501  0.00000000000E+00  0.00000000000E+00  0.16435712302E+03  0.16435712310E+03  0.50400001928E-02 0.  1.
        1   -1    0    0  501    0  0.00000000000E+00  0.00000000000E+00 -0.97368628274E+03  0.97368628276E+03  0.50400001928E-02 0. -1.
    10030    2    1    2    0    0  0.00000000000E+00  0.00000000000E+00 -0.80932915972E+03  0.11380434059E+04  0.80008068645E+03 0.  0.
        5    1    3    3  502    0  0.27258415104E+03 -0.17574454742E+03 -0.71620158053E+02  0.33217435540E+03  0.46999998093E+01 0.  1.
       -5    1    3    3    0  502 -0.27258415104E+03  0.17574454742E+03 -0.73770900167E+03  0.80586905046E+03  0.46999998093E+01 0. -1.
</event>
<event>
 5   0  0.6672462E-04  0.8001713E+03  0.7818609E-02  0.9559769E-01
        2   -1    0    0  501    0  0.00000000000E+00  0.00000000000E+00  0.15504958867E+04  0.15504958867E+04  0.25500000920E-02 0. -1.
       -2   -1    0    0    0  501  0.00000000000E+00  0.00000000000E+00 -0.10323700119E+03  0.10323700122E+03  0.25500000920E-02 0.  1.
    10030    2    1    2    0    0  0.00000000000E+00  0.00000000000E+00  0.14472588856E+04  0.16537328880E+04  0.80017134598E+03 0.  0.
        5    1    3    3  502    0 -0.13372627605E+03  0.12181611406E+03  0.14610894657E+04  0.14722521521E+04  0.46999998093E+01 0. -1.
       -5    1    3    3    0  502  0.13372627605E+03 -0.12181611406E+03 -0.13830580135E+02  0.18148073589E+03  0.46999998093E+01 0.  1.
</event>
<event>
 5   0  0.6672462E-04  0.8001950E+03  0.7818609E-02  0.9559735E-01
        2   -1    0    0  501    0  0.00000000000E+00  0.00000000000E+00  0.15383217328E+04  0.15383217328E+04  0.25500000920E-02 0.  1.
       -2   -1    0    0    0  501  0.00000000000E+00  0.00000000000E+00 -0.10406016977E+03  0.10406016981E+03  0.25500000920E-02 0. -1.
    10030    2    1    2    0    0  0.00000000000E+00  0.00000000000E+00  0.14342615631E+04  0.16423819026E+04  0.80019502801E+03 0.  0.
        5    1    3    3  502    0 -0.34672598876E+03  0.12660829825E+03  0.40044110538E+03  0.54463174838E+03  0.46999998093E+01 0. -1.
       -5    1    3    3    0  502  0.34672598876E+03 -0.12660829825E+03  0.10338204577E+04  0.10977501543E+04  0.46999998093E+01 0.  1.
</event>
<event>
 5   0  0.4087283E-04  0.8005278E+03  0.7818609E-02  0.9559253E-01
       -1   -1    0    0    0  501  0.00000000000E+00  0.00000000000E+00  0.14187240572E+03  0.14187240581E+03  0.50400001928E-02 0.  1.
        1   -1    0    0  501    0  0.00000000000E+00  0.00000000000E+00 -0.11292625252E+04  0.11292625252E+04  0.50400001928E-02 0. -1.
    10030    2    1    2    0    0  0.00000000000E+00  0.00000000000E+00 -0.98739011950E+03  0.12711349310E+04  0.80052780391E+03 0.  0.
        1    1    3    3  502    0 -0.23129862783E+03 -0.27367994792E+03 -0.21048623955E+03  0.41557697986E+03  0.50400001928E-02 0.  1.
       -1    1    3    3    0  502  0.23129862783E+03  0.27367994792E+03 -0.77690387994E+03  0.85555795118E+03  0.50400001928E-02 0. -1.
</event>
<event>
 5   0  0.4169155E-04  0.8005366E+03  0.7818609E-02  0.9559241E-01
       -1   -1    0    0    0  501  0.00000000000E+00  0.00000000000E+00  0.69267812894E+02  0.69267813078E+02  0.50400001928E-02 0. -1.
        1   -1    0    0  501    0  0.00000000000E+00  0.00000000000E+00 -0.23129747278E+04  0.23129747279E+04  0.50400001928E-02 0.  1.
    10030    2    1    2    0    0  0.00000000000E+00  0.00000000000E+00 -0.22437069150E+04  0.23822425409E+04  0.80053657231E+03 0.  0.
        4    1    3    3  502    0  0.33524621647E+03 -0.19141549204E+03 -0.80716030296E+03  0.89472860904E+03  0.12699999809E+01 0. -1.
       -4    1    3    3    0  502 -0.33524621647E+03  0.19141549204E+03 -0.14365466120E+04  0.14875139319E+04  0.12699999809E+01 0.  1.
</event>
<event>
 5   0  0.6970013E-04  0.8004209E+03  0.7818609E-02  0.9559408E-01
        2   -1    0    0  501    0  0.00000000000E+00  0.00000000000E+00  0.15491632951E+04  0.15491632951E+04  0.25500000920E-02 0.  1.
       -2   -1    0    0    0  501  0.00000000000E+00  0.00000000000E+00 -0.10339026890E+03  0.10339026893E+03  0.25500000920E-02 0. -1.
    10030    2    1    2    0    0  0.00000000000E+00  0.00000000000E+00  0.14457730262E+04  0.16525535640E+04  0.80042091345E+03 0.  0.
        3    1    3    3  502    0  0.49653646250E+02  0.42158198940E+02  0.15381459438E+04  0.15395245217E+04  0.10100000352E+00 0.  1.
       -3    1    3    3    0  502 -0.49653646250E+02 -0.42158198940E+02 -0.92372917540E+02  0.11302904237E+03  0.10100000352E+00 0. -1.
</event>
<event>
 5   0  0.6593118E-04  0.7998203E+03  0.7818609E-02  0.9560277E-01
       -2   -1    0    0    0  501  0.00000000000E+00  0.00000000000E+00  0.13603449432E+03  0.13603449435E+03  0.25500000920E-02 0. -1.
        2   -1    0    0  501    0  0.00000000000E+00  0.00000000000E+00 -0.11756439197E+04  0.11756439197E+04  0.25500000920E-02 0.  1.
    10030    2    1    2    0    0  0.00000000000E+00  0.00000000000E+00 -0.10396094254E+04  0.13116784141E+04  0.79982029517E+03 0.  0.
        1    1    3    3  502    0 -0.50816535236E+02  0.16200030205E+03 -0.11136032540E+04  0.11264717597E+04  0.50400001928E-02 0.  1.
       -1    1    3    3    0  502  0.50816535236E+02 -0.16200030205E+03  0.73993828603E+02  0.18520665435E+03  0.50400001928E-02 0. -1.
</event>
<event>
 5   0  0.6672462E-04  0.8008433E+03  0.7818609E-02  0.9558797E-01
       -2   -1    0    0    0  501  0.00000000000E+00  0.00000000000E+00  0.40293246477E+03  0.40293246478E+03  0.25500000920E-02 0. -1.
        2   -1    0    0  501    0  0.00000000000E+00  0.00000000000E+00 -0.39792647261E+03  0.39792647262E+03  0.25500000920E-02 0.  1.
    10030    2    1    2    0    0  0.00000000000E+00  0.00000000000E+00  0.50059921543E+01  0.80085893740E+03  0.80084329157E+03 0.  0.
        5    1    3    3  502    0  0.29650664701E+03 -0.86821363821E+02  0.25718671729E+03  0.40202144033E+03  0.46999998093E+01 0. -1.
       -5    1    3    3    0  502 -0.29650664701E+03  0.86821363821E+02 -0.25218072513E+03  0.39883749707E+03  0.46999998093E+01 0.  1.
</event>
<event>
 5   0  0.6672462E-04  0.8003184E+03  0.7818609E-02  0.9559556E-01
        2   -1    0    0  501    0  0.00000000000E+00  0.00000000000E+00  0.10036303127E+04  0.10036303127E+04  0.25500000920E-02 0. -1.
       -2   -1    0    0    0  501  0.00000000000E+00  0.00000000000E+00 -0.15954818933E+03  0.15954818935E+03  0.25500000920E-02 0.  1.
    10030    2    1    2    0    0  0.00000000000E+00  0.00000000000E+00  0.84408212335E+03  0.11631785020E+04  0.80031843451E+03 0.  0.
        5    1    3    3  502    0  0.32987956228E+03  0.19566955688E+03  0.25634000099E+03  0.46134519311E+03  0.46999998093E+01 0.  1.
       -5    1    3    3    0  502 -0.32987956228E+03 -0.19566955688E+03  0.58774212236E+03  0.70183330891E+03  0.46999998093E+01 0. -1.
</event>
<event>
 5   0  0.6970013E-04  0.8000364E+03  0.7818609E-02  0.9559964E-01
       -2   -1    0    0    0  501  0.00000000000E+00  0.00000000000E+00  0.43307738390E+03  0.43307738390E+03  0.25500000920E-02 0.  1.
        2   -1    0    0  501    0  0.00000000000E+00  0.00000000000E+00 -0.36948262063E+03  0.36948262064E+03  0.25500000920E-02 0. -1.
    10030    2    1    2    0    0  0.00000000000E+00  0.00000000000E+00  0.63594763269E+02  0.80256000454E+03  0.80003641603E+03 0.  0.
        3    1    3    3  502    0 -0.18154807922E+03  0.94803759622E+02 -0.31289541118E+03  0.37396658466E+03  0.10100000352E+00 0. -1.
       -3    1    3    3    0  502  0.18154807922E+03 -0.94803759622E+02  0.37649017445E+03  0.42859341988E+03  0.10100000352E+00 0.  1.
</event>
<event>
 5   0  0.6801147E-04  0.7996626E+03  0.7818609E-02  0.9560506E-01
       -2   -1    0    0    0  501  0.00000000000E+00  0.00000000000E+00  0.30319990192E+03  0.30319990193E+03  0.25500000920E-02 0. -1.
        2   -1    0    0  501    0  0.00000000000E+00  0.00000000000E+00 -0.52725968978E+03  0.52725968978E+03  0.25500000920E-02 0.  1.
    10030    2    1    2    0    0  0.00000000000E+00  0.00000000000E+00 -0.22405978786E+03  0.83045959171E+03  0.79966264445E+03 0.  0.
        4    1    3    3  502    0 -0.56094097106E+02  0.33660458074E+03  0.10435553233E+03  0.35684854144E+03  0.12699999809E+01 0. -1.
       -4    1    3    3    0  502  0.56094097106E+02 -0.33660458074E+03 -0.32841532019E+03  0.47361105027E+03  0.12699999809E+01 0.  1.
</event>
<event>
 5   0  0.4392552E-04  0.7988889E+03  0.7818609E-02  0.9561627E-01
        1   -1    0    0  501    0  0.00000000000E+00  0.00000000000E+00  0.39046120686E+03  0.39046120689E+03  0.50400001928E-02 0. -1.
       -1   -1    0    0    0  501  0.00000000000E+00  0.00000000000E+00 -0.40863439522E+03  0.40863439525E+03  0.50400001928E-02 0.  1.
    10030    2    1    2    0    0  0.00000000000E+00  0.00000000000E+00 -0.18173188355E+02  0.79909560214E+03  0.79888892631E+03 0.  0.
        5    1    3    3  502    0  0.38691399211E+03  0.74484811480E+02 -0.74550945173E+02  0.40103660414E+03  0.46999998093E+01 0. -1.
       -5    1    3    3    0  502 -0.38691399211E+03 -0.74484811480E+02  0.56377756819E+02  0.39805899801E+03  0.46999998093E+01 0.  1.
</event>
<event>
 5   0  0.6970013E-04  0.7998921E+03  0.7818609E-02  0.9560173E-01
        2   -1    0    0  501    0  0.00000000000E+00  0.00000000000E+00  0.53342649462E+03  0.53342649463E+03  0.25500000920E-02 0.  1.
       -2   -1    0    0    0  501  0.00000000000E+00  0.00000000000E+00 -0.29986673770E+03  0.29986673771E+03  0.25500000920E-02 0. -1.
    10030    2    1    2    0    0  0.00000000000E+00  0.00000000000E+00  0.23355975692E+03  0.83329323234E+03  0.79989214961E+03 0.  0.
        3    1    3    3  502    0  0.18995634029E+03  0.21701257243E+03 -0.17188078317E+03  0.33573930606E+03  0.10100000352E+00 0. -1.
       -3    1    3    3    0  502 -0.18995634029E+03 -0.21701257243E+03  0.40544054009E+03  0.49755392628E+03  0.10100000352E+00 0.  1.
</event>
<event>
 5   0  0.6801147E-04  0.7996867E+03  0.7818609E-02  0.9560471E-01
       -2   -1    0    0    0  501  0.00000000000E+00  0.00000000000E+00  0.74294679660E+02  0.74294679704E+02  0.25500000920E-02 0.  1.
        2   -1    0    0  501    0  0.00000000000E+00  0.00000000000E+00 -0.21518995158E+04  0.21518995158E+04  0.25500000920E-02 0. -1.
    10030    2    1    2    0    0  0.00000000000E+00  0.00000000000E+00 -0.20776048361E+04  0.22261941955E+04  0.79968665172E+03 0.  0.
        4    1    3    3  502    0  0.21217946107E+03  0.31004417182E+03 -0.65785888253E+03  0.75757998548E+03  0.12699999809E+01 0.  1.
       -4    1    3    3    0  502 -0.21217946107E+03 -0.31004417182E+03 -0.14197459536E+04  0.14686142100E+04  0.12699999809E+01 0. -1.
</event>
<event>
 5   0  0.6593118E-04  0.8014446E+03  0.7818609E-02  0.9557928E-01
       -2   -1    0    0    0  501  0.00000000000E+00  0.00000000000E+00  0.24882966706E+03  0.24882966707E+03  0.25500000920E-02 0.  1.
        2   -1    0    0  501    0  0.00000000000E+00  0.00000000000E+00 -0.64533454661E+03  0.64533454662E+03  0.25500000920E-02 0. -1.
    10030    2    1    2    0    0  0.00000000000E+00  0.00000000000E+00 -0.39650487955E+03  0.89416421369E+03  0.80144464658E+03 0.  0.
        1    1    3    3  502    0 -0.32499103505E+03  0.84692010023E+01  0.63132402172E+02  0.33117457701E+03  0.50400001928E-02 0.  1.
       -1    1    3    3    0  502  0.32499103505E+03 -0.84692010023E+01 -0.45963728173E+03  0.56298963668E+03  0.50400001928E-02 0. -1.
</event>
<event>
 5   0  0.4169155E-04  0.7997304E+03  0.7818609E-02  0.9560407E-01
        1   -1    0    0  501    0  0.00000000000E+00  0.00000000000E+00  0.53441263732E+03  0.53441263735E+03  0.50400001928E-02 0. -1.
       -1   -1    0    0    0  501  0.00000000000E+00  0.00000000000E+00 -0.29919233737E+03  0.29919233741E+03  0.50400001928E-02 0.  1.
    10030    2    1    2    0    0  0.00000000000E+00  0.00000000000E+00  0.23522029996E+03  0.83360497476E+03  0.79973036983E+03 0.  0.
        4    1    3    3  502    0  0.28251024656E+03 -0.15222410025E+03 -0.13104475188E+03  0.34663894184E+03  0.12699999809E+01 0.  1.
       -4    1    3    3    0  502 -0.28251024656E+03  0.15222410025E+03  0.36626505184E+03  0.48696603291E+03  0.12699999809E+01 0. -1.
</event>
<event>
 5   0  0.6970013E-04  0.7958361E+03  0.7818609E-02  0.9566064E-01
        2   -1    0    0  501    0  0.00000000000E+00  0.00000000000E+00  0.13800313785E+04  0.13800313785E+04  0.25500000920E-02 0. -1.
       -2   -1    0    0    0  501  0.00000000000E+00  0.00000000000E+00 -0.11473561944E+03  0.11473561947E+03  0.25500000920E-02 0.  1.
    10030    2    1    2    0    0  0.00000000000E+00  0.00000000000E+00  0.12652957590E+04  0.14947669980E+04  0.79583605117E+03 0.  0.
        3    1    3    3  502    0  0.23396865929E+03  0.16133849836E+03  0.10954244706E+03  0.30458332603E+03  0.10100000352E+00 0.  1.
       -3    1    3    3    0  502 -0.23396865929E+03 -0.16133849836E+03  0.11557533120E+04  0.11901836719E+04  0.10100000352E+00 0. -1.
</event>
<event>
 5   0  0.6672462E-04  0.8004655E+03  0.7818609E-02  0.9559344E-01
       -2   -1    0    0    0  501  0.00000000000E+00  0.00000000000E+00  0.11365964740E+04  0.11365964740E+04  0.25500000920E-02 0.  1.
        2   -1    0    0  501    0  0.00000000000E+00  0.00000000000E+00 -0.14093502251E+03  0.14093502254E+03  0.25500000920E-02 0. -1.
    10030    2    1    2    0    0  0.00000000000E+00  0.00000000000E+00  0.99566145150E+03  0.12775314966E+04  0.80046548876E+03 0.  0.
        5    1    3    3  502    0 -0.21829613700E+03 -0.87750290981E+02  0.10145231691E+04  0.10414569927E+04  0.46999998093E+01 0.  1.
       -5    1    3    3    0  502  0.21829613700E+03  0.87750290981E+02 -0.18861717572E+02  0.23607450389E+03  0.46999998093E+01 0. -1.
</event>
<event>
 5   0  0.4087283E-04  0.7992234E+03  0.7818609E-02  0.9561142E-01
       -1   -1    0    0    0  501  0.00000000000E+00  0.00000000000E+00  0.11117549913E+03  0.11117549924E+03  0.50400001928E-02 0. -1.
        1   -1    0    0  501    0  0.00000000000E+00  0.00000000000E+00 -0.14363733382E+04  0.14363733382E+04  0.50400001928E-02 0.  1.
    10030    2    1    2    0    0  0.00000000000E+00  0.00000000000E+00 -0.13251978391E+04  0.15475488375E+04  0.79922343035E+03 0.  0.
        1    1    3    3  502    0 -0.62153091120E+02  0.16073380770E+03  0.35525877677E+02  0.17595582310E+03  0.50400001928E-02 0. -1.
       -1    1    3    3    0  502  0.62153091120E+02 -0.16073380770E+03 -0.13607237168E+04  0.13715930144E+04  0.50400001928E-02 0.  1.
</event>
<event>
 5   0  0.2736375E-04  0.8006300E+03  0.7818609E-02  0.9559106E-01
       -3   -1    0    0    0  501  0.00000000000E+00  0.00000000000E+00  0.45921562854E+03  0.45921563965E+03  0.10100000352E+00 0.  1.
        3   -1    0    0  501    0  0.00000000000E+00  0.00000000000E+00 -0.34896912078E+03  0.34896913540E+03  0.10100000352E+00 0. -1.
    10030    2    1    2    0    0  0.00000000000E+00  0.00000000000E+00  0.11024650776E+03  0.80818477505E+03  0.80062996331E+03 0.  0.
        4    1    3    3  502    0  0.20732247082E+03  0.19303730695E+03  0.34064285763E+03  0.44304083122E+03  0.12699999809E+01 0.  1.
       -4    1    3    3    0  502 -0.20732247082E+03 -0.19303730695E+03 -0.23039634987E+03  0.36514394382E+03  0.12699999809E+01 0. -1.
</event>
<event>
 5   0  0.4169155E-04  0.8017029E+03  0.7818609E-02  0.9557556E-01
        1   -1    0    0  501    0  0.00000000000E+00  0.00000000000E+00  0.60340790067E+03  0.60340790069E+03  0.50400001928E-02 0.  1.
       -1   -1    0    0    0  501  0.00000000000E+00  0.00000000000E+00 -0.26629064580E+03  0.26629064585E+03  0.50400001928E-02 0. -1.
    10030    2    1    2    0    0  0.00000000000E+00  0.00000000000E+00  0.33711725487E+03  0.86969854654E+03  0.80170288656E+03 0.  0.
        4    1    3    3  502    0 -0.11365626240E+03 -0.27646574663E+03 -0.12116839891E+03  0.32254371616E+03  0.12699999809E+01 0. -1.
       -4    1    3    3    0  502  0.11365626240E+03  0.27646574663E+03  0.45828565378E+03  0.54715483038E+03  0.12699999809E+01 0.  1.
</event>
<event>
 5   0  0.6801147E-04  0.7999555E+03  0.7818609E-02  0.9560081E-01
        2   -1    0    0  501    0  0.00000000000E+00  0.00000000000E+00  0.16733518651E+04  0.16733518651E+04  0.25500000920E-02 0. -1.
       -2   -1    0    0    0  501  0.00000000000E+00  0.00000000000E+00 -0.95605837628E+02  0.95605837662E+02  0.25500000920E-02 0.  1.
    10030    2    1    2    0    0  0.00000000000E+00  0.00000000000E+00  0.15777460274E+04  0.17689577027E+04  0.79995551561E+03 0.  0.
        4    1    3    3  502    0  0.38977035544E+03  0.69837268222E+02  0.66412594567E+03  0.77321604912E+03  0.12699999809E+01 0.  1.
       -4    1    3    3    0  502 -0.38977035544E+03 -0.69837268222E+02  0.91362008176E+03  0.99574165360E+03  0.12699999809E+01 0. -1.
</event>
<event>
 5   0  0.4086111E-04  0.7996328E+03  0.7818609E-02  0.9560549E-01
        1   -1    0    0  501    0  0.00000000000E+00  0.00000000000E+00  0.72544317758E+03  0.72544317759E+03  0.50400001928E-02 0. -1.
       -1   -1    0    0    0  501  0.00000000000E+00  0.00000000000E+00 -0.22035239895E+03  0.22035239901E+03  0.50400001928E-02 0.  1.
    10030    2    1    2    0    0  0.00000000000E+00  0.00000000000E+00  0.50509077862E+03  0.94579557660E+03  0.79963277701E+03 0.  0.
        3    1    3    3  502    0 -0.33938715758E+03  0.16824549952E+03  0.40384485908E+03  0.55369745462E+03  0.10100000352E+00 0. -1.
       -3    1    3    3    0  502  0.33938715758E+03 -0.16824549952E+03  0.10124591954E+03  0.39209812199E+03  0.10100000352E+00 0.  1.
</event>
<event>
 5   0  0.6672462E-04  0.7999183E+03  0.7818609E-02  0.9560135E-01
        2   -1    0    0  501    0  0.00000000000E+00  0.00000000000E+00  0.84144715814E+03  0.84144715814E+03  0.25500000920E-02 0. -1.
       -2   -1    0    0    0  501  0.00000000000E+00  0.00000000000E+00 -0.19010976976E+03  0.19010976978E+03  0.25500000920E-02 0.  1.
    10030    2    1    2    0    0  0.00000000000E+00  0.00000000000E+00  0.65133738838E+03  0.10315569279E+04  0.79991830960E+03 0.  0.
        5    1    3    3  502    0  0.33139789959E+03 -0.10214453558E+03  0.58257370899E+03  0.67799136455E+03  0.46999998093E+01 0. -1.
       -5    1    3    3    0  502 -0.33139789959E+03  0.10214453558E+03  0.68763679384E+02  0.35356556337E+03  0.46999998093E+01 0.  1.
</event>
<event>
 5   0  0.7133039E-04  0.7989728E+03  0.7818609E-02  0.9561505E-01
       -2   -1    0    0    0  501  0.00000000000E+00  0.00000000000E+00  0.87047375372E+02  0.87047375410E+02  0.25500000920E-02 0. -1.
        2   -1    0    0  501    0  0.00000000000E+00  0.00000000000E+00 -0.18333626113E+04  0.18333626113E+04  0.25500000920E-02 0.  1.
    10030    2    1    2    0    0  0.00000000000E+00  0.00000000000E+00 -0.17463152360E+04  0.19204099867E+04  0.79897284925E+03 0.  0.
        2    1    3    3  502    0 -0.24491913506E+03 -0.30646761971E+03 -0.69198273871E+03  0.79545452122E+03  0.25500000920E-02 0.  1.
       -2    1    3    3    0  502  0.24491913506E+03  0.30646761971E+03 -0.10543324973E+04  0.11249554655E+04  0.25500000920E-02 0. -1.
</event>
<event>
 5   0  0.6672462E-04  0.7996830E+03  0.7818609E-02  0.9560476E-01
       -2   -1    0    0    0  501  0.00000000000E+00  0.00000000000E+00  0.12350192156E+03  0.12350192158E+03  0.25500000920E-02 0.  1.
        2   -1    0    0  501    0  0.00000000000E+00  0.00000000000E+00 -0.12944999060E+04  0.12944999060E+04  0.25500000920E-02 0. -1.
    10030    2    1    2    0    0  0.00000000000E+00  0.00000000000E+00 -0.11709979845E+04  0.14180018276E+04  0.79968300186E+03 0.  0.
        5    1    3    3  502    0  0.30745499361E+03  0.24876408951E+03 -0.68948488299E+03  0.79487334789E+03  0.46999998093E+01 0.  1.
       -5    1    3    3    0  502 -0.30745499361E+03 -0.24876408951E+03 -0.48151310147E+03  0.62312847970E+03  0.46999998093E+01 0. -1.
</event>
<event>
 5   0  0.4086111E-04  0.8003002E+03  0.7818609E-02  0.9559583E-01
       -1   -1    0    0    0  501  0.00000000000E+00  0.00000000000E+00  0.18839217212E+03  0.18839217219E+03  0.50400001928E-02 0. -1.
        1   -1    0    0  501    0  0.00000000000E+00  0.00000000000E+00 -0.84992963930E+03  0.84992963932E+03  0.50400001928E-02 0.  1.
    10030    2    1    2    0    0  0.00000000000E+00  0.00000000000E+00 -0.66153746718E+03  0.10383218115E+04  0.80030017104E+03 0.  0.
        3    1    3    3  502    0  0.15830140517E+03  0.59198303356E+02  0.13981282499E+03  0.21934313354E+03  0.10100000352E+00 0. -1.
       -3    1    3    3    0  502 -0.15830140517E+03 -0.59198303356E+02 -0.80135029217E+03  0.81897867797E+03  0.10100000352E+00 0.  1.
</event>
<event>
 5   0  0.4104786E-04  0.8004578E+03  0.7818609E-02  0.9559355E-01
       -1   -1    0    0    0  501  0.00000000000E+00  0.00000000000E+00  0.36170919751E+03  0.36170919754E+03  0.50400001928E-02 0. -1.
        1   -1    0    0  501    0  0.00000000000E+00  0.00000000000E+00 -0.44285071011E+03  0.44285071014E+03  0.50400001928E-02 0.  1.
    10030    2    1    2    0    0  0.00000000000E+00  0.00000000000E+00 -0.81141512606E+02  0.80455990768E+03  0.80045780650E+03 0.  0.
        2    1    3    3  502    0 -0.14652101809E+03 -0.30886836925E+03 -0.24976011431E+03  0.42337712854E+03  0.25500000920E-02 0.  1.
       -2    1    3    3    0  502  0.14652101809E+03  0.30886836925E+03  0.16861860170E+03  0.38118277914E+03  0.25500000920E-02 0. -1.
</event>
<event>
 5   0  0.6970013E-04  0.7998002E+03  0.7818609E-02  0.9560306E-01
       -2   -1    0    0    0  501  0.00000000000E+00  0.00000000000E+00  0.86159747525E+03  0.86159747525E+03  0.25500000920E-02 0.  1.
        2   -1    0    0  501    0  0.00000000000E+00  0.00000000000E+00 -0.18560881722E+03  0.18560881723E+03  0.25500000920E-02 0. -1.
    10030    2    1    2    0    0  0.00000000000E+00  0.00000000000E+00  0.67598865803E+03  0.10472062925E+04  0.79980019582E+03 0.  0.
        3    1    3    3  502    0  0.82613601982E+02  0.10167545027E+03  0.83270321086E+03  0.84294575863E+03  0.10100000352E+00 0.  1.
       -3    1    3    3    0  502 -0.82613601982E+02 -0.10167545027E+03 -0.15671455283E+03  0.20426053385E+03  0.10100000352E+00 0. -1.
</event>
<event>
 5   0  0.4104786E-04  0.8005104E+03  0.7818609E-02  0.9559279E-01
       -1   -1    0    0    0  501  0.00000000000E+00  0.00000000000E+00  0.31894559834E+03  0.31894559838E+03  0.50400001928E-02 0.  1.
        1   -1    0    0  501    0  0.00000000000E+00  0.00000000000E+00 -0.50229323906E+03  0.50229323908E+03  0.50400001928E-02 0. -1.
    10030    2    1    2    0    0  0.00000000000E+00  0.00000000000E+00 -0.18334764072E+03  0.82123883746E+03  0.80051038144E+03 0.  0.
        2    1    3    3  502    0  0.34918845357E+02 -0.38451090913E+03 -0.19993482413E+03  0.43478948804E+03  0.25500000920E-02 0. -1.
       -2    1    3    3    0  502 -0.34918845357E+02  0.38451090913E+03  0.16587183419E+02  0.38644934942E+03  0.25500000920E-02 0.  1.
</event>
<event>
 5   0  0.6801147E-04  0.7999220E+03  0.7818609E-02  0.9560130E-01
       -2   -1    0    0    0  501  0.00000000000E+00  0.00000000000E+00  0.20363539844E+03  0.20363539846E+03  0.25500000920E-02 0.  1.
        2   -1    0    0  501    0  0.00000000000E+00  0.00000000000E+00 -0.78556478549E+03  0.78556478549E+03  0.25500000920E-02 0. -1.
    10030    2    1    2    0    0  0.00000000000E+00  0.00000000000E+00 -0.58192938704E+03  0.98920018395E+03  0.79992199146E+03 0.  0.
        4    1    3    3  502    0  0.22452300159E+03  0.31031766530E+03 -0.43336174702E+03  0.57836981969E+03  0.12699999809E+01 0.  1.
       -4    1    3    3    0  502 -0.22452300159E+03 -0.31031766530E+03 -0.14856764002E+03  0.41083036426E+03  0.12699999809E+01 0. -1.
</event>
<event>
 5   0  0.4169155E-04  0.8001077E+03  0.7818609E-02  0.9559861E-01
        1   -1    0    0  501    0  0.00000000000E+00  0.00000000000E+00  0.27115537369E+03  0.27115537374E+03  0.50400001928E-02 0.  1.
       -1   -1    0    0    0  501  0.00000000000E+00  0.00000000000E+00 -0.59022647203E+03  0.59022647205E+03  0.50400001928E-02 0. -1.
    10030    2    1    2    0    0  0.00000000000E+00  0.00000000000E+00 -0.31907109834E+03  0.86138184579E+03  0.80010769179E+03 0.  0.
        4    1    3    3  502    0  0.61383864065E+02 -0.12058808110E+02  0.26585493322E+03  0.27311875080E+03  0.12699999809E+01 0.  1.
       -4    1    3    3    0  502 -0.61383864065E+02  0.12058808110E+02 -0.58492603157E+03  0.58826309499E+03  0.12699999809E+01 0. -1.
</event>
<event>
 5   0  0.4087283E-04  0.8000346E+03  0.7818609E-02  0.9559967E-01
        1   -1    0    0  501    0  0.00000000000E+00  0.00000000000E+00  0.89718464877E+03  0.89718464878E+03  0.50400001928E-02 0. -1.
       -1   -1    0    0    0  501  0.00000000000E+00  0.00000000000E+00 -0.17835107369E+03  0.17835107376E+03  0.50400001928E-02 0.  1.
    10030    2    1    2    0    0  0.00000000000E+00  0.00000000000E+00  0.71883357508E+03  0.10755357225E+04  0.80003461288E+03 0.  0.
        1    1    3    3  502    0 -0.17014711975E+03 -0.88274500426E+02 -0.11258892457E+03  0.22230316180E+03  0.50400001928E-02 0.  1.
       -1    1    3    3    0  502  0.17014711975E+03  0.88274500426E+02  0.83142249964E+03  0.85323256075E+03  0.50400001928E-02 0. -1.
</event>
<event>
 5   0  0.4086111E-04  0.7999172E+03  0.7818609E-02  0.9560137E-01
       -1   -1    0    0    0  501  0.00000000000E+00  0.00000000000E+00  0.51500329124E+03  0.51500329126E+03  0.50400001928E-02 0.  1.
        1   -1    0    0  501    0  0.00000000000E+00  0.00000000000E+00 -0.31061328165E+03  0.31061328169E+03  0.50400001928E-02 0. -1.
    10030    2    1    2    0    0  0.00000000000E+00  0.00000000000E+00  0.20439000959E+03  0.82561657295E+03  0.79991715165E+03 0.  0.
        3    1    3    3  502    0  0.32559517316E+03  0.20440962447E+03  0.21606324400E+03  0.44099755891E+03  0.10100000352E+00 0. -1.
       -3    1    3    3    0  502 -0.32559517316E+03 -0.20440962447E+03 -0.11673234408E+02  0.38461901404E+03  0.10100000352E+00 0.  1.
</event>
<event>
 5   0  0.4087283E-04  0.7998487E+03  0.7818609E-02  0.9560236E-01
       -1   -1    0    0    0  501  0.00000000000E+00  0.00000000000E+00  0.13982042672E+03  0.13982042681E+03  0.50400001928E-02 0. -1.
        1   -1    0    0  501    0  0.00000000000E+00  0.00000000000E+00 -0.11438922008E+04  0.11438922008E+04  0.50400001928E-02 0.  1.
    10030    2    1    2    0    0  0.00000000000E+00  0.00000000000E+00 -0.10040717741E+04  0.12837126276E+04  0.79984872497E+03 0.  0.
        1    1    3    3  502    0  0.14089492958E+03  0.17547518597E+03 -0.10326309811E+04  0.10568678561E+04  0.50400001928E-02 0.  1.
       -1    1    3    3    0  502 -0.14089492958E+03 -0.17547518597E+03  0.28559206969E+02  0.22684477159E+03  0.50400001928E-02 0. -1.
</event>
<event>
 5   0  0.7133039E-04  0.8011768E+03  0.7818609E-02  0.9558315E-01
        2   -1    0    0  501    0  0.00000000000E+00  0.00000000000E+00  0.85552344830E+03  0.85552344831E+03  0.25500000920E-02 0.  1.
       -2   -1    0    0    0  501  0.00000000000E+00  0.00000000000E+00 -0.18757063756E+03  0.18757063757E+03  0.25500000920E-02 0. -1.
    10030    2    1    2    0    0  0.00000000000E+00  0.00000000000E+00  0.66795281075E+03  0.10430940859E+04  0.80117683105E+03 0.  0.
        2    1    3    3  502    0 -0.22411479631E+02  0.87765195046E+02  0.84201496681E+03  0.84687319489E+03  0.25500000920E-02 0.  1.
       -2    1    3    3    0  502  0.22411479631E+02 -0.87765195046E+02 -0.17406215606E+03  0.19622089099E+03  0.25500000920E-02 0. -1.
</event>
<event>
 5   0  0.4169155E-04  0.8000908E+03  0.7818609E-02  0.9559886E-01
       -1   -1    0    0    0  501  0.00000000000E+00  0.00000000000E+00  0.13076957209E+03  0.13076957218E+03  0.50400001928E-02 0. -1.
        1   -1    0    0  501    0  0.00000000000E+00  0.00000000000E+00 -0.12238038802E+04  0.12238038802E+04  0.50400001928E-02 0.  1.
    10030    2    1    2    0    0  0.00000000000E+00  0.00000000000E+00 -0.10930343081E+04  0.13545734523E+04  0.80009076934E+03 0.  0.
        4    1    3    3  502    0 -0.23200347369E+03 -0.18145437906E+03 -0.88200028465E+02  0.30746082906E+03  0.12699999809E+01 0. -1.
       -4    1    3    3    0  502  0.23200347369E+03  0.18145437906E+03 -0.10048342796E+04  0.10471126233E+04  0.12699999809E+01 0.  1.
</event>
<event>
 5   0  0.6970013E-04  0.7998912E+03  0.7818609E-02  0.9560175E-01
       -2   -1    0    0    0  501  0.00000000000E+00  0.00000000000E+00  0.89685424475E+03  0.89685424476E+03  0.25500000920E-02 0.  1.
        2   -1    0    0  501    0  0.00000000000E+00  0.00000000000E+00 -0.17835283823E+03  0.17835283825E+03  0.25500000920E-02 0. -1.
    10030    2    1    2    0    0  0.00000000000E+00  0.00000000000E+00  0.71850140652E+03  0.10752070830E+04  0.79989124272E+03 0.  0.
        3    1    3    3  502    0 -0.22501983363E+03  0.66876919076E+02  0.79450741722E+03  0.82846152237E+03  0.10100000352E+00 0.  1.
       -3    1    3    3    0  502  0.22501983363E+03 -0.66876919076E+02 -0.76006010701E+02  0.24674556064E+03  0.10100000352E+00 0. -1.
</event>
<event>
 5   0  0.2736375E-04  0.8007926E+03  0.7818609E-02  0.9558871E-01
        3   -1    0    0  501    0  0.00000000000E+00  0.00000000000E+00  0.32444982018E+03  0.32444983590E+03  0.10100000352E+00 0.  1.
       -3   -1    0    0    0  501  0.00000000000E+00  0.00000000000E+00 -0.49412011733E+03  0.49412012765E+03  0.10100000352E+00 0. -1.
    10030    2    1    2    0    0  0.00000000000E+00  0.00000000000E+00 -0.16967029715E+03  0.81856996355E+03  0.80079259206E+03 0.  0.
        4    1    3    3  502    0  0.11434117554E+02 -0.39904830050E+03 -0.11626335680E+03  0.41579931001E+03  0.12699999809E+01 0. -1.
       -4    1    3    3    0  502 -0.11434117554E+02  0.39904830050E+03 -0.53406940350E+02  0.40277065354E+03  0.12699999809E+01 0.  1.
</event>
<event>
 5   0  0.6801147E-04  0.7998708E+03  0.7818609E-02  0.9560204E-01
        2   -1    0    0  501    0  0.00000000000E+00  0.00000000000E+00  0.51841840389E+03  0.51841840390E+03  0.25500000920E-02 0. -1.
       -2   -1    0    0    0  501  0.00000000000E+00  0.00000000000E+00 -0.30853136417E+03  0.30853136418E+03  0.25500000920E-02 0.  1.
    10030    2    1    2    0    0  0.00000000000E+00  0.00000000000E+00  0.20988703972E+03  0.82694976808E+03  0.79987083300E+03 0.  0.
        4    1    3    3  502    0 -0.17789354801E+02  0.37787956663E+03  0.23909499368E+03  0.44752369426E+03  0.12699999809E+01 0. -1.
       -4    1    3    3    0  502  0.17789354801E+02 -0.37787956663E+03 -0.29207953966E+02  0.37942607382E+03  0.12699999809E+01 0.  1.
</event>
<event>
 5   0  0.4087283E-04  0.8000616E+03  0.7818609E-02  0.9559928E-01
       -1   -1    0    0    0  501  0.00000000000E+00  0.00000000000E+00  0.42057610560E+03  0.42057610563E+03  0.50400001928E-02 0. -1.
        1   -1    0    0  501    0  0.00000000000E+00  0.00000000000E+00 -0.38048917659E+03  0.38048917663E+03  0.50400001928E-02 0.  1.
    10030    2    1    2    0    0  0.00000000000E+00  0.00000000000E+00  0.40086929006E+02  0.80106528226E+03  0.80006163798E+03 0.  0.
        1    1    3    3  502    0  0.20707014877E+03  0.19171639386E+03 -0.26384604905E+03  0.38632623495E+03  0.50400001928E-02 0.  1.
       -1    1    3    3    0  502 -0.20707014877E+03 -0.19171639386E+03  0.30393297806E+03  0.41473904731E+03  0.50400001928E-02 0. -1.
</event>
<event>
 5   0  0.6672462E-04  0.8000986E+03  0.7818609E-02  0.9559874E-01
       -2   -1    0    0    0  501  0.00000000000E+00  0.00000000000E+00  0.10975384498E+03  0.10975384501E+03  0.25500000920E-02 0.  1.
        2   -1    0    0  501    0  0.00000000000E+00  0.00000000000E+00 -0.14581672082E+04  0.14581672082E+04  0.25500000920E-02 0. -1.
    10030    2    1    2    0    0  0.00000000000E+00  0.00000000000E+00 -0.13484133632E+04  0.15679210532E+04  0.80009863828E+03 0.  0.
        5    1    3    3  502    0  0.73810847411E+02  0.78162989637E+01  0.96087241857E+02  0.12150713465E+03  0.46999998093E+01 0.  1.
       -5    1    3    3    0  502 -0.73810847411E+02 -0.78162989637E+01 -0.14445006051E+04  0.14464139186E+04  0.46999998093E+01 0. -1.
</event>
<event>
 5   0  0.2736375E-04  0.7997931E+03  0.7818609E-02  0.9560317E-01
       -3   -1    0    0    0  501  0.00000000000E+00  0.00000000000E+00  0.18380435542E+03  0.18380438317E+03  0.10100000352E+00 0.  1.
        3   -1    0    0  501    0  0.00000000000E+00  0.00000000000E+00 -0.87004060059E+03  0.87004060645E+03  0.10100000352E+00 0. -1.
    10030    2    1    2    0    0  0.00000000000E+00  0.00000000000E+00 -0.68623624516E+03  0.10538449896E+04  0.79979314700E+03 0.  0.
        2    1    3    3  502    0 -0.35971274769E+03  0.49974051829E+02 -0.12252890225E+03  0.38328057425E+03  0.25500000920E-02 0.  1.
       -2    1    3    3    0  502  0.35971274769E+03 -0.49974051829E+02 -0.56370734291E+03  0.67056441537E+03  0.25500000920E-02 0. -1.
</event>
<event>
 5   0  0.6593118E-04  0.8000952E+03  0.7818609E-02  0.9559879E-01
        2   -1    0    0  501    0  0.00000000000E+00  0.00000000000E+00  0.10551110197E+04  0.10551110197E+04  0.25500000920E-02 0. -1.
       -2   -1    0    0    0  501  0.00000000000E+00  0.00000000000E+00 -0.15167889834E+03  0.15167889836E+03  0.25500000920E-02 0.  1.
    10030    2    1    2    0    0  0.00000000000E+00  0.00000000000E+00  0.90343212139E+03  0.12067899181E+04  0.80009518712E+03 0.  0.
        1    1    3    3  502    0 -0.19433836630E+03 -0.31480701016E+02  0.97698771879E+03  0.99662602707E+03  0.50400001928E-02 0. -1.
       -1    1    3    3    0  502  0.19433836630E+03  0.31480701016E+02 -0.73555597399E+02  0.21016389102E+03  0.50400001928E-02 0.  1.
</event>
<event>
 5   0  0.6970013E-04  0.8000056E+03  0.7818609E-02  0.9560009E-01
       -2   -1    0    0    0  501  0.00000000000E+00  0.00000000000E+00  0.75083258580E+02  0.75083258623E+02  0.25500000920E-02 0. -1.
        2   -1    0    0  501    0  0.00000000000E+00  0.00000000000E+00 -0.21309977915E+04  0.21309977915E+04  0.25500000920E-02 0.  1.
    10030    2    1    2    0    0  0.00000000000E+00  0.00000000000E+00 -0.20559145329E+04  0.22060810501E+04  0.80000564563E+03 0.  0.
        3    1    3    3  502    0  0.58295600876E+02  0.10414810301E+03  0.24836216226E+02  0.12191001714E+03  0.10100000352E+00 0. -1.
       -3    1    3    3    0  502 -0.58295600876E+02 -0.10414810301E+03 -0.20807507491E+04  0.20841710330E+04  0.10100000352E+00 0.  1.
</event>
<event>
 5   0  0.4169155E-04  0.7999298E+03  0.7818609E-02  0.9560119E-01
       -1   -1    0    0    0  501  0.00000000000E+00  0.00000000000E+00  0.10929981546E+03  0.10929981557E+03  0.50400001928E-02 0. -1.
        1   -1    0    0  501    0  0.00000000000E+00  0.00000000000E+00 -0.14636065201E+04  0.14636065201E+04  0.50400001928E-02 0.  1.
    10030    2    1    2    0    0  0.00000000000E+00  0.00000000000E+00 -0.13543067046E+04  0.15729063356E+04  0.79992980353E+03 0.  0.
        4    1    3    3  502    0 -0.15134963419E+03  0.26870017905E+03 -0.11779393961E+04  0.12176408878E+04  0.12699999809E+01 0.  1.
       -4    1    3    3    0  502  0.15134963419E+03 -0.26870017905E+03 -0.17636730852E+03  0.35526544781E+03  0.12699999809E+01 0. -1.
</event>
<event>
 5   0  0.2736375E-04  0.8000280E+03  0.7818609E-02  0.9559977E-01
       -4   -1    0    0    0  501  0.00000000000E+00  0.00000000000E+00  0.11516665210E+03  0.11517365435E+03  0.12699999809E+01 0. -1.
        4   -1    0    0  501    0  0.00000000000E+00  0.00000000000E+00 -0.13893386653E+04  0.13893392457E+04  0.12699999809E+01 0.  1.
    10030    2    1    2    0    0  0.00000000000E+00  0.00000000000E+00 -0.12741720132E+04  0.15045129001E+04  0.80002796659E+03 0.  0.
        1    1    3    3  502    0 -0.30891690839E+03  0.25411776856E+03 -0.63260004755E+03  0.74845729122E+03  0.50400001928E-02 0. -1.
       -1    1    3    3    0  502  0.30891690839E+03 -0.25411776856E+03 -0.64157196561E+03  0.75605560885E+03  0.50400001928E-02 0.  1.
</event>
<event>
 5   0  0.6593118E-04  0.8003480E+03  0.7818609E-02  0.9559514E-01
        2   -1    0    0  501    0  0.00000000000E+00  0.00000000000E+00  0.21599832028E+03  0.21599832029E+03  0.25500000920E-02 0.  1.
       -2   -1    0    0    0  501  0.00000000000E+00  0.00000000000E+00 -0.74139109672E+03  0.74139109673E+03  0.25500000920E-02 0. -1.
    10030    2    1    2    0    0  0.00000000000E+00  0.00000000000E+00 -0.52539277644E+03  0.95738941702E+03  0.80034800324E+03 0.  0.
        1    1    3    3  502    0 -0.68302815662E+02  0.10171416279E+03 -0.71840332575E+03  0.72877594912E+03  0.50400001928E-02 0. -1.
       -1    1    3    3    0  502  0.68302815662E+02 -0.10171416279E+03  0.19301054931E+03  0.22861346790E+03  0.50400001928E-02 0.  1.
</event>
<event>
 5   0  0.6970013E-04  0.7997279E+03  0.7818609E-02  0.9560411E-01
        2   -1    0    0  501    0  0.00000000000E+00  0.00000000000E+00  0.60748179402E+03  0.60748179402E+03  0.25500000920E-02 0.  1.
       -2   -1    0    0    0  501  0.00000000000E+00  0.00000000000E+00 -0.26320325730E+03  0.26320325731E+03  0.25500000920E-02 0. -1.
    10030    2    1    2    0    0  0.00000000000E+00  0.00000000000E+00  0.34427853672E+03  0.87068505133E+03  0.79972792108E+03 0.  0.
        3    1    3    3  502    0  0.27641918677E+03  0.72876042579E+02  0.47654047116E+03  0.55570614109E+03  0.10100000352E+00 0.  1.
       -3    1    3    3    0  502 -0.27641918677E+03 -0.72876042579E+02 -0.13226193444E+03  0.31497891024E+03  0.10100000352E+00 0. -1.
</event>
<event>
 5   0  0.4392552E-04  0.7998707E+03  0.7818609E-02  0.9560204E-01
        1   -1    0    0  501    0  0.00000000000E+00  0.00000000000E+00  0.12811239408E+04  0.12811239408E+04  0.50400001928E-02 0. -1.
       -1   -1    0    0    0  501  0.00000000000E+00  0.00000000000E+00 -0.12484997932E+03  0.12484997943E+03  0.50400001928E-02 0.  1.
    10030    2    1    2    0    0  0.00000000000E+00  0.00000000000E+00  0.11562739615E+04  0.14059739203E+04  0.79987073356E+03 0.  0.
        5    1    3    3  502    0  0.34544239365E+03  0.36009714237E+02  0.92659345952E+03  0.98955781846E+03  0.46999998093E+01 0.  1.
       -5    1    3    3    0  502 -0.34544239365E+03 -0.36009714237E+02  0.22968050198E+03  0.41641610180E+03  0.46999998093E+01 0. -1.
</event>
<event>
 5   0  0.6970013E-04  0.8002201E+03  0.7818609E-02  0.9559699E-01
       -2   -1    0    0    0  501  0.00000000000E+00  0.00000000000E+00  0.17915043871E+03  0.17915043873E+03  0.25500000920E-02 0. -1.
        2   -1    0    0  501    0  0.00000000000E+00  0.00000000000E+00 -0.89359570788E+03  0.89359570789E+03  0.25500000920E-02 0.  1.
    10030    2    1    2    0    0  0.00000000000E+00  0.00000000000E+00 -0.71444526917E+03  0.10727461466E+04  0.80022012749E+03 0.  0.
        3    1    3    3  502    0 -0.12893210779E+03 -0.95217429983E+02 -0.84867816599E+03  0.86368077842E+03  0.10100000352E+00 0.  1.
       -3    1    3    3    0  502  0.12893210779E+03  0.95217429983E+02  0.13423289682E+03  0.20906536820E+03  0.10100000352E+00 0. -1.
</event>
<event>
 5   0  0.4104786E-04  0.8011952E+03  0.7818609E-02  0.9558289E-01
        1   -1    0    0  501    0  0.00000000000E+00  0.00000000000E+00  0.90169182017E+03  0.90169182018E+03  0.50400001928E-02 0.  1.
       -1   -1    0    0    0  501  0.00000000000E+00  0.00000000000E+00 -0.17797482891E+03  0.17797482899E+03  0.50400001928E-02 0. -1.
    10030    2    1    2    0    0  0.00000000000E+00  0.00000000000E+00  0.72371699125E+03  0.10796666492E+04  0.80119522583E+03 0.  0.
        2    1    3    3  502    0 -0.28713901879E+02  0.33396670324E+03  0.65746572251E+03  0.73798334894E+03  0.25500000920E-02 0.  1.
       -2    1    3    3    0  502  0.28713901879E+02 -0.33396670324E+03  0.66251268747E+02  0.34168330023E+03  0.25500000920E-02 0. -1.
</event>
<event>
 5   0  0.4169155E-04  0.7994362E+03  0.7818609E-02  0.9560834E-01
       -1   -1    0    0    0  501  0.00000000000E+00  0.00000000000E+00  0.20267975481E+03  0.20267975487E+03  0.50400001928E-02 0. -1.
        1   -1    0    0  501    0  0.00000000000E+00  0.00000000000E+00 -0.78831040855E+03  0.78831040857E+03  0.50400001928E-02 0.  1.
    10030    2    1    2    0    0  0.00000000000E+00  0.00000000000E+00 -0.58563065374E+03  0.99099016344E+03  0.79943620222E+03 0.  0.
        4    1    3    3  502    0  0.20356209858E+03  0.10382521837E+03  0.11372378665E+03  0.25524873457E+03  0.12699999809E+01 0. -1.
       -4    1    3    3    0  502 -0.20356209858E+03 -0.10382521837E+03 -0.69935444040E+03  0.73574142887E+03  0.12699999809E+01 0.  1.
</event>
<event>
 5   0  0.6970013E-04  0.8000703E+03  0.7818609E-02  0.9559915E-01
       -2   -1    0    0    0  501  0.00000000000E+00  0.00000000000E+00  0.15594257062E+03  0.15594257064E+03  0.25500000920E-02 0. -1.
        2   -1    0    0  501    0  0.00000000000E+00  0.00000000000E+00 -0.10261990294E+04  0.10261990294E+04  0.25500000920E-02 0.  1.
    10030    2    1    2    0    0  0.00000000000E+00  0.00000000000E+00 -0.87025645879E+03  0.11821416001E+04  0.80007028348E+03 0.  0.
        3    1    3    3  502    0 -0.31587089778E+03  0.20960846826E+03 -0.24638367466E+03  0.45212283659E+03  0.10100000352E+00 0. -1.
       -3    1    3    3    0  502  0.31587089778E+03 -0.20960846826E+03 -0.62387278413E+03  0.73001876346E+03  0.10100000352E+00 0.  1.
</event>
<event>
 5   0  0.4086111E-04  0.8000810E+03  0.7818609E-02  0.9559900E-01
       -1   -1    0    0    0  501  0.00000000000E+00  0.00000000000E+00  0.23211652326E+03  0.23211652332E+03  0.50400001928E-02 0. -1.
        1   -1    0    0  501    0  0.00000000000E+00  0.00000000000E+00 -0.68944862870E+03  0.68944862872E+03  0.50400001928E-02 0.  1.
    10030    2    1    2    0    0  0.00000000000E+00  0.00000000000E+00 -0.45733210544E+03  0.92156515203E+03  0.80008104263E+03 0.  0.
        3    1    3    3  502    0  0.16970437732E+03 -0.16362771875E+02  0.18817438265E+03  0.25392306802E+03  0.10100000352E+00 0. -1.
       -3    1    3    3    0  502 -0.16970437732E+03  0.16362771875E+02 -0.64550648809E+03  0.66764208402E+03  0.10100000352E+00 0.  1.
</event>
<event>
 5   0  0.4087283E-04  0.8005613E+03  0.7818609E-02  0.9559205E-01
       -1   -1    0    0    0  501  0.00000000000E+00  0.00000000000E+00  0.25667402224E+03  0.25667402229E+03  0.50400001928E-02 0. -1.
        1   -1    0    0  501    0  0.00000000000E+00  0.00000000000E+00 -0.62423377396E+03  0.62423377398E+03  0.50400001928E-02 0.  1.
    10030    2    1    2    0    0  0.00000000000E+00  0.00000000000E+00 -0.36755975173E+03  0.88090779627E+03  0.80056128712E+03 0.  0.
        1    1    3    3  502    0 -0.24856077581E+03  0.92341185287E+00  0.16146281922E+03  0.29640100199E+03  0.50400001928E-02 0. -1.
       -1    1    3    3    0  502  0.24856077581E+03 -0.92341185287E+00 -0.52902257095E+03  0.58450679428E+03  0.50400001928E-02 0.  1.
</event>
<event>
 5   0  0.4169155E-04  0.8000736E+03  0.7818609E-02  0.9559911E-01
       -1   -1    0    0    0  501  0.00000000000E+00  0.00000000000E+00  0.13643129338E+03  0.13643129347E+03  0.50400001928E-02 0. -1.
        1   -1    0    0  501    0  0.00000000000E+00  0.00000000000E+00 -0.11729673955E+04  0.11729673955E+04  0.50400001928E-02 0.  1.
    10030    2    1    2    0    0  0.00000000000E+00  0.00000000000E+00 -0.10365361021E+04  0.13093986889E+04  0.80007364392E+03 0.  0.
        4    1    3    3  502    0 -0.13736803751E+03  0.14152228939E+03  0.51327461510E+02  0.20380053319E+03  0.12699999809E+01 0. -1.
       -4    1    3    3    0  502  0.13736803751E+03 -0.14152228939E+03 -0.10878635636E+04  0.11055981557E+04  0.12699999809E+01 0.  1.
</event>
<event>
 5   0  0.7133039E-04  0.7997657E+03  0.7818609E-02  0.9560356E-01
       -2   -1    0    0    0  501  0.00000000000E+00  0.00000000000E+00  0.17572871999E+03  0.17572872001E+03  0.25500000920E-02 0.  1.
        2   -1    0    0  501    0  0.00000000000E+00  0.00000000000E+00 -0.90996097155E+03  0.90996097156E+03  0.25500000920E-02 0. -1.
    10030    2    1    2    0    0  0.00000000000E+00  0.00000000000E+00 -0.73423225156E+03  0.10856896916E+04  0.79976565764E+03 0.  0.
        2    1    3    3  502    0 -0.86162329998E+02 -0.27159518176E+03 -0.74798988808E+03  0.80042286483E+03  0.25500000920E-02 0. -1.
       -2    1    3    3    0  502  0.86162329998E+02  0.27159518176E+03  0.13757636518E+02  0.28526682674E+03  0.25500000920E-02 0.  1.
</event>
<event>
 5   0  0.7133039E-04  0.7960696E+03  0.7818609E-02  0.9565724E-01
        2   -1    0    0  501    0  0.00000000000E+00  0.00000000000E+00  0.18286434099E+04  0.18286434099E+04  0.25500000920E-02 0.  1.
       -2   -1    0    0    0  501  0.00000000000E+00  0.00000000000E+00 -0.86638929899E+02  0.86638929936E+02  0.25500000920E-02 0. -1.
    10030    2    1    2    0    0  0.00000000000E+00  0.00000000000E+00  0.17420044800E+04  0.19152823398E+04  0.79606961564E+03 0.  0.
        2    1    3    3  502    0  0.32455819141E+03 -0.96861054623E+01  0.14248866610E+04  0.14614150118E+04  0.25500000920E-02 0.  1.
       -2    1    3    3    0  502 -0.32455819141E+03  0.96861054623E+01  0.31711781901E+03  0.45386732796E+03  0.25500000920E-02 0. -1.
</event>
<event>
 5   0  0.7133039E-04  0.8002158E+03  0.7818609E-02  0.9559705E-01
       -2   -1    0    0    0  501  0.00000000000E+00  0.00000000000E+00  0.13481305020E+03  0.13481305022E+03  0.25500000920E-02 0.  1.
        2   -1    0    0  501    0  0.00000000000E+00  0.00000000000E+00 -0.11874692102E+04  0.11874692102E+04  0.25500000920E-02 0. -1.
    10030    2    1    2    0    0  0.00000000000E+00  0.00000000000E+00 -0.10526561600E+04  0.13222822604E+04  0.80021583653E+03 0.  0.
        2    1    3    3  502    0  0.18102653636E+03  0.14195975973E+03  0.14600337401E+02  0.23051323196E+03  0.25500000920E-02 0.  1.
       -2    1    3    3    0  502 -0.18102653636E+03 -0.14195975973E+03 -0.10672564974E+04  0.10917690285E+04  0.25500000920E-02 0. -1.
</event>
<event>
 5   0  0.2736375E-04  0.7997018E+03  0.7818609E-02  0.9560449E-01
        4   -1    0    0  501    0  0.00000000000E+00  0.00000000000E+00  0.81546579894E+03  0.81546678788E+03  0.12699999809E+01 0. -1.
       -4   -1    0    0    0  501  0.00000000000E+00  0.00000000000E+00 -0.19605745286E+03  0.19606156615E+03  0.12699999809E+01 0.  1.
    10030    2    1    2    0    0  0.00000000000E+00  0.00000000000E+00  0.61940834608E+03  0.10115283540E+04  0.79970176430E+03 0.  0.
        1    1    3    3  502    0 -0.49502063318E+02 -0.39175639051E+03  0.23013511169E+03  0.45704014423E+03  0.50400001928E-02 0. -1.
       -1    1    3    3    0  502  0.49502063318E+02  0.39175639051E+03  0.38927323438E+03  0.55448820980E+03  0.50400001928E-02 0.  1.
</event>
<event>
 5   0  0.4169155E-04  0.7999647E+03  0.7818609E-02  0.9560068E-01
        1   -1    0    0  501    0  0.00000000000E+00  0.00000000000E+00  0.12322474080E+04  0.12322474080E+04  0.50400001928E-02 0. -1.
       -1   -1    0    0    0  501  0.00000000000E+00  0.00000000000E+00 -0.12983259692E+03  0.12983259701E+03  0.50400001928E-02 0.  1.
    10030    2    1    2    0    0  0.00000000000E+00  0.00000000000E+00  0.11024148111E+04  0.13620800051E+04  0.79996470198E+03 0.  0.
        4    1    3    3  502    0  0.83450204572E+00 -0.36118819188E+03  0.25863122339E+03  0.44424017036E+03  0.12699999809E+01 0.  1.
       -4    1    3    3    0  502 -0.83450204572E+00  0.36118819188E+03  0.84378358772E+03  0.91783983469E+03  0.12699999809E+01 0. -1.
</event>
<event>
 5   0  0.4086111E-04  0.8003038E+03  0.7818609E-02  0.9559577E-01
        1   -1    0    0  501    0  0.00000000000E+00  0.00000000000E+00  0.12355963093E+04  0.12355963094E+04  0.50400001928E-02 0. -1.
       -1   -1    0    0    0  501  0.00000000000E+00  0.00000000000E+00 -0.12959050111E+03  0.12959050121E+03  0.50400001928E-02 0.  1.
    10030    2    1    2    0    0  0.00000000000E+00  0.00000000000E+00  0.11060058082E+04  0.13651868106E+04  0.80030380474E+03 0.  0.
        3    1    3    3  502    0  0.16789660757E+03 -0.78004316106E+02  0.11581481905E+04  0.11728517321E+04  0.10100000352E+00 0. -1.
       -3    1    3    3    0  502 -0.16789660757E+03  0.78004316106E+02 -0.52142382279E+02  0.19233507843E+03  0.10100000352E+00 0.  1.
</event>
<event>
 5   0  0.6672462E-04  0.7999481E+03  0.7818609E-02  0.9560092E-01
       -2   -1    0    0    0  501  0.00000000000E+00  0.00000000000E+00  0.77083703138E+02  0.77083703181E+02  0.25500000920E-02 0. -1.
        2   -1    0    0  501    0  0.00000000000E+00  0.00000000000E+00 -0.20753964489E+04  0.20753964489E+04  0.25500000920E-02 0.  1.
    10030    2    1    2    0    0  0.00000000000E+00  0.00000000000E+00 -0.19983127458E+04  0.21524801521E+04  0.79994810785E+03 0.  0.
        5    1    3    3  502    0 -0.36362550688E+03 -0.12859544379E+03 -0.12838812369E+04  0.13405720488E+04  0.46999998093E+01 0. -1.
       -5    1    3    3    0  502  0.36362550688E+03  0.12859544379E+03 -0.71443150889E+03  0.81190810336E+03  0.46999998093E+01 0.  1.
</event>
<event>
 5   0  0.4104786E-04  0.8005652E+03  0.7818609E-02  0.9559199E-01
       -1   -1    0    0    0  501  0.00000000000E+00  0.00000000000E+00  0.42135805223E+03  0.42135805226E+03  0.50400001928E-02 0.  1.
        1   -1    0    0  501    0  0.00000000000E+00  0.00000000000E+00 -0.38026126862E+03  0.38026126865E+03  0.50400001928E-02 0. -1.
    10030    2    1    2    0    0  0.00000000000E+00  0.00000000000E+00  0.41096783614E+02  0.80161932091E+03  0.80056516914E+03 0.  0.
        2    1    3    3  502    0 -0.23876599958E+03  0.29873664012E+03 -0.97816248806E+02  0.39474143593E+03  0.25500000920E-02 0. -1.
       -2    1    3    3    0  502  0.23876599958E+03 -0.29873664012E+03  0.13891303242E+03  0.40687788498E+03  0.25500000920E-02 0.  1.
</event>
<event>
 5   0  0.6672462E-04  0.7997641E+03  0.7818609E-02  0.9560359E-01
       -2   -1    0    0    0  501  0.00000000000E+00  0.00000000000E+00  0.17144451761E+03  0.17144451763E+03  0.25500000920E-02 0. -1.
        2   -1    0    0  501    0  0.00000000000E+00  0.00000000000E+00 -0.93269619286E+03  0.93269619286E+03  0.25500000920E-02 0.  1.
    10030    2    1    2    0    0  0.00000000000E+00  0.00000000000E+00 -0.76125167525E+03  0.11041407105E+04  0.79976408740E+03 0.  0.
        5    1    3    3  502    0  0.23117042173E+02  0.16506024569E+03 -0.88241463668E+03  0.89802948914E+03  0.46999998093E+01 0.  1.
       -5    1    3    3    0  502 -0.23117042173E+02 -0.16506024569E+03  0.12116296143E+03  0.20611122135E+03  0.46999998093E+01 0. -1.
</event>
<event>
 5   0  0.4169155E-04  0.7999656E+03  0.7818609E-02  0.9560067E-01
        1   -1    0    0  501    0  0.00000000000E+00  0.00000000000E+00  0.70456362224E+03  0.70456362225E+03  0.50400001928E-02 0. -1.
       -1   -1    0    0    0  501  0.00000000000E+00  0.00000000000E+00 -0.22707140482E+03  0.22707140487E+03  0.50400001928E-02 0.  1.
    10030    2    1    2    0    0  0.00000000000E+00  0.00000000000E+00  0.47749221742E+03  0.93163502713E+03  0.79996562806E+03 0.  0.
        4    1    3    3  502    0 -0.33581419296E+03  0.17702697145E+03  0.38547992876E+03  0.54102320578E+03  0.12699999809E+01 0. -1.
       -4    1    3    3    0  502  0.33581419296E+03 -0.17702697145E+03  0.92012288661E+02  0.39061182135E+03  0.12699999809E+01 0.  1.
</event>
<event>
 5   0  0.4392552E-04  0.7995367E+03  0.7818609E-02  0.9560688E-01
        1   -1    0    0  501    0  0.00000000000E+00  0.00000000000E+00  0.10802530848E+04  0.10802530849E+04  0.50400001928E-02 0. -1.
       -1   -1    0    0    0  501  0.00000000000E+00  0.00000000000E+00 -0.14794191954E+03  0.14794191963E+03  0.50400001928E-02 0.  1.
    10030    2    1    2    0    0  0.00000000000E+00  0.00000000000E+00  0.93231116530E+03  0.12281950045E+04  0.79953665337E+03 0.  0.
        5    1    3    3  502    0  0.37797941184E+03 -0.16210813566E+02  0.26787294932E+03  0.46358303811E+03  0.46999998093E+01 0.  1.
       -5    1    3    3    0  502 -0.37797941184E+03  0.16210813566E+02  0.66443821599E+03  0.76461196637E+03  0.46999998093E+01 0. -1.
</event>
<event>
 5   0  0.4086111E-04  0.8013071E+03  0.7818609E-02  0.9558127E-01
        1   -1    0    0  501    0  0.00000000000E+00  0.00000000000E+00  0.48313532002E+03  0.48313532005E+03  0.50400001928E-02 0.  1.
       -1   -1    0    0    0  501  0.00000000000E+00  0.00000000000E+00 -0.33225325037E+03  0.33225325041E+03  0.50400001928E-02 0. -1.
    10030    2    1    2    0    0  0.00000000000E+00  0.00000000000E+00  0.15088206965E+03  0.81538857046E+03  0.80130713331E+03 0.  0.
        3    1    3    3  502    0 -0.64451019156E+02  0.66581220722E+02  0.47208089057E+03  0.48108977360E+03  0.10100000352E+00 0.  1.
       -3    1    3    3    0  502  0.64451019156E+02 -0.66581220722E+02 -0.32119882092E+03  0.33429879686E+03  0.10100000352E+00 0. -1.
</event>
<event>
 5   0  0.4087283E-04  0.7995246E+03  0.7818609E-02  0.9560706E-01
        1   -1    0    0  501    0  0.00000000000E+00  0.00000000000E+00  0.20539808895E+04  0.20539808895E+04  0.50400001928E-02 0.  1.
       -1   -1    0    0    0  501  0.00000000000E+00  0.00000000000E+00 -0.77804954742E+02  0.77804954905E+02  0.50400001928E-02 0. -1.
    10030    2    1    2    0    0  0.00000000000E+00  0.00000000000E+00  0.19761759347E+04  0.21317858444E+04  0.79952458456E+03 0.  0.
        1    1    3    3  502    0  0.59536050554E+02  0.12882352469E+03  0.19845553389E+04  0.19896230635E+04  0.50400001928E-02 0.  1.
       -1    1    3    3    0  502 -0.59536050554E+02 -0.12882352469E+03 -0.83794041201E+01  0.14216278088E+03  0.50400001928E-02 0. -1.
</event>
<event>
 5   0  0.6801147E-04  0.8005130E+03  0.7818609E-02  0.9559275E-01
       -2   -1    0    0    0  501  0.00000000000E+00  0.00000000000E+00  0.32989255198E+03  0.32989255199E+03  0.25500000920E-02 0. -1.
        2   -1    0    0  501    0  0.00000000000E+00  0.00000000000E+00 -0.48562860925E+03  0.48562860925E+03  0.25500000920E-02 0.  1.
    10030    2    1    2    0    0  0.00000000000E+00  0.00000000000E+00 -0.15573605727E+03  0.81552116124E+03  0.80051298859E+03 0.  0.
        4    1    3    3  502    0  0.39661930061E+03 -0.12738195462E+02 -0.24595026421E+02  0.39758729792E+03  0.12699999809E+01 0.  1.
       -4    1    3    3    0  502 -0.39661930061E+03  0.12738195462E+02 -0.13114103085E+03  0.41793386332E+03  0.12699999809E+01 0. -1.
</event>
<event>
 5   0  0.7133039E-04  0.7999123E+03  0.7818609E-02  0.9560144E-01
       -2   -1    0    0    0  501  0.00000000000E+00  0.00000000000E+00  0.81327198265E+02  0.81327198305E+02  0.25500000920E-02 0. -1.
        2   -1    0    0  501    0  0.00000000000E+00  0.00000000000E+00 -0.19669303116E+04  0.19669303116E+04  0.25500000920E-02 0.  1.
    10030    2    1    2    0    0  0.00000000000E+00  0.00000000000E+00 -0.18856031133E+04  0.20482575099E+04  0.79991232386E+03 0.  0.
        2    1    3    3  502    0 -0.29117474450E+03  0.25867901054E+03 -0.70997858261E+03  0.80979451103E+03  0.25500000920E-02 0. -1.
       -2    1    3    3    0  502  0.29117474450E+03 -0.25867901054E+03 -0.11756245307E+04  0.12384629988E+04  0.25500000920E-02 0.  1.
</event>
<event>
 5   0  0.4086111E-04  0.8002698E+03  0.7818609E-02  0.9559627E-01
       -1   -1    0    0    0  501  0.00000000000E+00  0.00000000000E+00  0.22674483222E+03  0.22674483228E+03  0.50400001928E-02 0. -1.
        1   -1    0    0  501    0  0.00000000000E+00  0.00000000000E+00 -0.70611505870E+03  0.70611505872E+03  0.50400001928E-02 0.  1.
    10030    2    1    2    0    0  0.00000000000E+00  0.00000000000E+00 -0.47937022647E+03  0.93285989100E+03  0.80026980588E+03 0.  0.
        3    1    3    3  502    0 -0.36270416824E+03 -0.10985144649E+03 -0.38935735987E+03  0.54334226584E+03  0.10100000352E+00 0.  1.
       -3    1    3    3    0  502  0.36270416824E+03  0.10985144649E+03 -0.90012866602E+02  0.38951762516E+03  0.10100000352E+00 0. -1.
</event>
<event>
 5   0  0.6970013E-04  0.8000439E+03  0.7818609E-02  0.9559954E-01
        2   -1    0    0  501    0  0.00000000000E+00  0.00000000000E+00  0.84678947181E+03  0.84678947181E+03  0.25500000920E-02 0. -1.
       -2   -1    0    0    0  501  0.00000000000E+00  0.00000000000E+00 -0.18896969540E+03  0.18896969542E+03  0.25500000920E-02 0.  1.
    10030    2    1    2    0    0  0.00000000000E+00  0.00000000000E+00  0.65781977641E+03  0.10357591672E+04  0.80004387022E+03 0.  0.
        3    1    3    3  502    0  0.10855967953E+03  0.57234706531E+02 -0.16399583964E+03  0.20483081134E+03  0.10100000352E+00 0.  1.
       -3    1    3    3    0  502 -0.10855967953E+03 -0.57234706531E+02  0.82181561605E+03  0.83092835590E+03  0.10100000352E+00 0. -1.
</event>
<event>
 5   0  0.4087283E-04  0.7972192E+03  0.7818609E-02  0.9564051E-01
        1   -1    0    0  501    0  0.00000000000E+00  0.00000000000E+00  0.13817242744E+03  0.13817242753E+03  0.50400001928E-02 0. -1.
       -1   -1    0    0    0  501  0.00000000000E+00  0.00000000000E+00 -0.11499373120E+04  0.11499373121E+04  0.50400001928E-02 0.  1.
    10030    2    1    2    0    0  0.00000000000E+00  0.00000000000E+00 -0.10117648846E+04  0.12881097396E+04  0.79721924179E+03 0.  0.
        1    1    3    3  502    0 -0.28287042326E+02  0.34104658406E+03 -0.83613193595E+03  0.90345422884E+03  0.50400001928E-02 0.  1.
       -1    1    3    3    0  502  0.28287042326E+02 -0.34104658406E+03 -0.17563294866E+03  0.38465551074E+03  0.50400001928E-02 0. -1.
</event>
<event>
 5   0  0.4169155E-04  0.8000073E+03  0.7818609E-02  0.9560007E-01
        1   -1    0    0  501    0  0.00000000000E+00  0.00000000000E+00  0.74551920826E+03  0.74551920828E+03  0.50400001928E-02 0.  1.
       -1   -1    0    0    0  501  0.00000000000E+00  0.00000000000E+00 -0.21461942087E+03  0.21461942093E+03  0.50400001928E-02 0. -1.
    10030    2    1    2    0    0  0.00000000000E+00  0.00000000000E+00  0.53089978740E+03  0.96013862921E+03  0.80000725186E+03 0.  0.
        4    1    3    3  502    0  0.25793939527E+03  0.24168352931E+03  0.49016448991E+03  0.60432317517E+03  0.12699999809E+01 0.  1.
       -4    1    3    3    0  502 -0.25793939527E+03 -0.24168352931E+03  0.40735297483E+02  0.35581545404E+03  0.12699999809E+01 0. -1.
</event>
<event>
 5   0  0.4392552E-04  0.7999510E+03  0.7818609E-02  0.9560088E-01
       -1   -1    0    0    0  501  0.00000000000E+00  0.00000000000E+00  0.11311097103E+03  0.11311097114E+03  0.50400001928E-02 0.  1.
        1   -1    0    0  501    0  0.00000000000E+00  0.00000000000E+00 -0.14143666192E+04  0.14143666192E+04  0.50400001928E-02 0. -1.
    10030    2    1    2    0    0  0.00000000000E+00  0.00000000000E+00 -0.13012556481E+04  0.15274775903E+04  0.79995095293E+03 0.  0.
        5    1    3    3  502    0 -0.10773283969E+03 -0.78944554779E+02  0.69216532738E+02  0.15050457096E+03  0.46999998093E+01 0.  1.
       -5    1    3    3    0  502  0.10773283969E+03  0.78944554779E+02 -0.13704721809E+04  0.13769730193E+04  0.46999998093E+01 0. -1.
</event>
<event>
 5   0  0.6970013E-04  0.7998920E+03  0.7818609E-02  0.9560173E-01
       -2   -1    0    0    0  501  0.00000000000E+00  0.00000000000E+00  0.64873153956E+02  0.64873154006E+02  0.25500000920E-02 0. -1.
        2   -1    0    0  501    0  0.00000000000E+00  0.00000000000E+00 -0.24656858655E+04  0.24656858655E+04  0.25500000920E-02 0.  1.
    10030    2    1    2    0    0  0.00000000000E+00  0.00000000000E+00 -0.24008127116E+04  0.25305590195E+04  0.79989203978E+03 0.  0.
        3    1    3    3  502    0  0.28211911307E+03  0.14917519947E+03 -0.19630460512E+04  0.19888172977E+04  0.10100000352E+00 0.  1.
       -3    1    3    3    0  502 -0.28211911307E+03 -0.14917519947E+03 -0.43776666035E+03  0.54174172187E+03  0.10100000352E+00 0. -1.
</event>
<event>
 5   0  0.4169155E-04  0.7986255E+03  0.7818609E-02  0.9562009E-01
       -1   -1    0    0    0  501  0.00000000000E+00  0.00000000000E+00  0.13931514565E+04  0.13931514565E+04  0.50400001928E-02 0.  1.
        1   -1    0    0  501    0  0.00000000000E+00  0.00000000000E+00 -0.11445321341E+03  0.11445321352E+03  0.50400001928E-02 0. -1.
    10030    2    1    2    0    0  0.00000000000E+00  0.00000000000E+00  0.12786982431E+04  0.15076046700E+04  0.79862547179E+03 0.  0.
        4    1    3    3  502    0  0.31235510836E+02 -0.38693726972E+03  0.81596156529E+03  0.90359891366E+03  0.12699999809E+01 0. -1.
       -4    1    3    3    0  502 -0.31235510836E+02  0.38693726972E+03  0.46273667781E+03  0.60400575637E+03  0.12699999809E+01 0.  1.
</event>
<event>
 5   0  0.6593118E-04  0.8005275E+03  0.7818609E-02  0.9559254E-01
        2   -1    0    0  501    0  0.00000000000E+00  0.00000000000E+00  0.49714354660E+03  0.49714354661E+03  0.25500000920E-02 0.  1.
       -2   -1    0    0    0  501  0.00000000000E+00  0.00000000000E+00 -0.32226321877E+03  0.32226321878E+03  0.25500000920E-02 0. -1.
    10030    2    1    2    0    0  0.00000000000E+00  0.00000000000E+00  0.17488032783E+03  0.81940676539E+03  0.80052752489E+03 0.  0.
        1    1    3    3  502    0  0.56879347001E+02  0.54037553972E+02  0.48919605135E+03  0.49544736758E+03  0.50400001928E-02 0.  1.
       -1    1    3    3    0  502 -0.56879347001E+02 -0.54037553972E+02 -0.31431572352E+03  0.32395939781E+03  0.50400001928E-02 0. -1.
</event>
<event>
 5   0  0.4169155E-04  0.8000901E+03  0.7818609E-02  0.9559887E-01
       -1   -1    0    0    0  501  0.00000000000E+00  0.00000000000E+00  0.12243264827E+04  0.12243264827E+04  0.50400001928E-02 0. -1.
        1   -1    0    0  501    0  0.00000000000E+00  0.00000000000E+00 -0.13071354635E+03  0.13071354645E+03  0.50400001928E-02 0.  1.
    10030    2    1    2    0    0  0.00000000000E+00  0.00000000000E+00  0.10936129363E+04  0.13550400292E+04  0.80009013622E+03 0.  0.
        4    1    3    3  502    0 -0.50931602897E+02  0.39230626754E+03  0.44609426346E+03  0.59623815755E+03  0.12699999809E+01 0. -1.
       -4    1    3    3    0  502  0.50931602897E+02 -0.39230626754E+03  0.64751867288E+03  0.75880187160E+03  0.12699999809E+01 0.  1.
</event>
<event>
 5   0  0.4392552E-04  0.8001922E+03  0.7818609E-02  0.9559739E-01
        1   -1    0    0  501    0  0.00000000000E+00  0.00000000000E+00  0.18581900313E+04  0.18581900313E+04  0.50400001928E-02 0.  1.
       -1   -1    0    0    0  501  0.00000000000E+00  0.00000000000E+00 -0.86146677861E+02  0.86146678008E+02  0.50400001928E-02 0. -1.
    10030    2    1    2    0    0  0.00000000000E+00  0.00000000000E+00  0.17720433534E+04  0.19443367093E+04  0.80019222236E+03 0.  0.
        5    1    3    3  502    0  0.23762920435E+03 -0.11458633182E+03  0.15522160562E+03  0.30612661277E+03  0.46999998093E+01 0. -1.
       -5    1    3    3    0  502 -0.23762920435E+03  0.11458633182E+03  0.16168217478E+04  0.16382100965E+04  0.46999998093E+01 0.  1.
</event>
<event>
 5   0  0.2736375E-04  0.7999971E+03  0.7818609E-02  0.9560021E-01
       -3   -1    0    0    0  501  0.00000000000E+00  0.00000000000E+00  0.69493547439E+03  0.69493548173E+03  0.10100000352E+00 0.  1.
        3   -1    0    0  501    0  0.00000000000E+00  0.00000000000E+00 -0.23023550011E+03  0.23023552226E+03  0.10100000352E+00 0. -1.
    10030    2    1    2    0    0  0.00000000000E+00  0.00000000000E+00  0.46469997428E+03  0.92517100399E+03  0.79999707533E+03 0.  0.
        3    1    3    3  502    0 -0.33121411495E+03  0.22405702092E+03  0.24359103256E+03  0.46823171604E+03  0.10100000352E+00 0. -1.
       -3    1    3    3    0  502  0.33121411495E+03 -0.22405702092E+03  0.22110894173E+03  0.45693928795E+03  0.10100000352E+00 0.  1.
</event>
<event>
 5   0  0.2736375E-04  0.8002037E+03  0.7818609E-02  0.9559722E-01
       -4   -1    0    0    0  501  0.00000000000E+00  0.00000000000E+00  0.35681359596E+03  0.35681585610E+03  0.12699999809E+01 0. -1.
        4   -1    0    0  501    0  0.00000000000E+00  0.00000000000E+00 -0.44863726374E+03  0.44863906129E+03  0.12699999809E+01 0.  1.
    10030    2    1    2    0    0  0.00000000000E+00  0.00000000000E+00 -0.91823667774E+02  0.80545491739E+03  0.80020374779E+03 0.  0.
        5    1    3    3  502    0 -0.11316128120E+03 -0.38368357454E+03 -0.39477816953E+02  0.40199396633E+03  0.46999998093E+01 0.  1.
       -5    1    3    3    0  502  0.11316128120E+03  0.38368357454E+03 -0.52345850822E+02  0.40346095106E+03  0.46999998093E+01 0. -1.
</event>
<event>
 5   0  0.2736375E-04  0.7998450E+03  0.7818609E-02  0.9560242E-01
       -3   -1    0    0    0  501  0.00000000000E+00  0.00000000000E+00  0.12574155732E+04  0.12574155772E+04  0.10100000352E+00 0. -1.
        3   -1    0    0  501    0  0.00000000000E+00  0.00000000000E+00 -0.12719578161E+03  0.12719582171E+03  0.10100000352E+00 0.  1.
    10030    2    1    2    0    0  0.00000000000E+00  0.00000000000E+00  0.11302197916E+04  0.13846113989E+04  0.79984495300E+03 0.  0.
        5    1    3    3  502    0  0.30599617193E+03  0.57651564523E+02  0.13075031233E+03  0.33775004707E+03  0.46999998093E+01 0.  1.
       -5    1    3    3    0  502 -0.30599617193E+03 -0.57651564523E+02  0.99946947922E+03  0.10468613519E+04  0.46999998093E+01 0. -1.
</event>
<event>
 5   0  0.4104786E-04  0.8002397E+03  0.7818609E-02  0.9559670E-01
        1   -1    0    0  501    0  0.00000000000E+00  0.00000000000E+00  0.60796410905E+03  0.60796410907E+03  0.50400001928E-02 0. -1.
       -1   -1    0    0    0  501  0.00000000000E+00  0.00000000000E+00 -0.26333118661E+03  0.26333118666E+03  0.50400001928E-02 0.  1.
    10030    2    1    2    0    0  0.00000000000E+00  0.00000000000E+00  0.34463292244E+03  0.87129529573E+03  0.80023973979E+03 0.  0.
        2    1    3    3  502    0 -0.37181866384E+03 -0.23815877765E+02  0.33114441411E+03  0.49847059875E+03  0.25500000920E-02 0. -1.
       -2    1    3    3    0  502  0.37181866384E+03  0.23815877765E+02  0.13488508323E+02  0.37282469698E+03  0.25500000920E-02 0.  1.
</event>
<event>
 5   0  0.2736375E-04  0.8000664E+03  0.7818609E-02  0.9559921E-01
        3   -1    0    0  501    0  0.00000000000E+00  0.00000000000E+00  0.25096144232E+03  0.25096146264E+03  0.10100000352E+00 0. -1.
       -3   -1    0    0    0  501  0.00000000000E+00  0.00000000000E+00 -0.63765389108E+03  0.63765389908E+03  0.10100000352E+00 0.  1.
    10030    2    1    2    0    0  0.00000000000E+00  0.00000000000E+00 -0.38669244876E+03  0.88861536172E+03  0.80006637922E+03 0.  0.
        3    1    3    3  502    0 -0.26727142072E+03  0.21060216689E+03 -0.42695637584E+03  0.54596615472E+03  0.10100000352E+00 0. -1.
       -3    1    3    3    0  502  0.26727142072E+03 -0.21060216689E+03  0.40263927073E+02  0.34264920700E+03  0.10100000352E+00 0.  1.
</event>
<event>
 5   0  0.4392552E-04  0.7981038E+03  0.7818609E-02  0.9562766E-01
       -1   -1    0    0    0  501  0.00000000000E+00  0.00000000000E+00  0.54758851496E+03  0.54758851498E+03  0.50400001928E-02 0. -1.
        1   -1    0    0  501    0  0.00000000000E+00  0.00000000000E+00 -0.29080668882E+03  0.29080668886E+03  0.50400001928E-02 0.  1.
    10030    2    1    2    0    0  0.00000000000E+00  0.00000000000E+00  0.25678182614E+03  0.83839520384E+03  0.79810375992E+03 0.  0.
        5    1    3    3  502    0  0.29289708411E+03 -0.89237021276E+02  0.39717600441E+03  0.50152050439E+03  0.46999998093E+01 0. -1.
       -5    1    3    3    0  502 -0.29289708411E+03  0.89237021276E+02 -0.14039417827E+03  0.33687469946E+03  0.46999998093E+01 0.  1.
</event>
<event>
 5   0  0.7133039E-04  0.7997977E+03  0.7818609E-02  0.9560310E-01
       -2   -1    0    0    0  501  0.00000000000E+00  0.00000000000E+00  0.58778400139E+03  0.58778400139E+03  0.25500000920E-02 0.  1.
        2   -1    0    0  501    0  0.00000000000E+00  0.00000000000E+00 -0.27207118295E+03  0.27207118296E+03  0.25500000920E-02 0. -1.
    10030    2    1    2    0    0  0.00000000000E+00  0.00000000000E+00  0.31571281844E+03  0.85985518435E+03  0.79979769588E+03 0.  0.
        2    1    3    3  502    0 -0.14389554660E+03  0.24087803915E+02 -0.24243694416E+03  0.28295197919E+03  0.25500000920E-02 0. -1.
       -2    1    3    3    0  502  0.14389554660E+03 -0.24087803915E+02  0.55814976260E+03  0.57690320516E+03  0.25500000920E-02 0.  1.
</event>
<event>
 5   0  0.4169155E-04  0.7990885E+03  0.7818609E-02  0.9561337E-01
       -1   -1    0    0    0  501  0.00000000000E+00  0.00000000000E+00  0.11828087411E+03  0.11828087422E+03  0.50400001928E-02 0.  1.
        1   -1    0    0  501    0  0.00000000000E+00  0.00000000000E+00 -0.13496316438E+04  0.13496316438E+04  0.50400001928E-02 0. -1.
    10030    2    1    2    0    0  0.00000000000E+00  0.00000000000E+00 -0.12313507697E+04  0.14679125180E+04  0.79908850733E+03 0.  0.
        4    1    3    3  502    0  0.23579643753E+03 -0.13756562033E+03 -0.11515891546E+04  0.11835047333E+04  0.12699999809E+01 0. -1.
       -4    1    3    3    0  502 -0.23579643753E+03  0.13756562033E+03 -0.79761615035E+02  0.28440778467E+03  0.12699999809E+01 0.  1.
</event>
<event>
 5   0  0.4087283E-04  0.8001721E+03  0.7818609E-02  0.9559768E-01
       -1   -1    0    0    0  501  0.00000000000E+00  0.00000000000E+00  0.23773124990E+03  0.23773124995E+03  0.50400001928E-02 0. -1.
        1   -1    0    0  501    0  0.00000000000E+00  0.00000000000E+00 -0.67331841127E+03  0.67331841129E+03  0.50400001928E-02 0.  1.
    10030    2    1    2    0    0  0.00000000000E+00  0.00000000000E+00 -0.43558716138E+03  0.91104966124E+03  0.80017205031E+03 0.  0.
        1    1    3    3  502    0 -0.20479491438E+03 -0.36919028065E+01  0.17350637981E+03  0.26843816972E+03  0.50400001928E-02 0. -1.
       -1    1    3    3    0  502  0.20479491438E+03  0.36919028065E+01 -0.60909354119E+03  0.64261149153E+03  0.50400001928E-02 0.  1.
</event>
<event>
 5   0  0.4087283E-04  0.8001146E+03  0.7818609E-02  0.9559851E-01
        1   -1    0    0  501    0  0.00000000000E+00  0.00000000000E+00  0.57199553541E+03  0.57199553543E+03  0.50400001928E-02 0. -1.
       -1   -1    0    0    0  501  0.00000000000E+00  0.00000000000E+00 -0.27980261396E+03  0.27980261400E+03  0.50400001928E-02 0.  1.
    10030    2    1    2    0    0  0.00000000000E+00  0.00000000000E+00  0.29219292145E+03  0.85179814943E+03  0.80011460681E+03 0.  0.
        1    1    3    3  502    0 -0.37382289898E+03 -0.10982093870E+03  0.49448762834E+02  0.39274594657E+03  0.50400001928E-02 0.  1.
       -1    1    3    3    0  502  0.37382289898E+03  0.10982093870E+03  0.24274415862E+03  0.45905220286E+03  0.50400001928E-02 0. -1.
</event>
<event>
 5   0  0.2736375E-04  0.7998797E+03  0.7818609E-02  0.9560191E-01
       -3   -1    0    0    0  501  0.00000000000E+00  0.00000000000E+00  0.17484254749E+03  0.17484257666E+03  0.10100000352E+00 0.  1.
        3   -1    0    0  501    0  0.00000000000E+00  0.00000000000E+00 -0.91483386705E+03  0.91483387262E+03  0.10100000352E+00 0. -1.
    10030    2    1    2    0    0  0.00000000000E+00  0.00000000000E+00 -0.73999131956E+03  0.10896764493E+04  0.79987974790E+03 0.  0.
        4    1    3    3  502    0 -0.75626586292E+02 -0.18761282202E+03 -0.84000376389E+03  0.86401729600E+03  0.12699999809E+01 0. -1.
       -4    1    3    3    0  502  0.75626586292E+02  0.18761282202E+03  0.10001244433E+03  0.22565915328E+03  0.12699999809E+01 0.  1.
</event>
<event>
 5   0  0.6801147E-04  0.8000473E+03  0.7818609E-02  0.9559949E-01
       -2   -1    0    0    0  501  0.00000000000E+00  0.00000000000E+00  0.11087097137E+03  0.11087097140E+03  0.25500000920E-02 0. -1.
        2   -1    0    0  501    0  0.00000000000E+00  0.00000000000E+00 -0.14432897107E+04  0.14432897107E+04  0.25500000920E-02 0.  1.
    10030    2    1    2    0    0  0.00000000000E+00  0.00000000000E+00 -0.13324187393E+04  0.15541606821E+04  0.80004732917E+03 0.  0.
        4    1    3    3  502    0  0.11172422174E+03 -0.66053643488E+02 -0.14012463401E+04  0.14072449339E+04  0.12699999809E+01 0.  1.
       -4    1    3    3    0  502 -0.11172422174E+03  0.66053643488E+02  0.68827600756E+02  0.14691574819E+03  0.12699999809E+01 0. -1.
</event>
<event>
 5   0  0.4087283E-04  0.7994284E+03  0.7818609E-02  0.9560845E-01
       -1   -1    0    0    0  501  0.00000000000E+00  0.00000000000E+00  0.16286731551E+03  0.16286731559E+03  0.50400001928E-02 0.  1.
        1   -1    0    0  501    0  0.00000000000E+00  0.00000000000E+00 -0.98099135935E+03  0.98099135937E+03  0.50400001928E-02 0. -1.
    10030    2    1    2    0    0  0.00000000000E+00  0.00000000000E+00 -0.81812404384E+03  0.11438586750E+04  0.79942836900E+03 0.  0.
        1    1    3    3  502    0  0.21825861565E+03 -0.33485578238E+03 -0.41262794871E+03  0.57447980154E+03  0.50400001928E-02 0. -1.
       -1    1    3    3    0  502 -0.21825861565E+03  0.33485578238E+03 -0.40549609514E+03  0.56937887342E+03  0.50400001928E-02 0.  1.
</event>
<event>
 5   0  0.6801147E-04  0.8000255E+03  0.7818609E-02  0.9559980E-01
       -2   -1    0    0    0  501  0.00000000000E+00  0.00000000000E+00  0.96787597586E+03  0.96787597586E+03  0.25500000920E-02 0.  1.
        2   -1    0    0  501    0  0.00000000000E+00  0.00000000000E+00 -0.16532096355E+03  0.16532096357E+03  0.25500000920E-02 0. -1.
    10030    2    1    2    0    0  0.00000000000E+00  0.00000000000E+00  0.80255501231E+03  0.11331969394E+04  0.80002547195E+03 0.  0.
        4    1    3    3  502    0  0.81477675696E+02  0.36402569113E+03  0.60583217134E+03  0.71146858551E+03  0.12699999809E+01 0.  1.
       -4    1    3    3    0  502 -0.81477675696E+02 -0.36402569113E+03  0.19672284097E+03  0.42172835392E+03  0.12699999809E+01 0. -1.
</event>
<event>
 5   0  0.6970013E-04  0.7998689E+03  0.7818609E-02  0.9560207E-01
        2   -1    0    0  501    0  0.00000000000E+00  0.00000000000E+00  0.88035767696E+03  0.88035767697E+03  0.25500000920E-02 0. -1.
       -2   -1    0    0    0  501  0.00000000000E+00  0.00000000000E+00 -0.18168473826E+03  0.18168473828E+03  0.25500000920E-02 0.  1.
    10030    2    1    2    0    0  0.00000000000E+00  0.00000000000E+00  0.69867293870E+03  0.10620424152E+04  0.79986887456E+03 0.  0.
        3    1    3    3  502    0  0.48412412471E+02  0.39661880893E+03  0.37223051015E+03  0.54608223205E+03  0.10100000352E+00 0. -1.
       -3    1    3    3    0  502 -0.48412412471E+02 -0.39661880893E+03  0.32644242856E+03  0.51596018319E+03  0.10100000352E+00 0.  1.
</event>
<event>
 5   0  0.6593118E-04  0.8000771E+03  0.7818609E-02  0.9559905E-01
       -2   -1    0    0    0  501  0.00000000000E+00  0.00000000000E+00  0.41972230946E+03  0.41972230946E+03  0.25500000920E-02 0. -1.
        2   -1    0    0  501    0  0.00000000000E+00  0.00000000000E+00 -0.38127793202E+03  0.38127793202E+03  0.25500000920E-02 0.  1.
    10030    2    1    2    0    0  0.00000000000E+00  0.00000000000E+00  0.38444377442E+02  0.80100024149E+03  0.80007713172E+03 0.  0.
        1    1    3    3  502    0  0.94001381936E+02 -0.28017784140E+03  0.28915332018E+03  0.41345559037E+03  0.50400001928E-02 0. -1.
       -1    1    3    3    0  502 -0.94001381936E+02  0.28017784140E+03 -0.25070894274E+03  0.38754465112E+03  0.50400001928E-02 0.  1.
</event>
<event>
 5   0  0.6801147E-04  0.7996692E+03  0.7818609E-02  0.9560496E-01
        2   -1    0    0  501    0  0.00000000000E+00  0.00000000000E+00  0.19743936881E+03  0.19743936883E+03  0.25500000920E-02 0. -1.
       -2   -1    0    0    0  501  0.00000000000E+00  0.00000000000E+00 -0.80970523032E+03  0.80970523033E+03  0.25500000920E-02 0.  1.
    10030    2    1    2    0    0  0.00000000000E+00  0.00000000000E+00 -0.61226586151E+03  0.10071445992E+04  0.79966915561E+03 0.  0.
        4    1    3    3  502    0 -0.21252899357E+03 -0.72075910624E+01 -0.73257504932E+03  0.76281605795E+03  0.12699999809E+01 0.  1.
       -4    1    3    3    0  502  0.21252899357E+03  0.72075910624E+01  0.12030918781E+03  0.24432854121E+03  0.12699999809E+01 0. -1.
</event>
<event>
 5   0  0.4087283E-04  0.8002365E+03  0.7818609E-02  0.9559675E-01
        1   -1    0    0  501    0  0.00000000000E+00  0.00000000000E+00  0.26657447087E+03  0.26657447092E+03  0.50400001928E-02 0.  1.
       -1   -1    0    0    0  501  0.00000000000E+00  0.00000000000E+00 -0.60056242520E+03  0.60056242522E+03  0.50400001928E-02 0. -1.
    10030    2    1    2    0    0  0.00000000000E+00  0.00000000000E+00 -0.33398795433E+03  0.86713689614E+03  0.80023649193E+03 0.  0.
        1    1    3    3  502    0 -0.13841566301E+03 -0.14609774128E+02 -0.57348478475E+03  0.59013315415E+03  0.50400001928E-02 0. -1.
       -1    1    3    3    0  502  0.13841566301E+03  0.14609774128E+02  0.23949683042E+03  0.27700374199E+03  0.50400001928E-02 0.  1.
</event>
<event>
 5   0  0.6970013E-04  0.7969501E+03  0.7818609E-02  0.9564442E-01
       -2   -1    0    0    0  501  0.00000000000E+00  0.00000000000E+00  0.60255745715E+02  0.60255745769E+02  0.25500000920E-02 0. -1.
        2   -1    0    0  501    0  0.00000000000E+00  0.00000000000E+00 -0.26351405350E+04  0.26351405350E+04  0.25500000920E-02 0.  1.
    10030    2    1    2    0    0  0.00000000000E+00  0.00000000000E+00 -0.25748847893E+04  0.26953962808E+04  0.79695008144E+03 0.  0.
        3    1    3    3  502    0 -0.10959081635E+03  0.36875686761E+03 -0.93611358216E+03  0.10120772813E+04  0.10100000352E+00 0. -1.
       -3    1    3    3    0  502  0.10959081635E+03 -0.36875686761E+03 -0.16387712072E+04  0.16833189995E+04  0.10100000352E+00 0.  1.
</event>
<event>
 5   0  0.4087283E-04  0.8001298E+03  0.7818609E-02  0.9559829E-01
        1   -1    0    0  501    0  0.00000000000E+00  0.00000000000E+00  0.21543893362E+03  0.21543893368E+03  0.50400001928E-02 0. -1.
       -1   -1    0    0    0  501  0.00000000000E+00  0.00000000000E+00 -0.74291090283E+03  0.74291090285E+03  0.50400001928E-02 0.  1.
    10030    2    1    2    0    0  0.00000000000E+00  0.00000000000E+00 -0.52747196921E+03  0.95834983653E+03  0.80012982126E+03 0.  0.
        1    1    3    3  502    0  0.57920341011E+02 -0.59188773666E+02 -0.73253240809E+03  0.73719862029E+03  0.50400001928E-02 0.  1.
       -1    1    3    3    0  502 -0.57920341011E+02  0.59188773666E+02  0.20506043887E+03  0.22115121624E+03  0.50400001928E-02 0. -1.
</event>
<event>
 5   0  0.6801147E-04  0.7999448E+03  0.7818609E-02  0.9560097E-01
       -2   -1    0    0    0  501  0.00000000000E+00  0.00000000000E+00  0.26918636730E+03  0.26918636731E+03  0.25500000920E-02 0.  1.
        2   -1    0    0  501    0  0.00000000000E+00  0.00000000000E+00 -0.59430170443E+03  0.59430170444E+03  0.25500000920E-02 0. -1.
    10030    2    1    2    0    0  0.00000000000E+00  0.00000000000E+00 -0.32511533713E+03  0.86348807175E+03  0.79994479036E+03 0.  0.
        4    1    3    3  502    0  0.29639124172E+03  0.21350699880E+03  0.13305042527E+02  0.36552926526E+03  0.12699999809E+01 0.  1.
       -4    1    3    3    0  502 -0.29639124172E+03 -0.21350699880E+03 -0.33842037966E+03  0.49795880650E+03  0.12699999809E+01 0. -1.
</event>
<event>
 5   0  0.7133039E-04  0.8046836E+03  0.7818609E-02  0.9553262E-01
       -2   -1    0    0    0  501  0.00000000000E+00  0.00000000000E+00  0.11349998321E+03  0.11349998324E+03  0.25500000920E-02 0.  1.
        2   -1    0    0  501    0  0.00000000000E+00  0.00000000000E+00 -0.14262461071E+04  0.14262461071E+04  0.25500000920E-02 0. -1.
    10030    2    1    2    0    0  0.00000000000E+00  0.00000000000E+00 -0.13127461239E+04  0.15397460903E+04  0.80468356324E+03 0.  0.
        2    1    3    3  502    0 -0.21998843921E+03  0.33258384426E+03 -0.55382797312E+03  0.68244585914E+03  0.25500000920E-02 0.  1.
       -2    1    3    3    0  502  0.21998843921E+03 -0.33258384426E+03 -0.75891815076E+03  0.85730023120E+03  0.25500000920E-02 0. -1.
</event>
<event>
 5   0  0.6593118E-04  0.8005703E+03  0.7818609E-02  0.9559192E-01
       -2   -1    0    0    0  501  0.00000000000E+00  0.00000000000E+00  0.82905366216E+02  0.82905366256E+02  0.25500000920E-02 0. -1.
        2   -1    0    0  501    0  0.00000000000E+00  0.00000000000E+00 -0.19326639650E+04  0.19326639650E+04  0.25500000920E-02 0.  1.
    10030    2    1    2    0    0  0.00000000000E+00  0.00000000000E+00 -0.18497585988E+04  0.20155693313E+04  0.80057033129E+03 0.  0.
        1    1    3    3  502    0  0.32285630525E+03 -0.15496002934E+03 -0.47465029567E+03  0.59459373335E+03  0.50400001928E-02 0. -1.
       -1    1    3    3    0  502 -0.32285630525E+03  0.15496002934E+03 -0.13751083032E+04  0.14209755980E+04  0.50400001928E-02 0.  1.
</event>
<event>
 5   0  0.6970013E-04  0.8003301E+03  0.7818609E-02  0.9559539E-01
        2   -1    0    0  501    0  0.00000000000E+00  0.00000000000E+00  0.13691543733E+04  0.13691543733E+04  0.25500000920E-02 0.  1.
       -2   -1    0    0    0  501  0.00000000000E+00  0.00000000000E+00 -0.11695690484E+03  0.11695690487E+03  0.25500000920E-02 0. -1.
    10030    2    1    2    0    0  0.00000000000E+00  0.00000000000E+00  0.12521974685E+04  0.14861112782E+04  0.80033007634E+03 0.  0.
        3    1    3    3  502    0 -0.85926865921E+02  0.27906999155E+03  0.11801892651E+03  0.31494755704E+03  0.10100000352E+00 0. -1.
       -3    1    3    3    0  502  0.85926865921E+02 -0.27906999155E+03  0.11341785420E+04  0.11711637211E+04  0.10100000352E+00 0.  1.
</event>
<event>
 5   0  0.2736375E-04  0.7999988E+03  0.7818609E-02  0.9560019E-01
        3   -1    0    0  501    0  0.00000000000E+00  0.00000000000E+00  0.31912483438E+03  0.31912485036E+03  0.10100000352E+00 0.  1.
       -3   -1    0    0    0  501  0.00000000000E+00  0.00000000000E+00 -0.50136961367E+03  0.50136962384E+03  0.10100000352E+00 0. -1.
    10030    2    1    2    0    0  0.00000000000E+00  0.00000000000E+00 -0.18224477929E+03  0.82049447420E+03  0.79999876414E+03 0.  0.
        4    1    3    3  502    0  0.42749679438E+01 -0.23445002847E+02 -0.50063878931E+03  0.50120729621E+03  0.12699999809E+01 0. -1.
       -4    1    3    3    0  502 -0.42749679438E+01  0.23445002847E+02  0.31839401003E+03  0.31928717799E+03  0.12699999809E+01 0.  1.
</event>
<event>
 5   0  0.7133039E-04  0.7998941E+03  0.7818609E-02  0.9560170E-01
       -2   -1    0    0    0  501  0.00000000000E+00  0.00000000000E+00  0.51533957213E+03  0.51533957213E+03  0.25500000920E-02 0.  1.
        2   -1    0    0  501    0  0.00000000000E+00  0.00000000000E+00 -0.31039274147E+03  0.31039274148E+03  0.25500000920E-02 0. -1.
    10030    2    1    2    0    0  0.00000000000E+00  0.00000000000E+00  0.20494683066E+03  0.82573231361E+03  0.79989414946E+03 0.  0.
        2    1    3    3  502    0  0.10168261959E+03 -0.30424269846E+03 -0.14410350663E+03  0.35166574374E+03  0.25500000920E-02 0. -1.
       -2    1    3    3    0  502 -0.10168261959E+03  0.30424269846E+03  0.34905033729E+03  0.47406656986E+03  0.25500000920E-02 0.  1.
</event>
<event>
 5   0  0.4104786E-04  0.8000234E+03  0.7818609E-02  0.9559983E-01
       -1   -1    0    0    0  501  0.00000000000E+00  0.00000000000E+00  0.17166703278E+03  0.17166703285E+03  0.50400001928E-02 0. -1.
        1   -1    0    0  501    0  0.00000000000E+00  0.00000000000E+00 -0.93209141099E+03  0.93209141100E+03  0.50400001928E-02 0.  1.
    10030    2    1    2    0    0  0.00000000000E+00  0.00000000000E+00 -0.76042437821E+03  0.11037584439E+04  0.80002341678E+03 0.  0.
        2    1    3    3  502    0 -0.17856551297E+03 -0.22906886019E+03 -0.75968371892E+03  0.81331269382E+03  0.25500000920E-02 0.  1.
       -2    1    3    3    0  502  0.17856551297E+03  0.22906886019E+03 -0.74065929004E+00  0.29044575003E+03  0.25500000920E-02 0. -1.
</event>
<event>
 5   0  0.4104786E-04  0.8003289E+03  0.7818609E-02  0.9559541E-01
       -1   -1    0    0    0  501  0.00000000000E+00  0.00000000000E+00  0.43971685037E+03  0.43971685040E+03  0.50400001928E-02 0.  1.
        1   -1    0    0  501    0  0.00000000000E+00  0.00000000000E+00 -0.36416979247E+03  0.36416979250E+03  0.50400001928E-02 0. -1.
    10030    2    1    2    0    0  0.00000000000E+00  0.00000000000E+00  0.75547057900E+02  0.80388664290E+03  0.80032891781E+03 0.  0.
        2    1    3    3  502    0  0.19244429006E+03 -0.19155259678E+02  0.38965907832E+03  0.43501255852E+03  0.25500000920E-02 0.  1.
       -2    1    3    3    0  502 -0.19244429006E+03  0.19155259678E+02 -0.31411202042E+03  0.36887408438E+03  0.25500000920E-02 0. -1.
</event>
<event>
 5   0  0.4169155E-04  0.7999811E+03  0.7818609E-02  0.9560044E-01
       -1   -1    0    0    0  501  0.00000000000E+00  0.00000000000E+00  0.53726018138E+03  0.53726018140E+03  0.50400001928E-02 0.  1.
        1   -1    0    0  501    0  0.00000000000E+00  0.00000000000E+00 -0.29779325451E+03  0.29779325455E+03  0.50400001928E-02 0. -1.
    10030    2    1    2    0    0  0.00000000000E+00  0.00000000000E+00  0.23946692687E+03  0.83505343595E+03  0.79998114467E+03 0.  0.
        4    1    3    3  502    0  0.23578070345E+02  0.30463935838E+03  0.38917758264E+03  0.49479477342E+03  0.12699999809E+01 0.  1.
       -4    1    3    3    0  502 -0.23578070345E+02 -0.30463935838E+03 -0.14971065577E+03  0.34025866253E+03  0.12699999809E+01 0. -1.
</event>
<event>
 5   0  0.4392552E-04  0.8003965E+03  0.7818609E-02  0.9559443E-01
       -1   -1    0    0    0  501  0.00000000000E+00  0.00000000000E+00  0.15333107434E+03  0.15333107443E+03  0.50400001928E-02 0. -1.
        1   -1    0    0  501    0  0.00000000000E+00  0.00000000000E+00 -0.10445283631E+04  0.10445283631E+04  0.50400001928E-02 0.  1.
    10030    2    1    2    0    0  0.00000000000E+00  0.00000000000E+00 -0.89119728876E+03  0.11978594375E+04  0.80039654210E+03 0.  0.
        5    1    3    3  502    0  0.23960275752E+03  0.31000300034E+03 -0.56741369654E+03  0.68955908713E+03  0.46999998093E+01 0.  1.
       -5    1    3    3    0  502 -0.23960275752E+03 -0.31000300034E+03 -0.32378359222E+03  0.50830035041E+03  0.46999998093E+01 0. -1.
</event>
<event>
 5   0  0.4392552E-04  0.7998991E+03  0.7818609E-02  0.9560163E-01
        1   -1    0    0  501    0  0.00000000000E+00  0.00000000000E+00  0.17752433171E+03  0.17752433178E+03  0.50400001928E-02 0. -1.
       -1   -1    0    0    0  501  0.00000000000E+00  0.00000000000E+00 -0.90105759467E+03  0.90105759468E+03  0.50400001928E-02 0.  1.
    10030    2    1    2    0    0  0.00000000000E+00  0.00000000000E+00 -0.72353326296E+03  0.10785819265E+04  0.79989911206E+03 0.  0.
        5    1    3    3  502    0  0.36495350283E+03  0.10359014131E+02 -0.14168772308E+03  0.39165784720E+03  0.46999998093E+01 0. -1.
       -5    1    3    3    0  502 -0.36495350283E+03 -0.10359014131E+02 -0.58184553987E+03  0.68692407926E+03  0.46999998093E+01 0.  1.
</event>
<event>
 5   0  0.6970013E-04  0.8003547E+03  0.7818609E-02  0.9559504E-01
        2   -1    0    0  501    0  0.00000000000E+00  0.00000000000E+00  0.82093268513E+03  0.82093268513E+03  0.25500000920E-02 0. -1.
       -2   -1    0    0    0  501  0.00000000000E+00  0.00000000000E+00 -0.19507312560E+03  0.19507312562E+03  0.25500000920E-02 0.  1.
    10030    2    1    2    0    0  0.00000000000E+00  0.00000000000E+00  0.62585955952E+03  0.10160058107E+04  0.80035468339E+03 0.  0.
        3    1    3    3  502    0  0.18023838206E+02 -0.16979106783E+03 -0.14651096264E+03  0.22498741705E+03  0.10100000352E+00 0.  1.
       -3    1    3    3    0  502 -0.18023838206E+02  0.16979106783E+03  0.77237052216E+03  0.79101839369E+03  0.10100000352E+00 0. -1.
</event>
<event>
 5   0  0.6970013E-04  0.8000097E+03  0.7818609E-02  0.9560003E-01
        2   -1    0    0  501    0  0.00000000000E+00  0.00000000000E+00  0.16614391875E+04  0.16614391875E+04  0.25500000920E-02 0. -1.
       -2   -1    0    0    0  501  0.00000000000E+00  0.00000000000E+00 -0.96304381863E+02  0.96304381897E+02  0.25500000920E-02 0.  1.
    10030    2    1    2    0    0  0.00000000000E+00  0.00000000000E+00  0.15651348056E+04  0.17577435694E+04  0.80000968490E+03 0.  0.
        3    1    3    3  502    0  0.45703735666E+02 -0.63611643078E+01 -0.90436852611E+02  0.10152896324E+03  0.10100000352E+00 0.  1.
       -3    1    3    3    0  502 -0.45703735666E+02  0.63611643078E+01  0.16555716582E+04  0.16562146061E+04  0.10100000352E+00 0. -1.
</event>
<event>
 5   0  0.4392552E-04  0.8003237E+03  0.7818609E-02  0.9559549E-01
       -1   -1    0    0    0  501  0.00000000000E+00  0.00000000000E+00  0.20711082961E+03  0.20711082967E+03  0.50400001928E-02 0.  1.
        1   -1    0    0  501    0  0.00000000000E+00  0.00000000000E+00 -0.77315862426E+03  0.77315862428E+03  0.50400001928E-02 0. -1.
    10030    2    1    2    0    0  0.00000000000E+00  0.00000000000E+00 -0.56604779465E+03  0.98026945395E+03  0.80032374482E+03 0.  0.
        5    1    3    3  502    0  0.19536080843E+03  0.34694561313E+03 -0.23448663714E+03  0.46210732188E+03  0.46999998093E+01 0. -1.
       -5    1    3    3    0  502 -0.19536080843E+03 -0.34694561313E+03 -0.33156115751E+03  0.51816213207E+03  0.46999998093E+01 0.  1.
</event>
<event>
 5   0  0.6593118E-04  0.8000685E+03  0.7818609E-02  0.9559918E-01
       -2   -1    0    0    0  501  0.00000000000E+00  0.00000000000E+00  0.99167383127E+02  0.99167383159E+02  0.25500000920E-02 0.  1.
        2   -1    0    0  501    0  0.00000000000E+00  0.00000000000E+00 -0.16137102258E+04  0.16137102258E+04  0.25500000920E-02 0. -1.
    10030    2    1    2    0    0  0.00000000000E+00  0.00000000000E+00 -0.15145428427E+04  0.17128776090E+04  0.80006854769E+03 0.  0.
        1    1    3    3  502    0  0.38971287841E+03  0.36916993501E+02 -0.58087744533E+03  0.70046955574E+03  0.50400001928E-02 0. -1.
       -1    1    3    3    0  502 -0.38971287841E+03 -0.36916993501E+02 -0.93366539737E+03  0.10124080532E+04  0.50400001928E-02 0.  1.
</event>
<event>
 5   0  0.4104786E-04  0.8003692E+03  0.7818609E-02  0.9559483E-01
       -1   -1    0    0    0  501  0.00000000000E+00  0.00000000000E+00  0.68078605844E+03  0.68078605846E+03  0.50400001928E-02 0.  1.
        1   -1    0    0  501    0  0.00000000000E+00  0.00000000000E+00 -0.23523943457E+03  0.23523943463E+03  0.50400001928E-02 0. -1.
    10030    2    1    2    0    0  0.00000000000E+00  0.00000000000E+00  0.44554662387E+03  0.91602549309E+03  0.80036923351E+03 0.  0.
        2    1    3    3  502    0  0.33728990447E+03 -0.85326592692E+02  0.44909183768E+03  0.56809205746E+03  0.25500000920E-02 0.  1.
       -2    1    3    3    0  502 -0.33728990447E+03  0.85326592692E+02 -0.35452138083E+01  0.34793343563E+03  0.25500000920E-02 0. -1.
</event>
<event>
 5   0  0.6970013E-04  0.8009347E+03  0.7818609E-02  0.9558665E-01
        2   -1    0    0  501    0  0.00000000000E+00  0.00000000000E+00  0.71875480432E+03  0.71875480433E+03  0.25500000920E-02 0.  1.
       -2   -1    0    0    0  501  0.00000000000E+00  0.00000000000E+00 -0.22312766153E+03  0.22312766155E+03  0.25500000920E-02 0. -1.
    10030    2    1    2    0    0  0.00000000000E+00  0.00000000000E+00  0.49562714279E+03  0.94188246587E+03  0.80093465080E+03 0.  0.
        3    1    3    3  502    0 -0.45486071199E+02 -0.37230835466E+03  0.82792328075E+02  0.38410554984E+03  0.10100000352E+00 0. -1.
       -3    1    3    3    0  502  0.45486071199E+02  0.37230835466E+03  0.41283481471E+03  0.55777691604E+03  0.10100000352E+00 0.  1.
</event>
<event>
 5   0  0.6801147E-04  0.8015379E+03  0.7818609E-02  0.9557794E-01
        2   -1    0    0  501    0  0.00000000000E+00  0.00000000000E+00  0.43813369781E+03  0.43813369781E+03  0.25500000920E-02 0.  1.
       -2   -1    0    0    0  501  0.00000000000E+00  0.00000000000E+00 -0.36659070271E+03  0.36659070272E+03  0.25500000920E-02 0. -1.
    10030    2    1    2    0    0  0.00000000000E+00  0.00000000000E+00  0.71542995098E+02  0.80472440053E+03  0.80153787225E+03 0.  0.
        4    1    3    3  502    0  0.69265618859E+02 -0.32800299295E+03 -0.18471587658E+03  0.38276005186E+03  0.12699999809E+01 0.  1.
       -4    1    3    3    0  502 -0.69265618859E+02  0.32800299295E+03  0.25625887167E+03  0.42196434867E+03  0.12699999809E+01 0. -1.
</event>
<event>
 5   0  0.6672462E-04  0.7990542E+03  0.7818609E-02  0.9561387E-01
       -2   -1    0    0    0  501  0.00000000000E+00  0.00000000000E+00  0.20330774589E+03  0.20330774591E+03  0.25500000920E-02 0. -1.
        2   -1    0    0  501    0  0.00000000000E+00  0.00000000000E+00 -0.78512455671E+03  0.78512455671E+03  0.25500000920E-02 0.  1.
    10030    2    1    2    0    0  0.00000000000E+00  0.00000000000E+00 -0.58181681081E+03  0.98843230262E+03  0.79905420061E+03 0.  0.
        5    1    3    3  502    0 -0.31427855271E+03  0.20725928102E+03 -0.45628044231E+03  0.59155840819E+03  0.46999998093E+01 0.  1.
       -5    1    3    3    0  502  0.31427855271E+03 -0.20725928102E+03 -0.12553636850E+03  0.39687389443E+03  0.46999998093E+01 0. -1.
</event>
<event>
 5   0  0.4087283E-04  0.7997016E+03  0.7818609E-02  0.9560449E-01
       -1   -1    0    0    0  501  0.00000000000E+00  0.00000000000E+00  0.16151052357E+03  0.16151052365E+03  0.50400001928E-02 0.  1.
        1   -1    0    0  501    0  0.00000000000E+00  0.00000000000E+00 -0.98990854449E+03  0.98990854450E+03  0.50400001928E-02 0. -1.
    10030    2    1    2    0    0  0.00000000000E+00  0.00000000000E+00 -0.82839802092E+03  0.11514190682E+04  0.79970156273E+03 0.  0.
        1    1    3    3  502    0 -0.81662998222E+02 -0.27547504533E+03 -0.81457339452E+03  0.86376221320E+03  0.50400001928E-02 0. -1.
       -1    1    3    3    0  502  0.81662998222E+02  0.27547504533E+03 -0.13824626404E+02  0.28765685495E+03  0.50400001928E-02 0.  1.
</event>
<event>
 5   0  0.2736375E-04  0.8001718E+03  0.7818609E-02  0.9559768E-01
       -3   -1    0    0    0  501  0.00000000000E+00  0.00000000000E+00  0.43841243504E+03  0.43841244667E+03  0.10100000352E+00 0.  1.
        3   -1    0    0  501    0  0.00000000000E+00  0.00000000000E+00 -0.36510989889E+03  0.36510991286E+03  0.10100000352E+00 0. -1.
    10030    2    1    2    0    0  0.00000000000E+00  0.00000000000E+00  0.73302536148E+02  0.80352235954E+03  0.80017180685E+03 0.  0.
        5    1    3    3  502    0  0.31952269516E+03 -0.12598605376E+03 -0.16934032617E+03  0.38296928667E+03  0.46999998093E+01 0. -1.
       -5    1    3    3    0  502 -0.31952269516E+03  0.12598605376E+03  0.24264286232E+03  0.42055307287E+03  0.46999998093E+01 0.  1.
</event>
<event>
 5   0  0.4087283E-04  0.8006038E+03  0.7818609E-02  0.9559144E-01
        1   -1    0    0  501    0  0.00000000000E+00  0.00000000000E+00  0.85517483857E+03  0.85517483858E+03  0.50400001928E-02 0. -1.
       -1   -1    0    0    0  501  0.00000000000E+00  0.00000000000E+00 -0.18737876749E+03  0.18737876756E+03  0.50400001928E-02 0.  1.
    10030    2    1    2    0    0  0.00000000000E+00  0.00000000000E+00  0.66779607108E+03  0.10425536061E+04  0.80060379035E+03 0.  0.
        1    1    3    3  502    0  0.11974311871E+03  0.14024996866E+03 -0.12876781355E+03  0.22492135964E+03  0.50400001928E-02 0.  1.
       -1    1    3    3    0  502 -0.11974311871E+03 -0.14024996866E+03  0.79656388463E+03  0.81763224650E+03  0.50400001928E-02 0. -1.
</event>
<event>
 5   0  0.4169155E-04  0.8001447E+03  0.7818609E-02  0.9559808E-01
        1   -1    0    0  501    0  0.00000000000E+00  0.00000000000E+00  0.54066932148E+03  0.54066932150E+03  0.50400001928E-02 0. -1.
       -1   -1    0    0    0  501  0.00000000000E+00  0.00000000000E+00 -0.29603657581E+03  0.29603657585E+03  0.50400001928E-02 0.  1.
    10030    2    1    2    0    0  0.00000000000E+00  0.00000000000E+00  0.24463274567E+03  0.83670589736E+03  0.80014472342E+03 0.  0.
        4    1    3    3  502    0  0.75377364085E+02 -0.39066334395E+03  0.16614434748E+03  0.43116719776E+03  0.12699999809E+01 0. -1.
       -4    1    3    3    0  502 -0.75377364085E+02  0.39066334395E+03  0.78488398190E+02  0.40553869960E+03  0.12699999809E+01 0.  1.
</event>
<event>
 5   0  0.4086111E-04  0.7999734E+03  0.7818609E-02  0.9560056E-01
        1   -1    0    0  501    0  0.00000000000E+00  0.00000000000E+00  0.23454054840E+03  0.23454054846E+03  0.50400001928E-02 0. -1.
       -1   -1    0    0    0  501  0.00000000000E+00  0.00000000000E+00 -0.68213952362E+03  0.68213952364E+03  0.50400001928E-02 0.  1.
    10030    2    1    2    0    0  0.00000000000E+00  0.00000000000E+00 -0.44759897522E+03  0.91668007210E+03  0.79997344454E+03 0.  0.
        3    1    3    3  502    0 -0.10541911824E+03 -0.37790938600E+03 -0.13459172323E+03  0.41478143242E+03  0.10100000352E+00 0. -1.
       -3    1    3    3    0  502  0.10541911824E+03  0.37790938600E+03 -0.31300725199E+03  0.50189863968E+03  0.10100000352E+00 0.  1.
</event>
<event>
 5   0  0.6970013E-04  0.8001694E+03  0.7818609E-02  0.9559772E-01
        2   -1    0    0  501    0  0.00000000000E+00  0.00000000000E+00  0.61446931799E+03  0.61446931799E+03  0.25500000920E-02 0.  1.
       -2   -1    0    0    0  501  0.00000000000E+00  0.00000000000E+00 -0.26049754799E+03  0.26049754800E+03  0.25500000920E-02 0. -1.
    10030    2    1    2    0    0  0.00000000000E+00  0.00000000000E+00  0.35397177000E+03  0.87496686600E+03  0.80016935872E+03 0.  0.
        3    1    3    3  502    0 -0.23224098624E+03  0.19523357182E+03  0.46216277686E+03  0.55285302366E+03  0.10100000352E+00 0.  1.
       -3    1    3    3    0  502  0.23224098624E+03 -0.19523357182E+03 -0.10819100686E+03  0.32211384234E+03  0.10100000352E+00 0. -1.
</event>
<event>
 5   0  0.4104786E-04  0.7999509E+03  0.7818609E-02  0.9560088E-01
       -1   -1    0    0    0  501  0.00000000000E+00  0.00000000000E+00  0.21209457807E+03  0.21209457813E+03  0.50400001928E-02 0.  1.
        1   -1    0    0  501    0  0.00000000000E+00  0.00000000000E+00 -0.75428783146E+03  0.75428783148E+03  0.50400001928E-02 0. -1.
    10030    2    1    2    0    0  0.00000000000E+00  0.00000000000E+00 -0.54219325339E+03  0.96638240961E+03  0.79995089698E+03 0.  0.
        2    1    3    3  502    0  0.37418084529E+03  0.14126510305E+03 -0.26670339034E+03  0.48072635953E+03  0.25500000920E-02 0. -1.
       -2    1    3    3    0  502 -0.37418084529E+03 -0.14126510305E+03 -0.27548986305E+03  0.48565605007E+03  0.25500000920E-02 0.  1.
</event>
<event>
 5   0  0.4169155E-04  0.8000400E+03  0.7818609E-02  0.9559959E-01
       -1   -1    0    0    0  501  0.00000000000E+00  0.00000000000E+00  0.10538576537E+03  0.10538576549E+03  0.50400001928E-02 0.  1.
        1   -1    0    0  501    0  0.00000000000E+00  0.00000000000E+00 -0.15183834188E+04  0.15183834188E+04  0.50400001928E-02 0. -1.
    10030    2    1    2    0    0  0.00000000000E+00  0.00000000000E+00 -0.14129976534E+04  0.16237691843E+04  0.80003999606E+03 0.  0.
        4    1    3    3  502    0 -0.20449541681E+03 -0.26628459685E+02 -0.10822244867E+02  0.20650952579E+03  0.12699999809E+01 0.  1.
       -4    1    3    3    0  502  0.20449541681E+03  0.26628459685E+02 -0.14021754086E+04  0.14172596585E+04  0.12699999809E+01 0. -1.
</event>
<event>
 5   0  0.4086111E-04  0.7997104E+03  0.7818609E-02  0.9560436E-01
        1   -1    0    0  501    0  0.00000000000E+00  0.00000000000E+00  0.36677814987E+03  0.36677814991E+03  0.50400001928E-02 0.  1.
       -1   -1    0    0    0  501  0.00000000000E+00  0.00000000000E+00 -0.43591523921E+03  0.43591523924E+03  0.50400001928E-02 0. -1.
    10030    2    1    2    0    0  0.00000000000E+00  0.00000000000E+00 -0.69137089338E+02  0.80269338914E+03  0.79971040999E+03 0.  0.
        3    1    3    3  502    0 -0.25085936151E+02  0.20948143576E+03  0.30636355866E+03  0.37198174202E+03  0.10100000352E+00 0.  1.
       -3    1    3    3    0  502  0.25085936151E+02 -0.20948143576E+03 -0.37550064800E+03  0.43071164712E+03  0.10100000352E+00 0. -1.
</event>
<event>
 5   0  0.4169155E-04  0.7996186E+03  0.7818609E-02  0.9560569E-01
       -1   -1    0    0    0  501  0.00000000000E+00  0.00000000000E+00  0.14378633246E+03  0.14378633255E+03  0.50400001928E-02 0.  1.
        1   -1    0    0  501    0  0.00000000000E+00  0.00000000000E+00 -0.11117015311E+04  0.11117015311E+04  0.50400001928E-02 0. -1.
    10030    2    1    2    0    0  0.00000000000E+00  0.00000000000E+00 -0.96791519865E+03  0.12554878637E+04  0.79961862413E+03 0.  0.
        4    1    3    3  502    0 -0.23462904579E+03  0.21921991755E+03 -0.10996283165E+03  0.33941360995E+03  0.12699999809E+01 0.  1.
       -4    1    3    3    0  502  0.23462904579E+03 -0.21921991755E+03 -0.85795236700E+03  0.91607425372E+03  0.12699999809E+01 0. -1.
</event>
<event>
 5   0  0.7133039E-04  0.8001006E+03  0.7818609E-02  0.9559871E-01
       -2   -1    0    0    0  501  0.00000000000E+00  0.00000000000E+00  0.25656673010E+03  0.25656673011E+03  0.25500000920E-02 0. -1.
        2   -1    0    0  501    0  0.00000000000E+00  0.00000000000E+00 -0.62377629850E+03  0.62377629851E+03  0.25500000920E-02 0.  1.
    10030    2    1    2    0    0  0.00000000000E+00  0.00000000000E+00 -0.36720956840E+03  0.88034302862E+03  0.80010060675E+03 0.  0.
        2    1    3    3  502    0  0.23038105094E+03  0.28819783317E+03 -0.13479726353E+02  0.36920877929E+03  0.25500000920E-02 0.  1.
       -2    1    3    3    0  502 -0.23038105094E+03 -0.28819783317E+03 -0.35372984205E+03  0.51113424933E+03  0.25500000920E-02 0. -1.
</event>
<event>
 5   0  0.6672462E-04  0.7999512E+03  0.7818609E-02  0.9560088E-01
        2   -1    0    0  501    0  0.00000000000E+00  0.00000000000E+00  0.74751008338E+03  0.74751008339E+03  0.25500000920E-02 0. -1.
       -2   -1    0    0    0  501  0.00000000000E+00  0.00000000000E+00 -0.21401783480E+03  0.21401783482E+03  0.25500000920E-02 0.  1.
    10030    2    1    2    0    0  0.00000000000E+00  0.00000000000E+00  0.53349224858E+03  0.96152791820E+03  0.79995122238E+03 0.  0.
        5    1    3    3  502    0  0.10395886738E+02 -0.26244927666E+03 -0.95788228890E+02  0.27961611554E+03  0.46999998093E+01 0.  1.
       -5    1    3    3    0  502 -0.10395886738E+02  0.26244927666E+03  0.62928047747E+03  0.68191180266E+03  0.46999998093E+01 0. -1.
</event>
<event>
 5   0  0.6970013E-04  0.7990231E+03  0.7818609E-02  0.9561432E-01
       -2   -1    0    0    0  501  0.00000000000E+00  0.00000000000E+00  0.65359779659E+03  0.65359779660E+03  0.25500000920E-02 0.  1.
        2   -1    0    0  501    0  0.00000000000E+00  0.00000000000E+00 -0.24420135643E+03  0.24420135645E+03  0.25500000920E-02 0. -1.
    10030    2    1    2    0    0  0.00000000000E+00  0.00000000000E+00  0.40939644016E+03  0.89779915304E+03  0.79902307475E+03 0.  0.
        3    1    3    3  502    0 -0.38770105849E+03 -0.13492792594E+02  0.31197486067E+03  0.49781772778E+03  0.10100000352E+00 0.  1.
       -3    1    3    3    0  502  0.38770105849E+03  0.13492792594E+02  0.97421579488E+02  0.39998142526E+03  0.10100000352E+00 0. -1.
</event>
<event>
 5   0  0.6672462E-04  0.7999352E+03  0.7818609E-02  0.9560111E-01
        2   -1    0    0  501    0  0.00000000000E+00  0.00000000000E+00  0.18741387788E+04  0.18741387789E+04  0.25500000920E-02 0. -1.
       -2   -1    0    0    0  501  0.00000000000E+00  0.00000000000E+00 -0.85358722379E+02  0.85358722417E+02  0.25500000920E-02 0.  1.
    10030    2    1    2    0    0  0.00000000000E+00  0.00000000000E+00  0.17887800565E+04  0.19594975013E+04  0.79993522678E+03 0.  0.
        5    1    3    3  502    0 -0.86598563913E+01 -0.15542735964E+03 -0.80342452846E+01  0.15594645341E+03  0.46999998093E+01 0.  1.
       -5    1    3    3    0  502  0.86598563913E+01  0.15542735964E+03  0.17968143018E+04  0.18035510479E+04  0.46999998093E+01 0. -1.
</event>
<event>
 5   0  0.4169155E-04  0.8002598E+03  0.7818609E-02  0.9559641E-01
       -1   -1    0    0    0  501  0.00000000000E+00  0.00000000000E+00  0.40878711822E+03  0.40878711825E+03  0.50400001928E-02 0.  1.
        1   -1    0    0  501    0  0.00000000000E+00  0.00000000000E+00 -0.39165601171E+03  0.39165601174E+03  0.50400001928E-02 0. -1.
    10030    2    1    2    0    0  0.00000000000E+00  0.00000000000E+00  0.17131106513E+02  0.80044312999E+03  0.80025978878E+03 0.  0.
        4    1    3    3  502    0  0.18610781515E+03  0.39433510091E+02 -0.34352531860E+03  0.39268610619E+03  0.12699999809E+01 0. -1.
       -4    1    3    3    0  502 -0.18610781515E+03 -0.39433510091E+02  0.36065642511E+03  0.40775702379E+03  0.12699999809E+01 0.  1.
</event>
<event>
 5   0  0.4086111E-04  0.7999892E+03  0.7818609E-02  0.9560033E-01
       -1   -1    0    0    0  501  0.00000000000E+00  0.00000000000E+00  0.46525752435E+03  0.46525752438E+03  0.50400001928E-02 0.  1.
        1   -1    0    0  501    0  0.00000000000E+00  0.00000000000E+00 -0.34388629679E+03  0.34388629683E+03  0.50400001928E-02 0. -1.
    10030    2    1    2    0    0  0.00000000000E+00  0.00000000000E+00  0.12137122756E+03  0.80914382121E+03  0.79998921775E+03 0.  0.
        3    1    3    3  502    0 -0.21262418736E+03  0.26031366499E+03 -0.15864473542E+03  0.37167245191E+03  0.10100000352E+00 0. -1.
       -3    1    3    3    0  502  0.21262418736E+03 -0.26031366499E+03  0.28001596298E+03  0.43747136930E+03  0.10100000352E+00 0.  1.
</event>
<event>
 5   0  0.4086111E-04  0.8011302E+03  0.7818609E-02  0.9558383E-01
        1   -1    0    0  501    0  0.00000000000E+00  0.00000000000E+00  0.46109463355E+03  0.46109463358E+03  0.50400001928E-02 0. -1.
       -1   -1    0    0    0  501  0.00000000000E+00  0.00000000000E+00 -0.34798150546E+03  0.34798150550E+03  0.50400001928E-02 0.  1.
    10030    2    1    2    0    0  0.00000000000E+00  0.00000000000E+00  0.11311312809E+03  0.80907613908E+03  0.80113021356E+03 0.  0.
        3    1    3    3  502    0  0.94623386690E+02  0.29809611004E+03  0.30931377486E+03  0.43987486589E+03  0.10100000352E+00 0. -1.
       -3    1    3    3    0  502 -0.94623386690E+02 -0.29809611004E+03 -0.19620064677E+03  0.36920127318E+03  0.10100000352E+00 0.  1.
</event>
<event>
 5   0  0.4392552E-04  0.8002034E+03  0.7818609E-02  0.9559723E-01
        1   -1    0    0  501    0  0.00000000000E+00  0.00000000000E+00  0.12220624823E+04  0.12220624823E+04  0.50400001928E-02 0. -1.
       -1   -1    0    0    0  501  0.00000000000E+00  0.00000000000E+00 -0.13099277054E+03  0.13099277063E+03  0.50400001928E-02 0.  1.
    10030    2    1    2    0    0  0.00000000000E+00  0.00000000000E+00  0.10910697118E+04  0.13530552530E+04  0.80020335015E+03 0.  0.
        5    1    3    3  502    0 -0.23907032056E+03 -0.94829329415E+02  0.10637090789E+04  0.10943702822E+04  0.46999998093E+01 0. -1.
       -5    1    3    3    0  502  0.23907032056E+03  0.94829329415E+02  0.27360632859E+02  0.25868497080E+03  0.46999998093E+01 0.  1.
</event>
<event>
 5   0  0.7133039E-04  0.7996967E+03  0.7818609E-02  0.9560456E-01
       -2   -1    0    0    0  501  0.00000000000E+00  0.00000000000E+00  0.17850367550E+03  0.17850367552E+03  0.25500000920E-02 0.  1.
        2   -1    0    0  501    0  0.00000000000E+00  0.00000000000E+00 -0.89566049504E+03  0.89566049504E+03  0.25500000920E-02 0. -1.
    10030    2    1    2    0    0  0.00000000000E+00  0.00000000000E+00 -0.71715681954E+03  0.10741641706E+04  0.79969666843E+03 0.  0.
        2    1    3    3  502    0 -0.11378989023E+03  0.26078406081E+03  0.18772181903E+02  0.28514708540E+03  0.25500000920E-02 0.  1.
       -2    1    3    3    0  502  0.11378989023E+03 -0.26078406081E+03 -0.73592900144E+03  0.78901708515E+03  0.25500000920E-02 0. -1.
</event>
<event>
 5   0  0.6970013E-04  0.7974931E+03  0.7818609E-02  0.9563653E-01
        2   -1    0    0  501    0  0.00000000000E+00  0.00000000000E+00  0.45239133136E+03  0.45239133137E+03  0.25500000920E-02 0.  1.
       -2   -1    0    0    0  501  0.00000000000E+00  0.00000000000E+00 -0.35146300819E+03  0.35146300820E+03  0.25500000920E-02 0. -1.
    10030    2    1    2    0    0  0.00000000000E+00  0.00000000000E+00  0.10092832317E+03  0.80385433957E+03  0.79749311773E+03 0.  0.
        3    1    3    3  502    0 -0.48601373476E+01  0.26595280161E+03 -0.24896475173E+03  0.36433222672E+03  0.10100000352E+00 0. -1.
       -3    1    3    3    0  502  0.48601373476E+01 -0.26595280161E+03  0.34989307490E+03  0.43952211285E+03  0.10100000352E+00 0.  1.
</event>
<event>
 5   0  0.6970013E-04  0.7996763E+03  0.7818609E-02  0.9560486E-01
        2   -1    0    0  501    0  0.00000000000E+00  0.00000000000E+00  0.79428757120E+03  0.79428757121E+03  0.25500000920E-02 0.  1.
       -2   -1    0    0    0  501  0.00000000000E+00  0.00000000000E+00 -0.20127540345E+03  0.20127540347E+03  0.25500000920E-02 0. -1.
    10030    2    1    2    0    0  0.00000000000E+00  0.00000000000E+00  0.59301216775E+03  0.99556297468E+03  0.79967631292E+03 0.  0.
        3    1    3    3  502    0 -0.16500982032E+03 -0.32445829478E+03  0.90545134854E+02  0.37509979672E+03  0.10100000352E+00 0. -1.
       -3    1    3    3    0  502  0.16500982032E+03  0.32445829478E+03  0.50246703289E+03  0.62046317796E+03  0.10100000352E+00 0.  1.
</event>
<event>
 5   0  0.4104786E-04  0.7998672E+03  0.7818609E-02  0.9560209E-01
        1   -1    0    0  501    0  0.00000000000E+00  0.00000000000E+00  0.17009675029E+03  0.17009675036E+03  0.50400001928E-02 0.  1.
       -1   -1    0    0    0  501  0.00000000000E+00  0.00000000000E+00 -0.94032896360E+03  0.94032896362E+03  0.50400001928E-02 0. -1.
    10030    2    1    2    0    0  0.00000000000E+00  0.00000000000E+00 -0.77023221331E+03  0.11104257140E+04  0.79986724139E+03 0.  0.
        2    1    3    3  502    0  0.50062306219E+02  0.24808777365E+03  0.44781800568E+02  0.25701981948E+03  0.25500000920E-02 0.  1.
       -2    1    3    3    0  502 -0.50062306219E+02 -0.24808777365E+03 -0.81501401388E+03  0.85340589450E+03  0.25500000920E-02 0. -1.
</event>
<event>
 5   0  0.6801147E-04  0.7999228E+03  0.7818609E-02  0.9560129E-01
        2   -1    0    0  501    0  0.00000000000E+00  0.00000000000E+00  0.86127014646E+03  0.86127014647E+03  0.25500000920E-02 0. -1.
       -2   -1    0    0    0  501  0.00000000000E+00  0.00000000000E+00 -0.18573626842E+03  0.18573626843E+03  0.25500000920E-02 0.  1.
    10030    2    1    2    0    0  0.00000000000E+00  0.00000000000E+00  0.67553387805E+03  0.10470064149E+04  0.79992275405E+03 0.  0.
        4    1    3    3  502    0 -0.85153949606E+02  0.18313813947E+03  0.78961976280E+03  0.81504095355E+03  0.12699999809E+01 0. -1.
       -4    1    3    3    0  502  0.85153949606E+02 -0.18313813947E+03 -0.11408588475E+03  0.23196546135E+03  0.12699999809E+01 0.  1.
</event>
<event>
 5   0  0.6970013E-04  0.8011284E+03  0.7818609E-02  0.9558385E-01
        2   -1    0    0  501    0  0.00000000000E+00  0.00000000000E+00  0.87712406037E+03  0.87712406037E+03  0.25500000920E-02 0.  1.
       -2   -1    0    0    0  501  0.00000000000E+00  0.00000000000E+00 -0.18292927860E+03  0.18292927862E+03  0.25500000920E-02 0. -1.
    10030    2    1    2    0    0  0.00000000000E+00  0.00000000000E+00  0.69419478176E+03  0.10600533390E+04  0.80112838327E+03 0.  0.
        3    1    3    3  502    0  0.95637091020E+02  0.38828507119E+03  0.37784327466E+03  0.55016115829E+03  0.10100000352E+00 0. -1.
       -3    1    3    3    0  502 -0.95637091020E+02 -0.38828507119E+03  0.31635150711E+03  0.50989218070E+03  0.10100000352E+00 0.  1.
</event>
<event>
 5   0  0.6970013E-04  0.8001135E+03  0.7818609E-02  0.9559853E-01
       -2   -1    0    0    0  501  0.00000000000E+00  0.00000000000E+00  0.58252393579E+03  0.58252393580E+03  0.25500000920E-02 0.  1.
        2   -1    0    0  501    0  0.00000000000E+00  0.00000000000E+00 -0.27474478690E+03  0.27474478691E+03  0.25500000920E-02 0. -1.
    10030    2    1    2    0    0  0.00000000000E+00  0.00000000000E+00  0.30777914889E+03  0.85726872271E+03  0.80011352847E+03 0.  0.
        3    1    3    3  502    0  0.10312953955E+03 -0.20709581122E+03  0.50357943401E+03  0.55418104759E+03  0.10100000352E+00 0.  1.
       -3    1    3    3    0  502 -0.10312953955E+03  0.20709581122E+03 -0.19580028512E+03  0.30308767511E+03  0.10100000352E+00 0. -1.
</event>
<event>
 5   0  0.2736375E-04  0.8001007E+03  0.7818609E-02  0.9559871E-01
        3   -1    0    0  501    0  0.00000000000E+00  0.00000000000E+00  0.31310576369E+03  0.31310577998E+03  0.10100000352E+00 0. -1.
       -3   -1    0    0    0  501  0.00000000000E+00  0.00000000000E+00 -0.51113811896E+03  0.51113812894E+03  0.10100000352E+00 0.  1.
    10030    2    1    2    0    0  0.00000000000E+00  0.00000000000E+00 -0.19803235527E+03  0.82424390892E+03  0.80010074845E+03 0.  0.
        1    1    3    3  502    0 -0.36670707983E+03 -0.39059542967E+01  0.65653906125E+02  0.37255841729E+03  0.50400001928E-02 0. -1.
       -1    1    3    3    0  502  0.36670707983E+03  0.39059542967E+01 -0.26368626139E+03  0.45168549163E+03  0.50400001928E-02 0.  1.
</event>
<event>
 5   0  0.6970013E-04  0.7965407E+03  0.7818609E-02  0.9565038E-01
       -2   -1    0    0    0  501  0.00000000000E+00  0.00000000000E+00  0.39358212095E+03  0.39358212096E+03  0.25500000920E-02 0. -1.
        2   -1    0    0  501    0  0.00000000000E+00  0.00000000000E+00 -0.40301445911E+03  0.40301445912E+03  0.25500000920E-02 0.  1.
    10030    2    1    2    0    0  0.00000000000E+00  0.00000000000E+00 -0.94323381616E+01  0.79659658008E+03  0.79654073492E+03 0.  0.
        3    1    3    3  502    0  0.23940139891E+03  0.29902647451E+03  0.10433006114E+03  0.39700709580E+03  0.10100000352E+00 0. -1.
       -3    1    3    3    0  502 -0.23940139891E+03 -0.29902647451E+03 -0.11376239930E+03  0.39958948428E+03  0.10100000352E+00 0.  1.
</event>
<event>
 5   0  0.6672462E-04  0.8002580E+03  0.7818609E-02  0.9559644E-01
        2   -1    0    0  501    0  0.00000000000E+00  0.00000000000E+00  0.31079020265E+03  0.31079020266E+03  0.25500000920E-02 0.  1.
       -2   -1    0    0    0  501  0.00000000000E+00  0.00000000000E+00 -0.51514885943E+03  0.51514885944E+03  0.25500000920E-02 0. -1.
    10030    2    1    2    0    0  0.00000000000E+00  0.00000000000E+00 -0.20435865678E+03  0.82593906210E+03  0.80025800446E+03 0.  0.
        5    1    3    3  502    0 -0.36097851566E+03  0.17112891355E+03 -0.79320561207E+02  0.40731368164E+03  0.46999998093E+01 0.  1.
       -5    1    3    3    0  502  0.36097851566E+03 -0.17112891355E+03 -0.12503809557E+03  0.41862538046E+03  0.46999998093E+01 0. -1.
</event>
<event>
 5   0  0.4086111E-04  0.7999656E+03  0.7818609E-02  0.9560067E-01
        1   -1    0    0  501    0  0.00000000000E+00  0.00000000000E+00  0.10350032451E+04  0.10350032451E+04  0.50400001928E-02 0.  1.
       -1   -1    0    0    0  501  0.00000000000E+00  0.00000000000E+00 -0.15457557565E+03  0.15457557573E+03  0.50400001928E-02 0. -1.
    10030    2    1    2    0    0  0.00000000000E+00  0.00000000000E+00  0.88042766941E+03  0.11895788208E+04  0.79996555540E+03 0.  0.
        3    1    3    3  502    0  0.18502472707E+03 -0.30095354687E+03  0.16130399467E+03  0.38836345850E+03  0.10100000352E+00 0. -1.
       -3    1    3    3    0  502 -0.18502472707E+03  0.30095354687E+03  0.71912367475E+03  0.80121536230E+03  0.10100000352E+00 0.  1.
</event>
<event>
 5   0  0.2736375E-04  0.8003781E+03  0.7818609E-02  0.9559470E-01
       -3   -1    0    0    0  501  0.00000000000E+00  0.00000000000E+00  0.37944095771E+03  0.37944097115E+03  0.10100000352E+00 0. -1.
        3   -1    0    0  501    0  0.00000000000E+00  0.00000000000E+00 -0.42207161730E+03  0.42207162939E+03  0.10100000352E+00 0.  1.
    10030    2    1    2    0    0  0.00000000000E+00  0.00000000000E+00 -0.42630659598E+02  0.80151260054E+03  0.80037808296E+03 0.  0.
        4    1    3    3  502    0  0.96487193092E+02 -0.15522488389E+03 -0.37783276872E+03  0.41971866414E+03  0.12699999809E+01 0.  1.
       -4    1    3    3    0  502 -0.96487193092E+02  0.15522488389E+03  0.33520210912E+03  0.38179393640E+03  0.12699999809E+01 0. -1.
</event>
<event>
 5   0  0.4104786E-04  0.8003494E+03  0.7818609E-02  0.9559512E-01
       -1   -1    0    0    0  501  0.00000000000E+00  0.00000000000E+00  0.46348093601E+03  0.46348093603E+03  0.50400001928E-02 0. -1.
        1   -1    0    0  501    0  0.00000000000E+00  0.00000000000E+00 -0.34551536302E+03  0.34551536306E+03  0.50400001928E-02 0.  1.
    10030    2    1    2    0    0  0.00000000000E+00  0.00000000000E+00  0.11796557298E+03  0.80899629909E+03  0.80034938342E+03 0.  0.
        2    1    3    3  502    0 -0.31358924318E+03 -0.16255209625E+03  0.24910634351E+03  0.43222143378E+03  0.25500000920E-02 0. -1.
       -2    1    3    3    0  502  0.31358924318E+03  0.16255209625E+03 -0.13114077053E+03  0.37677486532E+03  0.25500000920E-02 0.  1.
</event>
<event>
 5   0  0.4169155E-04  0.8000403E+03  0.7818609E-02  0.9559959E-01
        1   -1    0    0  501    0  0.00000000000E+00  0.00000000000E+00  0.24087987143E+03  0.24087987148E+03  0.50400001928E-02 0.  1.
       -1   -1    0    0    0  501  0.00000000000E+00  0.00000000000E+00 -0.66429849966E+03  0.66429849968E+03  0.50400001928E-02 0. -1.
    10030    2    1    2    0    0  0.00000000000E+00  0.00000000000E+00 -0.42341862823E+03  0.90517837116E+03  0.80004034204E+03 0.  0.
        4    1    3    3  502    0 -0.31854368550E+03 -0.20161022592E+03 -0.36307298097E+03  0.52339312680E+03  0.12699999809E+01 0. -1.
       -4    1    3    3    0  502  0.31854368550E+03  0.20161022592E+03 -0.60345647260E+02  0.38178524436E+03  0.12699999809E+01 0.  1.
</event>
<event>
 5   0  0.6970013E-04  0.7998628E+03  0.7818609E-02  0.9560216E-01
       -2   -1    0    0    0  501  0.00000000000E+00  0.00000000000E+00  0.64917600169E+02  0.64917600219E+02  0.25500000920E-02 0.  1.
        2   -1    0    0  501    0  0.00000000000E+00  0.00000000000E+00 -0.24638173103E+04  0.24638173103E+04  0.25500000920E-02 0. -1.
    10030    2    1    2    0    0  0.00000000000E+00  0.00000000000E+00 -0.23988997102E+04  0.25287349105E+04  0.79986275599E+03 0.  0.
        3    1    3    3  502    0 -0.21832142887E+03  0.81290603834E+02 -0.17174310955E+03  0.28942721789E+03  0.10100000352E+00 0.  1.
       -3    1    3    3    0  502  0.21832142887E+03 -0.81290603834E+02 -0.22271566006E+04  0.22393076927E+04  0.10100000352E+00 0. -1.
</event>
<event>
 5   0  0.6970013E-04  0.8000358E+03  0.7818609E-02  0.9559965E-01
       -2   -1    0    0    0  501  0.00000000000E+00  0.00000000000E+00  0.14221961351E+03  0.14221961353E+03  0.25500000920E-02 0.  1.
        2   -1    0    0  501    0  0.00000000000E+00  0.00000000000E+00 -0.11251213199E+04  0.11251213199E+04  0.25500000920E-02 0. -1.
    10030    2    1    2    0    0  0.00000000000E+00  0.00000000000E+00 -0.98290170643E+03  0.12673409335E+04  0.80003579741E+03 0.  0.
        3    1    3    3  502    0  0.18482858860E+02 -0.31109573904E+03 -0.88871759502E+03  0.94177552995E+03  0.10100000352E+00 0. -1.
       -3    1    3    3    0  502 -0.18482858860E+02  0.31109573904E+03 -0.94184111408E+02  0.32556540351E+03  0.10100000352E+00 0.  1.
</event>
<event>
 5   0  0.6593118E-04  0.8000841E+03  0.7818609E-02  0.9559895E-01
       -2   -1    0    0    0  501  0.00000000000E+00  0.00000000000E+00  0.15822260836E+03  0.15822260838E+03  0.25500000920E-02 0.  1.
        2   -1    0    0  501    0  0.00000000000E+00  0.00000000000E+00 -0.10114460272E+04  0.10114460272E+04  0.25500000920E-02 0. -1.
    10030    2    1    2    0    0  0.00000000000E+00  0.00000000000E+00 -0.85322341888E+03  0.11696686356E+04  0.80008406724E+03 0.  0.
        1    1    3    3  502    0 -0.31723959699E+02  0.14563682458E+03 -0.96933546338E+03  0.98072816565E+03  0.50400001928E-02 0. -1.
       -1    1    3    3    0  502  0.31723959699E+02 -0.14563682458E+03  0.11611204451E+03  0.18894046998E+03  0.50400001928E-02 0.  1.
</event>
<event>
 5   0  0.4087283E-04  0.8001401E+03  0.7818609E-02  0.9559814E-01
       -1   -1    0    0    0  501  0.00000000000E+00  0.00000000000E+00  0.38701752825E+03  0.38701752828E+03  0.50400001928E-02 0.  1.
        1   -1    0    0  501    0  0.00000000000E+00  0.00000000000E+00 -0.41356272984E+03  0.41356272987E+03  0.50400001928E-02 0. -1.
    10030    2    1    2    0    0  0.00000000000E+00  0.00000000000E+00 -0.26545201590E+02  0.80058025816E+03  0.80014005150E+03 0.  0.
        1    1    3    3  502    0  0.19573681257E+03 -0.33031680008E+03  0.99190026404E+02  0.39656115490E+03  0.50400001928E-02 0.  1.
       -1    1    3    3    0  502 -0.19573681257E+03  0.33031680008E+03 -0.12573522799E+03  0.40401910326E+03  0.50400001928E-02 0. -1.
</event>
<event>
 5   0  0.7133039E-04  0.8004812E+03  0.7818609E-02  0.9559321E-01
       -2   -1    0    0    0  501  0.00000000000E+00  0.00000000000E+00  0.13409991186E+04  0.13409991186E+04  0.25500000920E-02 0. -1.
        2   -1    0    0  501    0  0.00000000000E+00  0.00000000000E+00 -0.11945760858E+03  0.11945760861E+03  0.25500000920E-02 0.  1.
    10030    2    1    2    0    0  0.00000000000E+00  0.00000000000E+00  0.12215415100E+04  0.14604567272E+04  0.80048122487E+03 0.  0.
        2    1    3    3  502    0  0.14057446799E+03  0.15980548917E+03 -0.76519272379E+01  0.21297306735E+03  0.25500000920E-02 0.  1.
       -2    1    3    3    0  502 -0.14057446799E+03 -0.15980548917E+03  0.12291934373E+04  0.12474836599E+04  0.25500000920E-02 0. -1.
</event>
<event>
 5   0  0.6970013E-04  0.7986444E+03  0.7818609E-02  0.9561981E-01
        2   -1    0    0  501    0  0.00000000000E+00  0.00000000000E+00  0.70190571135E+03  0.70190571135E+03  0.25500000920E-02 0.  1.
       -2   -1    0    0    0  501  0.00000000000E+00  0.00000000000E+00 -0.22717894616E+03  0.22717894618E+03  0.25500000920E-02 0. -1.
    10030    2    1    2    0    0  0.00000000000E+00  0.00000000000E+00  0.47472676519E+03  0.92908465753E+03  0.79864435093E+03 0.  0.
        3    1    3    3  502    0  0.24209365444E+03  0.21645549767E+03 -0.32959079493E+02  0.32641787806E+03  0.10100000352E+00 0. -1.
       -3    1    3    3    0  502 -0.24209365444E+03 -0.21645549767E+03  0.50768584468E+03  0.60266677947E+03  0.10100000352E+00 0.  1.
</event>
<event>
 5   0  0.4087283E-04  0.8026735E+03  0.7818609E-02  0.9556155E-01
       -1   -1    0    0    0  501  0.00000000000E+00  0.00000000000E+00  0.13328241834E+03  0.13328241843E+03  0.50400001928E-02 0. -1.
        1   -1    0    0  501    0  0.00000000000E+00  0.00000000000E+00 -0.12084954498E+04  0.12084954498E+04  0.50400001928E-02 0.  1.
    10030    2    1    2    0    0  0.00000000000E+00  0.00000000000E+00 -0.10752130315E+04  0.13417778683E+04  0.80267352311E+03 0.  0.
        1    1    3    3  502    0 -0.89731341628E+02 -0.26300923113E+03 -0.10216472315E+04  0.10587675075E+04  0.50400001928E-02 0.  1.
       -1    1    3    3    0  502  0.89731341628E+02  0.26300923113E+03 -0.53565799968E+02  0.28301036073E+03  0.50400001928E-02 0. -1.
</event>
<event>
 5   0  0.6801147E-04  0.8000052E+03  0.7818609E-02  0.9560010E-01
       -2   -1    0    0    0  501  0.00000000000E+00  0.00000000000E+00  0.16062163777E+03  0.16062163779E+03  0.25500000920E-02 0.  1.
        2   -1    0    0  501    0  0.00000000000E+00  0.00000000000E+00 -0.99614284775E+03  0.99614284775E+03  0.25500000920E-02 0. -1.
    10030    2    1    2    0    0  0.00000000000E+00  0.00000000000E+00 -0.83552120998E+03  0.11567644855E+04  0.80000523916E+03 0.  0.
        4    1    3    3  502    0  0.95690692753E+02  0.23790157474E+02 -0.97829147238E+03  0.98324895022E+03  0.12699999809E+01 0. -1.
       -4    1    3    3    0  502 -0.95690692753E+02 -0.23790157474E+02  0.14277026240E+03  0.17351553532E+03  0.12699999809E+01 0.  1.
</event>
<event>
 5   0  0.4392552E-04  0.8002858E+03  0.7818609E-02  0.9559604E-01
       -1   -1    0    0    0  501  0.00000000000E+00  0.00000000000E+00  0.89121580267E+03  0.89121580268E+03  0.50400001928E-02 0.  1.
        1   -1    0    0  501    0  0.00000000000E+00  0.00000000000E+00 -0.17965832821E+03  0.17965832828E+03  0.50400001928E-02 0. -1.
    10030    2    1    2    0    0  0.00000000000E+00  0.00000000000E+00  0.71155747445E+03  0.10708741310E+04  0.80028580202E+03 0.  0.
        5    1    3    3  502    0 -0.19915077408E+02 -0.36456813844E+03  0.13677832927E+03  0.38991914448E+03  0.46999998093E+01 0. -1.
       -5    1    3    3    0  502  0.19915077408E+02  0.36456813844E+03  0.57477914518E+03  0.68095498648E+03  0.46999998093E+01 0.  1.
</event>
<event>
 5   0  0.6672462E-04  0.8002673E+03  0.7818609E-02  0.9559630E-01
       -2   -1    0    0    0  501  0.00000000000E+00  0.00000000000E+00  0.18220510706E+03  0.18220510708E+03  0.25500000920E-02 0. -1.
        2   -1    0    0  501    0  0.00000000000E+00  0.00000000000E+00 -0.87871814263E+03  0.87871814264E+03  0.25500000920E-02 0.  1.
    10030    2    1    2    0    0  0.00000000000E+00  0.00000000000E+00 -0.69651303557E+03  0.10609232497E+04  0.80026728852E+03 0.  0.
        5    1    3    3  502    0  0.98354830324E+02  0.30698850457E+03 -0.34062340873E+02  0.32418813620E+03  0.46999998093E+01 0. -1.
       -5    1    3    3    0  502 -0.98354830324E+02 -0.30698850457E+03 -0.66245069470E+03  0.73673511352E+03  0.46999998093E+01 0.  1.
</event>
<event>
 5   0  0.6801147E-04  0.8002732E+03  0.7818609E-02  0.9559622E-01
       -2   -1    0    0    0  501  0.00000000000E+00  0.00000000000E+00  0.38699252017E+03  0.38699252018E+03  0.25500000920E-02 0.  1.
        2   -1    0    0  501    0  0.00000000000E+00  0.00000000000E+00 -0.41372710403E+03  0.41372710404E+03  0.25500000920E-02 0. -1.
    10030    2    1    2    0    0  0.00000000000E+00  0.00000000000E+00 -0.26734583855E+02  0.80071962422E+03  0.80027319000E+03 0.  0.
        4    1    3    3  502    0  0.12343417854E+03 -0.33170698453E+03  0.17339738927E+03  0.39412407631E+03  0.12699999809E+01 0.  1.
       -4    1    3    3    0  502 -0.12343417854E+03  0.33170698453E+03 -0.20013197312E+03  0.40659554792E+03  0.12699999809E+01 0. -1.
</event>
<event>
 5   0  0.6970013E-04  0.8000637E+03  0.7818609E-02  0.9559925E-01
        2   -1    0    0  501    0  0.00000000000E+00  0.00000000000E+00  0.38008128859E+03  0.38008128860E+03  0.25500000920E-02 0.  1.
       -2   -1    0    0    0  501  0.00000000000E+00  0.00000000000E+00 -0.42102960599E+03  0.42102960600E+03  0.25500000920E-02 0. -1.
    10030    2    1    2    0    0  0.00000000000E+00  0.00000000000E+00 -0.40948317401E+02  0.80111089460E+03  0.80006368543E+03 0.  0.
        3    1    3    3  502    0  0.36143001661E+03 -0.13317009204E+03  0.87646501406E+02  0.39502892265E+03  0.10100000352E+00 0.  1.
       -3    1    3    3    0  502 -0.36143001661E+03  0.13317009204E+03 -0.12859481881E+03  0.40608197195E+03  0.10100000352E+00 0. -1.
</event>
<event>
 5   0  0.6970013E-04  0.7996087E+03  0.7818609E-02  0.9560584E-01
       -2   -1    0    0    0  501  0.00000000000E+00  0.00000000000E+00  0.20040788328E+03  0.20040788329E+03  0.25500000920E-02 0. -1.
        2   -1    0    0  501    0  0.00000000000E+00  0.00000000000E+00 -0.79759097794E+03  0.79759097795E+03  0.25500000920E-02 0.  1.
    10030    2    1    2    0    0  0.00000000000E+00  0.00000000000E+00 -0.59718309467E+03  0.99799886124E+03  0.79960870336E+03 0.  0.
        3    1    3    3  502    0  0.17144844678E+03  0.31976292051E+03 -0.88996113676E+02  0.37358160244E+03  0.10100000352E+00 0. -1.
       -3    1    3    3    0  502 -0.17144844678E+03 -0.31976292051E+03 -0.50818698099E+03  0.62441725880E+03  0.10100000352E+00 0.  1.
</event>
<event>
 5   0  0.6801147E-04  0.8002854E+03  0.7818609E-02  0.9559604E-01
        2   -1    0    0  501    0  0.00000000000E+00  0.00000000000E+00  0.24058038190E+04  0.24058038190E+04  0.25500000920E-02 0. -1.
       -2   -1    0    0    0  501  0.00000000000E+00  0.00000000000E+00 -0.66553292589E+02  0.66553292638E+02  0.25500000920E-02 0.  1.
    10030    2    1    2    0    0  0.00000000000E+00  0.00000000000E+00  0.23392505264E+04  0.24723571116E+04  0.80028536296E+03 0.  0.
        4    1    3    3  502    0  0.37245817440E+01 -0.39403502852E+03  0.13844419428E+04  0.14394299503E+04  0.12699999809E+01 0. -1.
       -4    1    3    3    0  502 -0.37245817440E+01  0.39403502852E+03  0.95480858366E+03  0.10329271613E+04  0.12699999809E+01 0.  1.
</event>
<event>
 5   0  0.6970013E-04  0.7999041E+03  0.7818609E-02  0.9560156E-01
        2   -1    0    0  501    0  0.00000000000E+00  0.00000000000E+00  0.28192898661E+03  0.28192898662E+03  0.25500000920E-02 0.  1.
       -2   -1    0    0    0  501  0.00000000000E+00  0.00000000000E+00 -0.56738276021E+03  0.56738276022E+03  0.25500000920E-02 0. -1.
    10030    2    1    2    0    0  0.00000000000E+00  0.00000000000E+00 -0.28545377360E+03  0.84931174684E+03  0.79990411079E+03 0.  0.
        3    1    3    3  502    0 -0.81035696122E+02  0.69025811093E+02 -0.55206564189E+03  0.56223467503E+03  0.10100000352E+00 0. -1.
       -3    1    3    3    0  502  0.81035696122E+02 -0.69025811093E+02  0.26661186830E+03  0.28707707181E+03  0.10100000352E+00 0.  1.
</event>
<event>
 5   0  0.2736375E-04  0.7999646E+03  0.7818609E-02  0.9560068E-01
       -3   -1    0    0    0  501  0.00000000000E+00  0.00000000000E+00  0.79160630587E+03  0.79160631231E+03  0.10100000352E+00 0. -1.
        3   -1    0    0  501    0  0.00000000000E+00  0.00000000000E+00 -0.20210276028E+03  0.20210278552E+03  0.10100000352E+00 0.  1.
    10030    2    1    2    0    0  0.00000000000E+00  0.00000000000E+00  0.58950354559E+03  0.99370909783E+03  0.79996458724E+03 0.  0.
        4    1    3    3  502    0  0.12149747339E+03  0.36791519084E+03  0.41810455599E+03  0.57003180291E+03  0.12699999809E+01 0. -1.
       -4    1    3    3    0  502 -0.12149747339E+03 -0.36791519084E+03  0.17139898960E+03  0.42367729492E+03  0.12699999809E+01 0.  1.
</event>
<event>
 5   0  0.4086111E-04  0.8000462E+03  0.7818609E-02  0.9559950E-01
        1   -1    0    0  501    0  0.00000000000E+00  0.00000000000E+00  0.85058604365E+03  0.85058604366E+03  0.50400001928E-02 0. -1.
       -1   -1    0    0    0  501  0.00000000000E+00  0.00000000000E+00 -0.18812730630E+03  0.18812730637E+03  0.50400001928E-02 0.  1.
    10030    2    1    2    0    0  0.00000000000E+00  0.00000000000E+00  0.66245873734E+03  0.10387133500E+04  0.80004615170E+03 0.  0.
        3    1    3    3  502    0 -0.33982413030E+03 -0.21066768181E+03  0.34750444771E+03  0.52973640905E+03  0.10100000352E+00 0.  1.
       -3    1    3    3    0  502  0.33982413030E+03  0.21066768181E+03  0.31495428963E+03  0.50897694098E+03  0.10100000352E+00 0. -1.
</event>
<event>
 5   0  0.6593118E-04  0.8000762E+03  0.7818609E-02  0.9559907E-01
        2   -1    0    0  501    0  0.00000000000E+00  0.00000000000E+00  0.12193017402E+04  0.12193017402E+04  0.25500000920E-02 0. -1.
       -2   -1    0    0    0  501  0.00000000000E+00  0.00000000000E+00 -0.13124766070E+03  0.13124766072E+03  0.25500000920E-02 0.  1.
    10030    2    1    2    0    0  0.00000000000E+00  0.00000000000E+00  0.10880540795E+04  0.13505494009E+04  0.80007624914E+03 0.  0.
        1    1    3    3  502    0 -0.37571438228E+03  0.11319327147E+03  0.41265906561E+03  0.56943965283E+03  0.50400001928E-02 0.  1.
       -1    1    3    3    0  502  0.37571438228E+03 -0.11319327147E+03  0.67539501390E+03  0.78110974811E+03  0.50400001928E-02 0. -1.
</event>
<event>
 5   0  0.4087283E-04  0.7999867E+03  0.7818609E-02  0.9560036E-01
        1   -1    0    0  501    0  0.00000000000E+00  0.00000000000E+00  0.10862922670E+04  0.10862922670E+04  0.50400001928E-02 0.  1.
       -1   -1    0    0    0  501  0.00000000000E+00  0.00000000000E+00 -0.14728512670E+03  0.14728512679E+03  0.50400001928E-02 0. -1.
    10030    2    1    2    0    0  0.00000000000E+00  0.00000000000E+00  0.93900714030E+03  0.12335773938E+04  0.79998673549E+03 0.  0.
        1    1    3    3  502    0 -0.35325282406E+02  0.16929248347E+03  0.10256643434E+04  0.10401418970E+04  0.50400001928E-02 0.  1.
       -1    1    3    3    0  502  0.35325282406E+02 -0.16929248347E+03 -0.86657203126E+02  0.19343549678E+03  0.50400001928E-02 0. -1.
</event>
<event>
 5   0  0.6801147E-04  0.7999390E+03  0.7818609E-02  0.9560105E-01
       -2   -1    0    0    0  501  0.00000000000E+00  0.00000000000E+00  0.10105311601E+03  0.10105311604E+03  0.25500000920E-02 0. -1.
        2   -1    0    0  501    0  0.00000000000E+00  0.00000000000E+00 -0.15830843607E+04  0.15830843607E+04  0.25500000920E-02 0.  1.
    10030    2    1    2    0    0  0.00000000000E+00  0.00000000000E+00 -0.14820312446E+04  0.16841374767E+04  0.79993901662E+03 0.  0.
        4    1    3    3  502    0  0.29557683291E+03  0.13521264281E+03 -0.25030663470E+03  0.41024766569E+03  0.12699999809E+01 0. -1.
       -4    1    3    3    0  502 -0.29557683291E+03 -0.13521264281E+03 -0.12317246100E+04  0.12738898110E+04  0.12699999809E+01 0.  1.
</event>
<event>
 5   0  0.6801147E-04  0.7996996E+03  0.7818609E-02  0.9560452E-01
       -2   -1    0    0    0  501  0.00000000000E+00  0.00000000000E+00  0.99064688627E+02  0.99064688660E+02  0.25500000920E-02 0.  1.
        2   -1    0    0  501    0  0.00000000000E+00  0.00000000000E+00 -0.16138934396E+04  0.16138934396E+04  0.25500000920E-02 0. -1.
    10030    2    1    2    0    0  0.00000000000E+00  0.00000000000E+00 -0.15148287509E+04  0.17129581282E+04  0.79969957133E+03 0.  0.
        4    1    3    3  502    0 -0.22313479419E+03  0.59454554446E+02 -0.58208147402E+02  0.23814655519E+03  0.12699999809E+01 0.  1.
       -4    1    3    3    0  502  0.22313479419E+03 -0.59454554446E+02 -0.14566206035E+04  0.14748115730E+04  0.12699999809E+01 0. -1.
</event>
<event>
 5   0  0.4392552E-04  0.7998917E+03  0.7818609E-02  0.9560174E-01
       -1   -1    0    0    0  501  0.00000000000E+00  0.00000000000E+00  0.44644090897E+03  0.44644090900E+03  0.50400001928E-02 0. -1.
        1   -1    0    0  501    0  0.00000000000E+00  0.00000000000E+00 -0.35829309888E+03  0.35829309891E+03  0.50400001928E-02 0.  1.
    10030    2    1    2    0    0  0.00000000000E+00  0.00000000000E+00  0.88147810097E+02  0.80473400792E+03  0.79989173459E+03 0.  0.
        5    1    3    3  502    0  0.39587283998E+03 -0.52935769123E+02  0.23527104769E+02  0.40011637775E+03  0.46999998093E+01 0.  1.
       -5    1    3    3    0  502 -0.39587283998E+03  0.52935769123E+02  0.64620705327E+02  0.40461763017E+03  0.46999998093E+01 0. -1.
</event>
<event>
 5   0  0.6801147E-04  0.8002590E+03  0.7818609E-02  0.9559642E-01
       -2   -1    0    0    0  501  0.00000000000E+00  0.00000000000E+00  0.12406868978E+03  0.12406868980E+03  0.25500000920E-02 0. -1.
        2   -1    0    0  501    0  0.00000000000E+00  0.00000000000E+00 -0.12904432823E+04  0.12904432823E+04  0.25500000920E-02 0.  1.
    10030    2    1    2    0    0  0.00000000000E+00  0.00000000000E+00 -0.11663745926E+04  0.14145119721E+04  0.80025897631E+03 0.  0.
        4    1    3    3  502    0  0.31476034130E+03 -0.19683385824E+03 -0.84704884045E+03  0.92483024994E+03  0.12699999809E+01 0.  1.
       -4    1    3    3    0  502 -0.31476034130E+03  0.19683385824E+03 -0.31932575211E+03  0.48968172221E+03  0.12699999809E+01 0. -1.
</event>
<event>
 5   0  0.6593118E-04  0.7998917E+03  0.7818609E-02  0.9560174E-01
       -2   -1    0    0    0  501  0.00000000000E+00  0.00000000000E+00  0.14619007282E+03  0.14619007284E+03  0.25500000920E-02 0.  1.
        2   -1    0    0  501    0  0.00000000000E+00  0.00000000000E+00 -0.10941691260E+04  0.10941691261E+04  0.25500000920E-02 0. -1.
    10030    2    1    2    0    0  0.00000000000E+00  0.00000000000E+00 -0.94797905323E+03  0.12403591989E+04  0.79989165323E+03 0.  0.
        1    1    3    3  502    0 -0.36734754946E+03 -0.11028288436E+03 -0.29820929768E+03  0.48583466521E+03  0.50400001928E-02 0.  1.
       -1    1    3    3    0  502  0.36734754946E+03  0.11028288436E+03 -0.64976975555E+03  0.75452453368E+03  0.50400001928E-02 0. -1.
</event>
<event>
 5   0  0.4169155E-04  0.7997945E+03  0.7818609E-02  0.9560315E-01
       -1   -1    0    0    0  501  0.00000000000E+00  0.00000000000E+00  0.40417553863E+03  0.40417553866E+03  0.50400001928E-02 0. -1.
        1   -1    0    0  501    0  0.00000000000E+00  0.00000000000E+00 -0.39566423141E+03  0.39566423145E+03  0.50400001928E-02 0.  1.
    10030    2    1    2    0    0  0.00000000000E+00  0.00000000000E+00  0.85113072159E+01  0.79983977011E+03  0.79979448329E+03 0.  0.
        4    1    3    3  502    0 -0.13616597499E+02 -0.16020720528E+02  0.40362036925E+03  0.40416963096E+03  0.12699999809E+01 0. -1.
       -4    1    3    3    0  502  0.13616597499E+02  0.16020720528E+02 -0.39510906204E+03  0.39567013915E+03  0.12699999809E+01 0.  1.
</event>
<event>
 5   0  0.2736375E-04  0.8029248E+03  0.7818609E-02  0.9555793E-01
       -3   -1    0    0    0  501  0.00000000000E+00  0.00000000000E+00  0.24475044802E+03  0.24475046886E+03  0.10100000352E+00 0.  1.
        3   -1    0    0  501    0  0.00000000000E+00  0.00000000000E+00 -0.65851582511E+03  0.65851583286E+03  0.10100000352E+00 0. -1.
    10030    2    1    2    0    0  0.00000000000E+00  0.00000000000E+00 -0.41376537709E+03  0.90326630172E+03  0.80292479383E+03 0.  0.
        2    1    3    3  502    0  0.83004363003E+02 -0.34612854510E+03  0.20026481655E+01  0.35594761499E+03  0.25500000920E-02 0.  1.
       -2    1    3    3    0  502 -0.83004363003E+02  0.34612854510E+03 -0.41576802526E+03  0.54731868673E+03  0.25500000920E-02 0. -1.
</event>
<event>
 5   0  0.4086111E-04  0.7998145E+03  0.7818609E-02  0.9560286E-01
       -1   -1    0    0    0  501  0.00000000000E+00  0.00000000000E+00  0.15246309085E+03  0.15246309094E+03  0.50400001928E-02 0. -1.
        1   -1    0    0  501    0  0.00000000000E+00  0.00000000000E+00 -0.10489476986E+04  0.10489476986E+04  0.50400001928E-02 0.  1.
    10030    2    1    2    0    0  0.00000000000E+00  0.00000000000E+00 -0.89648460773E+03  0.12014107895E+04  0.79981449931E+03 0.  0.
        3    1    3    3  502    0 -0.31035237065E+03  0.98986485313E+01 -0.82679003502E+03  0.88317515218E+03  0.10100000352E+00 0.  1.
       -3    1    3    3    0  502  0.31035237065E+03 -0.98986485313E+01 -0.69694572707E+02  0.31823563735E+03  0.10100000352E+00 0. -1.
</event>
<event>
 5   0  0.6801147E-04  0.7999254E+03  0.7818609E-02  0.9560125E-01
       -2   -1    0    0    0  501  0.00000000000E+00  0.00000000000E+00  0.14446209883E+03  0.14446209885E+03  0.25500000920E-02 0. -1.
        2   -1    0    0  501    0  0.00000000000E+00  0.00000000000E+00 -0.11073502706E+04  0.11073502706E+04  0.25500000920E-02 0.  1.
    10030    2    1    2    0    0  0.00000000000E+00  0.00000000000E+00 -0.96288817175E+03  0.12518123694E+04  0.79992535714E+03 0.  0.
        4    1    3    3  502    0  0.28391029953E+02 -0.39309686014E+03 -0.58801144707E+03  0.70787729644E+03  0.12699999809E+01 0. -1.
       -4    1    3    3    0  502 -0.28391029953E+02  0.39309686014E+03 -0.37487672468E+03  0.54393507300E+03  0.12699999809E+01 0.  1.
</event>
<event>
 5   0  0.6593118E-04  0.8002098E+03  0.7818609E-02  0.9559714E-01
       -2   -1    0    0    0  501  0.00000000000E+00  0.00000000000E+00  0.13949720218E+03  0.13949720220E+03  0.25500000920E-02 0. -1.
        2   -1    0    0  501    0  0.00000000000E+00  0.00000000000E+00 -0.11475779995E+04  0.11475779995E+04  0.25500000920E-02 0.  1.
    10030    2    1    2    0    0  0.00000000000E+00  0.00000000000E+00 -0.10080807973E+04  0.12870752017E+04  0.80020977306E+03 0.  0.
        1    1    3    3  502    0  0.29391364740E+03 -0.19092373596E+03 -0.19362400919E+03  0.40040899345E+03  0.50400001928E-02 0. -1.
       -1    1    3    3    0  502 -0.29391364740E+03  0.19092373596E+03 -0.81445678812E+03  0.88666620823E+03  0.50400001928E-02 0.  1.
</event>
<event>
 5   0  0.7133039E-04  0.7999811E+03  0.7818609E-02  0.9560044E-01
        2   -1    0    0  501    0  0.00000000000E+00  0.00000000000E+00  0.94665048089E+03  0.94665048089E+03  0.25500000920E-02 0. -1.
       -2   -1    0    0    0  501  0.00000000000E+00  0.00000000000E+00 -0.16900897904E+03  0.16900897906E+03  0.25500000920E-02 0.  1.
    10030    2    1    2    0    0  0.00000000000E+00  0.00000000000E+00  0.77764150185E+03  0.11156594599E+04  0.79998107801E+03 0.  0.
        2    1    3    3  502    0 -0.31030730373E+03  0.83994731597E+01  0.37027753696E+02  0.31262154188E+03  0.25500000920E-02 0.  1.
       -2    1    3    3    0  502  0.31030730373E+03 -0.83994731597E+01  0.74061374816E+03  0.80303791807E+03  0.25500000920E-02 0. -1.
</event>
<event>
 5   0  0.6672462E-04  0.8005521E+03  0.7818609E-02  0.9559218E-01
       -2   -1    0    0    0  501  0.00000000000E+00  0.00000000000E+00  0.23953304996E+03  0.23953304997E+03  0.25500000920E-02 0. -1.
        2   -1    0    0  501    0  0.00000000000E+00  0.00000000000E+00 -0.66888853894E+03  0.66888853894E+03  0.25500000920E-02 0.  1.
    10030    2    1    2    0    0  0.00000000000E+00  0.00000000000E+00 -0.42935548898E+03  0.90842158891E+03  0.80055208906E+03 0.  0.
        5    1    3    3  502    0  0.29593666403E+03  0.26815153129E+03 -0.18433381506E+03  0.43986906941E+03  0.46999998093E+01 0.  1.
       -5    1    3    3    0  502 -0.29593666403E+03 -0.26815153129E+03 -0.24502167392E+03  0.46855251951E+03  0.46999998093E+01 0. -1.
</event>
<event>
 5   0  0.7133039E-04  0.8015874E+03  0.7818609E-02  0.9557722E-01
        2   -1    0    0  501    0  0.00000000000E+00  0.00000000000E+00  0.55832223689E+03  0.55832223689E+03  0.25500000920E-02 0.  1.
       -2   -1    0    0    0  501  0.00000000000E+00  0.00000000000E+00 -0.28771127663E+03  0.28771127664E+03  0.25500000920E-02 0. -1.
    10030    2    1    2    0    0  0.00000000000E+00  0.00000000000E+00  0.27061096026E+03  0.84603351353E+03  0.80158743391E+03 0.  0.
        2    1    3    3  502    0 -0.18317770707E+03 -0.18585481901E+03  0.45637588947E+03  0.52571383719E+03  0.25500000920E-02 0.  1.
       -2    1    3    3    0  502  0.18317770707E+03  0.18585481901E+03 -0.18576492921E+03  0.32031967634E+03  0.25500000920E-02 0. -1.
</event>
<event>
 5   0  0.4086111E-04  0.7996449E+03  0.7818609E-02  0.9560531E-01
       -1   -1    0    0    0  501  0.00000000000E+00  0.00000000000E+00  0.34087773906E+03  0.34087773910E+03  0.50400001928E-02 0. -1.
        1   -1    0    0  501    0  0.00000000000E+00  0.00000000000E+00 -0.46895989090E+03  0.46895989093E+03  0.50400001928E-02 0.  1.
    10030    2    1    2    0    0  0.00000000000E+00  0.00000000000E+00 -0.12808215184E+03  0.80983763003E+03  0.79964488955E+03 0.  0.
        3    1    3    3  502    0 -0.35168957984E+03 -0.18966110664E+03 -0.78402136882E+02  0.40719012907E+03  0.10100000352E+00 0.  1.
       -3    1    3    3    0  502  0.35168957984E+03  0.18966110664E+03 -0.49680014962E+02  0.40264750096E+03  0.10100000352E+00 0. -1.
</event>
<event>
 5   0  0.6593118E-04  0.7942355E+03  0.7818609E-02  0.9568399E-01
        2   -1    0    0  501    0  0.00000000000E+00  0.00000000000E+00  0.56327397274E+03  0.56327397275E+03  0.25500000920E-02 0. -1.
       -2   -1    0    0    0  501  0.00000000000E+00  0.00000000000E+00 -0.27997480877E+03  0.27997480879E+03  0.25500000920E-02 0.  1.
    10030    2    1    2    0    0  0.00000000000E+00  0.00000000000E+00  0.28329916397E+03  0.84324878153E+03  0.79423553890E+03 0.  0.
        1    1    3    3  502    0 -0.31230841848E+03  0.13019918786E+03  0.36235824183E+03  0.49577401326E+03  0.50400001928E-02 0. -1.
       -1    1    3    3    0  502  0.31230841848E+03 -0.13019918786E+03 -0.79059077868E+02  0.34747476828E+03  0.50400001928E-02 0.  1.
</event>
<event>
 5   0  0.4104786E-04  0.7997606E+03  0.7818609E-02  0.9560364E-01
        1   -1    0    0  501    0  0.00000000000E+00  0.00000000000E+00  0.62009732005E+03  0.62009732007E+03  0.50400001928E-02 0. -1.
       -1   -1    0    0    0  501  0.00000000000E+00  0.00000000000E+00 -0.25786959189E+03  0.25786959194E+03  0.50400001928E-02 0.  1.
    10030    2    1    2    0    0  0.00000000000E+00  0.00000000000E+00  0.36222772816E+03  0.87796691200E+03  0.79976057137E+03 0.  0.
        2    1    3    3  502    0  0.17411703935E+02  0.63900580780E+02 -0.25180668368E+03  0.26037099994E+03  0.25500000920E-02 0.  1.
       -2    1    3    3    0  502 -0.17411703935E+02 -0.63900580780E+02  0.61403441184E+03  0.61759591206E+03  0.25500000920E-02 0. -1.
</event>
<event>
 5   0  0.4169155E-04  0.8003742E+03  0.7818609E-02  0.9559476E-01
       -1   -1    0    0    0  501  0.00000000000E+00  0.00000000000E+00  0.27995905520E+03  0.27995905525E+03  0.50400001928E-02 0.  1.
        1   -1    0    0  501    0  0.00000000000E+00  0.00000000000E+00 -0.57204687902E+03  0.57204687904E+03  0.50400001928E-02 0. -1.
    10030    2    1    2    0    0  0.00000000000E+00  0.00000000000E+00 -0.29208782381E+03  0.85200593429E+03  0.80037417203E+03 0.  0.
        4    1    3    3  502    0  0.28203348876E+03 -0.72361262004E+02 -0.43828822876E+03  0.52619124412E+03  0.12699999809E+01 0. -1.
       -4    1    3    3    0  502 -0.28203348876E+03  0.72361262004E+02  0.14620040494E+03  0.32581469017E+03  0.12699999809E+01 0.  1.
</event>
<event>
 5   0  0.6970013E-04  0.7976337E+03  0.7818609E-02  0.9563449E-01
       -2   -1    0    0    0  501  0.00000000000E+00  0.00000000000E+00  0.68050604424E+02  0.68050604471E+02  0.25500000920E-02 0. -1.
        2   -1    0    0  501    0  0.00000000000E+00  0.00000000000E+00 -0.23373029058E+04  0.23373029058E+04  0.25500000920E-02 0.  1.
    10030    2    1    2    0    0  0.00000000000E+00  0.00000000000E+00 -0.22692523014E+04  0.24053535103E+04  0.79763368916E+03 0.  0.
        3    1    3    3  502    0  0.87503660856E+02 -0.37890184623E+03 -0.86775958111E+03  0.95091019584E+03  0.10100000352E+00 0. -1.
       -3    1    3    3    0  502 -0.87503660856E+02  0.37890184623E+03 -0.14014927203E+04  0.14544433144E+04  0.10100000352E+00 0.  1.
</event>
<event>
 5   0  0.6672462E-04  0.7996444E+03  0.7818609E-02  0.9560532E-01
        2   -1    0    0  501    0  0.00000000000E+00  0.00000000000E+00  0.16758598199E+03  0.16758598201E+03  0.25500000920E-02 0. -1.
       -2   -1    0    0    0  501  0.00000000000E+00  0.00000000000E+00 -0.95388511131E+03  0.95388511131E+03  0.25500000920E-02 0.  1.
    10030    2    1    2    0    0  0.00000000000E+00  0.00000000000E+00 -0.78629912931E+03  0.11214710933E+04  0.79964435369E+03 0.  0.
        5    1    3    3  502    0  0.28055392578E+03  0.24677338028E+03 -0.19368373683E+03  0.42088369699E+03  0.46999998093E+01 0. -1.
       -5    1    3    3    0  502 -0.28055392578E+03 -0.24677338028E+03 -0.59261539248E+03  0.70058739633E+03  0.46999998093E+01 0.  1.
</event>
<event>
 5   0  0.2736375E-04  0.7998017E+03  0.7818609E-02  0.9560304E-01
        3   -1    0    0  501    0  0.00000000000E+00  0.00000000000E+00  0.26578435779E+04  0.26578435798E+04  0.10100000352E+00 0.  1.
       -3   -1    0    0    0  501  0.00000000000E+00  0.00000000000E+00 -0.60169292193E+02  0.60169376962E+02  0.10100000352E+00 0. -1.
    10030    2    1    2    0    0  0.00000000000E+00  0.00000000000E+00  0.25976742857E+04  0.27180129567E+04  0.79980168704E+03 0.  0.
        1    1    3    3  502    0  0.37809750167E+03 -0.10359949431E+03  0.15670731135E+04  0.16153664349E+04  0.50400001928E-02 0.  1.
       -1    1    3    3    0  502 -0.37809750167E+03  0.10359949431E+03  0.10306011722E+04  0.11026465219E+04  0.50400001928E-02 0. -1.
</event>
<event>
 5   0  0.4392552E-04  0.8000093E+03  0.7818609E-02  0.9560004E-01
       -1   -1    0    0    0  501  0.00000000000E+00  0.00000000000E+00  0.10263578541E+03  0.10263578553E+03  0.50400001928E-02 0. -1.
        1   -1    0    0  501    0  0.00000000000E+00  0.00000000000E+00 -0.15589468116E+04  0.15589468117E+04  0.50400001928E-02 0.  1.
    10030    2    1    2    0    0  0.00000000000E+00  0.00000000000E+00 -0.14563110262E+04  0.16615825972E+04  0.80000932629E+03 0.  0.
        5    1    3    3  502    0  0.27676505439E+03 -0.69886249457E+02 -0.14624259379E+03  0.32076778116E+03  0.46999998093E+01 0. -1.
       -5    1    3    3    0  502 -0.27676505439E+03  0.69886249457E+02 -0.13100684324E+04  0.13408148160E+04  0.46999998093E+01 0.  1.
</event>
<event>
 5   0  0.6672462E-04  0.7998882E+03  0.7818609E-02  0.9560179E-01
       -2   -1    0    0    0  501  0.00000000000E+00  0.00000000000E+00  0.72093935982E+02  0.72093936027E+02  0.25500000920E-02 0. -1.
        2   -1    0    0  501    0  0.00000000000E+00  0.00000000000E+00 -0.22187064074E+04  0.22187064074E+04  0.25500000920E-02 0.  1.
    10030    2    1    2    0    0  0.00000000000E+00  0.00000000000E+00 -0.21466124714E+04  0.22908003434E+04  0.79988818656E+03 0.  0.
        5    1    3    3  502    0 -0.15023986162E+01  0.32924027929E+03 -0.17234291636E+04  0.17546029724E+04  0.46999998093E+01 0.  1.
       -5    1    3    3    0  502  0.15023986162E+01 -0.32924027929E+03 -0.42318330779E+03  0.53619737102E+03  0.46999998093E+01 0. -1.
</event>
<event>
 5   0  0.6593118E-04  0.8001809E+03  0.7818609E-02  0.9559755E-01
       -2   -1    0    0    0  501  0.00000000000E+00  0.00000000000E+00  0.24020410605E+03  0.24020410606E+03  0.25500000920E-02 0. -1.
        2   -1    0    0  501    0  0.00000000000E+00  0.00000000000E+00 -0.66640150589E+03  0.66640150589E+03  0.25500000920E-02 0.  1.
    10030    2    1    2    0    0  0.00000000000E+00  0.00000000000E+00 -0.42619739984E+03  0.90660561195E+03  0.80018092454E+03 0.  0.
        1    1    3    3  502    0  0.16907559906E+02 -0.25507102246E+03 -0.56180771189E+03  0.61723172087E+03  0.50400001928E-02 0.  1.
       -1    1    3    3    0  502 -0.16907559906E+02  0.25507102246E+03  0.13561031205E+03  0.28937389108E+03  0.50400001928E-02 0. -1.
</event>
<event>
 5   0  0.4169155E-04  0.7984944E+03  0.7818609E-02  0.9562199E-01
        1   -1    0    0  501    0  0.00000000000E+00  0.00000000000E+00  0.90260927058E+03  0.90260927060E+03  0.50400001928E-02 0. -1.
       -1   -1    0    0    0  501  0.00000000000E+00  0.00000000000E+00 -0.17659727243E+03  0.17659727250E+03  0.50400001928E-02 0.  1.
    10030    2    1    2    0    0  0.00000000000E+00  0.00000000000E+00  0.72601199816E+03  0.10792065431E+04  0.79849442152E+03 0.  0.
        4    1    3    3  502    0 -0.17712791848E+03 -0.34156123632E+03  0.50704835181E+03  0.63650453386E+03  0.12699999809E+01 0. -1.
       -4    1    3    3    0  502  0.17712791848E+03  0.34156123632E+03  0.21896364635E+03  0.44270200923E+03  0.12699999809E+01 0.  1.
</event>
<event>
 5   0  0.2736375E-04  0.8013849E+03  0.7818609E-02  0.9558015E-01
       -3   -1    0    0    0  501  0.00000000000E+00  0.00000000000E+00  0.86119330645E+03  0.86119331238E+03  0.10100000352E+00 0.  1.
        3   -1    0    0  501    0  0.00000000000E+00  0.00000000000E+00 -0.18643249186E+03  0.18643251922E+03  0.10100000352E+00 0. -1.
    10030    2    1    2    0    0  0.00000000000E+00  0.00000000000E+00  0.67476081459E+03  0.10476258316E+04  0.80138488014E+03 0.  0.
        5    1    3    3  502    0 -0.31480597254E+03 -0.15986868566E+03  0.58497439380E+03  0.68328466132E+03  0.46999998093E+01 0. -1.
       -5    1    3    3    0  502  0.31480597254E+03  0.15986868566E+03  0.89786420790E+02  0.36434117027E+03  0.46999998093E+01 0.  1.
</event>
<event>
 5   0  0.4392552E-04  0.8000731E+03  0.7818609E-02  0.9559911E-01
        1   -1    0    0  501    0  0.00000000000E+00  0.00000000000E+00  0.23190650188E+03  0.23190650194E+03  0.50400001928E-02 0.  1.
       -1   -1    0    0    0  501  0.00000000000E+00  0.00000000000E+00 -0.69005925795E+03  0.69005925797E+03  0.50400001928E-02 0. -1.
    10030    2    1    2    0    0  0.00000000000E+00  0.00000000000E+00 -0.45815275607E+03  0.92196575991E+03  0.80007306825E+03 0.  0.
        5    1    3    3  502    0  0.87112415352E+01 -0.56495748836E+02  0.22714364930E+03  0.23427330787E+03  0.46999998093E+01 0.  1.
       -5    1    3    3    0  502 -0.87112415352E+01  0.56495748836E+02 -0.68529640537E+03  0.68769245203E+03  0.46999998093E+01 0. -1.
</event>
<event>
 5   0  0.6672462E-04  0.8001299E+03  0.7818609E-02  0.9559829E-01
        2   -1    0    0  501    0  0.00000000000E+00  0.00000000000E+00  0.10372232430E+04  0.10372232430E+04  0.25500000920E-02 0. -1.
       -2   -1    0    0    0  501  0.00000000000E+00  0.00000000000E+00 -0.15430810183E+03  0.15430810185E+03  0.25500000920E-02 0.  1.
    10030    2    1    2    0    0  0.00000000000E+00  0.00000000000E+00  0.88291514121E+03  0.11915313449E+04  0.80012986401E+03 0.  0.
        5    1    3    3  502    0 -0.45305479178E+01  0.16764297214E+03  0.98230640329E+03  0.99653030657E+03  0.46999998093E+01 0. -1.
       -5    1    3    3    0  502  0.45305479178E+01 -0.16764297214E+03 -0.99391262072E+02  0.19500103832E+03  0.46999998093E+01 0.  1.
</event>
<event>
 5   0  0.7133039E-04  0.8000145E+03  0.7818609E-02  0.9559996E-01
       -2   -1    0    0    0  501  0.00000000000E+00  0.00000000000E+00  0.36489335798E+03  0.36489335799E+03  0.25500000920E-02 0. -1.
        2   -1    0    0  501    0  0.00000000000E+00  0.00000000000E+00 -0.43850019567E+03  0.43850019568E+03  0.25500000920E-02 0.  1.
    10030    2    1    2    0    0  0.00000000000E+00  0.00000000000E+00 -0.73606837692E+02  0.80339355366E+03  0.80001452206E+03 0.  0.
        2    1    3    3  502    0  0.41520554150E+02  0.10632710329E+03 -0.42179769645E+03  0.43696991436E+03  0.25500000920E-02 0.  1.
       -2    1    3    3    0  502 -0.41520554150E+02 -0.10632710329E+03  0.34819085876E+03  0.36642363931E+03  0.25500000920E-02 0. -1.
</event>
<event>
 5   0  0.6970013E-04  0.7999798E+03  0.7818609E-02  0.9560046E-01
       -2   -1    0    0    0  501  0.00000000000E+00  0.00000000000E+00  0.36330822173E+03  0.36330822174E+03  0.25500000920E-02 0. -1.
        2   -1    0    0  501    0  0.00000000000E+00  0.00000000000E+00 -0.44037519488E+03  0.44037519488E+03  0.25500000920E-02 0.  1.
    10030    2    1    2    0    0  0.00000000000E+00  0.00000000000E+00 -0.77066973149E+02  0.80368341662E+03  0.79997982212E+03 0.  0.
        3    1    3    3  502    0 -0.31810808358E+03  0.22459109154E+03 -0.13037887447E+03  0.41064896487E+03  0.10100000352E+00 0.  1.
       -3    1    3    3    0  502  0.31810808358E+03 -0.22459109154E+03  0.53311901323E+02  0.39303445175E+03  0.10100000352E+00 0. -1.
</event>
<event>
 5   0  0.4087283E-04  0.8002124E+03  0.7818609E-02  0.9559710E-01
        1   -1    0    0  501    0  0.00000000000E+00  0.00000000000E+00  0.52082073927E+03  0.52082073929E+03  0.50400001928E-02 0.  1.
       -1   -1    0    0    0  501  0.00000000000E+00  0.00000000000E+00 -0.30737057706E+03  0.30737057710E+03  0.50400001928E-02 0. -1.
    10030    2    1    2    0    0  0.00000000000E+00  0.00000000000E+00  0.21345016221E+03  0.82819131639E+03  0.80021239980E+03 0.  0.
        1    1    3    3  502    0 -0.15180475249E+03  0.32409159996E+03  0.29187937581E+03  0.46181556718E+03  0.50400001928E-02 0. -1.
       -1    1    3    3    0  502  0.15180475249E+03 -0.32409159996E+03 -0.78429213598E+02  0.36637574921E+03  0.50400001928E-02 0.  1.
</event>
<event>
 5   0  0.6970013E-04  0.8002698E+03  0.7818609E-02  0.9559627E-01
        2   -1    0    0  501    0  0.00000000000E+00  0.00000000000E+00  0.53136649749E+03  0.53136649750E+03  0.25500000920E-02 0. -1.
       -2   -1    0    0    0  501  0.00000000000E+00  0.00000000000E+00 -0.30131358336E+03  0.30131358337E+03  0.25500000920E-02 0.  1.
    10030    2    1    2    0    0  0.00000000000E+00  0.00000000000E+00  0.23005291413E+03  0.83268008087E+03  0.80026981311E+03 0.  0.
        3    1    3    3  502    0 -0.80855001765E+01 -0.10200148773E+03  0.51752383656E+03  0.52754204612E+03  0.10100000352E+00 0. -1.
       -3    1    3    3    0  502  0.80855001765E+01  0.10200148773E+03 -0.28747092243E+03  0.30513803475E+03  0.10100000352E+00 0.  1.
</event>
<event>
 5   0  0.6672462E-04  0.8002082E+03  0.7818609E-02  0.9559716E-01
       -2   -1    0    0    0  501  0.00000000000E+00  0.00000000000E+00  0.29643522692E+03  0.29643522693E+03  0.25500000920E-02 0.  1.
        2   -1    0    0  501    0  0.00000000000E+00  0.00000000000E+00 -0.54002787396E+03  0.54002787396E+03  0.25500000920E-02 0. -1.
    10030    2    1    2    0    0  0.00000000000E+00  0.00000000000E+00 -0.24359264704E+03  0.83646310089E+03  0.80020818632E+03 0.  0.
        5    1    3    3  502    0 -0.93340149765E+01  0.43437049553E+01 -0.53986052830E+03  0.53997913999E+03  0.46999998093E+01 0. -1.
       -5    1    3    3    0  502  0.93340149765E+01 -0.43437049553E+01  0.29626788126E+03  0.29648396090E+03  0.46999998093E+01 0.  1.
</event>
<event>
 5   0  0.4169155E-04  0.7999584E+03  0.7818609E-02  0.9560077E-01
        1   -1    0    0  501    0  0.00000000000E+00  0.00000000000E+00  0.63847517396E+03  0.63847517398E+03  0.50400001928E-02 0.  1.
       -1   -1    0    0    0  501  0.00000000000E+00  0.00000000000E+00 -0.25057097023E+03  0.25057097028E+03  0.50400001928E-02 0. -1.
    10030    2    1    2    0    0  0.00000000000E+00  0.00000000000E+00  0.38790420373E+03  0.88904614426E+03  0.79995835851E+03 0.  0.
        4    1    3    3  502    0  0.28824636017E+03 -0.25664385315E+03  0.31067035013E+03  0.49544899926E+03  0.12699999809E+01 0.  1.
       -4    1    3    3    0  502 -0.28824636017E+03  0.25664385315E+03  0.77233853594E+02  0.39359714500E+03  0.12699999809E+01 0. -1.
</event>
<event>
 5   0  0.4104786E-04  0.8000804E+03  0.7818609E-02  0.9559901E-01
       -1   -1    0    0    0  501  0.00000000000E+00  0.00000000000E+00  0.81092267746E+03  0.81092267748E+03  0.50400001928E-02 0. -1.
        1   -1    0    0  501    0  0.00000000000E+00  0.00000000000E+00 -0.19734579418E+03  0.19734579425E+03  0.50400001928E-02 0.  1.
    10030    2    1    2    0    0  0.00000000000E+00  0.00000000000E+00  0.61357688328E+03  0.10082684717E+04  0.80008044557E+03 0.  0.
        2    1    3    3  502    0  0.15065939985E+03 -0.22462800583E+03  0.67823205839E+03  0.73017444546E+03  0.25500000920E-02 0. -1.
       -2    1    3    3    0  502 -0.15065939985E+03  0.22462800583E+03 -0.64655175119E+02  0.27809402626E+03  0.25500000920E-02 0.  1.
</event>
<event>
 5   0  0.6801147E-04  0.8001333E+03  0.7818609E-02  0.9559824E-01
       -2   -1    0    0    0  501  0.00000000000E+00  0.00000000000E+00  0.87977448793E+02  0.87977448830E+02  0.25500000920E-02 0. -1.
        2   -1    0    0  501    0  0.00000000000E+00  0.00000000000E+00 -0.18192537855E+04  0.18192537855E+04  0.25500000920E-02 0.  1.
    10030    2    1    2    0    0  0.00000000000E+00  0.00000000000E+00 -0.17312763367E+04  0.19072312343E+04  0.80013325587E+03 0.  0.
        4    1    3    3  502    0  0.25585794985E+03 -0.17722803456E+01 -0.15987205222E+04  0.16190661977E+04  0.12699999809E+01 0.  1.
       -4    1    3    3    0  502 -0.25585794985E+03  0.17722803456E+01 -0.13255581448E+03  0.28816503662E+03  0.12699999809E+01 0. -1.
</event>
<event>
 5   0  0.6801147E-04  0.8000101E+03  0.7818609E-02  0.9560002E-01
       -2   -1    0    0    0  501  0.00000000000E+00  0.00000000000E+00  0.17238666840E+03  0.17238666841E+03  0.25500000920E-02 0. -1.
        2   -1    0    0  501    0  0.00000000000E+00  0.00000000000E+00 -0.92816945826E+03  0.92816945827E+03  0.25500000920E-02 0.  1.
    10030    2    1    2    0    0  0.00000000000E+00  0.00000000000E+00 -0.75578278987E+03  0.11005561267E+04  0.80001010151E+03 0.  0.
        4    1    3    3  502    0 -0.92556240942E+02 -0.24691717450E+03 -0.79166563439E+03  0.83442845012E+03  0.12699999809E+01 0.  1.
       -4    1    3    3    0  502  0.92556240942E+02  0.24691717450E+03  0.35882844525E+02  0.26612767656E+03  0.12699999809E+01 0. -1.
</event>
<event>
 5   0  0.7133039E-04  0.7989300E+03  0.7818609E-02  0.9561567E-01
        2   -1    0    0  501    0  0.00000000000E+00  0.00000000000E+00  0.17353665976E+04  0.17353665976E+04  0.25500000920E-02 0.  1.
       -2   -1    0    0    0  501  0.00000000000E+00  0.00000000000E+00 -0.91953067128E+02  0.91953067163E+02  0.25500000920E-02 0. -1.
    10030    2    1    2    0    0  0.00000000000E+00  0.00000000000E+00  0.16434135305E+04  0.18273196647E+04  0.79892998760E+03 0.  0.
        2    1    3    3  502    0 -0.46567770438E+02 -0.21462000763E+03  0.15849013291E+04  0.16000445393E+04  0.25500000920E-02 0.  1.
       -2    1    3    3    0  502  0.46567770438E+02  0.21462000763E+03  0.58512201379E+02  0.22727512542E+03  0.25500000920E-02 0. -1.
</event>
<event>
 5   0  0.6593118E-04  0.8000036E+03  0.7818609E-02  0.9560012E-01
        2   -1    0    0  501    0  0.00000000000E+00  0.00000000000E+00  0.29698237508E+04  0.29698237508E+04  0.25500000920E-02 0.  1.
       -2   -1    0    0    0  501  0.00000000000E+00  0.00000000000E+00 -0.53875731805E+02  0.53875731866E+02  0.25500000920E-02 0. -1.
    10030    2    1    2    0    0  0.00000000000E+00  0.00000000000E+00  0.29159480190E+04  0.30236994827E+04  0.80000357000E+03 0.  0.
        1    1    3    3  502    0 -0.25952896719E+03  0.46760156882E+02  0.32120007676E+03  0.41558547426E+03  0.50400001928E-02 0. -1.
       -1    1    3    3    0  502  0.25952896719E+03 -0.46760156882E+02  0.25947479423E+04  0.26081140084E+04  0.50400001928E-02 0.  1.
</event>
<event>
 5   0  0.6801147E-04  0.8003126E+03  0.7818609E-02  0.9559565E-01
        2   -1    0    0  501    0  0.00000000000E+00  0.00000000000E+00  0.99082090436E+03  0.99082090436E+03  0.25500000920E-02 0. -1.
       -2   -1    0    0    0  501  0.00000000000E+00  0.00000000000E+00 -0.16160849458E+03  0.16160849460E+03  0.25500000920E-02 0.  1.
    10030    2    1    2    0    0  0.00000000000E+00  0.00000000000E+00  0.82921240978E+03  0.11524293990E+04  0.80031262584E+03 0.  0.
        4    1    3    3  502    0  0.62788587904E+02 -0.13853100406E+03  0.94757212026E+03  0.95970192344E+03  0.12699999809E+01 0. -1.
       -4    1    3    3    0  502 -0.62788587904E+02  0.13853100406E+03 -0.11835971049E+03  0.19272747553E+03  0.12699999809E+01 0.  1.
</event>
<event>
 5   0  0.6970013E-04  0.7994637E+03  0.7818609E-02  0.9560794E-01
        2   -1    0    0  501    0  0.00000000000E+00  0.00000000000E+00  0.29756219456E+03  0.29756219457E+03  0.25500000920E-02 0. -1.
       -2   -1    0    0    0  501  0.00000000000E+00  0.00000000000E+00 -0.53698198671E+03  0.53698198672E+03  0.25500000920E-02 0.  1.
    10030    2    1    2    0    0  0.00000000000E+00  0.00000000000E+00 -0.23941979216E+03  0.83454418128E+03  0.79946366624E+03 0.  0.
        3    1    3    3  502    0  0.49305223703E+02  0.27349897003E+03 -0.41963761373E+03  0.50331742345E+03  0.10100000352E+00 0.  1.
       -3    1    3    3    0  502 -0.49305223703E+02 -0.27349897003E+03  0.18021782157E+03  0.33122675783E+03  0.10100000352E+00 0. -1.
</event>
<event>
 5   0  0.2736375E-04  0.7997322E+03  0.7818609E-02  0.9560405E-01
        3   -1    0    0  501    0  0.00000000000E+00  0.00000000000E+00  0.21090033077E+03  0.21090035495E+03  0.10100000352E+00 0. -1.
       -3   -1    0    0    0  501  0.00000000000E+00  0.00000000000E+00 -0.75814438455E+03  0.75814439128E+03  0.10100000352E+00 0.  1.
    10030    2    1    2    0    0  0.00000000000E+00  0.00000000000E+00 -0.54724405378E+03  0.96904474623E+03  0.79973224631E+03 0.  0.
        5    1    3    3  502    0 -0.20502482891E+03  0.28255878572E+02 -0.68815709906E+03  0.71862080274E+03  0.46999998093E+01 0.  1.
       -5    1    3    3    0  502  0.20502482891E+03 -0.28255878572E+02  0.14091304528E+03  0.25042394349E+03  0.46999998093E+01 0. -1.
</event>
<event>
 5   0  0.4087283E-04  0.7996415E+03  0.7818609E-02  0.9560536E-01
       -1   -1    0    0    0  501  0.00000000000E+00  0.00000000000E+00  0.38702148253E+03  0.38702148256E+03  0.50400001928E-02 0.  1.
        1   -1    0    0  501    0  0.00000000000E+00  0.00000000000E+00 -0.41304334577E+03  0.41304334580E+03  0.50400001928E-02 0. -1.
    10030    2    1    2    0    0  0.00000000000E+00  0.00000000000E+00 -0.26021863242E+02  0.80006482837E+03  0.79964153983E+03 0.  0.
        1    1    3    3  502    0  0.36164919344E+03  0.16743206340E+03 -0.45168465681E+02  0.40107832812E+03  0.50400001928E-02 0. -1.
       -1    1    3    3    0  502 -0.36164919344E+03 -0.16743206340E+03  0.19146602438E+02  0.39898650025E+03  0.50400001928E-02 0.  1.
</event>
<event>
 5   0  0.4087283E-04  0.7997918E+03  0.7818609E-02  0.9560319E-01
       -1   -1    0    0    0  501  0.00000000000E+00  0.00000000000E+00  0.30726425996E+03  0.30726426000E+03  0.50400001928E-02 0.  1.
        1   -1    0    0  501    0  0.00000000000E+00  0.00000000000E+00 -0.52045334415E+03  0.52045334418E+03  0.50400001928E-02 0. -1.
    10030    2    1    2    0    0  0.00000000000E+00  0.00000000000E+00 -0.21318908420E+03  0.82771760418E+03  0.79979175205E+03 0.  0.
        1    1    3    3  502    0  0.27724975474E+03 -0.13598739052E+02 -0.40450733956E+03  0.49058999174E+03  0.50400001928E-02 0. -1.
       -1    1    3    3    0  502 -0.27724975474E+03  0.13598739052E+02  0.19131825536E+03  0.33712761244E+03  0.50400001928E-02 0.  1.
</event>
<event>
 5   0  0.4169155E-04  0.8003677E+03  0.7818609E-02  0.9559485E-01
       -1   -1    0    0    0  501  0.00000000000E+00  0.00000000000E+00  0.38348251218E+03  0.38348251221E+03  0.50400001928E-02 0. -1.
        1   -1    0    0  501    0  0.00000000000E+00  0.00000000000E+00 -0.41761258391E+03  0.41761258394E+03  0.50400001928E-02 0.  1.
    10030    2    1    2    0    0  0.00000000000E+00  0.00000000000E+00 -0.34130071730E+02  0.80109509615E+03  0.80036772253E+03 0.  0.
        4    1    3    3  502    0  0.21787076116E+03 -0.12995510250E+03 -0.32684511702E+03  0.41374550227E+03  0.12699999809E+01 0.  1.
       -4    1    3    3    0  502 -0.21787076116E+03  0.12995510250E+03  0.29271504529E+03  0.38734959387E+03  0.12699999809E+01 0. -1.
</event>
<event>
 5   0  0.4087283E-04  0.8005452E+03  0.7818609E-02  0.9559228E-01
       -1   -1    0    0    0  501  0.00000000000E+00  0.00000000000E+00  0.19177325546E+03  0.19177325552E+03  0.50400001928E-02 0.  1.
        1   -1    0    0  501    0  0.00000000000E+00  0.00000000000E+00 -0.83545613538E+03  0.83545613539E+03  0.50400001928E-02 0. -1.
    10030    2    1    2    0    0  0.00000000000E+00  0.00000000000E+00 -0.64368287992E+03  0.10272293909E+04  0.80054517153E+03 0.  0.
        1    1    3    3  502    0  0.37364295469E+03 -0.11307134507E+03 -0.20834171729E+03  0.44249345515E+03  0.50400001928E-02 0.  1.
       -1    1    3    3    0  502 -0.37364295469E+03  0.11307134507E+03 -0.43534116263E+03  0.58473593576E+03  0.50400001928E-02 0. -1.
</event>
<event>
 5   0  0.6593118E-04  0.8002592E+03  0.7818609E-02  0.9559642E-01
        2   -1    0    0  501    0  0.00000000000E+00  0.00000000000E+00  0.26874994238E+03  0.26874994240E+03  0.25500000920E-02 0.  1.
       -2   -1    0    0    0  501  0.00000000000E+00  0.00000000000E+00 -0.59573487933E+03  0.59573487934E+03  0.25500000920E-02 0. -1.
    10030    2    1    2    0    0  0.00000000000E+00  0.00000000000E+00 -0.32698493695E+03  0.86448482174E+03  0.80025924426E+03 0.  0.
        1    1    3    3  502    0 -0.28949015283E+03 -0.12482672421E+03  0.10269245398E+03  0.33155994902E+03  0.50400001928E-02 0.  1.
       -1    1    3    3    0  502  0.28949015283E+03  0.12482672421E+03 -0.42967739093E+03  0.53292487272E+03  0.50400001928E-02 0. -1.
</event>
<event>
 5   0  0.6801147E-04  0.8001159E+03  0.7818609E-02  0.9559849E-01
        2   -1    0    0  501    0  0.00000000000E+00  0.00000000000E+00  0.12114168265E+04  0.12114168265E+04  0.25500000920E-02 0.  1.
       -2   -1    0    0    0  501  0.00000000000E+00  0.00000000000E+00 -0.13211504022E+03  0.13211504025E+03  0.25500000920E-02 0. -1.
    10030    2    1    2    0    0  0.00000000000E+00  0.00000000000E+00  0.10793017862E+04  0.13435318667E+04  0.80011594853E+03 0.  0.
        4    1    3    3  502    0  0.24935843284E+02 -0.39906876703E+03  0.56135659700E+03  0.68920281413E+03  0.12699999809E+01 0. -1.
       -4    1    3    3    0  502 -0.24935843284E+02  0.39906876703E+03  0.51794518923E+03  0.65432905258E+03  0.12699999809E+01 0.  1.
</event>
<event>
 5   0  0.7133039E-04  0.7998456E+03  0.7818609E-02  0.9560241E-01
        2   -1    0    0  501    0  0.00000000000E+00  0.00000000000E+00  0.14836393655E+04  0.14836393655E+04  0.25500000920E-02 0. -1.
       -2   -1    0    0    0  501  0.00000000000E+00  0.00000000000E+00 -0.10780129885E+03  0.10780129888E+03  0.25500000920E-02 0.  1.
    10030    2    1    2    0    0  0.00000000000E+00  0.00000000000E+00  0.13758380666E+04  0.15914406644E+04  0.79984561173E+03 0.  0.
        2    1    3    3  502    0  0.13842115570E+03  0.15669086025E+03  0.95975488715E+01  0.20929537735E+03  0.25500000920E-02 0.  1.
       -2    1    3    3    0  502 -0.13842115570E+03 -0.15669086025E+03  0.13662405178E+04  0.13821452870E+04  0.25500000920E-02 0. -1.
</event>
<event>
 5   0  0.4392552E-04  0.7997828E+03  0.7818609E-02  0.9560332E-01
       -1   -1    0    0    0  501  0.00000000000E+00  0.00000000000E+00  0.16687726463E+03  0.16687726471E+03  0.50400001928E-02 0.  1.
        1   -1    0    0  501    0  0.00000000000E+00  0.00000000000E+00 -0.95826796040E+03  0.95826796042E+03  0.50400001928E-02 0. -1.
    10030    2    1    2    0    0  0.00000000000E+00  0.00000000000E+00 -0.79139069577E+03  0.11251452251E+04  0.79978281068E+03 0.  0.
        5    1    3    3  502    0  0.32113090376E+03 -0.18228854617E+03 -0.61152490170E+03  0.71438012767E+03  0.46999998093E+01 0. -1.
       -5    1    3    3    0  502 -0.32113090376E+03  0.18228854617E+03 -0.17986579407E+03  0.41076509745E+03  0.46999998093E+01 0.  1.
</event>
<event>
 5   0  0.4086111E-04  0.8002320E+03  0.7818609E-02  0.9559681E-01
       -1   -1    0    0    0  501  0.00000000000E+00  0.00000000000E+00  0.63003734078E+03  0.63003734080E+03  0.50400001928E-02 0.  1.
        1   -1    0    0  501    0  0.00000000000E+00  0.00000000000E+00 -0.25410049728E+03  0.25410049733E+03  0.50400001928E-02 0. -1.
    10030    2    1    2    0    0  0.00000000000E+00  0.00000000000E+00  0.37593684349E+03  0.88413783813E+03  0.80023197044E+03 0.  0.
        3    1    3    3  502    0 -0.19954118621E+03  0.12795801110E+03 -0.16816916976E+03  0.29063863724E+03  0.10100000352E+00 0. -1.
       -3    1    3    3    0  502  0.19954118621E+03 -0.12795801110E+03  0.54410601325E+03  0.59349920089E+03  0.10100000352E+00 0.  1.
</event>
<event>
 5   0  0.6593118E-04  0.8022285E+03  0.7818609E-02  0.9556797E-01
       -2   -1    0    0    0  501  0.00000000000E+00  0.00000000000E+00  0.44297993637E+03  0.44297993638E+03  0.25500000920E-02 0. -1.
        2   -1    0    0  501    0  0.00000000000E+00  0.00000000000E+00 -0.36320523918E+03  0.36320523919E+03  0.25500000920E-02 0.  1.
    10030    2    1    2    0    0  0.00000000000E+00  0.00000000000E+00  0.79774697190E+02  0.80618517557E+03  0.80222848054E+03 0.  0.
        1    1    3    3  502    0 -0.28178263004E+02  0.21852975516E+03 -0.29694240411E+03  0.36976216651E+03  0.50400001928E-02 0.  1.
       -1    1    3    3    0  502  0.28178263004E+02 -0.21852975516E+03  0.37671710130E+03  0.43642300906E+03  0.50400001928E-02 0. -1.
</event>
<event>
 5   0  0.4169155E-04  0.8008239E+03  0.7818609E-02  0.9558825E-01
       -1   -1    0    0    0  501  0.00000000000E+00  0.00000000000E+00  0.30008230054E+03  0.30008230058E+03  0.50400001928E-02 0.  1.
        1   -1    0    0  501    0  0.00000000000E+00  0.00000000000E+00 -0.53428584149E+03  0.53428584151E+03  0.50400001928E-02 0. -1.
    10030    2    1    2    0    0  0.00000000000E+00  0.00000000000E+00 -0.23420354095E+03  0.83436814209E+03  0.80082388697E+03 0.  0.
        4    1    3    3  502    0  0.86691585691E+02  0.32241639178E+03  0.11320090609E+03  0.35253910245E+03  0.12699999809E+01 0.  1.
       -4    1    3    3    0  502 -0.86691585691E+02 -0.32241639178E+03 -0.34740444703E+03  0.48182903964E+03  0.12699999809E+01 0. -1.
</event>
<event>
 5   0  0.4087283E-04  0.8000828E+03  0.7818609E-02  0.9559897E-01
        1   -1    0    0  501    0  0.00000000000E+00  0.00000000000E+00  0.54927859170E+03  0.54927859172E+03  0.50400001928E-02 0.  1.
       -1   -1    0    0    0  501  0.00000000000E+00  0.00000000000E+00 -0.29135144719E+03  0.29135144724E+03  0.50400001928E-02 0. -1.
    10030    2    1    2    0    0  0.00000000000E+00  0.00000000000E+00  0.25792714451E+03  0.84063003896E+03  0.80008277730E+03 0.  0.
        1    1    3    3  502    0  0.32363691221E+03  0.15347489166E+03  0.31614288158E+03  0.47774649650E+03  0.50400001928E-02 0.  1.
       -1    1    3    3    0  502 -0.32363691221E+03 -0.15347489166E+03 -0.58215737076E+02  0.36288354246E+03  0.50400001928E-02 0. -1.
</event>
<event>
 5   0  0.4087283E-04  0.8000998E+03  0.7818609E-02  0.9559873E-01
        1   -1    0    0  501    0  0.00000000000E+00  0.00000000000E+00  0.74393776924E+03  0.74393776926E+03  0.50400001928E-02 0.  1.
       -1   -1    0    0    0  501  0.00000000000E+00  0.00000000000E+00 -0.21512542085E+03  0.21512542091E+03  0.50400001928E-02 0. -1.
    10030    2    1    2    0    0  0.00000000000E+00  0.00000000000E+00  0.52881234839E+03  0.95906319017E+03  0.80009980811E+03 0.  0.
        1    1    3    3  502    0 -0.67319890419E+02 -0.31204081270E+03  0.55343085327E+03  0.63889525417E+03  0.50400001928E-02 0.  1.
       -1    1    3    3    0  502  0.67319890419E+02  0.31204081270E+03 -0.24618504873E+02  0.32016793600E+03  0.50400001928E-02 0. -1.
</event>
<event>
 5   0  0.2736375E-04  0.7994471E+03  0.7818609E-02  0.9560818E-01
       -3   -1    0    0    0  501  0.00000000000E+00  0.00000000000E+00  0.14552410305E+03  0.14552413810E+03  0.10100000352E+00 0.  1.
        3   -1    0    0  501    0  0.00000000000E+00  0.00000000000E+00 -0.10979547325E+04  0.10979547372E+04  0.10100000352E+00 0. -1.
    10030    2    1    2    0    0  0.00000000000E+00  0.00000000000E+00 -0.95243062946E+03  0.12434788753E+04  0.79944706472E+03 0.  0.
        4    1    3    3  502    0  0.35558258298E+02 -0.39799041255E+03 -0.49300605407E+03  0.63460014219E+03  0.12699999809E+01 0.  1.
       -4    1    3    3    0  502 -0.35558258298E+02  0.39799041255E+03 -0.45942457539E+03  0.60887873307E+03  0.12699999809E+01 0. -1.
</event>
<event>
 5   0  0.4392552E-04  0.7999612E+03  0.7818609E-02  0.9560073E-01
        1   -1    0    0  501    0  0.00000000000E+00  0.00000000000E+00  0.58335813552E+03  0.58335813554E+03  0.50400001928E-02 0.  1.
       -1   -1    0    0    0  501  0.00000000000E+00  0.00000000000E+00 -0.27424745832E+03  0.27424745837E+03  0.50400001928E-02 0. -1.
    10030    2    1    2    0    0  0.00000000000E+00  0.00000000000E+00  0.30911067719E+03  0.85760559391E+03  0.79996121403E+03 0.  0.
        5    1    3    3  502    0 -0.60226789352E+02 -0.39539189955E+03  0.15389830998E+03  0.42856598115E+03  0.46999998093E+01 0.  1.
       -5    1    3    3    0  502  0.60226789352E+02  0.39539189955E+03  0.15521236721E+03  0.42903961276E+03  0.46999998093E+01 0. -1.
</event>
<event>
 5   0  0.4086111E-04  0.8025159E+03  0.7818609E-02  0.9556383E-01
        1   -1    0    0  501    0  0.00000000000E+00  0.00000000000E+00  0.13616682092E+04  0.13616682093E+04  0.50400001928E-02 0. -1.
       -1   -1    0    0    0  501  0.00000000000E+00  0.00000000000E+00 -0.11824316542E+03  0.11824316552E+03  0.50400001928E-02 0.  1.
    10030    2    1    2    0    0  0.00000000000E+00  0.00000000000E+00  0.12434250438E+04  0.14799113748E+04  0.80251594226E+03 0.  0.
        3    1    3    3  502    0 -0.21900365615E+03  0.26578457132E+03  0.24197370868E+03  0.42089823669E+03  0.10100000352E+00 0.  1.
       -3    1    3    3    0  502  0.21900365615E+03 -0.26578457132E+03  0.10014513352E+04  0.10590131381E+04  0.10100000352E+00 0. -1.
</event>
<event>
 5   0  0.6801147E-04  0.8003780E+03  0.7818609E-02  0.9559470E-01
        2   -1    0    0  501    0  0.00000000000E+00  0.00000000000E+00  0.11845418258E+04  0.11845418258E+04  0.25500000920E-02 0.  1.
       -2   -1    0    0    0  501  0.00000000000E+00  0.00000000000E+00 -0.13520100291E+03  0.13520100294E+03  0.25500000920E-02 0. -1.
    10030    2    1    2    0    0  0.00000000000E+00  0.00000000000E+00  0.10493408229E+04  0.13197428288E+04  0.80037801784E+03 0.  0.
        4    1    3    3  502    0 -0.12212818633E+03  0.14353110812E+03  0.11067883150E+04  0.11227192258E+04  0.12699999809E+01 0.  1.
       -4    1    3    3    0  502  0.12212818633E+03 -0.14353110812E+03 -0.57447492048E+02  0.19702360299E+03  0.12699999809E+01 0. -1.
</event>
<event>
 5   0  0.6593118E-04  0.7997189E+03  0.7818609E-02  0.9560424E-01
        2   -1    0    0  501    0  0.00000000000E+00  0.00000000000E+00  0.20273193624E+03  0.20273193625E+03  0.25500000920E-02 0.  1.
       -2   -1    0    0    0  501  0.00000000000E+00  0.00000000000E+00 -0.78866495710E+03  0.78866495711E+03  0.25500000920E-02 0. -1.
    10030    2    1    2    0    0  0.00000000000E+00  0.00000000000E+00 -0.58593302087E+03  0.99139689336E+03  0.79971888512E+03 0.  0.
        1    1    3    3  502    0  0.38875561096E+03 -0.63564738052E+02 -0.20783211493E+03  0.44538251986E+03  0.50400001928E-02 0. -1.
       -1    1    3    3    0  502 -0.38875561096E+03  0.63564738052E+02 -0.37810090594E+03  0.54601437350E+03  0.50400001928E-02 0.  1.
</event>
<event>
 5   0  0.4169155E-04  0.7995094E+03  0.7818609E-02  0.9560728E-01
       -1   -1    0    0    0  501  0.00000000000E+00  0.00000000000E+00  0.40737128223E+03  0.40737128226E+03  0.50400001928E-02 0. -1.
        1   -1    0    0  501    0  0.00000000000E+00  0.00000000000E+00 -0.39228050972E+03  0.39228050975E+03  0.50400001928E-02 0.  1.
    10030    2    1    2    0    0  0.00000000000E+00  0.00000000000E+00  0.15090772510E+02  0.79965179202E+03  0.79950938522E+03 0.  0.
        4    1    3    3  502    0  0.38916590577E+02 -0.36950111884E+03 -0.13998215249E+03  0.39704180355E+03  0.12699999809E+01 0.  1.
       -4    1    3    3    0  502 -0.38916590577E+02  0.36950111884E+03  0.15507292500E+03  0.40260998847E+03  0.12699999809E+01 0. -1.
</event>
<event>
 5   0  0.6672462E-04  0.7998605E+03  0.7818609E-02  0.9560219E-01
       -2   -1    0    0    0  501  0.00000000000E+00  0.00000000000E+00  0.14220242241E+03  0.14220242244E+03  0.25500000920E-02 0. -1.
        2   -1    0    0  501    0  0.00000000000E+00  0.00000000000E+00 -0.11247642253E+04  0.11247642253E+04  0.25500000920E-02 0.  1.
    10030    2    1    2    0    0  0.00000000000E+00  0.00000000000E+00 -0.98256180291E+03  0.12669666478E+04  0.79986048159E+03 0.  0.
        5    1    3    3  502    0 -0.13571654519E+03  0.33820693133E+03 -0.75213001601E+03  0.83577781738E+03  0.46999998093E+01 0.  1.
       -5    1    3    3    0  502  0.13571654519E+03 -0.33820693133E+03 -0.23043178690E+03  0.43118883039E+03  0.46999998093E+01 0. -1.
</event>
<event>
 5   0  0.4169155E-04  0.8001563E+03  0.7818609E-02  0.9559791E-01
        1   -1    0    0  501    0  0.00000000000E+00  0.00000000000E+00  0.93053668056E+03  0.93053668057E+03  0.50400001928E-02 0. -1.
       -1   -1    0    0    0  501  0.00000000000E+00  0.00000000000E+00 -0.17201096898E+03  0.17201096905E+03  0.50400001928E-02 0.  1.
    10030    2    1    2    0    0  0.00000000000E+00  0.00000000000E+00  0.75852571158E+03  0.11025476496E+04  0.80015627509E+03 0.  0.
        4    1    3    3  502    0  0.27315063706E+03 -0.95891654213E+02 -0.12375050546E+01  0.28949891916E+03  0.12699999809E+01 0.  1.
       -4    1    3    3    0  502 -0.27315063706E+03  0.95891654213E+02  0.75976321663E+03  0.81304873047E+03  0.12699999809E+01 0. -1.
</event>
<event>
 5   0  0.4087283E-04  0.8000502E+03  0.7818609E-02  0.9559944E-01
       -1   -1    0    0    0  501  0.00000000000E+00  0.00000000000E+00  0.29958948773E+03  0.29958948777E+03  0.50400001928E-02 0.  1.
        1   -1    0    0  501    0  0.00000000000E+00  0.00000000000E+00 -0.53413120346E+03  0.53413120349E+03  0.50400001928E-02 0. -1.
    10030    2    1    2    0    0  0.00000000000E+00  0.00000000000E+00 -0.23454171574E+03  0.83372069126E+03  0.80005023256E+03 0.  0.
        1    1    3    3  502    0  0.72292967217E+01 -0.28911003466E+03 -0.40527736611E+03  0.49788213301E+03  0.50400001928E-02 0. -1.
       -1    1    3    3    0  502 -0.72292967217E+01  0.28911003466E+03  0.17073565037E+03  0.33583855824E+03  0.50400001928E-02 0.  1.
</event>
<event>
 5   0  0.4087283E-04  0.8001072E+03  0.7818609E-02  0.9559862E-01
        1   -1    0    0  501    0  0.00000000000E+00  0.00000000000E+00  0.13133211868E+04  0.13133211868E+04  0.50400001928E-02 0.  1.
       -1   -1    0    0    0  501  0.00000000000E+00  0.00000000000E+00 -0.12186118584E+03  0.12186118595E+03  0.50400001928E-02 0. -1.
    10030    2    1    2    0    0  0.00000000000E+00  0.00000000000E+00  0.11914600010E+04  0.14351823728E+04  0.80010718607E+03 0.  0.
        1    1    3    3  502    0 -0.11290961063E+03 -0.35804378833E+02  0.12811451613E+04  0.12866092873E+04  0.50400001928E-02 0.  1.
       -1    1    3    3    0  502  0.11290961063E+03  0.35804378833E+02 -0.89685160358E+02  0.14857308548E+03  0.50400001928E-02 0. -1.
</event>
<event>
 5   0  0.4086111E-04  0.8006660E+03  0.7818609E-02  0.9559054E-01
        1   -1    0    0  501    0  0.00000000000E+00  0.00000000000E+00  0.10480396854E+04  0.10480396854E+04  0.50400001928E-02 0. -1.
       -1   -1    0    0    0  501  0.00000000000E+00  0.00000000000E+00 -0.15292026046E+03  0.15292026054E+03  0.50400001928E-02 0.  1.
    10030    2    1    2    0    0  0.00000000000E+00  0.00000000000E+00  0.89511942494E+03  0.12009599459E+04  0.80066597709E+03 0.  0.
        3    1    3    3  502    0 -0.32143359291E+03 -0.15738507494E+03  0.17849974775E+03  0.39993972873E+03  0.10100000352E+00 0.  1.
       -3    1    3    3    0  502  0.32143359291E+03  0.15738507494E+03  0.71661967719E+03  0.80102021722E+03  0.10100000352E+00 0. -1.
</event>
<event>
 5   0  0.6672462E-04  0.8000074E+03  0.7818609E-02  0.9560006E-01
        2   -1    0    0  501    0  0.00000000000E+00  0.00000000000E+00  0.56233228749E+03  0.56233228749E+03  0.25500000920E-02 0. -1.
       -2   -1    0    0    0  501  0.00000000000E+00  0.00000000000E+00 -0.28453452833E+03  0.28453452834E+03  0.25500000920E-02 0.  1.
    10030    2    1    2    0    0  0.00000000000E+00  0.00000000000E+00  0.27779775916E+03  0.84686681584E+03  0.80000738045E+03 0.  0.
        5    1    3    3  502    0  0.75821514706E+02 -0.17987789317E+03 -0.23065694054E+03  0.30220799585E+03  0.46999998093E+01 0.  1.
       -5    1    3    3    0  502 -0.75821514706E+02  0.17987789317E+03  0.50845469970E+03  0.54465881998E+03  0.46999998093E+01 0. -1.
</event>
<event>
 5   0  0.6593118E-04  0.8005114E+03  0.7818609E-02  0.9559277E-01
        2   -1    0    0  501    0  0.00000000000E+00  0.00000000000E+00  0.44046151513E+03  0.44046151514E+03  0.25500000920E-02 0. -1.
       -2   -1    0    0    0  501  0.00000000000E+00  0.00000000000E+00 -0.36371988494E+03  0.36371988495E+03  0.25500000920E-02 0.  1.
    10030    2    1    2    0    0  0.00000000000E+00  0.00000000000E+00  0.76741630193E+02  0.80418140009E+03  0.80051136559E+03 0.  0.
        1    1    3    3  502    0  0.79839678911E+02 -0.25771335586E+02  0.43152944607E+03  0.43960914335E+03  0.50400001928E-02 0. -1.
       -1    1    3    3    0  502 -0.79839678911E+02  0.25771335586E+02 -0.35478781587E+03  0.36457225674E+03  0.50400001928E-02 0.  1.
</event>
<event>
 5   0  0.4169155E-04  0.8004178E+03  0.7818609E-02  0.9559413E-01
       -1   -1    0    0    0  501  0.00000000000E+00  0.00000000000E+00  0.11876041916E+03  0.11876041927E+03  0.50400001928E-02 0. -1.
        1   -1    0    0  501    0  0.00000000000E+00  0.00000000000E+00 -0.13486577124E+04  0.13486577124E+04  0.50400001928E-02 0.  1.
    10030    2    1    2    0    0  0.00000000000E+00  0.00000000000E+00 -0.12298972933E+04  0.14674181317E+04  0.80041777922E+03 0.  0.
        4    1    3    3  502    0 -0.11645281338E+03 -0.11138862457E+02  0.86711212260E+02  0.14562204240E+03  0.12699999809E+01 0. -1.
       -4    1    3    3    0  502  0.11645281338E+03  0.11138862457E+02 -0.13166085055E+04  0.13217960893E+04  0.12699999809E+01 0.  1.
</event>
<event>
 5   0  0.4086111E-04  0.8000703E+03  0.7818609E-02  0.9559915E-01
        1   -1    0    0  501    0  0.00000000000E+00  0.00000000000E+00  0.19708637366E+04  0.19708637366E+04  0.50400001928E-02 0. -1.
       -1   -1    0    0    0  501  0.00000000000E+00  0.00000000000E+00 -0.81196946047E+02  0.81196946203E+02  0.50400001928E-02 0.  1.
    10030    2    1    2    0    0  0.00000000000E+00  0.00000000000E+00  0.18896667906E+04  0.20520606828E+04  0.80007028855E+03 0.  0.
        3    1    3    3  502    0  0.24949883556E+03 -0.60205860203E+02  0.15782251994E+03  0.30130113267E+03  0.10100000352E+00 0.  1.
       -3    1    3    3    0  502 -0.24949883556E+03  0.60205860203E+02  0.17318442706E+04  0.17507595501E+04  0.10100000352E+00 0. -1.
</event>
<event>
 5   0  0.6672462E-04  0.8000327E+03  0.7818609E-02  0.9559970E-01
        2   -1    0    0  501    0  0.00000000000E+00  0.00000000000E+00  0.18114926633E+03  0.18114926635E+03  0.25500000920E-02 0.  1.
       -2   -1    0    0    0  501  0.00000000000E+00  0.00000000000E+00 -0.88332181531E+03  0.88332181531E+03  0.25500000920E-02 0. -1.
    10030    2    1    2    0    0  0.00000000000E+00  0.00000000000E+00 -0.70217254897E+03  0.10644710817E+04  0.80003274631E+03 0.  0.
        5    1    3    3  502    0  0.12363515095E+03 -0.22219533669E+03 -0.76190606510E+03  0.80323057725E+03  0.46999998093E+01 0. -1.
       -5    1    3    3    0  502 -0.12363515095E+03  0.22219533669E+03  0.59733516130E+02  0.26124050441E+03  0.46999998093E+01 0.  1.
</event>
<event>
 5   0  0.4086111E-04  0.8000714E+03  0.7818609E-02  0.9559914E-01
        1   -1    0    0  501    0  0.00000000000E+00  0.00000000000E+00  0.20483049939E+03  0.20483049946E+03  0.50400001928E-02 0.  1.
       -1   -1    0    0    0  501  0.00000000000E+00  0.00000000000E+00 -0.78127308989E+03  0.78127308991E+03  0.50400001928E-02 0. -1.
    10030    2    1    2    0    0  0.00000000000E+00  0.00000000000E+00 -0.57644259049E+03  0.98610358936E+03  0.80007138982E+03 0.  0.
        3    1    3    3  502    0  0.24951792518E+03  0.32659536989E+01 -0.67358559218E+03  0.71832264452E+03  0.10100000352E+00 0. -1.
       -3    1    3    3    0  502 -0.24951792518E+03 -0.32659536989E+01  0.97143001683E+02  0.26778094484E+03  0.10100000352E+00 0.  1.
</event>
<event>
 5   0  0.4087283E-04  0.7998929E+03  0.7818609E-02  0.9560172E-01
        1   -1    0    0  501    0  0.00000000000E+00  0.00000000000E+00  0.56552416632E+03  0.56552416634E+03  0.50400001928E-02 0.  1.
       -1   -1    0    0    0  501  0.00000000000E+00  0.00000000000E+00 -0.28284760350E+03  0.28284760355E+03  0.50400001928E-02 0. -1.
    10030    2    1    2    0    0  0.00000000000E+00  0.00000000000E+00  0.28267656282E+03  0.84837176989E+03  0.79989288081E+03 0.  0.
        1    1    3    3  502    0 -0.22007377763E+03 -0.31935661441E+03  0.24490934073E+03  0.45869565070E+03  0.50400001928E-02 0. -1.
       -1    1    3    3    0  502  0.22007377763E+03  0.31935661441E+03  0.37767222082E+02  0.38967611918E+03  0.50400001928E-02 0.  1.
</event>
<event>
 5   0  0.6801147E-04  0.7947453E+03  0.7818609E-02  0.9567654E-01
       -2   -1    0    0    0  501  0.00000000000E+00  0.00000000000E+00  0.12568302100E+03  0.12568302103E+03  0.25500000920E-02 0.  1.
        2   -1    0    0  501    0  0.00000000000E+00  0.00000000000E+00 -0.12563752565E+04  0.12563752565E+04  0.25500000920E-02 0. -1.
    10030    2    1    2    0    0  0.00000000000E+00  0.00000000000E+00 -0.11306922355E+04  0.13820582775E+04  0.79474533724E+03 0.  0.
        4    1    3    3  502    0 -0.12135634089E+03 -0.15761673245E+03  0.32860700307E+02  0.20162300054E+03  0.12699999809E+01 0.  1.
       -4    1    3    3    0  502  0.12135634089E+03  0.15761673245E+03 -0.11635529358E+04  0.11804352770E+04  0.12699999809E+01 0. -1.
</event>
<event>
 5   0  0.7133039E-04  0.8001894E+03  0.7818609E-02  0.9559743E-01
        2   -1    0    0  501    0  0.00000000000E+00  0.00000000000E+00  0.50907858962E+03  0.50907858963E+03  0.25500000920E-02 0.  1.
       -2   -1    0    0    0  501  0.00000000000E+00  0.00000000000E+00 -0.31444215980E+03  0.31444215981E+03  0.25500000920E-02 0. -1.
    10030    2    1    2    0    0  0.00000000000E+00  0.00000000000E+00  0.19463642982E+03  0.82352074944E+03  0.80018940567E+03 0.  0.
        2    1    3    3  502    0  0.24856103953E+03  0.30962679473E+03  0.14799236464E+03  0.42373704391E+03  0.25500000920E-02 0.  1.
       -2    1    3    3    0  502 -0.24856103953E+03 -0.30962679473E+03  0.46644065184E+02  0.39978370553E+03  0.25500000920E-02 0. -1.
</event>
<event>
 5   0  0.4104786E-04  0.7991864E+03  0.7818609E-02  0.9561196E-01
        1   -1    0    0  501    0  0.00000000000E+00  0.00000000000E+00  0.76757314565E+03  0.76757314567E+03  0.50400001928E-02 0. -1.
       -1   -1    0    0    0  501  0.00000000000E+00  0.00000000000E+00 -0.20802542007E+03  0.20802542013E+03  0.50400001928E-02 0.  1.
    10030    2    1    2    0    0  0.00000000000E+00  0.00000000000E+00  0.55954772558E+03  0.97559856580E+03  0.79918640153E+03 0.  0.
        2    1    3    3  502    0 -0.39123047917E+03 -0.61424018962E+02  0.21471258081E+03  0.45048384023E+03  0.25500000920E-02 0.  1.
       -2    1    3    3    0  502  0.39123047917E+03  0.61424018962E+02  0.34483514477E+03  0.52511472558E+03  0.25500000920E-02 0. -1.
</event>
<event>
 5   0  0.7133039E-04  0.8000077E+03  0.7818609E-02  0.9560006E-01
       -2   -1    0    0    0  501  0.00000000000E+00  0.00000000000E+00  0.10877503408E+03  0.10877503411E+03  0.25500000920E-02 0.  1.
        2   -1    0    0  501    0  0.00000000000E+00  0.00000000000E+00 -0.14709541567E+04  0.14709541567E+04  0.25500000920E-02 0. -1.
    10030    2    1    2    0    0  0.00000000000E+00  0.00000000000E+00 -0.13621791227E+04  0.15797291908E+04  0.80000772134E+03 0.  0.
        2    1    3    3  502    0  0.13838818622E+03 -0.10087096178E+03 -0.13949080445E+04  0.14053806223E+04  0.25500000920E-02 0. -1.
       -2    1    3    3    0  502 -0.13838818622E+03  0.10087096178E+03  0.32728921832E+02  0.17434856852E+03  0.25500000920E-02 0.  1.
</event>
<event>
 5   0  0.4104786E-04  0.7994432E+03  0.7818609E-02  0.9560823E-01
       -1   -1    0    0    0  501  0.00000000000E+00  0.00000000000E+00  0.38721725301E+03  0.38721725304E+03  0.50400001928E-02 0. -1.
        1   -1    0    0  501    0  0.00000000000E+00  0.00000000000E+00 -0.41262971765E+03  0.41262971768E+03  0.50400001928E-02 0.  1.
    10030    2    1    2    0    0  0.00000000000E+00  0.00000000000E+00 -0.25412464645E+02  0.79984697073E+03  0.79944317073E+03 0.  0.
        2    1    3    3  502    0  0.24285820454E+03  0.27259773623E+03 -0.17553889862E+03  0.40509694920E+03  0.25500000920E-02 0. -1.
       -2    1    3    3    0  502 -0.24285820454E+03 -0.27259773623E+03  0.15012643398E+03  0.39475002153E+03  0.25500000920E-02 0.  1.
</event>
<event>
 5   0  0.4392552E-04  0.7996379E+03  0.7818609E-02  0.9560541E-01
        1   -1    0    0  501    0  0.00000000000E+00  0.00000000000E+00  0.27411806188E+03  0.27411806192E+03  0.50400001928E-02 0. -1.
       -1   -1    0    0    0  501  0.00000000000E+00  0.00000000000E+00 -0.58316185891E+03  0.58316185893E+03  0.50400001928E-02 0.  1.
    10030    2    1    2    0    0  0.00000000000E+00  0.00000000000E+00 -0.30904379703E+03  0.85727992085E+03  0.79963791444E+03 0.  0.
        5    1    3    3  502    0 -0.31035120914E+03 -0.10409484330E+03 -0.40058703906E+03  0.51734483208E+03  0.46999998093E+01 0.  1.
       -5    1    3    3    0  502  0.31035120914E+03  0.10409484330E+03  0.91543242036E+02  0.33993508877E+03  0.46999998093E+01 0. -1.
</event>
<event>
 5   0  0.4087283E-04  0.8001079E+03  0.7818609E-02  0.9559861E-01
        1   -1    0    0  501    0  0.00000000000E+00  0.00000000000E+00  0.93548889784E+03  0.93548889785E+03  0.50400001928E-02 0.  1.
       -1   -1    0    0    0  501  0.00000000000E+00  0.00000000000E+00 -0.17107971184E+03  0.17107971192E+03  0.50400001928E-02 0. -1.
    10030    2    1    2    0    0  0.00000000000E+00  0.00000000000E+00  0.76440918599E+03  0.11065686098E+04  0.80010792053E+03 0.  0.
        1    1    3    3  502    0 -0.22599723358E+03 -0.25431506393E+03  0.67327211255E+03  0.75435153535E+03  0.50400001928E-02 0. -1.
       -1    1    3    3    0  502  0.22599723358E+03  0.25431506393E+03  0.91137073443E+02  0.35221707442E+03  0.50400001928E-02 0.  1.
</event>
<event>
 5   0  0.7133039E-04  0.7995163E+03  0.7818609E-02  0.9560718E-01
        2   -1    0    0  501    0  0.00000000000E+00  0.00000000000E+00  0.44652242345E+03  0.44652242346E+03  0.25500000920E-02 0.  1.
       -2   -1    0    0    0  501  0.00000000000E+00  0.00000000000E+00 -0.35789149559E+03  0.35789149560E+03  0.25500000920E-02 0. -1.
    10030    2    1    2    0    0  0.00000000000E+00  0.00000000000E+00  0.88630927864E+02  0.80441391906E+03  0.79951629865E+03 0.  0.
        2    1    3    3  502    0 -0.10452015669E+03 -0.33476717823E+03  0.23735806580E+03  0.42347653793E+03  0.25500000920E-02 0.  1.
       -2    1    3    3    0  502  0.10452015669E+03  0.33476717823E+03 -0.14872713793E+03  0.38093738113E+03  0.25500000920E-02 0. -1.
</event>
<event>
 5   0  0.6801147E-04  0.8000177E+03  0.7818609E-02  0.9559991E-01
       -2   -1    0    0    0  501  0.00000000000E+00  0.00000000000E+00  0.22361282582E+03  0.22361282583E+03  0.25500000920E-02 0.  1.
        2   -1    0    0  501    0  0.00000000000E+00  0.00000000000E+00 -0.71555414154E+03  0.71555414155E+03  0.25500000920E-02 0. -1.
    10030    2    1    2    0    0  0.00000000000E+00  0.00000000000E+00 -0.49194131572E+03  0.93916696738E+03  0.80001770887E+03 0.  0.
        4    1    3    3  502    0  0.24938543774E+03  0.21443579414E+03  0.21288383812E+02  0.32959158750E+03  0.12699999809E+01 0.  1.
       -4    1    3    3    0  502 -0.24938543774E+03 -0.21443579414E+03 -0.51322969953E+03  0.60957537988E+03  0.12699999809E+01 0. -1.
</event>
<event>
 5   0  0.6593118E-04  0.7997605E+03  0.7818609E-02  0.9560364E-01
        2   -1    0    0  501    0  0.00000000000E+00  0.00000000000E+00  0.60980060307E+03  0.60980060308E+03  0.25500000920E-02 0. -1.
       -2   -1    0    0    0  501  0.00000000000E+00  0.00000000000E+00 -0.26222376375E+03  0.26222376376E+03  0.25500000920E-02 0.  1.
    10030    2    1    2    0    0  0.00000000000E+00  0.00000000000E+00  0.34757683932E+03  0.87202436684E+03  0.79976048735E+03 0.  0.
        1    1    3    3  502    0 -0.93515587817E+02  0.37541960415E+03  0.28401247378E+03  0.47994596532E+03  0.50400001928E-02 0. -1.
       -1    1    3    3    0  502  0.93515587817E+02 -0.37541960415E+03  0.63564365542E+02  0.39207840152E+03  0.50400001928E-02 0.  1.
</event>
<event>
 5   0  0.6593118E-04  0.7999678E+03  0.7818609E-02  0.9560064E-01
        2   -1    0    0  501    0  0.00000000000E+00  0.00000000000E+00  0.25633986427E+03  0.25633986429E+03  0.25500000920E-02 0. -1.
       -2   -1    0    0    0  501  0.00000000000E+00  0.00000000000E+00 -0.62412104997E+03  0.62412104998E+03  0.25500000920E-02 0.  1.
    10030    2    1    2    0    0  0.00000000000E+00  0.00000000000E+00 -0.36778118570E+03  0.88046091426E+03  0.79996776247E+03 0.  0.
        1    1    3    3  502    0  0.86376720419E+02 -0.23014861750E+03  0.16338575065E+03  0.29516813431E+03  0.50400001928E-02 0. -1.
       -1    1    3    3    0  502 -0.86376720419E+02  0.23014861750E+03 -0.53116693635E+03  0.58529277996E+03  0.50400001928E-02 0.  1.
</event>
<event>
 5   0  0.2736375E-04  0.7996029E+03  0.7818609E-02  0.9560592E-01
        4   -1    0    0  501    0  0.00000000000E+00  0.00000000000E+00  0.22499802145E+03  0.22500160567E+03  0.12699999809E+01 0. -1.
       -4   -1    0    0    0  501  0.00000000000E+00  0.00000000000E+00 -0.71040182042E+03  0.71040295562E+03  0.12699999809E+01 0.  1.
    10030    2    1    2    0    0  0.00000000000E+00  0.00000000000E+00 -0.48540379897E+03  0.93540456129E+03  0.79960292973E+03 0.  0.
        5    1    3    3  502    0  0.16178184702E+03  0.83575223918E+02 -0.65904028644E+03  0.68375022722E+03  0.46999998093E+01 0.  1.
       -5    1    3    3    0  502 -0.16178184702E+03 -0.83575223918E+02  0.17363648747E+03  0.25165433407E+03  0.46999998093E+01 0. -1.
</event>
<event>
 5   0  0.6672462E-04  0.8001408E+03  0.7818609E-02  0.9559813E-01
        2   -1    0    0  501    0  0.00000000000E+00  0.00000000000E+00  0.94087016123E+03  0.94087016123E+03  0.25500000920E-02 0. -1.
       -2   -1    0    0    0  501  0.00000000000E+00  0.00000000000E+00 -0.17011522651E+03  0.17011522653E+03  0.25500000920E-02 0.  1.
    10030    2    1    2    0    0  0.00000000000E+00  0.00000000000E+00  0.77075493472E+03  0.11109853878E+04  0.80014083911E+03 0.  0.
        5    1    3    3  502    0 -0.18352077993E+03  0.20404395372E+03 -0.18766413989E+02  0.27511466702E+03  0.46999998093E+01 0.  1.
       -5    1    3    3    0  502  0.18352077993E+03 -0.20404395372E+03  0.78952134871E+03  0.83587072073E+03  0.46999998093E+01 0. -1.
</event>
<event>
 5   0  0.6593118E-04  0.8000689E+03  0.7818609E-02  0.9559917E-01
       -2   -1    0    0    0  501  0.00000000000E+00  0.00000000000E+00  0.12275604173E+03  0.12275604176E+03  0.25500000920E-02 0. -1.
        2   -1    0    0  501    0  0.00000000000E+00  0.00000000000E+00 -0.13036225472E+04  0.13036225472E+04  0.25500000920E-02 0.  1.
    10030    2    1    2    0    0  0.00000000000E+00  0.00000000000E+00 -0.11808665054E+04  0.14263785889E+04  0.80006885660E+03 0.  0.
        1    1    3    3  502    0 -0.12167929658E+03  0.12151855064E+03  0.53495327204E+02  0.18009541755E+03  0.50400001928E-02 0. -1.
       -1    1    3    3    0  502  0.12167929658E+03 -0.12151855064E+03 -0.12343618326E+04  0.12462831714E+04  0.50400001928E-02 0.  1.
</event>
<event>
 5   0  0.6672462E-04  0.8001452E+03  0.7818609E-02  0.9559807E-01
       -2   -1    0    0    0  501  0.00000000000E+00  0.00000000000E+00  0.14587458080E+03  0.14587458082E+03  0.25500000920E-02 0. -1.
        2   -1    0    0  501    0  0.00000000000E+00  0.00000000000E+00 -0.10972309045E+04  0.10972309045E+04  0.25500000920E-02 0.  1.
    10030    2    1    2    0    0  0.00000000000E+00  0.00000000000E+00 -0.95135632367E+03  0.12431054853E+04  0.80014523242E+03 0.  0.
        5    1    3    3  502    0  0.27575596749E+03 -0.23214201944E+03 -0.74523886643E+03  0.82784921866E+03  0.46999998093E+01 0.  1.
       -5    1    3    3    0  502 -0.27575596749E+03  0.23214201944E+03 -0.20611745724E+03  0.41525626663E+03  0.46999998093E+01 0. -1.
</event>
<event>
 5   0  0.6801147E-04  0.7999805E+03  0.7818609E-02  0.9560045E-01
       -2   -1    0    0    0  501  0.00000000000E+00  0.00000000000E+00  0.18809877705E+03  0.18809877706E+03  0.25500000920E-02 0.  1.
        2   -1    0    0  501    0  0.00000000000E+00  0.00000000000E+00 -0.85057538913E+03  0.85057538914E+03  0.25500000920E-02 0. -1.
    10030    2    1    2    0    0  0.00000000000E+00  0.00000000000E+00 -0.66247661208E+03  0.10386741662E+04  0.79998047599E+03 0.  0.
        4    1    3    3  502    0 -0.14176340665E+03 -0.24097419138E+03  0.40162939376E+02  0.28245371121E+03  0.12699999809E+01 0.  1.
       -4    1    3    3    0  502  0.14176340665E+03  0.24097419138E+03 -0.70263955146E+03  0.75622045499E+03  0.12699999809E+01 0. -1.
</event>
<event>
 5   0  0.4087283E-04  0.8002936E+03  0.7818609E-02  0.9559592E-01
       -1   -1    0    0    0  501  0.00000000000E+00  0.00000000000E+00  0.27938341272E+03  0.27938341277E+03  0.50400001928E-02 0. -1.
        1   -1    0    0  501    0  0.00000000000E+00  0.00000000000E+00 -0.57311015610E+03  0.57311015613E+03  0.50400001928E-02 0.  1.
    10030    2    1    2    0    0  0.00000000000E+00  0.00000000000E+00 -0.29372674338E+03  0.85249356889E+03  0.80029362438E+03 0.  0.
        1    1    3    3  502    0 -0.21405859946E+03 -0.15257188281E+03 -0.46823378725E+03  0.53697499288E+03  0.50400001928E-02 0.  1.
       -1    1    3    3    0  502  0.21405859946E+03  0.15257188281E+03  0.17450704387E+03  0.31551857602E+03  0.50400001928E-02 0. -1.
</event>
<event>
 5   0  0.6970013E-04  0.8004079E+03  0.7818609E-02  0.9559427E-01
        2   -1    0    0  501    0  0.00000000000E+00  0.00000000000E+00  0.97595071016E+03  0.97595071016E+03  0.25500000920E-02 0. -1.
       -2   -1    0    0    0  501  0.00000000000E+00  0.00000000000E+00 -0.16410993810E+03  0.16410993812E+03  0.25500000920E-02 0.  1.
    10030    2    1    2    0    0  0.00000000000E+00  0.00000000000E+00  0.81184077206E+03  0.11400606483E+04  0.80040792262E+03 0.  0.
        3    1    3    3  502    0  0.12675910927E+03 -0.18538656764E+02 -0.13411596109E+03  0.18546874346E+03  0.10100000352E+00 0.  1.
       -3    1    3    3    0  502 -0.12675910927E+03  0.18538656764E+02  0.94595673315E+03  0.95459190483E+03  0.10100000352E+00 0. -1.
</event>
<event>
 5   0  0.6593118E-04  0.7995045E+03  0.7818609E-02  0.9560735E-01
        2   -1    0    0  501    0  0.00000000000E+00  0.00000000000E+00  0.22445104221E+04  0.22445104221E+04  0.25500000920E-02 0. -1.
       -2   -1    0    0    0  501  0.00000000000E+00  0.00000000000E+00 -0.71196763052E+02  0.71196763098E+02  0.25500000920E-02 0.  1.
    10030    2    1    2    0    0  0.00000000000E+00  0.00000000000E+00  0.21733136590E+04  0.23157071852E+04  0.79950453843E+03 0.  0.
        1    1    3    3  502    0  0.30842618669E+03  0.48725839670E+02  0.36370382418E+03  0.47935518338E+03  0.50400001928E-02 0.  1.
       -1    1    3    3    0  502 -0.30842618669E+03 -0.48725839670E+02  0.18096098348E+04  0.18363520018E+04  0.50400001928E-02 0. -1.
</event>
<event>
 5   0  0.4169155E-04  0.8001097E+03  0.7818609E-02  0.9559858E-01
       -1   -1    0    0    0  501  0.00000000000E+00  0.00000000000E+00  0.61011287746E+03  0.61011287749E+03  0.50400001928E-02 0.  1.
        1   -1    0    0  501    0  0.00000000000E+00  0.00000000000E+00 -0.26231851109E+03  0.26231851114E+03  0.50400001928E-02 0. -1.
    10030    2    1    2    0    0  0.00000000000E+00  0.00000000000E+00  0.34779436637E+03  0.87243138862E+03  0.80010974658E+03 0.  0.
        4    1    3    3  502    0  0.32359328355E+03  0.19899092892E+03  0.31066302255E+03  0.49073733242E+03  0.12699999809E+01 0.  1.
       -4    1    3    3    0  502 -0.32359328355E+03 -0.19899092892E+03  0.37131343819E+02  0.38169405620E+03  0.12699999809E+01 0. -1.
</event>
<event>
 5   0  0.6970013E-04  0.7998504E+03  0.7818609E-02  0.9560234E-01
       -2   -1    0    0    0  501  0.00000000000E+00  0.00000000000E+00  0.27299572552E+03  0.27299572553E+03  0.25500000920E-02 0. -1.
        2   -1    0    0  501    0  0.00000000000E+00  0.00000000000E+00 -0.58587065026E+03  0.58587065026E+03  0.25500000920E-02 0.  1.
    10030    2    1    2    0    0  0.00000000000E+00  0.00000000000E+00 -0.31287492473E+03  0.85886637580E+03  0.79985044411E+03 0.  0.
        3    1    3    3  502    0 -0.59018626794E+02 -0.34737524322E+03 -0.35957116086E+03  0.50343240642E+03  0.10100000352E+00 0.  1.
       -3    1    3    3    0  502  0.59018626794E+02  0.34737524322E+03  0.46696236127E+02  0.35543396937E+03  0.10100000352E+00 0. -1.
</event>
<event>
 5   0  0.6593118E-04  0.8000331E+03  0.7818609E-02  0.9559969E-01
       -2   -1    0    0    0  501  0.00000000000E+00  0.00000000000E+00  0.20729641672E+03  0.20729641673E+03  0.25500000920E-02 0. -1.
        2   -1    0    0  501    0  0.00000000000E+00  0.00000000000E+00 -0.77190540927E+03  0.77190540928E+03  0.25500000920E-02 0.  1.
    10030    2    1    2    0    0  0.00000000000E+00  0.00000000000E+00 -0.56460899256E+03  0.97920182601E+03  0.80003306281E+03 0.  0.
        1    1    3    3  502    0 -0.38499094991E+02  0.35632532681E+03 -0.49975255050E+03  0.61498173192E+03  0.50400001928E-02 0.  1.
       -1    1    3    3    0  502  0.38499094991E+02 -0.35632532681E+03 -0.64856442057E+02  0.36422009409E+03  0.50400001928E-02 0. -1.
</event>
<event>
 5   0  0.4104786E-04  0.7997188E+03  0.7818609E-02  0.9560424E-01
       -1   -1    0    0    0  501  0.00000000000E+00  0.00000000000E+00  0.27434178886E+03  0.27434178890E+03  0.50400001928E-02 0.  1.
        1   -1    0    0  501    0  0.00000000000E+00  0.00000000000E+00 -0.58280410451E+03  0.58280410454E+03  0.50400001928E-02 0. -1.
    10030    2    1    2    0    0  0.00000000000E+00  0.00000000000E+00 -0.30846231566E+03  0.85714589344E+03  0.79971875210E+03 0.  0.
        2    1    3    3  502    0 -0.13980921955E+03  0.84978406811E+02  0.23682436818E+03  0.28784323661E+03  0.25500000920E-02 0.  1.
       -2    1    3    3    0  502  0.13980921955E+03 -0.84978406811E+02 -0.54528668384E+03  0.56930265683E+03  0.25500000920E-02 0. -1.
</event>
<event>
 5   0  0.6672462E-04  0.7998710E+03  0.7818609E-02  0.9560204E-01
        2   -1    0    0  501    0  0.00000000000E+00  0.00000000000E+00  0.15969772173E+03  0.15969772175E+03  0.25500000920E-02 0. -1.
       -2   -1    0    0    0  501  0.00000000000E+00  0.00000000000E+00 -0.10015696123E+04  0.10015696123E+04  0.25500000920E-02 0.  1.
    10030    2    1    2    0    0  0.00000000000E+00  0.00000000000E+00 -0.84187189054E+03  0.11612673340E+04  0.79987095272E+03 0.  0.
        5    1    3    3  502    0 -0.71812770682E+01 -0.39831129094E+03 -0.47170476949E+03  0.61743901301E+03  0.46999998093E+01 0.  1.
       -5    1    3    3    0  502  0.71812770682E+01  0.39831129094E+03 -0.37016712105E+03  0.54382832102E+03  0.46999998093E+01 0. -1.
</event>
<event>
 5   0  0.4087283E-04  0.8008382E+03  0.7818609E-02  0.9558805E-01
       -1   -1    0    0    0  501  0.00000000000E+00  0.00000000000E+00  0.38911076073E+03  0.38911076077E+03  0.50400001928E-02 0.  1.
        1   -1    0    0  501    0  0.00000000000E+00  0.00000000000E+00 -0.41205610218E+03  0.41205610221E+03  0.50400001928E-02 0. -1.
    10030    2    1    2    0    0  0.00000000000E+00  0.00000000000E+00 -0.22945341447E+02  0.80116686298E+03  0.80083821939E+03 0.  0.
        1    1    3    3  502    0  0.36392218393E+03 -0.44101090476E+02  0.14968720345E+03  0.39596782829E+03  0.50400001928E-02 0.  1.
       -1    1    3    3    0  502 -0.36392218393E+03  0.44101090476E+02 -0.17263254489E+03  0.40519903469E+03  0.50400001928E-02 0. -1.
</event>
<event>
 5   0  0.6593118E-04  0.8001814E+03  0.7818609E-02  0.9559755E-01
        2   -1    0    0  501    0  0.00000000000E+00  0.00000000000E+00  0.11981580601E+04  0.11981580601E+04  0.25500000920E-02 0. -1.
       -2   -1    0    0    0  501  0.00000000000E+00  0.00000000000E+00 -0.13359888447E+03  0.13359888449E+03  0.25500000920E-02 0.  1.
    10030    2    1    2    0    0  0.00000000000E+00  0.00000000000E+00  0.10645591757E+04  0.13317569446E+04  0.80018143010E+03 0.  0.
        1    1    3    3  502    0 -0.12220780311E+03 -0.10738159033E+02  0.11660825039E+04  0.11725180003E+04  0.50400001928E-02 0. -1.
       -1    1    3    3    0  502  0.12220780311E+03  0.10738159033E+02 -0.10152332818E+03  0.15923894433E+03  0.50400001928E-02 0.  1.
</event>
<event>
 5   0  0.7133039E-04  0.8000814E+03  0.7818609E-02  0.9559899E-01
       -2   -1    0    0    0  501  0.00000000000E+00  0.00000000000E+00  0.20630240648E+03  0.20630240649E+03  0.25500000920E-02 0. -1.
        2   -1    0    0  501    0  0.00000000000E+00  0.00000000000E+00 -0.77571842134E+03  0.77571842134E+03  0.25500000920E-02 0.  1.
    10030    2    1    2    0    0  0.00000000000E+00  0.00000000000E+00 -0.56941601486E+03  0.98202082784E+03  0.80008143856E+03 0.  0.
        2    1    3    3  502    0 -0.51559955538E+02 -0.73528708745E+02 -0.76318616406E+03  0.76845170378E+03  0.25500000920E-02 0.  1.
       -2    1    3    3    0  502  0.51559955538E+02  0.73528708745E+02  0.19377014920E+03  0.21356912406E+03  0.25500000920E-02 0. -1.
</event>
<event>
 5   0  0.4392552E-04  0.8000865E+03  0.7818609E-02  0.9559892E-01
        1   -1    0    0  501    0  0.00000000000E+00  0.00000000000E+00  0.20385478980E+04  0.20385478980E+04  0.50400001928E-02 0.  1.
       -1   -1    0    0    0  501  0.00000000000E+00  0.00000000000E+00 -0.78504213042E+02  0.78504213204E+02  0.50400001928E-02 0. -1.
    10030    2    1    2    0    0  0.00000000000E+00  0.00000000000E+00  0.19600436849E+04  0.21170521112E+04  0.80008649197E+03 0.  0.
        5    1    3    3  502    0 -0.47595707128E+02  0.37774221897E+03  0.13047185403E+04  0.13591420436E+04  0.46999998093E+01 0. -1.
       -5    1    3    3    0  502  0.47595707128E+02 -0.37774221897E+03  0.65532514461E+03  0.75791006754E+03  0.46999998093E+01 0.  1.
</event>
<event>
 5   0  0.4086111E-04  0.8000961E+03  0.7818609E-02  0.9559878E-01
       -1   -1    0    0    0  501  0.00000000000E+00  0.00000000000E+00  0.14187895703E+03  0.14187895712E+03  0.50400001928E-02 0.  1.
        1   -1    0    0  501    0  0.00000000000E+00  0.00000000000E+00 -0.11279928229E+04  0.11279928229E+04  0.50400001928E-02 0. -1.
    10030    2    1    2    0    0  0.00000000000E+00  0.00000000000E+00 -0.98611386585E+03  0.12698717800E+04  0.80009610751E+03 0.  0.
        3    1    3    3  502    0 -0.13993740544E+03  0.11344719338E+03 -0.10599729160E+04  0.10751722355E+04  0.10100000352E+00 0. -1.
       -3    1    3    3    0  502  0.13993740544E+03 -0.11344719338E+03  0.73859050188E+02  0.19469954448E+03  0.10100000352E+00 0.  1.
</event>
<event>
 5   0  0.6970013E-04  0.8008020E+03  0.7818609E-02  0.9558857E-01
        2   -1    0    0  501    0  0.00000000000E+00  0.00000000000E+00  0.16819209652E+04  0.16819209652E+04  0.25500000920E-02 0.  1.
       -2   -1    0    0    0  501  0.00000000000E+00  0.00000000000E+00 -0.95320148609E+02  0.95320148644E+02  0.25500000920E-02 0. -1.
    10030    2    1    2    0    0  0.00000000000E+00  0.00000000000E+00  0.15866008166E+04  0.17772411139E+04  0.80080198898E+03 0.  0.
        3    1    3    3  502    0  0.14460924585E+03  0.29852046248E+03  0.29558385520E+03  0.44429283830E+03  0.10100000352E+00 0. -1.
       -3    1    3    3    0  502 -0.14460924585E+03 -0.29852046248E+03  0.12910169614E+04  0.13329482756E+04  0.10100000352E+00 0.  1.
</event>
<event>
 5   0  0.6672462E-04  0.8000689E+03  0.7818609E-02  0.9559917E-01
       -2   -1    0    0    0  501  0.00000000000E+00  0.00000000000E+00  0.17051099905E+03  0.17051099907E+03  0.25500000920E-02 0. -1.
        2   -1    0    0  501    0  0.00000000000E+00  0.00000000000E+00 -0.93851741309E+03  0.93851741309E+03  0.25500000920E-02 0.  1.
    10030    2    1    2    0    0  0.00000000000E+00  0.00000000000E+00 -0.76800641403E+03  0.11090284122E+04  0.80006885140E+03 0.  0.
        5    1    3    3  502    0 -0.22563801643E+03 -0.20151530273E+03 -0.21249784922E+02  0.30330607487E+03  0.46999998093E+01 0. -1.
       -5    1    3    3    0  502  0.22563801643E+03  0.20151530273E+03 -0.74675662911E+03  0.80572233729E+03  0.46999998093E+01 0.  1.
</event>
<event>
 5   0  0.4392552E-04  0.7999036E+03  0.7818609E-02  0.9560157E-01
        1   -1    0    0  501    0  0.00000000000E+00  0.00000000000E+00  0.43773133507E+03  0.43773133510E+03  0.50400001928E-02 0.  1.
       -1   -1    0    0    0  501  0.00000000000E+00  0.00000000000E+00 -0.36543294301E+03  0.36543294305E+03  0.50400001928E-02 0. -1.
    10030    2    1    2    0    0  0.00000000000E+00  0.00000000000E+00  0.72298392054E+02  0.80316427815E+03  0.79990361932E+03 0.  0.
        5    1    3    3  502    0  0.22719061088E+03 -0.61487336709E+02 -0.28850004857E+03  0.37235820693E+03  0.46999998093E+01 0. -1.
       -5    1    3    3    0  502 -0.22719061088E+03  0.61487336709E+02  0.36079844062E+03  0.43080607122E+03  0.46999998093E+01 0.  1.
</event>
<event>
 5   0  0.6593118E-04  0.8012337E+03  0.7818609E-02  0.9558233E-01
       -2   -1    0    0    0  501  0.00000000000E+00  0.00000000000E+00  0.45682507787E+03  0.45682507787E+03  0.25500000920E-02 0. -1.
        2   -1    0    0  501    0  0.00000000000E+00  0.00000000000E+00 -0.35132457070E+03  0.35132457071E+03  0.25500000920E-02 0.  1.
    10030    2    1    2    0    0  0.00000000000E+00  0.00000000000E+00  0.10550050717E+03  0.80814964858E+03  0.80123373462E+03 0.  0.
        1    1    3    3  502    0  0.18319271966E+03 -0.76839252878E+02  0.40364683284E+03  0.44988288365E+03  0.50400001928E-02 0. -1.
       -1    1    3    3    0  502 -0.18319271966E+03  0.76839252878E+02 -0.29814632567E+03  0.35826676493E+03  0.50400001928E-02 0.  1.
</event>
<event>
 5   0  0.4169155E-04  0.8000555E+03  0.7818609E-02  0.9559937E-01
        1   -1    0    0  501    0  0.00000000000E+00  0.00000000000E+00  0.88780813035E+03  0.88780813036E+03  0.50400001928E-02 0.  1.
       -1   -1    0    0    0  501  0.00000000000E+00  0.00000000000E+00 -0.18024414500E+03  0.18024414507E+03  0.50400001928E-02 0. -1.
    10030    2    1    2    0    0  0.00000000000E+00  0.00000000000E+00  0.70756398535E+03  0.10680522754E+04  0.80005554163E+03 0.  0.
        4    1    3    3  502    0 -0.14106457557E+03 -0.19230061851E+03 -0.74953912688E+02  0.24999688855E+03  0.12699999809E+01 0. -1.
       -4    1    3    3    0  502  0.14106457557E+03  0.19230061851E+03  0.78251789804E+03  0.81805538688E+03  0.12699999809E+01 0.  1.
</event>
<event>
 5   0  0.6970013E-04  0.7975866E+03  0.7818609E-02  0.9563517E-01
       -2   -1    0    0    0  501  0.00000000000E+00  0.00000000000E+00  0.27285061285E+03  0.27285061286E+03  0.25500000920E-02 0.  1.
        2   -1    0    0  501    0  0.00000000000E+00  0.00000000000E+00 -0.58286870517E+03  0.58286870517E+03  0.25500000920E-02 0. -1.
    10030    2    1    2    0    0  0.00000000000E+00  0.00000000000E+00 -0.31001809231E+03  0.85571931804E+03  0.79758656815E+03 0.  0.
        3    1    3    3  502    0 -0.32710578880E+03  0.10525231508E+03  0.62127316278E+02  0.34919344285E+03  0.10100000352E+00 0.  1.
       -3    1    3    3    0  502  0.32710578880E+03 -0.10525231508E+03 -0.37214540859E+03  0.50652587519E+03  0.10100000352E+00 0. -1.
</event>
<event>
 5   0  0.2736375E-04  0.8005805E+03  0.7818609E-02  0.9559177E-01
        3   -1    0    0  501    0  0.00000000000E+00  0.00000000000E+00  0.29805776302E+03  0.29805778013E+03  0.10100000352E+00 0.  1.
       -3   -1    0    0    0  501  0.00000000000E+00  0.00000000000E+00 -0.53758794395E+03  0.53758795344E+03  0.10100000352E+00 0. -1.
    10030    2    1    2    0    0  0.00000000000E+00  0.00000000000E+00 -0.23953018093E+03  0.83564573357E+03  0.80058046720E+03 0.  0.
        5    1    3    3  502    0  0.26115507481E-01 -0.22421871466E+03 -0.46585382998E+03  0.51702602796E+03  0.46999998093E+01 0. -1.
       -5    1    3    3    0  502 -0.26115507481E-01  0.22421871466E+03  0.22632364905E+03  0.31861970561E+03  0.46999998093E+01 0.  1.
</event>
<event>
 5   0  0.6801147E-04  0.7989340E+03  0.7818609E-02  0.9561561E-01
        2   -1    0    0  501    0  0.00000000000E+00  0.00000000000E+00  0.89429573787E+03  0.89429573787E+03  0.25500000920E-02 0. -1.
       -2   -1    0    0    0  501  0.00000000000E+00  0.00000000000E+00 -0.17843525516E+03  0.17843525518E+03  0.25500000920E-02 0.  1.
    10030    2    1    2    0    0  0.00000000000E+00  0.00000000000E+00  0.71586048271E+03  0.10727309931E+04  0.79893401026E+03 0.  0.
        4    1    3    3  502    0 -0.23987725671E+02  0.27985801398E+03 -0.23445492880E+02  0.28186383771E+03  0.12699999809E+01 0.  1.
       -4    1    3    3    0  502  0.23987725671E+02 -0.27985801398E+03  0.73930597559E+03  0.79086715535E+03  0.12699999809E+01 0. -1.
</event>
<event>
 5   0  0.7133039E-04  0.7991509E+03  0.7818609E-02  0.9561247E-01
        2   -1    0    0  501    0  0.00000000000E+00  0.00000000000E+00  0.62392751982E+03  0.62392751982E+03  0.25500000920E-02 0.  1.
       -2   -1    0    0    0  501  0.00000000000E+00  0.00000000000E+00 -0.25589596766E+03  0.25589596767E+03  0.25500000920E-02 0. -1.
    10030    2    1    2    0    0  0.00000000000E+00  0.00000000000E+00  0.36803155216E+03  0.87982348750E+03  0.79915089049E+03 0.  0.
        2    1    3    3  502    0 -0.46175581993E+02  0.30509170128E+03 -0.95476290122E+02  0.32299977174E+03  0.25500000920E-02 0. -1.
       -2    1    3    3    0  502  0.46175581993E+02 -0.30509170128E+03  0.46350784228E+03  0.55682371575E+03  0.25500000920E-02 0.  1.
</event>
<event>
 5   0  0.7133039E-04  0.7999630E+03  0.7818609E-02  0.9560071E-01
       -2   -1    0    0    0  501  0.00000000000E+00  0.00000000000E+00  0.36680507773E+03  0.36680507773E+03  0.25500000920E-02 0. -1.
        2   -1    0    0  501    0  0.00000000000E+00  0.00000000000E+00 -0.43615863651E+03  0.43615863652E+03  0.25500000920E-02 0.  1.
    10030    2    1    2    0    0  0.00000000000E+00  0.00000000000E+00 -0.69353558784E+02  0.80296371425E+03  0.79996300558E+03 0.  0.
        2    1    3    3  502    0  0.10996493850E+03 -0.13876615882E+03  0.32532839703E+03  0.37038750040E+03  0.25500000920E-02 0. -1.
       -2    1    3    3    0  502 -0.10996493850E+03  0.13876615882E+03 -0.39468195582E+03  0.43257621385E+03  0.25500000920E-02 0.  1.
</event>
<event>
 5   0  0.6593118E-04  0.8006446E+03  0.7818609E-02  0.9559085E-01
        2   -1    0    0  501    0  0.00000000000E+00  0.00000000000E+00  0.91185034553E+03  0.91185034553E+03  0.25500000920E-02 0.  1.
       -2   -1    0    0    0  501  0.00000000000E+00  0.00000000000E+00 -0.17575026943E+03  0.17575026945E+03  0.25500000920E-02 0. -1.
    10030    2    1    2    0    0  0.00000000000E+00  0.00000000000E+00  0.73610007610E+03  0.10876006150E+04  0.80064460011E+03 0.  0.
        1    1    3    3  502    0  0.15920116236E+03  0.15201859342E+03  0.82226029790E+03  0.85121481447E+03  0.50400001928E-02 0.  1.
       -1    1    3    3    0  502 -0.15920116236E+03 -0.15201859342E+03 -0.86160221803E+02  0.23638580052E+03  0.50400001928E-02 0. -1.
</event>
<event>
 5   0  0.4392552E-04  0.7997837E+03  0.7818609E-02  0.9560330E-01
       -1   -1    0    0    0  501  0.00000000000E+00  0.00000000000E+00  0.42383086713E+03  0.42383086716E+03  0.50400001928E-02 0. -1.
        1   -1    0    0  501    0  0.00000000000E+00  0.00000000000E+00 -0.37730498423E+03  0.37730498427E+03  0.50400001928E-02 0.  1.
    10030    2    1    2    0    0  0.00000000000E+00  0.00000000000E+00  0.46525882902E+02  0.80113585143E+03  0.79978371743E+03 0.  0.
        5    1    3    3  502    0  0.39295829507E+03 -0.73625526514E+02  0.30655720074E+02  0.40099726058E+03  0.46999998093E+01 0.  1.
       -5    1    3    3    0  502 -0.39295829507E+03  0.73625526514E+02  0.15870162828E+02  0.40013859085E+03  0.46999998093E+01 0. -1.
</event>
<event>
 5   0  0.4087283E-04  0.8005489E+03  0.7818609E-02  0.9559223E-01
        1   -1    0    0  501    0  0.00000000000E+00  0.00000000000E+00  0.12937863580E+04  0.12937863580E+04  0.50400001928E-02 0.  1.
       -1   -1    0    0    0  501  0.00000000000E+00  0.00000000000E+00 -0.12383777183E+03  0.12383777193E+03  0.50400001928E-02 0. -1.
    10030    2    1    2    0    0  0.00000000000E+00  0.00000000000E+00  0.11699485862E+04  0.14176241300E+04  0.80054886142E+03 0.  0.
        1    1    3    3  502    0 -0.20951127793E+03 -0.34105686930E+03  0.58887659273E+03  0.71203258716E+03  0.50400001928E-02 0.  1.
       -1    1    3    3    0  502  0.20951127793E+03  0.34105686930E+03  0.58107199346E+03  0.70559154281E+03  0.50400001928E-02 0. -1.
</event>
<event>
 5   0  0.6593118E-04  0.8001979E+03  0.7818609E-02  0.9559731E-01
       -2   -1    0    0    0  501  0.00000000000E+00  0.00000000000E+00  0.10531011314E+03  0.10531011317E+03  0.25500000920E-02 0.  1.
        2   -1    0    0  501    0  0.00000000000E+00  0.00000000000E+00 -0.15200740679E+04  0.15200740679E+04  0.25500000920E-02 0. -1.
    10030    2    1    2    0    0  0.00000000000E+00  0.00000000000E+00 -0.14147639548E+04  0.16253841811E+04  0.80019790577E+03 0.  0.
        1    1    3    3  502    0  0.14063103022E+03 -0.34794033986E+03 -0.98912728879E+03  0.10579283342E+04  0.50400001928E-02 0. -1.
       -1    1    3    3    0  502 -0.14063103022E+03  0.34794033986E+03 -0.42563666600E+03  0.56745584694E+03  0.50400001928E-02 0.  1.
</event>
<event>
 5   0  0.4104786E-04  0.8000414E+03  0.7818609E-02  0.9559957E-01
       -1   -1    0    0    0  501  0.00000000000E+00  0.00000000000E+00  0.17981507459E+03  0.17981507466E+03  0.50400001928E-02 0. -1.
        1   -1    0    0  501    0  0.00000000000E+00  0.00000000000E+00 -0.88989511581E+03  0.88989511583E+03  0.50400001928E-02 0.  1.
    10030    2    1    2    0    0  0.00000000000E+00  0.00000000000E+00 -0.71008004122E+03  0.10697101905E+04  0.80004139061E+03 0.  0.
        2    1    3    3  502    0 -0.34584468051E+03 -0.11857113489E+03 -0.57207759061E+03  0.67892593613E+03  0.25500000920E-02 0.  1.
       -2    1    3    3    0  502  0.34584468051E+03  0.11857113489E+03 -0.13800245061E+03  0.39078425435E+03  0.25500000920E-02 0. -1.
</event>
<event>
 5   0  0.4086111E-04  0.8007084E+03  0.7818609E-02  0.9558992E-01
       -1   -1    0    0    0  501  0.00000000000E+00  0.00000000000E+00  0.88127769678E+03  0.88127769679E+03  0.50400001928E-02 0.  1.
        1   -1    0    0  501    0  0.00000000000E+00  0.00000000000E+00 -0.18187624407E+03  0.18187624414E+03  0.50400001928E-02 0. -1.
    10030    2    1    2    0    0  0.00000000000E+00  0.00000000000E+00  0.69940145271E+03  0.10631539409E+04  0.80070838017E+03 0.  0.
        3    1    3    3  502    0  0.14248087441E+03  0.26082583760E+03 -0.64590542144E+01  0.29727537186E+03  0.10100000352E+00 0. -1.
       -3    1    3    3    0  502 -0.14248087441E+03 -0.26082583760E+03  0.70586050692E+03  0.76587856907E+03  0.10100000352E+00 0.  1.
</event>
<event>
 5   0  0.4169155E-04  0.7995038E+03  0.7818609E-02  0.9560736E-01
        1   -1    0    0  501    0  0.00000000000E+00  0.00000000000E+00  0.96051314195E+03  0.96051314196E+03  0.50400001928E-02 0. -1.
       -1   -1    0    0    0  501  0.00000000000E+00  0.00000000000E+00 -0.16637104985E+03  0.16637104993E+03  0.50400001928E-02 0.  1.
    10030    2    1    2    0    0  0.00000000000E+00  0.00000000000E+00  0.79414209210E+03  0.11268841919E+04  0.79950379579E+03 0.  0.
        4    1    3    3  502    0  0.34142980291E+03 -0.20741961402E+03  0.37700091072E+03  0.54929819423E+03  0.12699999809E+01 0. -1.
       -4    1    3    3    0  502 -0.34142980291E+03  0.20741961402E+03  0.41714118138E+03  0.57758599766E+03  0.12699999809E+01 0.  1.
</event>
<event>
 5   0  0.6593118E-04  0.7966302E+03  0.7818609E-02  0.9564908E-01
       -2   -1    0    0    0  501  0.00000000000E+00  0.00000000000E+00  0.21852603357E+03  0.21852603358E+03  0.25500000920E-02 0.  1.
        2   -1    0    0  501    0  0.00000000000E+00  0.00000000000E+00 -0.72602294863E+03  0.72602294863E+03  0.25500000920E-02 0. -1.
    10030    2    1    2    0    0  0.00000000000E+00  0.00000000000E+00 -0.50749691506E+03  0.94454898221E+03  0.79663019087E+03 0.  0.
        1    1    3    3  502    0  0.16405470279E+03  0.22022668434E+03  0.88338746750E+02  0.28847438743E+03  0.50400001928E-02 0.  1.
       -1    1    3    3    0  502 -0.16405470279E+03 -0.22022668434E+03 -0.59583566181E+03  0.65607459478E+03  0.50400001928E-02 0. -1.
</event>
<event>
 5   0  0.4104786E-04  0.8000048E+03  0.7818609E-02  0.9560010E-01
        1   -1    0    0  501    0  0.00000000000E+00  0.00000000000E+00  0.71765990876E+03  0.71765990877E+03  0.50400001928E-02 0.  1.
       -1   -1    0    0    0  501  0.00000000000E+00  0.00000000000E+00 -0.22294952088E+03  0.22294952094E+03  0.50400001928E-02 0. -1.
    10030    2    1    2    0    0  0.00000000000E+00  0.00000000000E+00  0.49471038788E+03  0.94060942971E+03  0.80000483210E+03 0.  0.
        2    1    3    3  502    0 -0.29558434603E+03 -0.20871995666E+03  0.46897443927E+02  0.36487463077E+03  0.25500000920E-02 0. -1.
       -2    1    3    3    0  502  0.29558434603E+03  0.20871995666E+03  0.44781294395E+03  0.57573479893E+03  0.25500000920E-02 0.  1.
</event>
<event>
 5   0  0.4086111E-04  0.7997443E+03  0.7818609E-02  0.9560387E-01
       -1   -1    0    0    0  501  0.00000000000E+00  0.00000000000E+00  0.52211460429E+03  0.52211460431E+03  0.50400001928E-02 0.  1.
        1   -1    0    0  501    0  0.00000000000E+00  0.00000000000E+00 -0.30625024814E+03  0.30625024818E+03  0.50400001928E-02 0. -1.
    10030    2    1    2    0    0  0.00000000000E+00  0.00000000000E+00  0.21586435615E+03  0.82836485249E+03  0.79974427700E+03 0.  0.
        3    1    3    3  502    0 -0.28815937320E+03  0.26643860154E+03  0.28558407141E+02  0.39349834253E+03  0.10100000352E+00 0. -1.
       -3    1    3    3    0  502  0.28815937320E+03 -0.26643860154E+03  0.18730594901E+03  0.43486650996E+03  0.10100000352E+00 0.  1.
</event>
<event>
 5   0  0.4392552E-04  0.8001210E+03  0.7818609E-02  0.9559842E-01
       -1   -1    0    0    0  501  0.00000000000E+00  0.00000000000E+00  0.21157387691E+03  0.21157387697E+03  0.50400001928E-02 0. -1.
        1   -1    0    0  501    0  0.00000000000E+00  0.00000000000E+00 -0.75646584312E+03  0.75646584314E+03  0.50400001928E-02 0.  1.
    10030    2    1    2    0    0  0.00000000000E+00  0.00000000000E+00 -0.54489196622E+03  0.96803972011E+03  0.80012101888E+03 0.  0.
        5    1    3    3  502    0 -0.68332947584E+01 -0.12718368529E+03 -0.73124543133E+03  0.74226973167E+03  0.46999998093E+01 0.  1.
       -5    1    3    3    0  502  0.68332947584E+01  0.12718368529E+03  0.18635346511E+03  0.22576998844E+03  0.46999998093E+01 0. -1.
</event>
<event>
 5   0  0.6593118E-04  0.7998977E+03  0.7818609E-02  0.9560165E-01
        2   -1    0    0  501    0  0.00000000000E+00  0.00000000000E+00  0.14972594226E+04  0.14972594226E+04  0.25500000920E-02 0. -1.
       -2   -1    0    0    0  501  0.00000000000E+00  0.00000000000E+00 -0.10683458485E+03  0.10683458488E+03  0.25500000920E-02 0.  1.
    10030    2    1    2    0    0  0.00000000000E+00  0.00000000000E+00  0.13904248378E+04  0.16040940075E+04  0.79989771562E+03 0.  0.
        1    1    3    3  502    0  0.23841350532E+03 -0.93248952542E+02  0.78995499799E+02  0.26791165649E+03  0.50400001928E-02 0.  1.
       -1    1    3    3    0  502 -0.23841350532E+03  0.93248952542E+02  0.13114293380E+04  0.13361823510E+04  0.50400001928E-02 0. -1.
</event>
<event>
 5   0  0.2736375E-04  0.7992715E+03  0.7818609E-02  0.9561072E-01
        3   -1    0    0  501    0  0.00000000000E+00  0.00000000000E+00  0.87976673229E+03  0.87976673809E+03  0.10100000352E+00 0.  1.
       -3   -1    0    0    0  501  0.00000000000E+00  0.00000000000E+00 -0.18153529658E+03  0.18153532468E+03  0.10100000352E+00 0. -1.
    10030    2    1    2    0    0  0.00000000000E+00  0.00000000000E+00  0.69823143571E+03  0.10613020628E+04  0.79927149995E+03 0.  0.
        2    1    3    3  502    0  0.63033775575E+02  0.37483634178E+03  0.51300107371E+03  0.63847133187E+03  0.25500000920E-02 0.  1.
       -2    1    3    3    0  502 -0.63033775575E+02 -0.37483634178E+03  0.18523036200E+03  0.42283073090E+03  0.25500000920E-02 0. -1.
</event>
<event>
 5   0  0.4086111E-04  0.8000677E+03  0.7818609E-02  0.9559919E-01
        1   -1    0    0  501    0  0.00000000000E+00  0.00000000000E+00  0.10111042925E+04  0.10111042925E+04  0.50400001928E-02 0. -1.
       -1   -1    0    0    0  501  0.00000000000E+00  0.00000000000E+00 -0.15826961469E+03  0.15826961477E+03  0.50400001928E-02 0.  1.
    10030    2    1    2    0    0  0.00000000000E+00  0.00000000000E+00  0.85283467779E+03  0.11693739073E+04  0.80006771422E+03 0.  0.
        3    1    3    3  502    0 -0.28821023471E+03  0.25948400682E+03  0.56984717896E+03  0.68929159777E+03  0.10100000352E+00 0. -1.
       -3    1    3    3    0  502  0.28821023471E+03 -0.25948400682E+03  0.28298749883E+03  0.48008230949E+03  0.10100000352E+00 0.  1.
</event>
<event>
 5   0  0.2736375E-04  0.7997464E+03  0.7818609E-02  0.9560384E-01
        3   -1    0    0  501    0  0.00000000000E+00  0.00000000000E+00  0.86883434662E+03  0.86883435249E+03  0.10100000352E+00 0.  1.
       -3   -1    0    0    0  501  0.00000000000E+00  0.00000000000E+00 -0.18403802823E+03  0.18403805595E+03  0.10100000352E+00 0. -1.
    10030    2    1    2    0    0  0.00000000000E+00  0.00000000000E+00  0.68479631838E+03  0.10528724084E+04  0.79974640404E+03 0.  0.
        3    1    3    3  502    0  0.24681158348E+03 -0.26154832565E+03  0.57259919410E+03  0.67616072917E+03  0.10100000352E+00 0.  1.
       -3    1    3    3    0  502 -0.24681158348E+03  0.26154832565E+03  0.11219712429E+03  0.37671167926E+03  0.10100000352E+00 0. -1.
</event>
<event>
 5   0  0.7133039E-04  0.7999287E+03  0.7818609E-02  0.9560120E-01
       -2   -1    0    0    0  501  0.00000000000E+00  0.00000000000E+00  0.23441793131E+03  0.23441793132E+03  0.25500000920E-02 0. -1.
        2   -1    0    0  501    0  0.00000000000E+00  0.00000000000E+00 -0.68241994209E+03  0.68241994209E+03  0.25500000920E-02 0.  1.
    10030    2    1    2    0    0  0.00000000000E+00  0.00000000000E+00 -0.44800201078E+03  0.91683787342E+03  0.79992867462E+03 0.  0.
        2    1    3    3  502    0  0.24831325403E+03 -0.43828786096E+02  0.13184296008E+03  0.28453998093E+03  0.25500000920E-02 0. -1.
       -2    1    3    3    0  502 -0.24831325403E+03  0.43828786096E+02 -0.57984497086E+03  0.63229789249E+03  0.25500000920E-02 0.  1.
</event>
<event>
 5   0  0.4104786E-04  0.7970974E+03  0.7818609E-02  0.9564228E-01
        1   -1    0    0  501    0  0.00000000000E+00  0.00000000000E+00  0.38784029354E+03  0.38784029357E+03  0.50400001928E-02 0.  1.
       -1   -1    0    0    0  501  0.00000000000E+00  0.00000000000E+00 -0.40955278621E+03  0.40955278624E+03  0.50400001928E-02 0. -1.
    10030    2    1    2    0    0  0.00000000000E+00  0.00000000000E+00 -0.21712492669E+02  0.79739307981E+03  0.79709741650E+03 0.  0.
        2    1    3    3  502    0 -0.32921787359E+03 -0.52933550432E+02  0.20752429992E+03  0.39275018029E+03  0.25500000920E-02 0. -1.
       -2    1    3    3    0  502  0.32921787359E+03  0.52933550432E+02 -0.22923679259E+03  0.40464289952E+03  0.25500000920E-02 0.  1.
</event>
<event>
 5   0  0.6672462E-04  0.7998264E+03  0.7818609E-02  0.9560268E-01
       -2   -1    0    0    0  501  0.00000000000E+00  0.00000000000E+00  0.18919333457E+03  0.18919333458E+03  0.25500000920E-02 0.  1.
        2   -1    0    0  501    0  0.00000000000E+00  0.00000000000E+00 -0.84532873578E+03  0.84532873579E+03  0.25500000920E-02 0. -1.
    10030    2    1    2    0    0  0.00000000000E+00  0.00000000000E+00 -0.65613540122E+03  0.10345220704E+04  0.79982638701E+03 0.  0.
        5    1    3    3  502    0  0.21918954622E+03 -0.29499768419E+03 -0.12421021664E+03  0.38796644026E+03  0.46999998093E+01 0. -1.
       -5    1    3    3    0  502 -0.21918954622E+03  0.29499768419E+03 -0.53192518458E+03  0.64655563011E+03  0.46999998093E+01 0.  1.
</event>
<event>
 5   0  0.6801147E-04  0.8001003E+03  0.7818609E-02  0.9559872E-01
       -2   -1    0    0    0  501  0.00000000000E+00  0.00000000000E+00  0.25287847571E+03  0.25287847572E+03  0.25500000920E-02 0. -1.
        2   -1    0    0  501    0  0.00000000000E+00  0.00000000000E+00 -0.63287369638E+03  0.63287369638E+03  0.25500000920E-02 0.  1.
    10030    2    1    2    0    0  0.00000000000E+00  0.00000000000E+00 -0.37999522067E+03  0.88575217211E+03  0.80010033287E+03 0.  0.
        4    1    3    3  502    0 -0.28057223247E+03 -0.94699880401E+02  0.10777591020E+03  0.31512871133E+03  0.12699999809E+01 0. -1.
       -4    1    3    3    0  502  0.28057223247E+03  0.94699880401E+02 -0.48777113087E+03  0.57062346078E+03  0.12699999809E+01 0.  1.
</event>
<event>
 5   0  0.6801147E-04  0.7996175E+03  0.7818609E-02  0.9560571E-01
       -2   -1    0    0    0  501  0.00000000000E+00  0.00000000000E+00  0.13125742433E+03  0.13125742435E+03  0.25500000920E-02 0. -1.
        2   -1    0    0  501    0  0.00000000000E+00  0.00000000000E+00 -0.12178132717E+04  0.12178132717E+04  0.25500000920E-02 0.  1.
    10030    2    1    2    0    0  0.00000000000E+00  0.00000000000E+00 -0.10865558474E+04  0.13490706961E+04  0.79961749199E+03 0.  0.
        4    1    3    3  502    0 -0.39752865782E+03 -0.91738295896E+01 -0.61349696441E+03  0.73109050820E+03  0.12699999809E+01 0.  1.
       -4    1    3    3    0  502  0.39752865782E+03  0.91738295896E+01 -0.47305888296E+03  0.61798018786E+03  0.12699999809E+01 0. -1.
</event>
<event>
 5   0  0.4392552E-04  0.7998511E+03  0.7818609E-02  0.9560233E-01
        1   -1    0    0  501    0  0.00000000000E+00  0.00000000000E+00  0.13510896567E+04  0.13510896567E+04  0.50400001928E-02 0.  1.
       -1   -1    0    0    0  501  0.00000000000E+00  0.00000000000E+00 -0.11837884885E+03  0.11837884896E+03  0.50400001928E-02 0. -1.
    10030    2    1    2    0    0  0.00000000000E+00  0.00000000000E+00  0.12327108078E+04  0.14694685057E+04  0.79985108198E+03 0.  0.
        5    1    3    3  502    0 -0.60355147216E+02 -0.39433338172E+03  0.66755924821E+03  0.77768824062E+03  0.46999998093E+01 0.  1.
       -5    1    3    3    0  502  0.60355147216E+02  0.39433338172E+03  0.56515155964E+03  0.69178026504E+03  0.46999998093E+01 0. -1.
</event>
<event>
 5   0  0.4392552E-04  0.7988231E+03  0.7818609E-02  0.9561722E-01
       -1   -1    0    0    0  501  0.00000000000E+00  0.00000000000E+00  0.10436584232E+04  0.10436584232E+04  0.50400001928E-02 0. -1.
        1   -1    0    0  501    0  0.00000000000E+00  0.00000000000E+00 -0.15285611667E+03  0.15285611675E+03  0.50400001928E-02 0.  1.
    10030    2    1    2    0    0  0.00000000000E+00  0.00000000000E+00  0.89080230649E+03  0.11965145399E+04  0.79882306865E+03 0.  0.
        5    1    3    3  502    0  0.23079290444E+03 -0.15392974774E+03  0.15052936997E+02  0.27786401870E+03  0.46999998093E+01 0.  1.
       -5    1    3    3    0  502 -0.23079290444E+03  0.15392974774E+03  0.87574936949E+03  0.91865052122E+03  0.46999998093E+01 0. -1.
</event>
<event>
 5   0  0.4392552E-04  0.8002642E+03  0.7818609E-02  0.9559635E-01
       -1   -1    0    0    0  501  0.00000000000E+00  0.00000000000E+00  0.78391462174E+02  0.78391462337E+02  0.50400001928E-02 0.  1.
        1   -1    0    0  501    0  0.00000000000E+00  0.00000000000E+00 -0.20423867609E+04  0.20423867609E+04  0.50400001928E-02 0. -1.
    10030    2    1    2    0    0  0.00000000000E+00  0.00000000000E+00 -0.19639952987E+04  0.21207782233E+04  0.80026416812E+03 0.  0.
        5    1    3    3  502    0  0.31545275813E+03 -0.49823463761E+02 -0.34327036669E+03  0.46888106680E+03  0.46999998093E+01 0.  1.
       -5    1    3    3    0  502 -0.31545275813E+03  0.49823463761E+02 -0.16207249321E+04  0.16518971565E+04  0.46999998093E+01 0. -1.
</event>
<event>
 5   0  0.6801147E-04  0.8003253E+03  0.7818609E-02  0.9559546E-01
        2   -1    0    0  501    0  0.00000000000E+00  0.00000000000E+00  0.30397382052E+03  0.30397382053E+03  0.25500000920E-02 0. -1.
       -2   -1    0    0    0  501  0.00000000000E+00  0.00000000000E+00 -0.52678923739E+03  0.52678923739E+03  0.25500000920E-02 0.  1.
    10030    2    1    2    0    0  0.00000000000E+00  0.00000000000E+00 -0.22281541686E+03  0.83076305793E+03  0.80032527664E+03 0.  0.
        4    1    3    3  502    0  0.20880407223E+02  0.33500436838E+03  0.11474176599E+03  0.35472694287E+03  0.12699999809E+01 0. -1.
       -4    1    3    3    0  502 -0.20880407223E+02 -0.33500436838E+03 -0.33755718286E+03  0.47603611505E+03  0.12699999809E+01 0.  1.
</event>
<event>
 5   0  0.6672462E-04  0.7992687E+03  0.7818609E-02  0.9561076E-01
       -2   -1    0    0    0  501  0.00000000000E+00  0.00000000000E+00  0.44900213860E+03  0.44900213861E+03  0.25500000920E-02 0.  1.
        2   -1    0    0  501    0  0.00000000000E+00  0.00000000000E+00 -0.35569454427E+03  0.35569454427E+03  0.25500000920E-02 0. -1.
    10030    2    1    2    0    0  0.00000000000E+00  0.00000000000E+00  0.93307594334E+02  0.80469668288E+03  0.79926869342E+03 0.  0.
        5    1    3    3  502    0 -0.26756784344E+03  0.26496873728E+02 -0.25097330759E+03  0.36783736390E+03  0.46999998093E+01 0.  1.
       -5    1    3    3    0  502  0.26756784344E+03 -0.26496873728E+02  0.34428090192E+03  0.43685931899E+03  0.46999998093E+01 0. -1.
</event>
<event>
 5   0  0.4086111E-04  0.8001215E+03  0.7818609E-02  0.9559841E-01
       -1   -1    0    0    0  501  0.00000000000E+00  0.00000000000E+00  0.23793939766E+03  0.23793939772E+03  0.50400001928E-02 0.  1.
        1   -1    0    0  501    0  0.00000000000E+00  0.00000000000E+00 -0.67264445005E+03  0.67264445007E+03  0.50400001928E-02 0. -1.
    10030    2    1    2    0    0  0.00000000000E+00  0.00000000000E+00 -0.43470505238E+03  0.91058384778E+03  0.80012152907E+03 0.  0.
        3    1    3    3  502    0 -0.36464011623E+03  0.11596473326E+03 -0.84446325710E+02  0.39184362423E+03  0.10100000352E+00 0.  1.
       -3    1    3    3    0  502  0.36464011623E+03 -0.11596473326E+03 -0.35025872667E+03  0.51874022355E+03  0.10100000352E+00 0. -1.
</event>
<event>
 5   0  0.6801147E-04  0.7993601E+03  0.7818609E-02  0.9560944E-01
       -2   -1    0    0    0  501  0.00000000000E+00  0.00000000000E+00  0.14037550346E+03  0.14037550348E+03  0.25500000920E-02 0.  1.
        2   -1    0    0  501    0  0.00000000000E+00  0.00000000000E+00 -0.11379773980E+04  0.11379773980E+04  0.25500000920E-02 0. -1.
    10030    2    1    2    0    0  0.00000000000E+00  0.00000000000E+00 -0.99760189453E+03  0.12783529015E+04  0.79936011956E+03 0.  0.
        4    1    3    3  502    0 -0.13240753590E+03  0.19561151090E+03 -0.10144023543E+04  0.10415418225E+04  0.12699999809E+01 0. -1.
       -4    1    3    3    0  502  0.13240753590E+03 -0.19561151090E+03  0.16800459778E+02  0.23681107894E+03  0.12699999809E+01 0.  1.
</event>
<event>
 5   0  0.6593118E-04  0.7999309E+03  0.7818609E-02  0.9560117E-01
       -2   -1    0    0    0  501  0.00000000000E+00  0.00000000000E+00  0.61515357656E+03  0.61515357656E+03  0.25500000920E-02 0.  1.
        2   -1    0    0  501    0  0.00000000000E+00  0.00000000000E+00 -0.26005271059E+03  0.26005271060E+03  0.25500000920E-02 0. -1.
    10030    2    1    2    0    0  0.00000000000E+00  0.00000000000E+00  0.35510086597E+03  0.87520628716E+03  0.79993088456E+03 0.  0.
        1    1    3    3  502    0  0.34389884623E+03 -0.18361395605E+03  0.79740778106E+02  0.39791845020E+03  0.50400001928E-02 0.  1.
       -1    1    3    3    0  502 -0.34389884623E+03  0.18361395605E+03  0.27536008786E+03  0.47728783696E+03  0.50400001928E-02 0. -1.
</event>
<event>
 5   0  0.2736375E-04  0.7993056E+03  0.7818609E-02  0.9561023E-01
       -3   -1    0    0    0  501  0.00000000000E+00  0.00000000000E+00  0.37498652727E+03  0.37498654088E+03  0.10100000352E+00 0. -1.
        3   -1    0    0  501    0  0.00000000000E+00  0.00000000000E+00 -0.42594155124E+03  0.42594156321E+03  0.10100000352E+00 0.  1.
    10030    2    1    2    0    0  0.00000000000E+00  0.00000000000E+00 -0.50955023964E+02  0.80092810409E+03  0.79930558202E+03 0.  0.
        3    1    3    3  502    0 -0.34153878137E+03 -0.20644933414E+03 -0.41675508753E+01  0.39910831291E+03  0.10100000352E+00 0.  1.
       -3    1    3    3    0  502  0.34153878137E+03  0.20644933414E+03 -0.46787473088E+02  0.40181979118E+03  0.10100000352E+00 0. -1.
</event>
<event>
 5   0  0.4087283E-04  0.8000389E+03  0.7818609E-02  0.9559961E-01
       -1   -1    0    0    0  501  0.00000000000E+00  0.00000000000E+00  0.14714011303E+03  0.14714011311E+03  0.50400001928E-02 0. -1.
        1   -1    0    0  501    0  0.00000000000E+00  0.00000000000E+00 -0.10875047298E+04  0.10875047299E+04  0.50400001928E-02 0.  1.
    10030    2    1    2    0    0  0.00000000000E+00  0.00000000000E+00 -0.94036461681E+03  0.12346448430E+04  0.80003892137E+03 0.  0.
        1    1    3    3  502    0  0.19176851820E+03  0.34182180463E+03 -0.34674063164E+03  0.52330333111E+03  0.50400001928E-02 0. -1.
       -1    1    3    3    0  502 -0.19176851820E+03 -0.34182180463E+03 -0.59362398518E+03  0.71134151186E+03  0.50400001928E-02 0.  1.
</event>
<event>
 5   0  0.6970013E-04  0.8000636E+03  0.7818609E-02  0.9559925E-01
        2   -1    0    0  501    0  0.00000000000E+00  0.00000000000E+00  0.12727540596E+04  0.12727540596E+04  0.25500000920E-02 0.  1.
       -2   -1    0    0    0  501  0.00000000000E+00  0.00000000000E+00 -0.12573164355E+03  0.12573164357E+03  0.25500000920E-02 0. -1.
    10030    2    1    2    0    0  0.00000000000E+00  0.00000000000E+00  0.11470224161E+04  0.13984857032E+04  0.80006364688E+03 0.  0.
        3    1    3    3  502    0  0.20319643551E+03  0.28378897762E+03  0.23187187035E+03  0.41903406745E+03  0.10100000352E+00 0.  1.
       -3    1    3    3    0  502 -0.20319643551E+03 -0.28378897762E+03  0.91515054571E+03  0.97945163573E+03  0.10100000352E+00 0. -1.
</event>
<event>
 5   0  0.4086111E-04  0.7969310E+03  0.7818609E-02  0.9564470E-01
        1   -1    0    0  501    0  0.00000000000E+00  0.00000000000E+00  0.11449370619E+04  0.11449370619E+04  0.50400001928E-02 0.  1.
       -1   -1    0    0    0  501  0.00000000000E+00  0.00000000000E+00 -0.13867553703E+03  0.13867553712E+03  0.50400001928E-02 0. -1.
    10030    2    1    2    0    0  0.00000000000E+00  0.00000000000E+00  0.10062615248E+04  0.12836125990E+04  0.79693101830E+03 0.  0.
        3    1    3    3  502    0  0.12365841849E+03 -0.25304135771E+03  0.49116459886E+02  0.28589118561E+03  0.10100000352E+00 0. -1.
       -3    1    3    3    0  502 -0.12365841849E+03  0.25304135771E+03  0.95714506494E+03  0.99772141338E+03  0.10100000352E+00 0.  1.
</event>
<event>
 5   0  0.4392552E-04  0.7999433E+03  0.7818609E-02  0.9560099E-01
       -1   -1    0    0    0  501  0.00000000000E+00  0.00000000000E+00  0.22518570239E+03  0.22518570244E+03  0.50400001928E-02 0.  1.
        1   -1    0    0  501    0  0.00000000000E+00  0.00000000000E+00 -0.71042403343E+03  0.71042403345E+03  0.50400001928E-02 0. -1.
    10030    2    1    2    0    0  0.00000000000E+00  0.00000000000E+00 -0.48523833104E+03  0.93560973589E+03  0.79994333548E+03 0.  0.
        5    1    3    3  502    0 -0.15581249830E+03 -0.21255998192E+02 -0.67271519844E+03  0.69086697728E+03  0.46999998093E+01 0. -1.
       -5    1    3    3    0  502  0.15581249830E+03  0.21255998192E+02  0.18747686740E+03  0.24474275861E+03  0.46999998093E+01 0.  1.
</event>
<event>
 5   0  0.2736375E-04  0.7993656E+03  0.7818609E-02  0.9560936E-01
        3   -1    0    0  501    0  0.00000000000E+00  0.00000000000E+00  0.22809795664E+04  0.22809795686E+04  0.10100000352E+00 0.  1.
       -3   -1    0    0    0  501  0.00000000000E+00  0.00000000000E+00 -0.70034052426E+02  0.70034125254E+02  0.10100000352E+00 0. -1.
    10030    2    1    2    0    0  0.00000000000E+00  0.00000000000E+00  0.22109455139E+04  0.23510136938E+04  0.79936557537E+03 0.  0.
        3    1    3    3  502    0  0.31485498656E+03  0.67334917938E+02  0.18019526090E+04  0.18304919746E+04  0.10100000352E+00 0.  1.
       -3    1    3    3    0  502 -0.31485498656E+03 -0.67334917938E+02  0.40899290491E+03  0.52052171924E+03  0.10100000352E+00 0. -1.
</event>
<event>
 5   0  0.4087283E-04  0.8000498E+03  0.7818609E-02  0.9559945E-01
       -1   -1    0    0    0  501  0.00000000000E+00  0.00000000000E+00  0.45122295578E+03  0.45122295581E+03  0.50400001928E-02 0. -1.
        1   -1    0    0  501    0  0.00000000000E+00  0.00000000000E+00 -0.35463603028E+03  0.35463603032E+03  0.50400001928E-02 0.  1.
    10030    2    1    2    0    0  0.00000000000E+00  0.00000000000E+00  0.96586925499E+02  0.80585898613E+03  0.80004979304E+03 0.  0.
        1    1    3    3  502    0 -0.86962073178E+02  0.19183392139E+03  0.39084702628E+03  0.44398654658E+03  0.50400001928E-02 0. -1.
       -1    1    3    3    0  502  0.86962073178E+02 -0.19183392139E+03 -0.29426010078E+03  0.36187243955E+03  0.50400001928E-02 0.  1.
</event>
<event>
 5   0  0.4087283E-04  0.7996253E+03  0.7818609E-02  0.9560560E-01
        1   -1    0    0  501    0  0.00000000000E+00  0.00000000000E+00  0.33205638960E+03  0.33205638964E+03  0.50400001928E-02 0.  1.
       -1   -1    0    0    0  501  0.00000000000E+00  0.00000000000E+00 -0.48139455879E+03  0.48139455882E+03  0.50400001928E-02 0. -1.
    10030    2    1    2    0    0  0.00000000000E+00  0.00000000000E+00 -0.14933816919E+03  0.81345094846E+03  0.79962526021E+03 0.  0.
        1    1    3    3  502    0 -0.10543415412E+03 -0.32200538758E+03 -0.29057993555E+03  0.44636367399E+03  0.50400001928E-02 0. -1.
       -1    1    3    3    0  502  0.10543415412E+03  0.32200538758E+03  0.14124176635E+03  0.36708727447E+03  0.50400001928E-02 0.  1.
</event>
<event>
 5   0  0.2736375E-04  0.7999031E+03  0.7818609E-02  0.9560157E-01
        3   -1    0    0  501    0  0.00000000000E+00  0.00000000000E+00  0.16604139229E+04  0.16604139259E+04  0.10100000352E+00 0. -1.
       -3   -1    0    0    0  501  0.00000000000E+00  0.00000000000E+00 -0.96338147784E+02  0.96338200728E+02  0.10100000352E+00 0.  1.
    10030    2    1    2    0    0  0.00000000000E+00  0.00000000000E+00  0.15640757751E+04  0.17567521267E+04  0.79990312185E+03 0.  0.
        3    1    3    3  502    0  0.24541197176E+03 -0.15538072442E+03  0.13858589298E+04  0.14159714647E+04  0.10100000352E+00 0. -1.
       -3    1    3    3    0  502 -0.24541197176E+03  0.15538072442E+03  0.17821684527E+03  0.34078066193E+03  0.10100000352E+00 0.  1.
</event>
<event>
 5   0  0.6970013E-04  0.7991241E+03  0.7818609E-02  0.9561286E-01
        2   -1    0    0  501    0  0.00000000000E+00  0.00000000000E+00  0.48631784116E+03  0.48631784117E+03  0.25500000920E-02 0.  1.
       -2   -1    0    0    0  501  0.00000000000E+00  0.00000000000E+00 -0.32828286014E+03  0.32828286015E+03  0.25500000920E-02 0. -1.
    10030    2    1    2    0    0  0.00000000000E+00  0.00000000000E+00  0.15803498102E+03  0.81460070131E+03  0.79912405004E+03 0.  0.
        3    1    3    3  502    0 -0.32593146678E+03  0.20438410632E+03 -0.30987361914E+02  0.38595907911E+03  0.10100000352E+00 0. -1.
       -3    1    3    3    0  502  0.32593146678E+03 -0.20438410632E+03  0.18902234294E+03  0.42864162220E+03  0.10100000352E+00 0.  1.
</event>
<event>
 5   0  0.2736375E-04  0.8004239E+03  0.7818609E-02  0.9559404E-01
        3   -1    0    0  501    0  0.00000000000E+00  0.00000000000E+00  0.42268912947E+03  0.42268914154E+03  0.10100000352E+00 0. -1.
       -3   -1    0    0    0  501  0.00000000000E+00  0.00000000000E+00 -0.37893004310E+03  0.37893005656E+03  0.10100000352E+00 0.  1.
    10030    2    1    2    0    0  0.00000000000E+00  0.00000000000E+00  0.43759086367E+02  0.80161919810E+03  0.80042393837E+03 0.  0.
        5    1    3    3  502    0  0.25574646499E+03  0.18393949143E+03 -0.22528351972E+03  0.38731737002E+03  0.46999998093E+01 0.  1.
       -5    1    3    3    0  502 -0.25574646499E+03 -0.18393949143E+03  0.26904260609E+03  0.41430182808E+03  0.46999998093E+01 0. -1.
</event>
<event>
 5   0  0.4087283E-04  0.8000819E+03  0.7818609E-02  0.9559899E-01
       -1   -1    0    0    0  501  0.00000000000E+00  0.00000000000E+00  0.52622293400E+03  0.52622293402E+03  0.50400001928E-02 0.  1.
        1   -1    0    0  501    0  0.00000000000E+00  0.00000000000E+00 -0.30411588798E+03  0.30411588803E+03  0.50400001928E-02 0. -1.
    10030    2    1    2    0    0  0.00000000000E+00  0.00000000000E+00  0.22210704601E+03  0.83033882205E+03  0.80008188300E+03 0.  0.
        1    1    3    3  502    0  0.43392059740E+02 -0.32429340898E+03  0.34994019557E+03  0.47906912493E+03  0.50400001928E-02 0.  1.
       -1    1    3    3    0  502 -0.43392059740E+02  0.32429340898E+03 -0.12783314956E+03  0.35126969712E+03  0.50400001928E-02 0. -1.
</event>
<event>
 5   0  0.4104786E-04  0.7998095E+03  0.7818609E-02  0.9560293E-01
       -1   -1    0    0    0  501  0.00000000000E+00  0.00000000000E+00  0.12325904155E+03  0.12325904166E+03  0.50400001928E-02 0.  1.
        1   -1    0    0  501    0  0.00000000000E+00  0.00000000000E+00 -0.12974609506E+04  0.12974609507E+04  0.50400001928E-02 0. -1.
    10030    2    1    2    0    0  0.00000000000E+00  0.00000000000E+00 -0.11742019091E+04  0.14207199923E+04  0.79980946058E+03 0.  0.
        2    1    3    3  502    0 -0.17463243783E+03 -0.10178645316E+03 -0.12000400706E+04  0.12169441817E+04  0.25500000920E-02 0. -1.
       -2    1    3    3    0  502  0.17463243783E+03  0.10178645316E+03  0.25838161486E+02  0.20377581060E+03  0.25500000920E-02 0.  1.
</event>
<event>
 5   0  0.4086111E-04  0.7997262E+03  0.7818609E-02  0.9560414E-01
       -1   -1    0    0    0  501  0.00000000000E+00  0.00000000000E+00  0.14146300901E+03  0.14146300910E+03  0.50400001928E-02 0. -1.
        1   -1    0    0  501    0  0.00000000000E+00  0.00000000000E+00 -0.11302636302E+04  0.11302636302E+04  0.50400001928E-02 0.  1.
    10030    2    1    2    0    0  0.00000000000E+00  0.00000000000E+00 -0.98880062120E+03  0.12717266393E+04  0.79972618855E+03 0.  0.
        3    1    3    3  502    0 -0.29368630194E+03 -0.16107332518E+03 -0.84168476547E+03  0.90588603845E+03  0.10100000352E+00 0.  1.
       -3    1    3    3    0  502  0.29368630194E+03  0.16107332518E+03 -0.14711585573E+03  0.36584060086E+03  0.10100000352E+00 0. -1.
</event>
<event>
 5   0  0.6801147E-04  0.8001310E+03  0.7818609E-02  0.9559828E-01
       -2   -1    0    0    0  501  0.00000000000E+00  0.00000000000E+00  0.90466812172E+02  0.90466812208E+02  0.25500000920E-02 0. -1.
        2   -1    0    0  501    0  0.00000000000E+00  0.00000000000E+00 -0.17691834309E+04  0.17691834309E+04  0.25500000920E-02 0.  1.
    10030    2    1    2    0    0  0.00000000000E+00  0.00000000000E+00 -0.16787166188E+04  0.18596502432E+04  0.80013095223E+03 0.  0.
        4    1    3    3  502    0 -0.34597698847E+03  0.10648355994E+03 -0.12352338226E+04  0.12871841494E+04  0.12699999809E+01 0.  1.
       -4    1    3    3    0  502  0.34597698847E+03 -0.10648355994E+03 -0.44348279615E+03  0.57246609373E+03  0.12699999809E+01 0. -1.
</event>
<event>
 5   0  0.6970013E-04  0.7998364E+03  0.7818609E-02  0.9560254E-01
       -2   -1    0    0    0  501  0.00000000000E+00  0.00000000000E+00  0.15066185117E+03  0.15066185120E+03  0.25500000920E-02 0.  1.
        2   -1    0    0  501    0  0.00000000000E+00  0.00000000000E+00 -0.10615466197E+04  0.10615466197E+04  0.25500000920E-02 0. -1.
    10030    2    1    2    0    0  0.00000000000E+00  0.00000000000E+00 -0.91088476857E+03  0.12122084709E+04  0.79983643041E+03 0.  0.
        3    1    3    3  502    0 -0.32606099820E+03 -0.20873834590E+03 -0.60735590611E+03  0.72025598122E+03  0.10100000352E+00 0. -1.
       -3    1    3    3    0  502  0.32606099820E+03  0.20873834590E+03 -0.30352886246E+03  0.49195248972E+03  0.10100000352E+00 0.  1.
</event>
<event>
 5   0  0.4169155E-04  0.7998714E+03  0.7818609E-02  0.9560203E-01
       -1   -1    0    0    0  501  0.00000000000E+00  0.00000000000E+00  0.12450519794E+03  0.12450519804E+03  0.50400001928E-02 0.  1.
        1   -1    0    0  501    0  0.00000000000E+00  0.00000000000E+00 -0.12846739381E+04  0.12846739381E+04  0.50400001928E-02 0. -1.
    10030    2    1    2    0    0  0.00000000000E+00  0.00000000000E+00 -0.11601687402E+04  0.14091791361E+04  0.79987144724E+03 0.  0.
        4    1    3    3  502    0 -0.27359934600E+03  0.12656800342E+03 -0.10430978069E+04  0.10857857566E+04  0.12699999809E+01 0. -1.
       -4    1    3    3    0  502  0.27359934600E+03 -0.12656800342E+03 -0.11707093329E+03  0.32339337956E+03  0.12699999809E+01 0.  1.
</event>
<event>
 5   0  0.4104786E-04  0.7997176E+03  0.7818609E-02  0.9560426E-01
        1   -1    0    0  501    0  0.00000000000E+00  0.00000000000E+00  0.80875084076E+03  0.80875084078E+03  0.50400001928E-02 0.  1.
       -1   -1    0    0    0  501  0.00000000000E+00  0.00000000000E+00 -0.19769629777E+03  0.19769629784E+03  0.50400001928E-02 0. -1.
    10030    2    1    2    0    0  0.00000000000E+00  0.00000000000E+00  0.61105454299E+03  0.10064471386E+04  0.79971756785E+03 0.  0.
        2    1    3    3  502    0  0.36088394705E+03  0.16979878139E+03  0.34152569254E+03  0.52507965879E+03  0.25500000920E-02 0. -1.
       -2    1    3    3    0  502 -0.36088394705E+03 -0.16979878139E+03  0.26952885045E+03  0.48136747983E+03  0.25500000920E-02 0.  1.
</event>
<event>
 5   0  0.4104786E-04  0.7999103E+03  0.7818609E-02  0.9560147E-01
       -1   -1    0    0    0  501  0.00000000000E+00  0.00000000000E+00  0.36145148810E+03  0.36145148814E+03  0.50400001928E-02 0.  1.
        1   -1    0    0  501    0  0.00000000000E+00  0.00000000000E+00 -0.44256045268E+03  0.44256045271E+03  0.50400001928E-02 0. -1.
    10030    2    1    2    0    0  0.00000000000E+00  0.00000000000E+00 -0.81108964577E+02  0.80401194084E+03  0.79991033053E+03 0.  0.
        2    1    3    3  502    0 -0.17389720426E+03  0.17455973469E+03 -0.35721401550E+03  0.43395067865E+03  0.25500000920E-02 0. -1.
       -2    1    3    3    0  502  0.17389720426E+03 -0.17455973469E+03  0.27610505093E+03  0.37006126219E+03  0.25500000920E-02 0.  1.
</event>
<event>
 5   0  0.4087283E-04  0.8000261E+03  0.7818609E-02  0.9559979E-01
        1   -1    0    0  501    0  0.00000000000E+00  0.00000000000E+00  0.55859439061E+03  0.55859439063E+03  0.50400001928E-02 0. -1.
       -1   -1    0    0    0  501  0.00000000000E+00  0.00000000000E+00 -0.28645191578E+03  0.28645191582E+03  0.50400001928E-02 0.  1.
    10030    2    1    2    0    0  0.00000000000E+00  0.00000000000E+00  0.27214247483E+03  0.84504630645E+03  0.80002608297E+03 0.  0.
        1    1    3    3  502    0 -0.35083660696E+02  0.85511055632E+02  0.54716036334E+03  0.55491212558E+03  0.50400001928E-02 0. -1.
       -1    1    3    3    0  502  0.35083660696E+02 -0.85511055632E+02 -0.27501788851E+03  0.29013418087E+03  0.50400001928E-02 0.  1.
</event>
<event>
 5   0  0.4392552E-04  0.8004765E+03  0.7818609E-02  0.9559328E-01
       -1   -1    0    0    0  501  0.00000000000E+00  0.00000000000E+00  0.97972589176E+02  0.97972589305E+02  0.50400001928E-02 0. -1.
        1   -1    0    0  501    0  0.00000000000E+00  0.00000000000E+00 -0.16350557126E+04  0.16350557126E+04  0.50400001928E-02 0.  1.
    10030    2    1    2    0    0  0.00000000000E+00  0.00000000000E+00 -0.15370831234E+04  0.17330283019E+04  0.80047646243E+03 0.  0.
        5    1    3    3  502    0  0.11877154428E+03 -0.27104548501E+03 -0.13518712553E+04  0.13838895605E+04  0.46999998093E+01 0.  1.
       -5    1    3    3    0  502 -0.11877154428E+03  0.27104548501E+03 -0.18521186808E+03  0.34913874140E+03  0.46999998093E+01 0. -1.
</event>
<event>
 5   0  0.4169155E-04  0.8000186E+03  0.7818609E-02  0.9559990E-01
       -1   -1    0    0    0  501  0.00000000000E+00  0.00000000000E+00  0.95088249710E+02  0.95088249843E+02  0.50400001928E-02 0. -1.
        1   -1    0    0  501    0  0.00000000000E+00  0.00000000000E+00 -0.16827257757E+04  0.16827257757E+04  0.50400001928E-02 0.  1.
    10030    2    1    2    0    0  0.00000000000E+00  0.00000000000E+00 -0.15876375260E+04  0.17778140255E+04  0.80001862197E+03 0.  0.
        4    1    3    3  502    0 -0.21023131794E+03  0.12505579281E+02 -0.15495428337E+04  0.15637896927E+04  0.12699999809E+01 0.  1.
       -4    1    3    3    0  502  0.21023131794E+03 -0.12505579281E+02 -0.38094692218E+02  0.21402433280E+03  0.12699999809E+01 0. -1.
</event>
<event>
 5   0  0.6801147E-04  0.8014217E+03  0.7818609E-02  0.9557962E-01
        2   -1    0    0  501    0  0.00000000000E+00  0.00000000000E+00  0.68481909818E+03  0.68481909818E+03  0.25500000920E-02 0.  1.
       -2   -1    0    0    0  501  0.00000000000E+00  0.00000000000E+00 -0.23446947755E+03  0.23446947757E+03  0.25500000920E-02 0. -1.
    10030    2    1    2    0    0  0.00000000000E+00  0.00000000000E+00  0.45034962063E+03  0.91928857575E+03  0.80142167721E+03 0.  0.
        4    1    3    3  502    0 -0.30356403354E+03 -0.25260179056E+03  0.14730240513E+03  0.42149543119E+03  0.12699999809E+01 0. -1.
       -4    1    3    3    0  502  0.30356403354E+03  0.25260179056E+03  0.30304721550E+03  0.49779314457E+03  0.12699999809E+01 0.  1.
</event>
<event>
 5   0  0.2736375E-04  0.8000723E+03  0.7818609E-02  0.9559912E-01
        3   -1    0    0  501    0  0.00000000000E+00  0.00000000000E+00  0.25901555586E+03  0.25901557555E+03  0.10100000352E+00 0.  1.
       -3   -1    0    0    0  501  0.00000000000E+00  0.00000000000E+00 -0.61783517392E+03  0.61783518217E+03  0.10100000352E+00 0. -1.
    10030    2    1    2    0    0  0.00000000000E+00  0.00000000000E+00 -0.35881961806E+03  0.87685075773E+03  0.80007232987E+03 0.  0.
        4    1    3    3  502    0 -0.29432134099E+03  0.17801684974E+03  0.44425369433E+02  0.34682888706E+03  0.12699999809E+01 0.  1.
       -4    1    3    3    0  502  0.29432134099E+03 -0.17801684974E+03 -0.40324498749E+03  0.53002187067E+03  0.12699999809E+01 0. -1.
</event>
<event>
 5   0  0.6801147E-04  0.7998951E+03  0.7818609E-02  0.9560169E-01
        2   -1    0    0  501    0  0.00000000000E+00  0.00000000000E+00  0.76733174317E+03  0.76733174318E+03  0.25500000920E-02 0. -1.
       -2   -1    0    0    0  501  0.00000000000E+00  0.00000000000E+00 -0.20846006742E+03  0.20846006744E+03  0.25500000920E-02 0.  1.
    10030    2    1    2    0    0  0.00000000000E+00  0.00000000000E+00  0.55887167575E+03  0.97579181062E+03  0.79989506044E+03 0.  0.
        4    1    3    3  502    0 -0.10649195464E+03  0.10308726777E+03 -0.17371858077E+03  0.22835778810E+03  0.12699999809E+01 0.  1.
       -4    1    3    3    0  502  0.10649195464E+03 -0.10308726777E+03  0.73259025652E+03  0.74743402252E+03  0.12699999809E+01 0. -1.
</event>
<event>
 5   0  0.4087283E-04  0.7998614E+03  0.7818609E-02  0.9560218E-01
       -1   -1    0    0    0  501  0.00000000000E+00  0.00000000000E+00  0.19377880139E+03  0.19377880146E+03  0.50400001928E-02 0. -1.
        1   -1    0    0  501    0  0.00000000000E+00  0.00000000000E+00 -0.82539759125E+03  0.82539759126E+03  0.50400001928E-02 0.  1.
    10030    2    1    2    0    0  0.00000000000E+00  0.00000000000E+00 -0.63161878986E+03  0.10191763927E+04  0.79986137785E+03 0.  0.
        1    1    3    3  502    0 -0.31801797072E+03 -0.23145380978E+03 -0.22358874885E+03  0.45243587877E+03  0.50400001928E-02 0. -1.
       -1    1    3    3    0  502  0.31801797072E+03  0.23145380978E+03 -0.40803004100E+03  0.56674051395E+03  0.50400001928E-02 0.  1.
</event>
<event>
 5   0  0.4169155E-04  0.7991052E+03  0.7818609E-02  0.9561313E-01
       -1   -1    0    0    0  501  0.00000000000E+00  0.00000000000E+00  0.21199239849E+03  0.21199239855E+03  0.50400001928E-02 0.  1.
        1   -1    0    0  501    0  0.00000000000E+00  0.00000000000E+00 -0.75305663176E+03  0.75305663178E+03  0.50400001928E-02 0. -1.
    10030    2    1    2    0    0  0.00000000000E+00  0.00000000000E+00 -0.54106423327E+03  0.96504903033E+03  0.79910520360E+03 0.  0.
        4    1    3    3  502    0  0.14179446814E+03  0.16691557274E+03 -0.67410485697E+03  0.70879154250E+03  0.12699999809E+01 0. -1.
       -4    1    3    3    0  502 -0.14179446814E+03 -0.16691557274E+03  0.13304062370E+03  0.25625748784E+03  0.12699999809E+01 0.  1.
</event>
<event>
 5   0  0.6801147E-04  0.8019588E+03  0.7818609E-02  0.9557186E-01
       -2   -1    0    0    0  501  0.00000000000E+00  0.00000000000E+00  0.27004694292E+03  0.27004694294E+03  0.25500000920E-02 0. -1.
        2   -1    0    0  501    0  0.00000000000E+00  0.00000000000E+00 -0.59539457424E+03  0.59539457425E+03  0.25500000920E-02 0.  1.
    10030    2    1    2    0    0  0.00000000000E+00  0.00000000000E+00 -0.32534763132E+03  0.86544151719E+03  0.80195881345E+03 0.  0.
        4    1    3    3  502    0  0.13103227497E+03  0.37894908643E+03 -0.15909391210E+03  0.43137495634E+03  0.12699999809E+01 0. -1.
       -4    1    3    3    0  502 -0.13103227497E+03 -0.37894908643E+03 -0.16625371922E+03  0.43406656085E+03  0.12699999809E+01 0.  1.
</event>
<event>
 5   0  0.6801147E-04  0.8000193E+03  0.7818609E-02  0.9559989E-01
        2   -1    0    0  501    0  0.00000000000E+00  0.00000000000E+00  0.63152677011E+03  0.63152677011E+03  0.25500000920E-02 0.  1.
       -2   -1    0    0    0  501  0.00000000000E+00  0.00000000000E+00 -0.25336650415E+03  0.25336650416E+03  0.25500000920E-02 0. -1.
    10030    2    1    2    0    0  0.00000000000E+00  0.00000000000E+00  0.37816026596E+03  0.88489327427E+03  0.80001932483E+03 0.  0.
        4    1    3    3  502    0 -0.16171017220E+03 -0.36237619156E+03  0.13334118000E+03  0.41862652470E+03  0.12699999809E+01 0. -1.
       -4    1    3    3    0  502  0.16171017220E+03  0.36237619156E+03  0.24481908596E+03  0.46626674957E+03  0.12699999809E+01 0.  1.
</event>
<event>
 5   0  0.6672462E-04  0.7999258E+03  0.7818609E-02  0.9560125E-01
        2   -1    0    0  501    0  0.00000000000E+00  0.00000000000E+00  0.10782468354E+04  0.10782468354E+04  0.25500000920E-02 0. -1.
       -2   -1    0    0    0  501  0.00000000000E+00  0.00000000000E+00 -0.14836150625E+03  0.14836150627E+03  0.25500000920E-02 0.  1.
    10030    2    1    2    0    0  0.00000000000E+00  0.00000000000E+00  0.92988532911E+03  0.12266083416E+04  0.79992580810E+03 0.  0.
        5    1    3    3  502    0 -0.21315882710E+03  0.33160942293E+03  0.36154606656E+03  0.53491975397E+03  0.46999998093E+01 0.  1.
       -5    1    3    3    0  502  0.21315882710E+03 -0.33160942293E+03  0.56833926255E+03  0.69168858766E+03  0.46999998093E+01 0. -1.
</event>
<event>
 5   0  0.6593118E-04  0.7998493E+03  0.7818609E-02  0.9560235E-01
       -2   -1    0    0    0  501  0.00000000000E+00  0.00000000000E+00  0.62699137088E+03  0.62699137089E+03  0.25500000920E-02 0. -1.
        2   -1    0    0  501    0  0.00000000000E+00  0.00000000000E+00 -0.25509082374E+03  0.25509082375E+03  0.25500000920E-02 0.  1.
    10030    2    1    2    0    0  0.00000000000E+00  0.00000000000E+00  0.37190054714E+03  0.88208219464E+03  0.79984934902E+03 0.  0.
        1    1    3    3  502    0  0.17281631952E+03 -0.24057793176E+03  0.48226893511E+03  0.56597398115E+03  0.50400001928E-02 0. -1.
       -1    1    3    3    0  502 -0.17281631952E+03  0.24057793176E+03 -0.11036838797E+03  0.31610821348E+03  0.50400001928E-02 0.  1.
</event>
<event>
 5   0  0.4392552E-04  0.8010896E+03  0.7818609E-02  0.9558441E-01
       -1   -1    0    0    0  501  0.00000000000E+00  0.00000000000E+00  0.25463544528E+03  0.25463544533E+03  0.50400001928E-02 0.  1.
        1   -1    0    0  501    0  0.00000000000E+00  0.00000000000E+00 -0.63006203667E+03  0.63006203669E+03  0.50400001928E-02 0. -1.
    10030    2    1    2    0    0  0.00000000000E+00  0.00000000000E+00 -0.37542659140E+03  0.88469748202E+03  0.80108957624E+03 0.  0.
        5    1    3    3  502    0  0.19359010539E+03 -0.26043334576E+03  0.71546011775E+02  0.33233052566E+03  0.46999998093E+01 0.  1.
       -5    1    3    3    0  502 -0.19359010539E+03  0.26043334576E+03 -0.44697260317E+03  0.55236695635E+03  0.46999998093E+01 0. -1.
</event>
<event>
 5   0  0.6672462E-04  0.8001497E+03  0.7818609E-02  0.9559800E-01
        2   -1    0    0  501    0  0.00000000000E+00  0.00000000000E+00  0.54057150771E+03  0.54057150771E+03  0.25500000920E-02 0. -1.
       -2   -1    0    0    0  501  0.00000000000E+00  0.00000000000E+00 -0.29609381605E+03  0.29609381606E+03  0.25500000920E-02 0.  1.
    10030    2    1    2    0    0  0.00000000000E+00  0.00000000000E+00  0.24447769166E+03  0.83666532377E+03  0.80014968742E+03 0.  0.
        5    1    3    3  502    0 -0.21062245411E+03  0.15804096922E+03  0.43714550004E+03  0.51034992341E+03  0.46999998093E+01 0. -1.
       -5    1    3    3    0  502  0.21062245411E+03 -0.15804096922E+03 -0.19266780838E+03  0.32631540036E+03  0.46999998093E+01 0.  1.
</event>
<event>
 5   0  0.2736375E-04  0.7997020E+03  0.7818609E-02  0.9560449E-01
       -4   -1    0    0    0  501  0.00000000000E+00  0.00000000000E+00  0.12700951554E+03  0.12701586491E+03  0.12699999809E+01 0. -1.
        4   -1    0    0  501    0  0.00000000000E+00  0.00000000000E+00 -0.12587717330E+04  0.12587723737E+04  0.12699999809E+01 0.  1.
    10030    2    1    2    0    0  0.00000000000E+00  0.00000000000E+00 -0.11317622175E+04  0.13857882386E+04  0.79970202282E+03 0.  0.
        4    1    3    3  502    0  0.11598367706E+02 -0.22482513012E+03 -0.11385145791E+04  0.11605593138E+04  0.12699999809E+01 0.  1.
       -4    1    3    3    0  502 -0.11598367706E+02  0.22482513012E+03  0.67523615748E+01  0.22522892477E+03  0.12699999809E+01 0. -1.
</event>
<event>
 5   0  0.6672462E-04  0.8003283E+03  0.7818609E-02  0.9559542E-01
       -2   -1    0    0    0  501  0.00000000000E+00  0.00000000000E+00  0.27172013517E+03  0.27172013518E+03  0.25500000920E-02 0.  1.
        2   -1    0    0  501    0  0.00000000000E+00  0.00000000000E+00 -0.58932449195E+03  0.58932449195E+03  0.25500000920E-02 0. -1.
    10030    2    1    2    0    0  0.00000000000E+00  0.00000000000E+00 -0.31760435678E+03  0.86104462714E+03  0.80032825920E+03 0.  0.
        5    1    3    3  502    0  0.22688928039E+03  0.12374902699E+03 -0.48745482458E+03  0.55174891322E+03  0.46999998093E+01 0. -1.
       -5    1    3    3    0  502 -0.22688928039E+03 -0.12374902699E+03  0.16985046781E+03  0.30929571392E+03  0.46999998093E+01 0.  1.
</event>
<event>
 5   0  0.4086111E-04  0.7993314E+03  0.7818609E-02  0.9560985E-01
        1   -1    0    0  501    0  0.00000000000E+00  0.00000000000E+00  0.72361022522E+03  0.72361022524E+03  0.50400001928E-02 0.  1.
       -1   -1    0    0    0  501  0.00000000000E+00  0.00000000000E+00 -0.22074405429E+03  0.22074405435E+03  0.50400001928E-02 0. -1.
    10030    2    1    2    0    0  0.00000000000E+00  0.00000000000E+00  0.50286617093E+03  0.94435427958E+03  0.79933135776E+03 0.  0.
        3    1    3    3  502    0  0.38701232754E+02 -0.36829500298E+03  0.73850121287E+02  0.37761467828E+03  0.10100000352E+00 0. -1.
       -3    1    3    3    0  502 -0.38701232754E+02  0.36829500298E+03  0.42901604964E+03  0.56673960130E+03  0.10100000352E+00 0.  1.
</event>
<event>
 5   0  0.4104786E-04  0.8003541E+03  0.7818609E-02  0.9559505E-01
        1   -1    0    0  501    0  0.00000000000E+00  0.00000000000E+00  0.93551265910E+03  0.93551265912E+03  0.50400001928E-02 0.  1.
       -1   -1    0    0    0  501  0.00000000000E+00  0.00000000000E+00 -0.17118067769E+03  0.17118067776E+03  0.50400001928E-02 0. -1.
    10030    2    1    2    0    0  0.00000000000E+00  0.00000000000E+00  0.76433198141E+03  0.11066933369E+04  0.80035414917E+03 0.  0.
        2    1    3    3  502    0  0.21626250922E+03  0.29647195472E+03  0.16145914030E+03  0.40091663325E+03  0.25500000920E-02 0. -1.
       -2    1    3    3    0  502 -0.21626250922E+03 -0.29647195472E+03  0.60287284111E+03  0.70577670363E+03  0.25500000920E-02 0.  1.
</event>
<event>
 5   0  0.4086111E-04  0.7996111E+03  0.7818609E-02  0.9560580E-01
       -1   -1    0    0    0  501  0.00000000000E+00  0.00000000000E+00  0.16646175307E+03  0.16646175315E+03  0.50400001928E-02 0.  1.
        1   -1    0    0  501    0  0.00000000000E+00  0.00000000000E+00 -0.96024758682E+03  0.96024758683E+03  0.50400001928E-02 0. -1.
    10030    2    1    2    0    0  0.00000000000E+00  0.00000000000E+00 -0.79378583375E+03  0.11267093400E+04  0.79961114733E+03 0.  0.
        3    1    3    3  502    0 -0.26501433325E+03 -0.64984466997E+02 -0.80864308599E+03  0.85343964549E+03  0.10100000352E+00 0. -1.
       -3    1    3    3    0  502  0.26501433325E+03  0.64984466997E+02  0.14857252248E+02  0.27326969448E+03  0.10100000352E+00 0.  1.
</event>
<event>
 5   0  0.4086111E-04  0.8000672E+03  0.7818609E-02  0.9559920E-01
        1   -1    0    0  501    0  0.00000000000E+00  0.00000000000E+00  0.72107651776E+03  0.72107651778E+03  0.50400001928E-02 0.  1.
       -1   -1    0    0    0  501  0.00000000000E+00  0.00000000000E+00 -0.22192771112E+03  0.22192771118E+03  0.50400001928E-02 0. -1.
    10030    2    1    2    0    0  0.00000000000E+00  0.00000000000E+00  0.49914880664E+03  0.94300422896E+03  0.80006715009E+03 0.  0.
        3    1    3    3  502    0  0.97234070119E+02 -0.23427141872E+03 -0.11502744417E+03  0.27851191201E+03  0.10100000352E+00 0. -1.
       -3    1    3    3    0  502 -0.97234070119E+02  0.23427141872E+03  0.61417625081E+03  0.66449231694E+03  0.10100000352E+00 0.  1.
</event>
<event>
 5   0  0.7133039E-04  0.8000905E+03  0.7818609E-02  0.9559886E-01
        2   -1    0    0  501    0  0.00000000000E+00  0.00000000000E+00  0.97187070976E+03  0.97187070976E+03  0.25500000920E-02 0. -1.
       -2   -1    0    0    0  501  0.00000000000E+00  0.00000000000E+00 -0.16466820168E+03  0.16466820170E+03  0.25500000920E-02 0.  1.
    10030    2    1    2    0    0  0.00000000000E+00  0.00000000000E+00  0.80720250808E+03  0.11365389115E+04  0.80009050001E+03 0.  0.
        2    1    3    3  502    0 -0.46823932189E+02 -0.27581409665E+03  0.80980414089E+03  0.85676638773E+03  0.25500000920E-02 0. -1.
       -2    1    3    3    0  502  0.46823932189E+02  0.27581409665E+03 -0.26016328040E+01  0.27977252373E+03  0.25500000920E-02 0.  1.
</event>
<event>
 5   0  0.4086111E-04  0.7999336E+03  0.7818609E-02  0.9560113E-01
        1   -1    0    0  501    0  0.00000000000E+00  0.00000000000E+00  0.11308983297E+04  0.11308983297E+04  0.50400001928E-02 0.  1.
       -1   -1    0    0    0  501  0.00000000000E+00  0.00000000000E+00 -0.14145696245E+03  0.14145696254E+03  0.50400001928E-02 0. -1.
    10030    2    1    2    0    0  0.00000000000E+00  0.00000000000E+00  0.98944136721E+03  0.12723552922E+04  0.79993360379E+03 0.  0.
        3    1    3    3  502    0  0.55284116428E+00  0.19356200230E+03 -0.61996588772E+02  0.20324896455E+03  0.10100000352E+00 0. -1.
       -3    1    3    3    0  502 -0.55284116428E+00 -0.19356200230E+03  0.10514379560E+04  0.10691063277E+04  0.10100000352E+00 0.  1.
</event>
<event>
 5   0  0.4104786E-04  0.7993836E+03  0.7818609E-02  0.9560910E-01
       -1   -1    0    0    0  501  0.00000000000E+00  0.00000000000E+00  0.10056454626E+03  0.10056454638E+03  0.50400001928E-02 0.  1.
        1   -1    0    0  501    0  0.00000000000E+00  0.00000000000E+00 -0.15885672784E+04  0.15885672784E+04  0.50400001928E-02 0. -1.
    10030    2    1    2    0    0  0.00000000000E+00  0.00000000000E+00 -0.14880027321E+04  0.16891318248E+04  0.79938363172E+03 0.  0.
        2    1    3    3  502    0  0.31445020561E+03 -0.11788951667E+03 -0.28601827622E+03  0.44111599868E+03  0.25500000920E-02 0.  1.
       -2    1    3    3    0  502 -0.31445020561E+03  0.11788951667E+03 -0.12019844559E+04  0.12480158261E+04  0.25500000920E-02 0. -1.
</event>
<event>
 5   0  0.4087283E-04  0.8007850E+03  0.7818609E-02  0.9558882E-01
       -1   -1    0    0    0  501  0.00000000000E+00  0.00000000000E+00  0.13155684356E+03  0.13155684366E+03  0.50400001928E-02 0.  1.
        1   -1    0    0  501    0  0.00000000000E+00  0.00000000000E+00 -0.12185921511E+04  0.12185921511E+04  0.50400001928E-02 0. -1.
    10030    2    1    2    0    0  0.00000000000E+00  0.00000000000E+00 -0.10870353075E+04  0.13501489948E+04  0.80078495754E+03 0.  0.
        1    1    3    3  502    0  0.27586733122E+03 -0.95802630079E+02 -0.81676584180E+02  0.30323586990E+03  0.50400001928E-02 0.  1.
       -1    1    3    3    0  502 -0.27586733122E+03  0.95802630079E+02 -0.10053587233E+04  0.10469131249E+04  0.50400001928E-02 0. -1.
</event>
<event>
 5   0  0.6593118E-04  0.7997761E+03  0.7818609E-02  0.9560341E-01
        2   -1    0    0  501    0  0.00000000000E+00  0.00000000000E+00  0.35988287801E+03  0.35988287802E+03  0.25500000920E-02 0.  1.
       -2   -1    0    0    0  501  0.00000000000E+00  0.00000000000E+00 -0.44434023556E+03  0.44434023557E+03  0.25500000920E-02 0. -1.
    10030    2    1    2    0    0  0.00000000000E+00  0.00000000000E+00 -0.84457357554E+02  0.80422311358E+03  0.79977607565E+03 0.  0.
        1    1    3    3  502    0 -0.12372485327E+03  0.25776138335E+03  0.23889994371E+03  0.37258818176E+03  0.50400001928E-02 0.  1.
       -1    1    3    3    0  502  0.12372485327E+03 -0.25776138335E+03 -0.32335730126E+03  0.43163493182E+03  0.50400001928E-02 0. -1.
</event>
<event>
 5   0  0.7133039E-04  0.8000648E+03  0.7818609E-02  0.9559923E-01
       -2   -1    0    0    0  501  0.00000000000E+00  0.00000000000E+00  0.10068422873E+03  0.10068422876E+03  0.25500000920E-02 0. -1.
        2   -1    0    0  501    0  0.00000000000E+00  0.00000000000E+00 -0.15893841923E+04  0.15893841923E+04  0.25500000920E-02 0.  1.
    10030    2    1    2    0    0  0.00000000000E+00  0.00000000000E+00 -0.14886999635E+04  0.16900684210E+04  0.80006480133E+03 0.  0.
        2    1    3    3  502    0 -0.13540452829E+03  0.48606193009E+02 -0.15328466114E+04  0.15395829573E+04  0.25500000920E-02 0.  1.
       -2    1    3    3    0  502  0.13540452829E+03 -0.48606193009E+02  0.44146647846E+02  0.15048546376E+03  0.25500000920E-02 0. -1.
</event>
<event>
 5   0  0.4086111E-04  0.8001572E+03  0.7818609E-02  0.9559790E-01
        1   -1    0    0  501    0  0.00000000000E+00  0.00000000000E+00  0.37805015262E+03  0.37805015266E+03  0.50400001928E-02 0.  1.
       -1   -1    0    0    0  501  0.00000000000E+00  0.00000000000E+00 -0.42339059073E+03  0.42339059076E+03  0.50400001928E-02 0. -1.
    10030    2    1    2    0    0  0.00000000000E+00  0.00000000000E+00 -0.45340438108E+02  0.80144074342E+03  0.80015717824E+03 0.  0.
        3    1    3    3  502    0  0.50763511171E+02  0.37086543391E+03  0.11878225670E+03  0.39271788709E+03  0.10100000352E+00 0.  1.
       -3    1    3    3    0  502 -0.50763511171E+02 -0.37086543391E+03 -0.16412269481E+03  0.40872285633E+03  0.10100000352E+00 0. -1.
</event>
<event>
 5   0  0.6593118E-04  0.8003500E+03  0.7818609E-02  0.9559511E-01
       -2   -1    0    0    0  501  0.00000000000E+00  0.00000000000E+00  0.77662469847E+03  0.77662469847E+03  0.25500000920E-02 0. -1.
        2   -1    0    0  501    0  0.00000000000E+00  0.00000000000E+00 -0.20620004530E+03  0.20620004532E+03  0.25500000920E-02 0.  1.
    10030    2    1    2    0    0  0.00000000000E+00  0.00000000000E+00  0.57042465317E+03  0.98282474379E+03  0.80035004346E+03 0.  0.
        1    1    3    3  502    0 -0.10295708219E+03  0.33808446103E+03  0.54693410718E+02  0.35762079464E+03  0.50400001928E-02 0.  1.
       -1    1    3    3    0  502  0.10295708219E+03 -0.33808446103E+03  0.51573124245E+03  0.62520394914E+03  0.50400001928E-02 0. -1.
</event>
<event>
 5   0  0.4087283E-04  0.8001748E+03  0.7818609E-02  0.9559764E-01
       -1   -1    0    0    0  501  0.00000000000E+00  0.00000000000E+00  0.30123973286E+03  0.30123973290E+03  0.50400001928E-02 0. -1.
        1   -1    0    0  501    0  0.00000000000E+00  0.00000000000E+00 -0.53137062577E+03  0.53137062579E+03  0.50400001928E-02 0.  1.
    10030    2    1    2    0    0  0.00000000000E+00  0.00000000000E+00 -0.23013089291E+03  0.83261035869E+03  0.80017484435E+03 0.  0.
        1    1    3    3  502    0  0.36910512945E+03  0.49762920110E+02  0.36991655553E+02  0.37427707305E+03  0.50400001928E-02 0. -1.
       -1    1    3    3    0  502 -0.36910512945E+03 -0.49762920110E+02 -0.26712254846E+03  0.45833328564E+03  0.50400001928E-02 0.  1.
</event>
<event>
 5   0  0.4086111E-04  0.8001907E+03  0.7818609E-02  0.9559741E-01
       -1   -1    0    0    0  501  0.00000000000E+00  0.00000000000E+00  0.64941173542E+03  0.64941173544E+03  0.50400001928E-02 0.  1.
        1   -1    0    0  501    0  0.00000000000E+00  0.00000000000E+00 -0.24649429436E+03  0.24649429441E+03  0.50400001928E-02 0. -1.
    10030    2    1    2    0    0  0.00000000000E+00  0.00000000000E+00  0.40291744107E+03  0.89590602985E+03  0.80019069603E+03 0.  0.
        3    1    3    3  502    0 -0.14414814830E+02 -0.19474406629E+03 -0.18951523259E+03  0.27211959103E+03  0.10100000352E+00 0. -1.
       -3    1    3    3    0  502  0.14414814830E+02  0.19474406629E+03  0.59243267365E+03  0.62378643882E+03  0.10100000352E+00 0.  1.
</event>
<event>
 5   0  0.6801147E-04  0.8004242E+03  0.7818609E-02  0.9559403E-01
       -2   -1    0    0    0  501  0.00000000000E+00  0.00000000000E+00  0.37592453052E+03  0.37592453052E+03  0.25500000920E-02 0.  1.
        2   -1    0    0  501    0  0.00000000000E+00  0.00000000000E+00 -0.42606887020E+03  0.42606887021E+03  0.25500000920E-02 0. -1.
    10030    2    1    2    0    0  0.00000000000E+00  0.00000000000E+00 -0.50144339687E+02  0.80199340073E+03  0.80042423753E+03 0.  0.
        4    1    3    3  502    0  0.12525965460E+02  0.19398183679E+03 -0.37558976509E+03  0.42291268290E+03  0.12699999809E+01 0. -1.
       -4    1    3    3    0  502 -0.12525965460E+02 -0.19398183679E+03  0.32544542541E+03  0.37908071783E+03  0.12699999809E+01 0.  1.
</event>
<event>
 5   0  0.6672462E-04  0.7991076E+03  0.7818609E-02  0.9561310E-01
       -2   -1    0    0    0  501  0.00000000000E+00  0.00000000000E+00  0.86178284650E+03  0.86178284651E+03  0.25500000920E-02 0.  1.
        2   -1    0    0  501    0  0.00000000000E+00  0.00000000000E+00 -0.18524763648E+03  0.18524763650E+03  0.25500000920E-02 0. -1.
    10030    2    1    2    0    0  0.00000000000E+00  0.00000000000E+00  0.67653521002E+03  0.10470304830E+04  0.79910759096E+03 0.  0.
        5    1    3    3  502    0  0.14199383237E+03 -0.31841992102E+03  0.82625662489E+02  0.35833306383E+03  0.46999998093E+01 0. -1.
       -5    1    3    3    0  502 -0.14199383237E+03  0.31841992102E+03  0.59390954754E+03  0.68869741918E+03  0.46999998093E+01 0.  1.
</event>
<event>
 5   0  0.2736375E-04  0.8005440E+03  0.7818609E-02  0.9559230E-01
       -3   -1    0    0    0  501  0.00000000000E+00  0.00000000000E+00  0.17720020444E+03  0.17720023322E+03  0.10100000352E+00 0. -1.
        3   -1    0    0  501    0  0.00000000000E+00  0.00000000000E+00 -0.90416186765E+03  0.90416187329E+03  0.10100000352E+00 0.  1.
    10030    2    1    2    0    0  0.00000000000E+00  0.00000000000E+00 -0.72696166321E+03  0.10813621065E+04  0.80054403103E+03 0.  0.
        2    1    3    3  502    0 -0.24640672957E+03  0.79849744903E+02  0.48730631269E+02  0.26356580311E+03  0.25500000920E-02 0. -1.
       -2    1    3    3    0  502  0.24640672957E+03 -0.79849744903E+02 -0.77569229448E+03  0.81779630340E+03  0.25500000920E-02 0.  1.
</event>
<event>
 5   0  0.6593118E-04  0.8001032E+03  0.7818609E-02  0.9559868E-01
        2   -1    0    0  501    0  0.00000000000E+00  0.00000000000E+00  0.28023009028E+03  0.28023009029E+03  0.25500000920E-02 0.  1.
       -2   -1    0    0    0  501  0.00000000000E+00  0.00000000000E+00 -0.57110666223E+03  0.57110666224E+03  0.25500000920E-02 0. -1.
    10030    2    1    2    0    0  0.00000000000E+00  0.00000000000E+00 -0.29087657195E+03  0.85133675253E+03  0.80010317216E+03 0.  0.
        1    1    3    3  502    0  0.18049942939E+03 -0.22972225091E+03 -0.43623096278E+03  0.52502362755E+03  0.50400001928E-02 0. -1.
       -1    1    3    3    0  502 -0.18049942939E+03  0.22972225091E+03  0.14535439083E+03  0.32631312498E+03  0.50400001928E-02 0.  1.
</event>
<event>
 5   0  0.6672462E-04  0.8014249E+03  0.7818609E-02  0.9557957E-01
        2   -1    0    0  501    0  0.00000000000E+00  0.00000000000E+00  0.10220781195E+04  0.10220781195E+04  0.25500000920E-02 0.  1.
       -2   -1    0    0    0  501  0.00000000000E+00  0.00000000000E+00 -0.15710195536E+03  0.15710195538E+03  0.25500000920E-02 0. -1.
    10030    2    1    2    0    0  0.00000000000E+00  0.00000000000E+00  0.86497616418E+03  0.11791800749E+04  0.80142490882E+03 0.  0.
        5    1    3    3  502    0 -0.69102569494E+02  0.22116643877E+03 -0.48486450352E+02  0.23677581087E+03  0.46999998093E+01 0. -1.
       -5    1    3    3    0  502  0.69102569494E+02 -0.22116643877E+03  0.91346261453E+03  0.94240426404E+03  0.46999998093E+01 0.  1.
</event>
<event>
 5   0  0.6801147E-04  0.7990018E+03  0.7818609E-02  0.9561463E-01
       -2   -1    0    0    0  501  0.00000000000E+00  0.00000000000E+00  0.12731132878E+03  0.12731132881E+03  0.25500000920E-02 0.  1.
        2   -1    0    0  501    0  0.00000000000E+00  0.00000000000E+00 -0.12536274016E+04  0.12536274016E+04  0.25500000920E-02 0. -1.
    10030    2    1    2    0    0  0.00000000000E+00  0.00000000000E+00 -0.11263160728E+04  0.13809387304E+04  0.79900180305E+03 0.  0.
        4    1    3    3  502    0 -0.27124315055E+03 -0.13832462561E+03 -0.11614893429E+03  0.32588147632E+03  0.12699999809E+01 0.  1.
       -4    1    3    3    0  502  0.27124315055E+03  0.13832462561E+03 -0.10101671386E+04  0.10550572541E+04  0.12699999809E+01 0. -1.
</event>
<event>
 5   0  0.4086111E-04  0.8001049E+03  0.7818609E-02  0.9559865E-01
        1   -1    0    0  501    0  0.00000000000E+00  0.00000000000E+00  0.60139794287E+03  0.60139794289E+03  0.50400001928E-02 0. -1.
       -1   -1    0    0    0  501  0.00000000000E+00  0.00000000000E+00 -0.26611657265E+03  0.26611657270E+03  0.50400001928E-02 0.  1.
    10030    2    1    2    0    0  0.00000000000E+00  0.00000000000E+00  0.33528137022E+03  0.86751451559E+03  0.80010489159E+03 0.  0.
        3    1    3    3  502    0 -0.13991844240E+03 -0.16726239361E+03 -0.19600886797E+03  0.29321215078E+03  0.10100000352E+00 0.  1.
       -3    1    3    3    0  502  0.13991844240E+03  0.16726239361E+03  0.53129023819E+03  0.57430236482E+03  0.10100000352E+00 0. -1.
</event>
<event>
 5   0  0.4086111E-04  0.7994345E+03  0.7818609E-02  0.9560836E-01
        1   -1    0    0  501    0  0.00000000000E+00  0.00000000000E+00  0.16534888339E+03  0.16534888346E+03  0.50400001928E-02 0.  1.
       -1   -1    0    0    0  501  0.00000000000E+00  0.00000000000E+00 -0.96628341045E+03  0.96628341046E+03  0.50400001928E-02 0. -1.
    10030    2    1    2    0    0  0.00000000000E+00  0.00000000000E+00 -0.80093452706E+03  0.11316322939E+04  0.79943450765E+03 0.  0.
        3    1    3    3  502    0 -0.24450703483E+03  0.28569494159E+03 -0.59231658622E+03  0.70160119601E+03  0.10100000352E+00 0.  1.
       -3    1    3    3    0  502  0.24450703483E+03 -0.28569494159E+03 -0.20861794084E+03  0.43003109791E+03  0.10100000352E+00 0. -1.
</event>
<event>
 5   0  0.6970013E-04  0.7998216E+03  0.7818609E-02  0.9560275E-01
       -2   -1    0    0    0  501  0.00000000000E+00  0.00000000000E+00  0.24342644514E+03  0.24342644516E+03  0.25500000920E-02 0. -1.
        2   -1    0    0  501    0  0.00000000000E+00  0.00000000000E+00 -0.65698970108E+03  0.65698970108E+03  0.25500000920E-02 0.  1.
    10030    2    1    2    0    0  0.00000000000E+00  0.00000000000E+00 -0.41356325593E+03  0.90041614624E+03  0.79982164871E+03 0.  0.
        3    1    3    3  502    0  0.14995471009E+03 -0.11123395853E+03 -0.60491207320E+03  0.63307032398E+03  0.10100000352E+00 0.  1.
       -3    1    3    3    0  502 -0.14995471009E+03  0.11123395853E+03  0.19134881726E+03  0.26734582226E+03  0.10100000352E+00 0. -1.
</event>
<event>
 5   0  0.6801147E-04  0.7999069E+03  0.7818609E-02  0.9560152E-01
        2   -1    0    0  501    0  0.00000000000E+00  0.00000000000E+00  0.12005007285E+04  0.12005007285E+04  0.25500000920E-02 0.  1.
       -2   -1    0    0    0  501  0.00000000000E+00  0.00000000000E+00 -0.13324670651E+03  0.13324670654E+03  0.25500000920E-02 0. -1.
    10030    2    1    2    0    0  0.00000000000E+00  0.00000000000E+00  0.10672540219E+04  0.13337474350E+04  0.79990691522E+03 0.  0.
        4    1    3    3  502    0 -0.44017115019E+02  0.25270018548E+03  0.21966595843E+02  0.25744714873E+03  0.12699999809E+01 0. -1.
       -4    1    3    3    0  502  0.44017115019E+02 -0.25270018548E+03  0.10452874261E+04  0.10763002863E+04  0.12699999809E+01 0.  1.
</event>
<event>
 5   0  0.4104786E-04  0.7990595E+03  0.7818609E-02  0.9561380E-01
        1   -1    0    0  501    0  0.00000000000E+00  0.00000000000E+00  0.23787708739E+03  0.23787708745E+03  0.50400001928E-02 0. -1.
       -1   -1    0    0    0  501  0.00000000000E+00  0.00000000000E+00 -0.67103562970E+03  0.67103562972E+03  0.50400001928E-02 0.  1.
    10030    2    1    2    0    0  0.00000000000E+00  0.00000000000E+00 -0.43315854231E+03  0.90891271717E+03  0.79905945001E+03 0.  0.
        2    1    3    3  502    0  0.59608619300E+02 -0.33959775519E+03 -0.44618137857E+03  0.56387733188E+03  0.25500000920E-02 0.  1.
       -2    1    3    3    0  502 -0.59608619300E+02  0.33959775519E+03  0.13022836257E+02  0.34503538528E+03  0.25500000920E-02 0. -1.
</event>
<event>
 5   0  0.4087283E-04  0.8007181E+03  0.7818609E-02  0.9558978E-01
        1   -1    0    0  501    0  0.00000000000E+00  0.00000000000E+00  0.23035455239E+03  0.23035455245E+03  0.50400001928E-02 0. -1.
       -1   -1    0    0    0  501  0.00000000000E+00  0.00000000000E+00 -0.69582895340E+03  0.69582895342E+03  0.50400001928E-02 0.  1.
    10030    2    1    2    0    0  0.00000000000E+00  0.00000000000E+00 -0.46547440101E+03  0.92618350587E+03  0.80071809555E+03 0.  0.
        1    1    3    3  502    0  0.21047095138E+03  0.29818509041E+03 -0.42306473094E+03  0.55874514415E+03  0.50400001928E-02 0.  1.
       -1    1    3    3    0  502 -0.21047095138E+03 -0.29818509041E+03 -0.42409670062E+02  0.36743836171E+03  0.50400001928E-02 0. -1.
</event>
<event>
 5   0  0.4104786E-04  0.8004085E+03  0.7818609E-02  0.9559426E-01
       -1   -1    0    0    0  501  0.00000000000E+00  0.00000000000E+00  0.36102710293E+03  0.36102710296E+03  0.50400001928E-02 0. -1.
        1   -1    0    0  501    0  0.00000000000E+00  0.00000000000E+00 -0.44363278354E+03  0.44363278357E+03  0.50400001928E-02 0.  1.
    10030    2    1    2    0    0  0.00000000000E+00  0.00000000000E+00 -0.82605680612E+02  0.80465988653E+03  0.80040854226E+03 0.  0.
        2    1    3    3  502    0  0.10692680666E+03 -0.38565438431E+03 -0.40396663020E+02  0.40223691590E+03  0.25500000920E-02 0.  1.
       -2    1    3    3    0  502 -0.10692680666E+03  0.38565438431E+03 -0.42209017593E+02  0.40242297063E+03  0.25500000920E-02 0. -1.
</event>
<event>
 5   0  0.2736375E-04  0.7992831E+03  0.7818609E-02  0.9561055E-01
       -3   -1    0    0    0  501  0.00000000000E+00  0.00000000000E+00  0.18913049504E+03  0.18913052201E+03  0.10100000352E+00 0.  1.
        3   -1    0    0  501    0  0.00000000000E+00  0.00000000000E+00 -0.84446106327E+03  0.84446106931E+03  0.10100000352E+00 0. -1.
    10030    2    1    2    0    0  0.00000000000E+00  0.00000000000E+00 -0.65533056823E+03  0.10335915913E+04  0.79928306875E+03 0.  0.
        4    1    3    3  502    0  0.59241757855E+02  0.27076509656E+03  0.44636642812E+02  0.28074430746E+03  0.12699999809E+01 0.  1.
       -4    1    3    3    0  502 -0.59241757855E+02 -0.27076509656E+03 -0.69996721104E+03  0.75284728387E+03  0.12699999809E+01 0. -1.
</event>
<event>
 5   0  0.6801147E-04  0.8003048E+03  0.7818609E-02  0.9559576E-01
        2   -1    0    0  501    0  0.00000000000E+00  0.00000000000E+00  0.65194579528E+03  0.65194579528E+03  0.25500000920E-02 0. -1.
       -2   -1    0    0    0  501  0.00000000000E+00  0.00000000000E+00 -0.24560620705E+03  0.24560620706E+03  0.25500000920E-02 0.  1.
    10030    2    1    2    0    0  0.00000000000E+00  0.00000000000E+00  0.40633958823E+03  0.89755200234E+03  0.80030477691E+03 0.  0.
        4    1    3    3  502    0 -0.26327293884E+03  0.96210894141E+02  0.52344199294E+03  0.59376957598E+03  0.12699999809E+01 0. -1.
       -4    1    3    3    0  502  0.26327293884E+03 -0.96210894141E+02 -0.11710240471E+03  0.30378242637E+03  0.12699999809E+01 0.  1.
</event>
<event>
 5   0  0.6801147E-04  0.7999234E+03  0.7818609E-02  0.9560128E-01
        2   -1    0    0  501    0  0.00000000000E+00  0.00000000000E+00  0.14824280451E+04  0.14824280451E+04  0.25500000920E-02 0. -1.
       -2   -1    0    0    0  501  0.00000000000E+00  0.00000000000E+00 -0.10791036621E+03  0.10791036624E+03  0.25500000920E-02 0.  1.
    10030    2    1    2    0    0  0.00000000000E+00  0.00000000000E+00  0.13745176789E+04  0.15903384113E+04  0.79992337944E+03 0.  0.
        4    1    3    3  502    0  0.19100395142E+02  0.18935784704E+03 -0.12112220948E+02  0.19070799177E+03  0.12699999809E+01 0.  1.
       -4    1    3    3    0  502 -0.19100395142E+02 -0.18935784704E+03  0.13866298998E+04  0.13996304196E+04  0.12699999809E+01 0. -1.
</event>
<event>
 5   0  0.6672462E-04  0.8001389E+03  0.7818609E-02  0.9559816E-01
       -2   -1    0    0    0  501  0.00000000000E+00  0.00000000000E+00  0.15338176480E+03  0.15338176482E+03  0.25500000920E-02 0. -1.
        2   -1    0    0  501    0  0.00000000000E+00  0.00000000000E+00 -0.10435111085E+04  0.10435111085E+04  0.25500000920E-02 0.  1.
    10030    2    1    2    0    0  0.00000000000E+00  0.00000000000E+00 -0.89012934373E+03  0.11968928734E+04  0.80013892652E+03 0.  0.
        5    1    3    3  502    0  0.18531514264E+03  0.94110706108E+01  0.85074945133E+02  0.20418155311E+03  0.46999998093E+01 0. -1.
       -5    1    3    3    0  502 -0.18531514264E+03 -0.94110706108E+01 -0.97520428887E+03  0.99271132025E+03  0.46999998093E+01 0.  1.
</event>
<event>
 5   0  0.2736375E-04  0.7994842E+03  0.7818609E-02  0.9560764E-01
        3   -1    0    0  501    0  0.00000000000E+00  0.00000000000E+00  0.51796597782E+03  0.51796598767E+03  0.10100000352E+00 0.  1.
       -3   -1    0    0    0  501  0.00000000000E+00  0.00000000000E+00 -0.30850234915E+03  0.30850236569E+03  0.10100000352E+00 0. -1.
    10030    2    1    2    0    0  0.00000000000E+00  0.00000000000E+00  0.20946362867E+03  0.82646835336E+03  0.79948416330E+03 0.  0.
        3    1    3    3  502    0 -0.20704023878E+03 -0.20132294049E+03  0.39046119422E+03  0.48565063701E+03  0.10100000352E+00 0.  1.
       -3    1    3    3    0  502  0.20704023878E+03  0.20132294049E+03 -0.18099756555E+03  0.34081771635E+03  0.10100000352E+00 0. -1.
</event>
<event>
 5   0  0.4086111E-04  0.7999232E+03  0.7818609E-02  0.9560128E-01
        1   -1    0    0  501    0  0.00000000000E+00  0.00000000000E+00  0.34333590091E+03  0.34333590094E+03  0.50400001928E-02 0.  1.
       -1   -1    0    0    0  501  0.00000000000E+00  0.00000000000E+00 -0.46592643393E+03  0.46592643395E+03  0.50400001928E-02 0. -1.
    10030    2    1    2    0    0  0.00000000000E+00  0.00000000000E+00 -0.12259053302E+03  0.80926233490E+03  0.79992317625E+03 0.  0.
        3    1    3    3  502    0  0.24970605393E+02  0.46893155238E+02  0.33975034388E+03  0.34387905652E+03  0.10100000352E+00 0.  1.
       -3    1    3    3    0  502 -0.24970605393E+02 -0.46893155238E+02 -0.46234087690E+03  0.46538327838E+03  0.10100000352E+00 0. -1.
</event>
<event>
 5   0  0.4104786E-04  0.7998544E+03  0.7818609E-02  0.9560228E-01
        1   -1    0    0  501    0  0.00000000000E+00  0.00000000000E+00  0.45864067197E+03  0.45864067200E+03  0.50400001928E-02 0. -1.
       -1   -1    0    0    0  501  0.00000000000E+00  0.00000000000E+00 -0.34873000261E+03  0.34873000265E+03  0.50400001928E-02 0.  1.
    10030    2    1    2    0    0  0.00000000000E+00  0.00000000000E+00  0.10991066936E+03  0.80737067464E+03  0.79985439365E+03 0.  0.
        2    1    3    3  502    0 -0.32015265223E+03 -0.19973273141E+02  0.29604092232E+03  0.43650530359E+03  0.25500000920E-02 0. -1.
       -2    1    3    3    0  502  0.32015265223E+03  0.19973273141E+02 -0.18613025295E+03  0.37086537105E+03  0.25500000920E-02 0.  1.
</event>
<event>
 5   0  0.6593118E-04  0.8013048E+03  0.7818609E-02  0.9558130E-01
       -2   -1    0    0    0  501  0.00000000000E+00  0.00000000000E+00  0.99632714359E+02  0.99632714392E+02  0.25500000920E-02 0. -1.
        2   -1    0    0  501    0  0.00000000000E+00  0.00000000000E+00 -0.16111408181E+04  0.16111408181E+04  0.25500000920E-02 0.  1.
    10030    2    1    2    0    0  0.00000000000E+00  0.00000000000E+00 -0.15115081038E+04  0.17107735325E+04  0.80130476837E+03 0.  0.
        1    1    3    3  502    0 -0.36713756628E+03 -0.11170302629E+03 -0.50995456970E+03  0.63821722151E+03  0.50400001928E-02 0. -1.
       -1    1    3    3    0  502  0.36713756628E+03  0.11170302629E+03 -0.10015535341E+04  0.10725563110E+04  0.50400001928E-02 0.  1.
</event>
<event>
 5   0  0.4104786E-04  0.7994259E+03  0.7818609E-02  0.9560848E-01
       -1   -1    0    0    0  501  0.00000000000E+00  0.00000000000E+00  0.20806442368E+03  0.20806442374E+03  0.50400001928E-02 0. -1.
        1   -1    0    0  501    0  0.00000000000E+00  0.00000000000E+00 -0.76788937772E+03  0.76788937773E+03  0.50400001928E-02 0.  1.
    10030    2    1    2    0    0  0.00000000000E+00  0.00000000000E+00 -0.55982495404E+03  0.97595380147E+03  0.79942594619E+03 0.  0.
        2    1    3    3  502    0  0.33908386588E+03  0.82659381817E+02 -0.51776854376E+03  0.62441549181E+03  0.25500000920E-02 0.  1.
       -2    1    3    3    0  502 -0.33908386588E+03 -0.82659381817E+02 -0.42056410279E+02  0.35153830966E+03  0.25500000920E-02 0. -1.
</event>
<event>
 5   0  0.6801147E-04  0.7998557E+03  0.7818609E-02  0.9560226E-01
        2   -1    0    0  501    0  0.00000000000E+00  0.00000000000E+00  0.46147158416E+03  0.46147158416E+03  0.25500000920E-02 0. -1.
       -2   -1    0    0    0  501  0.00000000000E+00  0.00000000000E+00 -0.34659185516E+03  0.34659185517E+03  0.25500000920E-02 0.  1.
    10030    2    1    2    0    0  0.00000000000E+00  0.00000000000E+00  0.11487972900E+03  0.80806343933E+03  0.79985571814E+03 0.  0.
        4    1    3    3  502    0  0.37452112563E+03 -0.13891263053E+03  0.77078659369E+02  0.40682370272E+03  0.12699999809E+01 0.  1.
       -4    1    3    3    0  502 -0.37452112563E+03  0.13891263053E+03  0.37801069629E+02  0.40123973661E+03  0.12699999809E+01 0. -1.
</event>
<event>
 5   0  0.4392552E-04  0.8000178E+03  0.7818609E-02  0.9559991E-01
       -1   -1    0    0    0  501  0.00000000000E+00  0.00000000000E+00  0.22464105951E+03  0.22464105957E+03  0.50400001928E-02 0. -1.
        1   -1    0    0  501    0  0.00000000000E+00  0.00000000000E+00 -0.71227909144E+03  0.71227909146E+03  0.50400001928E-02 0.  1.
    10030    2    1    2    0    0  0.00000000000E+00  0.00000000000E+00 -0.48763803194E+03  0.93692015103E+03  0.80001782431E+03 0.  0.
        5    1    3    3  502    0  0.26606917233E+02  0.22961792769E+03 -0.62610219150E+03  0.66742667385E+03  0.46999998093E+01 0.  1.
       -5    1    3    3    0  502 -0.26606917233E+02 -0.22961792769E+03  0.13846415957E+03  0.26949347718E+03  0.46999998093E+01 0. -1.
</event>
<event>
 5   0  0.7133039E-04  0.8001704E+03  0.7818609E-02  0.9559770E-01
        2   -1    0    0  501    0  0.00000000000E+00  0.00000000000E+00  0.48803701368E+03  0.48803701369E+03  0.25500000920E-02 0. -1.
       -2   -1    0    0    0  501  0.00000000000E+00  0.00000000000E+00 -0.32798367724E+03  0.32798367725E+03  0.25500000920E-02 0.  1.
    10030    2    1    2    0    0  0.00000000000E+00  0.00000000000E+00  0.16005333645E+03  0.81602069094E+03  0.80017041780E+03 0.  0.
        2    1    3    3  502    0  0.23257500549E+03 -0.30364432448E+03  0.19972789892E+03  0.43148840376E+03  0.25500000920E-02 0. -1.
       -2    1    3    3    0  502 -0.23257500549E+03  0.30364432448E+03 -0.39674562473E+02  0.38453228718E+03  0.25500000920E-02 0.  1.
</event>
<event>
 5   0  0.4169155E-04  0.7997346E+03  0.7818609E-02  0.9560401E-01
       -1   -1    0    0    0  501  0.00000000000E+00  0.00000000000E+00  0.28658071415E+03  0.28658071420E+03  0.50400001928E-02 0. -1.
        1   -1    0    0  501    0  0.00000000000E+00  0.00000000000E+00 -0.55793650689E+03  0.55793650692E+03  0.50400001928E-02 0.  1.
    10030    2    1    2    0    0  0.00000000000E+00  0.00000000000E+00 -0.27135579274E+03  0.84451722111E+03  0.79973456253E+03 0.  0.
        4    1    3    3  502    0  0.87142719280E+02  0.38727145410E+02 -0.54575099207E+03  0.55402112195E+03  0.12699999809E+01 0.  1.
       -4    1    3    3    0  502 -0.87142719280E+02 -0.38727145410E+02  0.27439519933E+03  0.29049609917E+03  0.12699999809E+01 0. -1.
</event>
<event>
 5   0  0.6801147E-04  0.7998386E+03  0.7818609E-02  0.9560251E-01
        2   -1    0    0  501    0  0.00000000000E+00  0.00000000000E+00  0.55937007761E+03  0.55937007761E+03  0.25500000920E-02 0.  1.
       -2   -1    0    0    0  501  0.00000000000E+00  0.00000000000E+00 -0.28592065957E+03  0.28592065959E+03  0.25500000920E-02 0. -1.
    10030    2    1    2    0    0  0.00000000000E+00  0.00000000000E+00  0.27344941803E+03  0.84529073720E+03  0.79983863758E+03 0.  0.
        4    1    3    3  502    0  0.13382310934E+03  0.24741102736E+03 -0.16370602947E+03  0.32545678367E+03  0.12699999809E+01 0. -1.
       -4    1    3    3    0  502 -0.13382310934E+03 -0.24741102736E+03  0.43715544751E+03  0.51983395353E+03  0.12699999809E+01 0.  1.
</event>
<event>
 5   0  0.4086111E-04  0.7999391E+03  0.7818609E-02  0.9560105E-01
        1   -1    0    0  501    0  0.00000000000E+00  0.00000000000E+00  0.17641625168E+04  0.17641625168E+04  0.50400001928E-02 0.  1.
       -1   -1    0    0    0  501  0.00000000000E+00  0.00000000000E+00 -0.90680792947E+02  0.90680793087E+02  0.50400001928E-02 0. -1.
    10030    2    1    2    0    0  0.00000000000E+00  0.00000000000E+00  0.16734817239E+04  0.18548433099E+04  0.79993913780E+03 0.  0.
        3    1    3    3  502    0 -0.16133843824E+03  0.35610353376E+03  0.64086881948E+03  0.75070145357E+03  0.10100000352E+00 0.  1.
       -3    1    3    3    0  502  0.16133843824E+03 -0.35610353376E+03  0.10326129044E+04  0.11041418563E+04  0.10100000352E+00 0. -1.
</event>
<event>
 5   0  0.6672462E-04  0.8000714E+03  0.7818609E-02  0.9559914E-01
       -2   -1    0    0    0  501  0.00000000000E+00  0.00000000000E+00  0.45712138436E+03  0.45712138436E+03  0.25500000920E-02 0. -1.
        2   -1    0    0  501    0  0.00000000000E+00  0.00000000000E+00 -0.35007888848E+03  0.35007888848E+03  0.25500000920E-02 0.  1.
    10030    2    1    2    0    0  0.00000000000E+00  0.00000000000E+00  0.10704249588E+03  0.80720027285E+03  0.80007136217E+03 0.  0.
        5    1    3    3  502    0  0.56156248113E+02 -0.38491313993E+03  0.14759804844E+03  0.41607562221E+03  0.46999998093E+01 0. -1.
       -5    1    3    3    0  502 -0.56156248113E+02  0.38491313993E+03 -0.40555552564E+02  0.39112465064E+03  0.46999998093E+01 0.  1.
</event>
<event>
 5   0  0.6672462E-04  0.8000139E+03  0.7818609E-02  0.9559997E-01
       -2   -1    0    0    0  501  0.00000000000E+00  0.00000000000E+00  0.83885457558E+02  0.83885457597E+02  0.25500000920E-02 0. -1.
        2   -1    0    0  501    0  0.00000000000E+00  0.00000000000E+00 -0.19074289380E+04  0.19074289380E+04  0.25500000920E-02 0.  1.
    10030    2    1    2    0    0  0.00000000000E+00  0.00000000000E+00 -0.18235434804E+04  0.19913143956E+04  0.80001387304E+03 0.  0.
        5    1    3    3  502    0 -0.29739338353E+03  0.18073784696E+03 -0.14025378108E+04  0.14450755671E+04  0.46999998093E+01 0.  1.
       -5    1    3    3    0  502  0.29739338353E+03 -0.18073784696E+03 -0.42100566962E+03  0.54623882848E+03  0.46999998093E+01 0. -1.
</event>
<event>
 5   0  0.6593118E-04  0.7994821E+03  0.7818609E-02  0.9560767E-01
       -2   -1    0    0    0  501  0.00000000000E+00  0.00000000000E+00  0.36618246020E+03  0.36618246021E+03  0.25500000920E-02 0. -1.
        2   -1    0    0  501    0  0.00000000000E+00  0.00000000000E+00 -0.43637508161E+03  0.43637508161E+03  0.25500000920E-02 0.  1.
    10030    2    1    2    0    0  0.00000000000E+00  0.00000000000E+00 -0.70192621403E+02  0.80255754182E+03  0.79948208475E+03 0.  0.
        1    1    3    3  502    0 -0.50654043165E+02 -0.39031813649E+03  0.35020942390E+02  0.39514623394E+03  0.50400001928E-02 0.  1.
       -1    1    3    3    0  502  0.50654043165E+02  0.39031813649E+03 -0.10521356379E+03  0.40741130789E+03  0.50400001928E-02 0. -1.
</event>
<event>
 5   0  0.4104786E-04  0.7993665E+03  0.7818609E-02  0.9560934E-01
       -1   -1    0    0    0  501  0.00000000000E+00  0.00000000000E+00  0.17675421678E+03  0.17675421685E+03  0.50400001928E-02 0. -1.
        1   -1    0    0  501    0  0.00000000000E+00  0.00000000000E+00 -0.90377880998E+03  0.90377880999E+03  0.50400001928E-02 0.  1.
    10030    2    1    2    0    0  0.00000000000E+00  0.00000000000E+00 -0.72702459320E+03  0.10805330268E+04  0.79936653857E+03 0.  0.
        2    1    3    3  502    0 -0.29562165474E+03 -0.22048848963E+03 -0.57178231595E+03  0.68039867258E+03  0.25500000920E-02 0.  1.
       -2    1    3    3    0  502  0.29562165474E+03  0.22048848963E+03 -0.15524227724E+03  0.40013435426E+03  0.25500000920E-02 0. -1.
</event>
<event>
 5   0  0.4086111E-04  0.8001335E+03  0.7818609E-02  0.9559824E-01
       -1   -1    0    0    0  501  0.00000000000E+00  0.00000000000E+00  0.18685497465E+03  0.18685497472E+03  0.50400001928E-02 0.  1.
        1   -1    0    0  501    0  0.00000000000E+00  0.00000000000E+00 -0.85656481885E+03  0.85656481886E+03  0.50400001928E-02 0. -1.
    10030    2    1    2    0    0  0.00000000000E+00  0.00000000000E+00 -0.66970984420E+03  0.10434197936E+04  0.80013348275E+03 0.  0.
        3    1    3    3  502    0 -0.19395813592E+03 -0.26835791913E+03 -0.62766630273E+03  0.70964831363E+03  0.10100000352E+00 0. -1.
       -3    1    3    3    0  502  0.19395813592E+03  0.26835791913E+03 -0.42043541470E+02  0.33377147995E+03  0.10100000352E+00 0.  1.
</event>
<event>
 5   0  0.4087283E-04  0.8007341E+03  0.7818609E-02  0.9558955E-01
       -1   -1    0    0    0  501  0.00000000000E+00  0.00000000000E+00  0.95972410589E+02  0.95972410721E+02  0.50400001928E-02 0. -1.
        1   -1    0    0  501    0  0.00000000000E+00  0.00000000000E+00 -0.16702066176E+04  0.16702066177E+04  0.50400001928E-02 0.  1.
    10030    2    1    2    0    0  0.00000000000E+00  0.00000000000E+00 -0.15742342071E+04  0.17661790284E+04  0.80073405173E+03 0.  0.
        1    1    3    3  502    0  0.61862403407E+02  0.18861591812E+03 -0.15540248290E+04  0.15666512345E+04  0.50400001928E-02 0.  1.
       -1    1    3    3    0  502 -0.61862403407E+02 -0.18861591812E+03 -0.20209378058E+02  0.19952779383E+03  0.50400001928E-02 0. -1.
</event>
<event>
 5   0  0.6801147E-04  0.7999819E+03  0.7818609E-02  0.9560043E-01
        2   -1    0    0  501    0  0.00000000000E+00  0.00000000000E+00  0.20050160575E+03  0.20050160576E+03  0.25500000920E-02 0.  1.
       -2   -1    0    0    0  501  0.00000000000E+00  0.00000000000E+00 -0.79796251051E+03  0.79796251052E+03  0.25500000920E-02 0. -1.
    10030    2    1    2    0    0  0.00000000000E+00  0.00000000000E+00 -0.59746090477E+03  0.99846411628E+03  0.79998191153E+03 0.  0.
        4    1    3    3  502    0  0.36341486265E+02 -0.19553179299E+03 -0.73187578596E+03  0.75841753980E+03  0.12699999809E+01 0. -1.
       -4    1    3    3    0  502 -0.36341486265E+02  0.19553179299E+03  0.13441488119E+03  0.24004657648E+03  0.12699999809E+01 0.  1.
</event>
<event>
 5   0  0.4392552E-04  0.8006280E+03  0.7818609E-02  0.9559109E-01
        1   -1    0    0  501    0  0.00000000000E+00  0.00000000000E+00  0.59918491746E+03  0.59918491748E+03  0.50400001928E-02 0.  1.
       -1   -1    0    0    0  501  0.00000000000E+00  0.00000000000E+00 -0.26744881283E+03  0.26744881287E+03  0.50400001928E-02 0. -1.
    10030    2    1    2    0    0  0.00000000000E+00  0.00000000000E+00  0.33173610463E+03  0.86663373036E+03  0.80062799069E+03 0.  0.
        5    1    3    3  502    0  0.23673816683E+03 -0.32136924581E+03  0.19845034492E+03  0.44578894242E+03  0.46999998093E+01 0.  1.
       -5    1    3    3    0  502 -0.23673816683E+03  0.32136924581E+03  0.13328575971E+03  0.42084478793E+03  0.46999998093E+01 0. -1.
</event>
<event>
 5   0  0.4169155E-04  0.7994640E+03  0.7818609E-02  0.9560793E-01
       -1   -1    0    0    0  501  0.00000000000E+00  0.00000000000E+00  0.28902992218E+03  0.28902992222E+03  0.50400001928E-02 0. -1.
        1   -1    0    0  501    0  0.00000000000E+00  0.00000000000E+00 -0.55283442129E+03  0.55283442132E+03  0.50400001928E-02 0.  1.
    10030    2    1    2    0    0  0.00000000000E+00  0.00000000000E+00 -0.26380449911E+03  0.84186434354E+03  0.79946404495E+03 0.  0.
        4    1    3    3  502    0  0.12216025359E+02 -0.32481032668E+03 -0.37690706338E+03  0.49770626570E+03  0.12699999809E+01 0.  1.
       -4    1    3    3    0  502 -0.12216025359E+02  0.32481032668E+03  0.11310256426E+03  0.34415807783E+03  0.12699999809E+01 0. -1.
</event>
<event>
 5   0  0.4104786E-04  0.7969364E+03  0.7818609E-02  0.9564462E-01
        1   -1    0    0  501    0  0.00000000000E+00  0.00000000000E+00  0.43617650723E+03  0.43617650726E+03  0.50400001928E-02 0.  1.
       -1   -1    0    0    0  501  0.00000000000E+00  0.00000000000E+00 -0.36401988682E+03  0.36401988685E+03  0.50400001928E-02 0. -1.
    10030    2    1    2    0    0  0.00000000000E+00  0.00000000000E+00  0.72156620416E+02  0.80019639411E+03  0.79693644118E+03 0.  0.
        2    1    3    3  502    0  0.10369995420E+03  0.10336196204E+03  0.40818776878E+03  0.43365266088E+03  0.25500000920E-02 0.  1.
       -2    1    3    3    0  502 -0.10369995420E+03 -0.10336196204E+03 -0.33603114836E+03  0.36654373324E+03  0.25500000920E-02 0. -1.
</event>
<event>
 5   0  0.6970013E-04  0.8001586E+03  0.7818609E-02  0.9559788E-01
       -2   -1    0    0    0  501  0.00000000000E+00  0.00000000000E+00  0.83392312834E+02  0.83392312873E+02  0.25500000920E-02 0.  1.
        2   -1    0    0  501    0  0.00000000000E+00  0.00000000000E+00 -0.19194027904E+04  0.19194027904E+04  0.25500000920E-02 0. -1.
    10030    2    1    2    0    0  0.00000000000E+00  0.00000000000E+00 -0.18360104776E+04  0.20027951033E+04  0.80015857927E+03 0.  0.
        3    1    3    3  502    0  0.36283992992E+03 -0.15593789387E+03 -0.10781577112E+04  0.11482131779E+04  0.10100000352E+00 0.  1.
       -3    1    3    3    0  502 -0.36283992992E+03  0.15593789387E+03 -0.75785276635E+03  0.85458192536E+03  0.10100000352E+00 0. -1.
</event>
<event>
 5   0  0.6801147E-04  0.8000461E+03  0.7818609E-02  0.9559950E-01
       -2   -1    0    0    0  501  0.00000000000E+00  0.00000000000E+00  0.82644994861E+02  0.82644994900E+02  0.25500000920E-02 0.  1.
        2   -1    0    0  501    0  0.00000000000E+00  0.00000000000E+00 -0.19362145302E+04  0.19362145302E+04  0.25500000920E-02 0. -1.
    10030    2    1    2    0    0  0.00000000000E+00  0.00000000000E+00 -0.18535695354E+04  0.20188595251E+04  0.80004609853E+03 0.  0.
        4    1    3    3  502    0 -0.23297863869E+03  0.30014701506E+02 -0.17438338978E+04  0.17595846682E+04  0.12699999809E+01 0. -1.
       -4    1    3    3    0  502  0.23297863869E+03 -0.30014701506E+02 -0.10973563752E+03  0.25927485693E+03  0.12699999809E+01 0.  1.
</event>
<event>
 5   0  0.6593118E-04  0.8000358E+03  0.7818609E-02  0.9559965E-01
       -2   -1    0    0    0  501  0.00000000000E+00  0.00000000000E+00  0.18407966479E+03  0.18407966481E+03  0.25500000920E-02 0. -1.
        2   -1    0    0  501    0  0.00000000000E+00  0.00000000000E+00 -0.86926678303E+03  0.86926678304E+03  0.25500000920E-02 0.  1.
    10030    2    1    2    0    0  0.00000000000E+00  0.00000000000E+00 -0.68518711824E+03  0.10533464478E+04  0.80003584432E+03 0.  0.
        1    1    3    3  502    0 -0.10843845158E+03  0.17922504030E+03 -0.79127815034E+03  0.81853626926E+03  0.50400001928E-02 0.  1.
       -1    1    3    3    0  502  0.10843845158E+03 -0.17922504030E+03  0.10609103210E+03  0.23481017859E+03  0.50400001928E-02 0. -1.
</event>
<event>
 5   0  0.6970013E-04  0.7997806E+03  0.7818609E-02  0.9560335E-01
       -2   -1    0    0    0  501  0.00000000000E+00  0.00000000000E+00  0.21841086404E+03  0.21841086405E+03  0.25500000920E-02 0.  1.
        2   -1    0    0  501    0  0.00000000000E+00  0.00000000000E+00 -0.73216258188E+03  0.73216258189E+03  0.25500000920E-02 0. -1.
    10030    2    1    2    0    0  0.00000000000E+00  0.00000000000E+00 -0.51375171785E+03  0.95057344594E+03  0.79978062525E+03 0.  0.
        3    1    3    3  502    0  0.39015631014E+03  0.45799554861E+02 -0.16799140509E+03  0.42724778285E+03  0.10100000352E+00 0. -1.
       -3    1    3    3    0  502 -0.39015631014E+03 -0.45799554861E+02 -0.34576031276E+03  0.52332566309E+03  0.10100000352E+00 0.  1.
</event>
<event>
 5   0  0.4392552E-04  0.7998377E+03  0.7818609E-02  0.9560252E-01
       -1   -1    0    0    0  501  0.00000000000E+00  0.00000000000E+00  0.93438284611E+02  0.93438284747E+02  0.50400001928E-02 0.  1.
        1   -1    0    0  501    0  0.00000000000E+00  0.00000000000E+00 -0.17116654063E+04  0.17116654064E+04  0.50400001928E-02 0. -1.
    10030    2    1    2    0    0  0.00000000000E+00  0.00000000000E+00 -0.16182271217E+04  0.18051036911E+04  0.79983768235E+03 0.  0.
        5    1    3    3  502    0 -0.17593652279E+02 -0.24894117105E+03 -0.10394032300E+03  0.27038292104E+03  0.46999998093E+01 0.  1.
       -5    1    3    3    0  502  0.17593652279E+02  0.24894117105E+03 -0.15142867987E+04  0.15347207701E+04  0.46999998093E+01 0. -1.
</event>
<event>
 5   0  0.4169155E-04  0.7999102E+03  0.7818609E-02  0.9560147E-01
        1   -1    0    0  501    0  0.00000000000E+00  0.00000000000E+00  0.53919072406E+03  0.53919072408E+03  0.50400001928E-02 0.  1.
       -1   -1    0    0    0  501  0.00000000000E+00  0.00000000000E+00 -0.29667439153E+03  0.29667439157E+03  0.50400001928E-02 0. -1.
    10030    2    1    2    0    0  0.00000000000E+00  0.00000000000E+00  0.24251633253E+03  0.83586511566E+03  0.79991019498E+03 0.  0.
        4    1    3    3  502    0 -0.51895795385E+02  0.39626303486E+03  0.13761088661E+03  0.42267710535E+03  0.12699999809E+01 0.  1.
       -4    1    3    3    0  502  0.51895795385E+02 -0.39626303486E+03  0.10490544592E+03  0.41318801030E+03  0.12699999809E+01 0. -1.
</event>
<event>
 5   0  0.4086111E-04  0.8003905E+03  0.7818609E-02  0.9559452E-01
       -1   -1    0    0    0  501  0.00000000000E+00  0.00000000000E+00  0.21069024552E+03  0.21069024558E+03  0.50400001928E-02 0. -1.
        1   -1    0    0  501    0  0.00000000000E+00  0.00000000000E+00 -0.76015031294E+03  0.76015031296E+03  0.50400001928E-02 0.  1.
    10030    2    1    2    0    0  0.00000000000E+00  0.00000000000E+00 -0.54946006742E+03  0.97084055853E+03  0.80039054492E+03 0.  0.
        3    1    3    3  502    0  0.18653726269E+03  0.22679124953E+03  0.55064953907E+02  0.29876843974E+03  0.10100000352E+00 0. -1.
       -3    1    3    3    0  502 -0.18653726269E+03 -0.22679124953E+03 -0.60452502133E+03  0.67207211879E+03  0.10100000352E+00 0.  1.
</event>
<event>
 5   0  0.4087283E-04  0.8000736E+03  0.7818609E-02  0.9559911E-01
        1   -1    0    0  501    0  0.00000000000E+00  0.00000000000E+00  0.31446045579E+03  0.31446045583E+03  0.50400001928E-02 0. -1.
       -1   -1    0    0    0  501  0.00000000000E+00  0.00000000000E+00 -0.50890158831E+03  0.50890158833E+03  0.50400001928E-02 0.  1.
    10030    2    1    2    0    0  0.00000000000E+00  0.00000000000E+00 -0.19444113251E+03  0.82336204416E+03  0.80007356021E+03 0.  0.
        1    1    3    3  502    0 -0.28568725417E+03  0.11692905178E+03  0.16462586026E+03  0.34984465729E+03  0.50400001928E-02 0. -1.
       -1    1    3    3    0  502  0.28568725417E+03 -0.11692905178E+03 -0.35906699277E+03  0.47351738687E+03  0.50400001928E-02 0.  1.
</event>
<event>
 5   0  0.6801147E-04  0.8000464E+03  0.7818609E-02  0.9559950E-01
       -2   -1    0    0    0  501  0.00000000000E+00  0.00000000000E+00  0.14088204922E+03  0.14088204924E+03  0.25500000920E-02 0.  1.
        2   -1    0    0  501    0  0.00000000000E+00  0.00000000000E+00 -0.11358335269E+04  0.11358335269E+04  0.25500000920E-02 0. -1.
    10030    2    1    2    0    0  0.00000000000E+00  0.00000000000E+00 -0.99495147764E+03  0.12767155761E+04  0.80004638579E+03 0.  0.
        4    1    3    3  502    0 -0.71065618534E+02  0.20570054398E+03  0.38138503298E+02  0.22095066025E+03  0.12699999809E+01 0.  1.
       -4    1    3    3    0  502  0.71065618534E+02 -0.20570054398E+03 -0.10330899809E+04  0.10557649158E+04  0.12699999809E+01 0. -1.
</event>
<event>
 5   0  0.6593118E-04  0.8002299E+03  0.7818609E-02  0.9559684E-01
        2   -1    0    0  501    0  0.00000000000E+00  0.00000000000E+00  0.18679637002E+03  0.18679637004E+03  0.25500000920E-02 0. -1.
       -2   -1    0    0    0  501  0.00000000000E+00  0.00000000000E+00 -0.85703996685E+03  0.85703996686E+03  0.25500000920E-02 0.  1.
    10030    2    1    2    0    0  0.00000000000E+00  0.00000000000E+00 -0.67024359683E+03  0.10438363369E+04  0.80022985394E+03 0.  0.
        1    1    3    3  502    0  0.30037714802E+03  0.10378853559E+02  0.93979004451E+01  0.30070329598E+03  0.50400001928E-02 0. -1.
       -1    1    3    3    0  502 -0.30037714802E+03 -0.10378853559E+02 -0.67964149728E+03  0.74313304092E+03  0.50400001928E-02 0.  1.
</event>
<event>
 5   0  0.7133039E-04  0.8000795E+03  0.7818609E-02  0.9559902E-01
       -2   -1    0    0    0  501  0.00000000000E+00  0.00000000000E+00  0.30384888037E+03  0.30384888038E+03  0.25500000920E-02 0.  1.
        2   -1    0    0  501    0  0.00000000000E+00  0.00000000000E+00 -0.52668228123E+03  0.52668228124E+03  0.25500000920E-02 0. -1.
    10030    2    1    2    0    0  0.00000000000E+00  0.00000000000E+00 -0.22283340087E+03  0.83053116162E+03  0.80007954972E+03 0.  0.
        2    1    3    3  502    0  0.30357556509E+03  0.48390646332E+02  0.15431882390E+03  0.34396813485E+03  0.25500000920E-02 0.  1.
       -2    1    3    3    0  502 -0.30357556509E+03 -0.48390646332E+02 -0.37715222477E+03  0.48656302678E+03  0.25500000920E-02 0. -1.
</event>
<event>
 5   0  0.4087283E-04  0.7997993E+03  0.7818609E-02  0.9560308E-01
       -1   -1    0    0    0  501  0.00000000000E+00  0.00000000000E+00  0.15027000386E+03  0.15027000395E+03  0.50400001928E-02 0. -1.
        1   -1    0    0  501    0  0.00000000000E+00  0.00000000000E+00 -0.10642160298E+04  0.10642160298E+04  0.50400001928E-02 0.  1.
    10030    2    1    2    0    0  0.00000000000E+00  0.00000000000E+00 -0.91394602591E+03  0.12144860337E+04  0.79979934225E+03 0.  0.
        1    1    3    3  502    0 -0.11586434881E+03  0.12904592246E+02 -0.10378393340E+04  0.10443665827E+04  0.50400001928E-02 0.  1.
       -1    1    3    3    0  502  0.11586434881E+03 -0.12904592246E+02  0.12389330806E+03  0.17011945107E+03  0.50400001928E-02 0. -1.
</event>
<event>
 5   0  0.6970013E-04  0.7999994E+03  0.7818609E-02  0.9560018E-01
        2   -1    0    0  501    0  0.00000000000E+00  0.00000000000E+00  0.45326072042E+03  0.45326072042E+03  0.25500000920E-02 0.  1.
       -2   -1    0    0    0  501  0.00000000000E+00  0.00000000000E+00 -0.35299716600E+03  0.35299716601E+03  0.25500000920E-02 0. -1.
    10030    2    1    2    0    0  0.00000000000E+00  0.00000000000E+00  0.10026355441E+03  0.80625788644E+03  0.79999937444E+03 0.  0.
        3    1    3    3  502    0 -0.27441649570E+03  0.81742923575E+01  0.34331739957E+03  0.43958853400E+03  0.10100000352E+00 0.  1.
       -3    1    3    3    0  502  0.27441649570E+03 -0.81742923575E+01 -0.24305384516E+03  0.36666935244E+03  0.10100000352E+00 0. -1.
</event>
<event>
 5   0  0.6672462E-04  0.8000186E+03  0.7818609E-02  0.9559990E-01
        2   -1    0    0  501    0  0.00000000000E+00  0.00000000000E+00  0.16158429310E+04  0.16158429311E+04  0.25500000920E-02 0. -1.
       -2   -1    0    0    0  501  0.00000000000E+00  0.00000000000E+00 -0.99024137614E+02  0.99024137647E+02  0.25500000920E-02 0.  1.
    10030    2    1    2    0    0  0.00000000000E+00  0.00000000000E+00  0.15168187934E+04  0.17148670687E+04  0.80001863177E+03 0.  0.
        5    1    3    3  502    0  0.66959754912E+02 -0.39358977783E+03  0.81042448136E+03  0.90344144911E+03  0.46999998093E+01 0. -1.
       -5    1    3    3    0  502 -0.66959754912E+02  0.39358977783E+03  0.70639431208E+03  0.81142561959E+03  0.46999998093E+01 0.  1.
</event>
<event>
 5   0  0.6593118E-04  0.7999672E+03  0.7818609E-02  0.9560065E-01
        2   -1    0    0  501    0  0.00000000000E+00  0.00000000000E+00  0.21574161850E+03  0.21574161851E+03  0.25500000920E-02 0. -1.
       -2   -1    0    0    0  501  0.00000000000E+00  0.00000000000E+00 -0.74156707856E+03  0.74156707856E+03  0.25500000920E-02 0.  1.
    10030    2    1    2    0    0  0.00000000000E+00  0.00000000000E+00 -0.52582546006E+03  0.95730869707E+03  0.79996720373E+03 0.  0.
        1    1    3    3  502    0  0.24239529100E+03  0.10464941872E+03  0.96650576639E+02  0.28115531638E+03  0.50400001928E-02 0. -1.
       -1    1    3    3    0  502 -0.24239529100E+03 -0.10464941872E+03 -0.62247603670E+03  0.67615338070E+03  0.50400001928E-02 0.  1.
</event>
<event>
 5   0  0.4087283E-04  0.8006897E+03  0.7818609E-02  0.9559019E-01
        1   -1    0    0  501    0  0.00000000000E+00  0.00000000000E+00  0.41000589183E+03  0.41000589187E+03  0.50400001928E-02 0.  1.
       -1   -1    0    0    0  501  0.00000000000E+00  0.00000000000E+00 -0.39091148185E+03  0.39091148188E+03  0.50400001928E-02 0. -1.
    10030    2    1    2    0    0  0.00000000000E+00  0.00000000000E+00  0.19094409983E+02  0.80091737375E+03  0.80068972960E+03 0.  0.
        1    1    3    3  502    0  0.21909777747E+03 -0.93725665616E+02  0.33133366803E+03  0.40813029303E+03  0.50400001928E-02 0.  1.
       -1    1    3    3    0  502 -0.21909777747E+03  0.93725665616E+02 -0.31223925805E+03  0.39278708072E+03  0.50400001928E-02 0. -1.
</event>
<event>
 5   0  0.4169155E-04  0.7990613E+03  0.7818609E-02  0.9561377E-01
       -1   -1    0    0    0  501  0.00000000000E+00  0.00000000000E+00  0.24248680169E+03  0.24248680174E+03  0.50400001928E-02 0. -1.
        1   -1    0    0  501    0  0.00000000000E+00  0.00000000000E+00 -0.65828221750E+03  0.65828221752E+03  0.50400001928E-02 0.  1.
    10030    2    1    2    0    0  0.00000000000E+00  0.00000000000E+00 -0.41579541581E+03  0.90076901926E+03  0.79906132321E+03 0.  0.
        4    1    3    3  502    0  0.29598965760E+02 -0.35870157446E+03 -0.40340989006E+03  0.54063302766E+03  0.12699999809E+01 0.  1.
       -4    1    3    3    0  502 -0.29598965760E+02  0.35870157446E+03 -0.12385525748E+02  0.36013599160E+03  0.12699999809E+01 0. -1.
</event>
<event>
 5   0  0.4086111E-04  0.8000816E+03  0.7818609E-02  0.9559899E-01
        1   -1    0    0  501    0  0.00000000000E+00  0.00000000000E+00  0.19312086860E+03  0.19312086866E+03  0.50400001928E-02 0. -1.
       -1   -1    0    0    0  501  0.00000000000E+00  0.00000000000E+00 -0.82866575533E+03  0.82866575534E+03  0.50400001928E-02 0.  1.
    10030    2    1    2    0    0  0.00000000000E+00  0.00000000000E+00 -0.63554488673E+03  0.10217866240E+04  0.80008162205E+03 0.  0.
        3    1    3    3  502    0  0.29826389759E+03 -0.12327476802E+03 -0.61965165471E+03  0.69866029258E+03  0.10100000352E+00 0.  1.
       -3    1    3    3    0  502 -0.29826389759E+03  0.12327476802E+03 -0.15893232024E+02  0.32312633143E+03  0.10100000352E+00 0. -1.
</event>
<event>
 5   0  0.6801147E-04  0.7997084E+03  0.7818609E-02  0.9560439E-01
        2   -1    0    0  501    0  0.00000000000E+00  0.00000000000E+00  0.12030319688E+04  0.12030319688E+04  0.25500000920E-02 0. -1.
       -2   -1    0    0    0  501  0.00000000000E+00  0.00000000000E+00 -0.13290036926E+03  0.13290036928E+03  0.25500000920E-02 0.  1.
    10030    2    1    2    0    0  0.00000000000E+00  0.00000000000E+00  0.10701315995E+04  0.13359323381E+04  0.79970842912E+03 0.  0.
        4    1    3    3  502    0  0.82686861450E+02  0.38735154308E+03  0.62661670269E+03  0.74130185484E+03  0.12699999809E+01 0. -1.
       -4    1    3    3    0  502 -0.82686861450E+02 -0.38735154308E+03  0.44351489685E+03  0.59463048326E+03  0.12699999809E+01 0.  1.
</event>
<event>
 5   0  0.6672462E-04  0.8002022E+03  0.7818609E-02  0.9559724E-01
       -2   -1    0    0    0  501  0.00000000000E+00  0.00000000000E+00  0.31077671390E+03  0.31077671392E+03  0.25500000920E-02 0. -1.
        2   -1    0    0  501    0  0.00000000000E+00  0.00000000000E+00 -0.51509943630E+03  0.51509943631E+03  0.25500000920E-02 0.  1.
    10030    2    1    2    0    0  0.00000000000E+00  0.00000000000E+00 -0.20432272240E+03  0.82587615022E+03  0.80020224982E+03 0.  0.
        5    1    3    3  502    0 -0.15702858274E+03 -0.25168066975E+03 -0.37920954584E+03  0.48148011898E+03  0.46999998093E+01 0.  1.
       -5    1    3    3    0  502  0.15702858274E+03  0.25168066975E+03  0.17488682344E+03  0.34439603124E+03  0.46999998093E+01 0. -1.
</event>
<event>
 5   0  0.7133039E-04  0.7999993E+03  0.7818609E-02  0.9560018E-01
        2   -1    0    0  501    0  0.00000000000E+00  0.00000000000E+00  0.59789173759E+03  0.59789173760E+03  0.25500000920E-02 0. -1.
       -2   -1    0    0    0  501  0.00000000000E+00  0.00000000000E+00 -0.26760653471E+03  0.26760653472E+03  0.25500000920E-02 0.  1.
    10030    2    1    2    0    0  0.00000000000E+00  0.00000000000E+00  0.33028520288E+03  0.86549827232E+03  0.79999934009E+03 0.  0.
        2    1    3    3  502    0 -0.35265802210E+03 -0.22373789237E+02 -0.37637217859E+02  0.35536576533E+03  0.25500000920E-02 0.  1.
       -2    1    3    3    0  502  0.35265802210E+03  0.22373789237E+02  0.36792242074E+03  0.51013250699E+03  0.25500000920E-02 0. -1.
</event>
<event>
 5   0  0.6970013E-04  0.8000259E+03  0.7818609E-02  0.9559980E-01
        2   -1    0    0  501    0  0.00000000000E+00  0.00000000000E+00  0.53423697089E+03  0.53423697090E+03  0.25500000920E-02 0.  1.
       -2   -1    0    0    0  501  0.00000000000E+00  0.00000000000E+00 -0.29951192534E+03  0.29951192535E+03  0.25500000920E-02 0. -1.
    10030    2    1    2    0    0  0.00000000000E+00  0.00000000000E+00  0.23472504555E+03  0.83374889625E+03  0.80002585894E+03 0.  0.
        3    1    3    3  502    0 -0.12894384717E+03  0.21746598204E+02  0.51133322753E+03  0.52778888775E+03  0.10100000352E+00 0.  1.
       -3    1    3    3    0  502  0.12894384717E+03 -0.21746598204E+02 -0.27660818198E+03  0.30596000849E+03  0.10100000352E+00 0. -1.
</event>
<event>
 5   0  0.7133039E-04  0.7994105E+03  0.7818609E-02  0.9560871E-01
       -2   -1    0    0    0  501  0.00000000000E+00  0.00000000000E+00  0.51695270199E+03  0.51695270199E+03  0.25500000920E-02 0.  1.
        2   -1    0    0  501    0  0.00000000000E+00  0.00000000000E+00 -0.30905009028E+03  0.30905009029E+03  0.25500000920E-02 0. -1.
    10030    2    1    2    0    0  0.00000000000E+00  0.00000000000E+00  0.20790261171E+03  0.82600279229E+03  0.79941048086E+03 0.  0.
        2    1    3    3  502    0 -0.23814930449E+02 -0.13302904054E+02  0.51598978172E+03  0.51671033763E+03  0.25500000920E-02 0.  1.
       -2    1    3    3    0  502  0.23814930449E+02  0.13302904054E+02 -0.30808717002E+03  0.30929245465E+03  0.25500000920E-02 0. -1.
</event>
<event>
 5   0  0.6970013E-04  0.7989134E+03  0.7818609E-02  0.9561591E-01
        2   -1    0    0  501    0  0.00000000000E+00  0.00000000000E+00  0.66177362207E+03  0.66177362207E+03  0.25500000920E-02 0.  1.
       -2   -1    0    0    0  501  0.00000000000E+00  0.00000000000E+00 -0.24111816363E+03  0.24111816364E+03  0.25500000920E-02 0. -1.
    10030    2    1    2    0    0  0.00000000000E+00  0.00000000000E+00  0.42065545844E+03  0.90289178571E+03  0.79891336326E+03 0.  0.
        3    1    3    3  502    0  0.18080666489E+03 -0.23338347304E+03 -0.93778627188E+02  0.30976335593E+03  0.10100000352E+00 0. -1.
       -3    1    3    3    0  502 -0.18080666489E+03  0.23338347304E+03  0.51443408563E+03  0.59312842978E+03  0.10100000352E+00 0.  1.
</event>
<event>
 5   0  0.6970013E-04  0.8000517E+03  0.7818609E-02  0.9559942E-01
       -2   -1    0    0    0  501  0.00000000000E+00  0.00000000000E+00  0.11659895911E+03  0.11659895914E+03  0.25500000920E-02 0. -1.
        2   -1    0    0  501    0  0.00000000000E+00  0.00000000000E+00 -0.13724021515E+04  0.13724021515E+04  0.25500000920E-02 0.  1.
    10030    2    1    2    0    0  0.00000000000E+00  0.00000000000E+00 -0.12558031924E+04  0.14890011106E+04  0.80005165426E+03 0.  0.
        3    1    3    3  502    0  0.28869647262E+03  0.45082785390E+02 -0.11942589628E+03  0.31565909736E+03  0.10100000352E+00 0. -1.
       -3    1    3    3    0  502 -0.28869647262E+03 -0.45082785390E+02 -0.11363772961E+04  0.11733420133E+04  0.10100000352E+00 0.  1.
</event>
<event>
 5   0  0.6801147E-04  0.7998284E+03  0.7818609E-02  0.9560266E-01
       -2   -1    0    0    0  501  0.00000000000E+00  0.00000000000E+00  0.74612665926E+03  0.74612665927E+03  0.25500000920E-02 0. -1.
        2   -1    0    0  501    0  0.00000000000E+00  0.00000000000E+00 -0.21434879385E+03  0.21434879387E+03  0.25500000920E-02 0.  1.
    10030    2    1    2    0    0  0.00000000000E+00  0.00000000000E+00  0.53177786541E+03  0.96047545313E+03  0.79982835529E+03 0.  0.
        4    1    3    3  502    0 -0.31513225952E+03  0.12482918742E+03  0.11039202274E+02  0.33913735257E+03  0.12699999809E+01 0.  1.
       -4    1    3    3    0  502  0.31513225952E+03 -0.12482918742E+03  0.52073866314E+03  0.62133810056E+03  0.12699999809E+01 0. -1.
</event>
<event>
 5   0  0.4086111E-04  0.8002362E+03  0.7818609E-02  0.9559675E-01
       -1   -1    0    0    0  501  0.00000000000E+00  0.00000000000E+00  0.36898254682E+03  0.36898254686E+03  0.50400001928E-02 0.  1.
        1   -1    0    0  501    0  0.00000000000E+00  0.00000000000E+00 -0.43388094966E+03  0.43388094969E+03  0.50400001928E-02 0. -1.
    10030    2    1    2    0    0  0.00000000000E+00  0.00000000000E+00 -0.64898402835E+02  0.80286349654E+03  0.80023620975E+03 0.  0.
        3    1    3    3  502    0 -0.18337818605E+03  0.31291569385E+03  0.13707506422E+03  0.38772847975E+03  0.10100000352E+00 0.  1.
       -3    1    3    3    0  502  0.18337818605E+03 -0.31291569385E+03 -0.20197346706E+03  0.41513501680E+03  0.10100000352E+00 0. -1.
</event>
<event>
 5   0  0.4104786E-04  0.8007788E+03  0.7818609E-02  0.9558891E-01
        1   -1    0    0  501    0  0.00000000000E+00  0.00000000000E+00  0.17580944994E+03  0.17580945001E+03  0.50400001928E-02 0.  1.
       -1   -1    0    0    0  501  0.00000000000E+00  0.00000000000E+00 -0.91184898395E+03  0.91184898397E+03  0.50400001928E-02 0. -1.
    10030    2    1    2    0    0  0.00000000000E+00  0.00000000000E+00 -0.73603953401E+03  0.10876584340E+04  0.80077879178E+03 0.  0.
        2    1    3    3  502    0  0.24793458941E+03  0.29157997264E+03 -0.20833875608E+03  0.43576998331E+03  0.25500000920E-02 0.  1.
       -2    1    3    3    0  502 -0.24793458941E+03 -0.29157997264E+03 -0.52770077793E+03  0.65188845066E+03  0.25500000920E-02 0. -1.
</event>
<event>
 5   0  0.4104786E-04  0.8014683E+03  0.7818609E-02  0.9557894E-01
        1   -1    0    0  501    0  0.00000000000E+00  0.00000000000E+00  0.25303995395E+03  0.25303995400E+03  0.50400001928E-02 0.  1.
       -1   -1    0    0    0  501  0.00000000000E+00  0.00000000000E+00 -0.63463440659E+03  0.63463440661E+03  0.50400001928E-02 0. -1.
    10030    2    1    2    0    0  0.00000000000E+00  0.00000000000E+00 -0.38159445264E+03  0.88767436060E+03  0.80146830517E+03 0.  0.
        2    1    3    3  502    0  0.36923852692E+02  0.64091399103E+02 -0.62700833149E+03  0.63135610086E+03  0.25500000920E-02 0. -1.
       -2    1    3    3    0  502 -0.36923852692E+02 -0.64091399103E+02  0.24541387885E+03  0.25631825974E+03  0.25500000920E-02 0.  1.
</event>
<event>
 5   0  0.4086111E-04  0.8002872E+03  0.7818609E-02  0.9559601E-01
       -1   -1    0    0    0  501  0.00000000000E+00  0.00000000000E+00  0.99252698903E+02  0.99252699031E+02  0.50400001928E-02 0. -1.
        1   -1    0    0  501    0  0.00000000000E+00  0.00000000000E+00 -0.16132046862E+04  0.16132046862E+04  0.50400001928E-02 0.  1.
    10030    2    1    2    0    0  0.00000000000E+00  0.00000000000E+00 -0.15139519873E+04  0.17124573852E+04  0.80028724619E+03 0.  0.
        3    1    3    3  502    0  0.27225132035E+03 -0.21719803611E+03 -0.11785723367E+04  0.12289542430E+04  0.10100000352E+00 0.  1.
       -3    1    3    3    0  502 -0.27225132035E+03  0.21719803611E+03 -0.33537965057E+03  0.48350314222E+03  0.10100000352E+00 0. -1.
</event>
<event>
 5   0  0.6593118E-04  0.7991340E+03  0.7818609E-02  0.9561271E-01
        2   -1    0    0  501    0  0.00000000000E+00  0.00000000000E+00  0.13342957043E+04  0.13342957043E+04  0.25500000920E-02 0.  1.
       -2   -1    0    0    0  501  0.00000000000E+00  0.00000000000E+00 -0.11965398281E+03  0.11965398283E+03  0.25500000920E-02 0. -1.
    10030    2    1    2    0    0  0.00000000000E+00  0.00000000000E+00  0.12146417215E+04  0.14539496871E+04  0.79913401951E+03 0.  0.
        1    1    3    3  502    0  0.12718111341E+03 -0.84631032783E+02  0.12790647592E+04  0.12881553111E+04  0.50400001928E-02 0.  1.
       -1    1    3    3    0  502 -0.12718111341E+03  0.84631032783E+02 -0.64423037681E+02  0.16579437604E+03  0.50400001928E-02 0. -1.
</event>
<event>
 5   0  0.4086111E-04  0.8002658E+03  0.7818609E-02  0.9559632E-01
        1   -1    0    0  501    0  0.00000000000E+00  0.00000000000E+00  0.42140148602E+03  0.42140148605E+03  0.50400001928E-02 0. -1.
       -1   -1    0    0    0  501  0.00000000000E+00  0.00000000000E+00 -0.37993775451E+03  0.37993775455E+03  0.50400001928E-02 0.  1.
    10030    2    1    2    0    0  0.00000000000E+00  0.00000000000E+00  0.41463731505E+02  0.80133924060E+03  0.80026579178E+03 0.  0.
        3    1    3    3  502    0  0.41507677380E+02  0.28400316675E+03 -0.25843527948E+03  0.38622466245E+03  0.10100000352E+00 0. -1.
       -3    1    3    3    0  502 -0.41507677380E+02 -0.28400316675E+03  0.29989901098E+03  0.41511457815E+03  0.10100000352E+00 0.  1.
</event>
<event>
 5   0  0.6970013E-04  0.8001779E+03  0.7818609E-02  0.9559760E-01
        2   -1    0    0  501    0  0.00000000000E+00  0.00000000000E+00  0.13370304314E+04  0.13370304314E+04  0.25500000920E-02 0. -1.
       -2   -1    0    0    0  501  0.00000000000E+00  0.00000000000E+00 -0.11972142249E+03  0.11972142252E+03  0.25500000920E-02 0.  1.
    10030    2    1    2    0    0  0.00000000000E+00  0.00000000000E+00  0.12173090089E+04  0.14567518539E+04  0.80017794315E+03 0.  0.
        3    1    3    3  502    0  0.25356074347E+03  0.55789348420E+02  0.54464809958E+02  0.26527707732E+03  0.10100000352E+00 0.  1.
       -3    1    3    3    0  502 -0.25356074347E+03 -0.55789348420E+02  0.11628441989E+04  0.11914747766E+04  0.10100000352E+00 0. -1.
</event>
<event>
 5   0  0.4087283E-04  0.8048817E+03  0.7818609E-02  0.9552978E-01
       -1   -1    0    0    0  501  0.00000000000E+00  0.00000000000E+00  0.66166094355E+03  0.66166094357E+03  0.50400001928E-02 0. -1.
        1   -1    0    0  501    0  0.00000000000E+00  0.00000000000E+00 -0.24477587522E+03  0.24477587528E+03  0.50400001928E-02 0.  1.
    10030    2    1    2    0    0  0.00000000000E+00  0.00000000000E+00  0.41688506833E+03  0.90643681885E+03  0.80488169712E+03 0.  0.
        1    1    3    3  502    0  0.51523999053E+01  0.20819390916E+03 -0.17937258247E+03  0.27485591572E+03  0.50400001928E-02 0.  1.
       -1    1    3    3    0  502 -0.51523999053E+01 -0.20819390916E+03  0.59625765080E+03  0.63158090313E+03  0.50400001928E-02 0. -1.
</event>
<event>
 5   0  0.6801147E-04  0.8001334E+03  0.7818609E-02  0.9559824E-01
        2   -1    0    0  501    0  0.00000000000E+00  0.00000000000E+00  0.68821718520E+03  0.68821718521E+03  0.25500000920E-02 0. -1.
       -2   -1    0    0    0  501  0.00000000000E+00  0.00000000000E+00 -0.23256229189E+03  0.23256229191E+03  0.25500000920E-02 0.  1.
    10030    2    1    2    0    0  0.00000000000E+00  0.00000000000E+00  0.45565489331E+03  0.92077947712E+03  0.80013340368E+03 0.  0.
        4    1    3    3  502    0  0.24119096243E+02 -0.15450127704E+03 -0.19593461950E+03  0.25068778077E+03  0.12699999809E+01 0.  1.
       -4    1    3    3    0  502 -0.24119096243E+02  0.15450127704E+03  0.65158951281E+03  0.67009169634E+03  0.12699999809E+01 0. -1.
</event>
<event>
 5   0  0.6801147E-04  0.7994699E+03  0.7818609E-02  0.9560785E-01
        2   -1    0    0  501    0  0.00000000000E+00  0.00000000000E+00  0.18300494373E+04  0.18300494373E+04  0.25500000920E-02 0.  1.
       -2   -1    0    0    0  501  0.00000000000E+00  0.00000000000E+00 -0.87313502509E+02  0.87313502546E+02  0.25500000920E-02 0. -1.
    10030    2    1    2    0    0  0.00000000000E+00  0.00000000000E+00  0.17427359348E+04  0.19173629398E+04  0.79946988979E+03 0.  0.
        4    1    3    3  502    0 -0.74470633914E+02 -0.37807672415E+03  0.11262933982E+04  0.11903891450E+04  0.12699999809E+01 0.  1.
       -4    1    3    3    0  502  0.74470633914E+02  0.37807672415E+03  0.61644253653E+03  0.72697379485E+03  0.12699999809E+01 0. -1.
</event>
<event>
 5   0  0.4392552E-04  0.8000538E+03  0.7818609E-02  0.9559939E-01
        1   -1    0    0  501    0  0.00000000000E+00  0.00000000000E+00  0.90873873517E+03  0.90873873518E+03  0.50400001928E-02 0. -1.
       -1   -1    0    0    0  501  0.00000000000E+00  0.00000000000E+00 -0.17609190736E+03  0.17609190743E+03  0.50400001928E-02 0.  1.
    10030    2    1    2    0    0  0.00000000000E+00  0.00000000000E+00  0.73264682781E+03  0.10848306426E+04  0.80005384122E+03 0.  0.
        5    1    3    3  502    0  0.18216938348E+03 -0.32618322713E+03  0.17256875673E+03  0.41156196100E+03  0.46999998093E+01 0. -1.
       -5    1    3    3    0  502 -0.18216938348E+03  0.32618322713E+03  0.56007807108E+03  0.67326868162E+03  0.46999998093E+01 0.  1.
</event>
<event>
 5   0  0.4086111E-04  0.8005104E+03  0.7818609E-02  0.9559279E-01
       -1   -1    0    0    0  501  0.00000000000E+00  0.00000000000E+00  0.42112210895E+03  0.42112210898E+03  0.50400001928E-02 0. -1.
        1   -1    0    0  501    0  0.00000000000E+00  0.00000000000E+00 -0.38042225434E+03  0.38042225438E+03  0.50400001928E-02 0.  1.
    10030    2    1    2    0    0  0.00000000000E+00  0.00000000000E+00  0.40699854611E+02  0.80154436336E+03  0.80051039236E+03 0.  0.
        3    1    3    3  502    0  0.22261557329E+03 -0.12467622366E+03  0.32913495329E+03  0.41645129595E+03  0.10100000352E+00 0. -1.
       -3    1    3    3    0  502 -0.22261557329E+03  0.12467622366E+03 -0.28843509868E+03  0.38509306741E+03  0.10100000352E+00 0.  1.
</event>
<event>
 5   0  0.4104786E-04  0.7999617E+03  0.7818609E-02  0.9560073E-01
        1   -1    0    0  501    0  0.00000000000E+00  0.00000000000E+00  0.27882297131E+03  0.27882297136E+03  0.50400001928E-02 0. -1.
       -1   -1    0    0    0  501  0.00000000000E+00  0.00000000000E+00 -0.57378581768E+03  0.57378581770E+03  0.50400001928E-02 0.  1.
    10030    2    1    2    0    0  0.00000000000E+00  0.00000000000E+00 -0.29496284637E+03  0.85260878906E+03  0.79996166561E+03 0.  0.
        2    1    3    3  502    0  0.22985703196E+03  0.30367129584E+03 -0.17233452842E+02  0.38124467598E+03  0.25500000920E-02 0.  1.
       -2    1    3    3    0  502 -0.22985703196E+03 -0.30367129584E+03 -0.27772939353E+03  0.47136411308E+03  0.25500000920E-02 0. -1.
</event>
<event>
 5   0  0.6801147E-04  0.7999320E+03  0.7818609E-02  0.9560115E-01
        2   -1    0    0  501    0  0.00000000000E+00  0.00000000000E+00  0.95743445083E+03  0.95743445084E+03  0.25500000920E-02 0. -1.
       -2   -1    0    0    0  501  0.00000000000E+00  0.00000000000E+00 -0.16708487823E+03  0.16708487825E+03  0.25500000920E-02 0.  1.
    10030    2    1    2    0    0  0.00000000000E+00  0.00000000000E+00  0.79034957260E+03  0.11245193291E+04  0.79993204373E+03 0.  0.
        4    1    3    3  502    0  0.15192423240E+02  0.35284952621E+03  0.13128836719E+03  0.37679151547E+03  0.12699999809E+01 0.  1.
       -4    1    3    3    0  502 -0.15192423240E+02 -0.35284952621E+03  0.65906120541E+03  0.74772781362E+03  0.12699999809E+01 0. -1.
</event>
<event>
 5   0  0.4086111E-04  0.7998443E+03  0.7818609E-02  0.9560243E-01
        1   -1    0    0  501    0  0.00000000000E+00  0.00000000000E+00  0.36122974851E+03  0.36122974854E+03  0.50400001928E-02 0. -1.
       -1   -1    0    0    0  501  0.00000000000E+00  0.00000000000E+00 -0.44275897976E+03  0.44275897979E+03  0.50400001928E-02 0.  1.
    10030    2    1    2    0    0  0.00000000000E+00  0.00000000000E+00 -0.81529231253E+02  0.80398872834E+03  0.79984427218E+03 0.  0.
        3    1    3    3  502    0  0.11006205852E+03  0.10223925490E+03 -0.41332128278E+03  0.43977382251E+03  0.10100000352E+00 0.  1.
       -3    1    3    3    0  502 -0.11006205852E+03 -0.10223925490E+03  0.33179205153E+03  0.36421490582E+03  0.10100000352E+00 0. -1.
</event>
<event>
 5   0  0.7133039E-04  0.7997237E+03  0.7818609E-02  0.9560417E-01
        2   -1    0    0  501    0  0.00000000000E+00  0.00000000000E+00  0.17714078650E+04  0.17714078650E+04  0.25500000920E-02 0.  1.
       -2   -1    0    0    0  501  0.00000000000E+00  0.00000000000E+00 -0.90261266085E+02  0.90261266121E+02  0.25500000920E-02 0. -1.
    10030    2    1    2    0    0  0.00000000000E+00  0.00000000000E+00  0.16811465989E+04  0.18616691311E+04  0.79972374401E+03 0.  0.
        2    1    3    3  502    0 -0.19472766069E+03  0.31777994614E+03  0.11778086885E+04  0.12353688772E+04  0.25500000920E-02 0.  1.
       -2    1    3    3    0  502  0.19472766069E+03 -0.31777994614E+03  0.50333791039E+03  0.62630025392E+03  0.25500000920E-02 0. -1.
</event>
<event>
 5   0  0.6801147E-04  0.8000835E+03  0.7818609E-02  0.9559896E-01
        2   -1    0    0  501    0  0.00000000000E+00  0.00000000000E+00  0.12199933718E+04  0.12199933718E+04  0.25500000920E-02 0.  1.
       -2   -1    0    0    0  501  0.00000000000E+00  0.00000000000E+00 -0.13117562678E+03  0.13117562680E+03  0.25500000920E-02 0. -1.
    10030    2    1    2    0    0  0.00000000000E+00  0.00000000000E+00  0.10888177450E+04  0.13511689986E+04  0.80008348372E+03 0.  0.
        4    1    3    3  502    0  0.64849580833E+02 -0.37122388717E+03  0.77110358684E+03  0.85826277857E+03  0.12699999809E+01 0.  1.
       -4    1    3    3    0  502 -0.64849580833E+02  0.37122388717E+03  0.31771415819E+03  0.49290622004E+03  0.12699999809E+01 0. -1.
</event>
<event>
 5   0  0.4392552E-04  0.8000563E+03  0.7818609E-02  0.9559936E-01
        1   -1    0    0  501    0  0.00000000000E+00  0.00000000000E+00  0.26411194467E+04  0.26411194467E+04  0.50400001928E-02 0.  1.
       -1   -1    0    0    0  501  0.00000000000E+00  0.00000000000E+00 -0.60588903770E+02  0.60588903979E+02  0.50400001928E-02 0. -1.
    10030    2    1    2    0    0  0.00000000000E+00  0.00000000000E+00  0.25805305430E+04  0.27017083507E+04  0.80005632875E+03 0.  0.
        5    1    3    3  502    0  0.58997571998E+02  0.11395076855E+03  0.10893591336E+02  0.12886524545E+03  0.46999998093E+01 0. -1.
       -5    1    3    3    0  502 -0.58997571998E+02 -0.11395076855E+03  0.25696369516E+04  0.25728431053E+04  0.46999998093E+01 0.  1.
</event>
<event>
 5   0  0.2736375E-04  0.7995155E+03  0.7818609E-02  0.9560719E-01
        4   -1    0    0  501    0  0.00000000000E+00  0.00000000000E+00  0.32058848064E+03  0.32059099616E+03  0.12699999809E+01 0. -1.
       -4   -1    0    0    0  501  0.00000000000E+00  0.00000000000E+00 -0.49847252258E+03  0.49847414042E+03  0.12699999809E+01 0.  1.
    10030    2    1    2    0    0  0.00000000000E+00  0.00000000000E+00 -0.17788404194E+03  0.81906513659E+03  0.79951545676E+03 0.  0.
        4    1    3    3  502    0 -0.16812256194E+03  0.36084965702E+03 -0.51623870213E+02  0.40142783621E+03  0.12699999809E+01 0. -1.
       -4    1    3    3    0  502  0.16812256194E+03 -0.36084965702E+03 -0.12626017172E+03  0.41763730038E+03  0.12699999809E+01 0.  1.
</event>
<event>
 5   0  0.7133039E-04  0.7998938E+03  0.7818609E-02  0.9560171E-01
        2   -1    0    0  501    0  0.00000000000E+00  0.00000000000E+00  0.83875859600E+03  0.83875859601E+03  0.25500000920E-02 0.  1.
       -2   -1    0    0    0  501  0.00000000000E+00  0.00000000000E+00 -0.19070743793E+03  0.19070743795E+03  0.25500000920E-02 0. -1.
    10030    2    1    2    0    0  0.00000000000E+00  0.00000000000E+00  0.64805115807E+03  0.10294660340E+04  0.79989375019E+03 0.  0.
        2    1    3    3  502    0  0.37887729985E+02 -0.20761683992E+03 -0.11320962155E+03  0.23949248573E+03  0.25500000920E-02 0. -1.
       -2    1    3    3    0  502 -0.37887729985E+02  0.20761683992E+03  0.76126077962E+03  0.78997354823E+03  0.25500000920E-02 0.  1.
</event>
<event>
 5   0  0.6970013E-04  0.8001108E+03  0.7818609E-02  0.9559857E-01
        2   -1    0    0  501    0  0.00000000000E+00  0.00000000000E+00  0.11069226639E+04  0.11069226639E+04  0.25500000920E-02 0.  1.
       -2   -1    0    0    0  501  0.00000000000E+00  0.00000000000E+00 -0.14458492356E+03  0.14458492359E+03  0.25500000920E-02 0. -1.
    10030    2    1    2    0    0  0.00000000000E+00  0.00000000000E+00  0.96233774030E+03  0.12515075875E+04  0.80011081423E+03 0.  0.
        3    1    3    3  502    0 -0.20748450251E+03  0.18622669809E+03  0.32402289654E+02  0.28067796572E+03  0.10100000352E+00 0. -1.
       -3    1    3    3    0  502  0.20748450251E+03 -0.18622669809E+03  0.92993545065E+03  0.97082962174E+03  0.10100000352E+00 0.  1.
</event>
<event>
 5   0  0.6672462E-04  0.7990412E+03  0.7818609E-02  0.9561406E-01
       -2   -1    0    0    0  501  0.00000000000E+00  0.00000000000E+00  0.23001374355E+03  0.23001374356E+03  0.25500000920E-02 0.  1.
        2   -1    0    0  501    0  0.00000000000E+00  0.00000000000E+00 -0.69394416346E+03  0.69394416347E+03  0.25500000920E-02 0. -1.
    10030    2    1    2    0    0  0.00000000000E+00  0.00000000000E+00 -0.46393041992E+03  0.92395790703E+03  0.79904116254E+03 0.  0.
        5    1    3    3  502    0 -0.21483546462E+03 -0.33416133467E+03 -0.28070339559E+03  0.48645098493E+03  0.46999998093E+01 0.  1.
       -5    1    3    3    0  502  0.21483546462E+03  0.33416133467E+03 -0.18322702433E+03  0.43750692210E+03  0.46999998093E+01 0. -1.
</event>
<event>
 5   0  0.4104786E-04  0.8003964E+03  0.7818609E-02  0.9559443E-01
       -1   -1    0    0    0  501  0.00000000000E+00  0.00000000000E+00  0.15859179048E+03  0.15859179056E+03  0.50400001928E-02 0.  1.
        1   -1    0    0  501    0  0.00000000000E+00  0.00000000000E+00 -0.10098795470E+04  0.10098795470E+04  0.50400001928E-02 0. -1.
    10030    2    1    2    0    0  0.00000000000E+00  0.00000000000E+00 -0.85128775649E+03  0.11684713375E+04  0.80039641573E+03 0.  0.
        2    1    3    3  502    0 -0.69471087749E+02 -0.38620862358E+03 -0.31092338755E+03  0.50065625522E+03  0.25500000920E-02 0.  1.
       -2    1    3    3    0  502  0.69471087749E+02  0.38620862358E+03 -0.54036436894E+03  0.66781508233E+03  0.25500000920E-02 0. -1.
</event>
<event>
 5   0  0.7133039E-04  0.8000146E+03  0.7818609E-02  0.9559996E-01
       -2   -1    0    0    0  501  0.00000000000E+00  0.00000000000E+00  0.65884903639E+03  0.65884903640E+03  0.25500000920E-02 0.  1.
        2   -1    0    0  501    0  0.00000000000E+00  0.00000000000E+00 -0.24285659054E+03  0.24285659055E+03  0.25500000920E-02 0. -1.
    10030    2    1    2    0    0  0.00000000000E+00  0.00000000000E+00  0.41599244585E+03  0.90170562695E+03  0.80001457653E+03 0.  0.
        2    1    3    3  502    0 -0.35398898384E+03  0.38334465766E+02  0.41345260004E+03  0.54563796095E+03  0.25500000920E-02 0. -1.
       -2    1    3    3    0  502  0.35398898384E+03 -0.38334465766E+02  0.25398458146E+01  0.35606766600E+03  0.25500000920E-02 0.  1.
</event>
<event>
 5   0  0.2736375E-04  0.8002612E+03  0.7818609E-02  0.9559639E-01
       -4   -1    0    0    0  501  0.00000000000E+00  0.00000000000E+00  0.51625053991E+03  0.51625210204E+03  0.12699999809E+01 0. -1.
        4   -1    0    0  501    0  0.00000000000E+00  0.00000000000E+00 -0.31012614283E+03  0.31012874321E+03  0.12699999809E+01 0.  1.
    10030    2    1    2    0    0  0.00000000000E+00  0.00000000000E+00  0.20612439709E+03  0.82638084525E+03  0.80026122880E+03 0.  0.
        3    1    3    3  502    0 -0.33323570163E+02  0.35663510540E+03 -0.81099438602E+02  0.36725493581E+03  0.10100000352E+00 0.  1.
       -3    1    3    3    0  502  0.33323570163E+02 -0.35663510540E+03  0.28722383569E+03  0.45912590944E+03  0.10100000352E+00 0. -1.
</event>
<event>
 5   0  0.6672462E-04  0.7991096E+03  0.7818609E-02  0.9561307E-01
        2   -1    0    0  501    0  0.00000000000E+00  0.00000000000E+00  0.60587202946E+03  0.60587202947E+03  0.25500000920E-02 0.  1.
       -2   -1    0    0    0  501  0.00000000000E+00  0.00000000000E+00 -0.26349466958E+03  0.26349466959E+03  0.25500000920E-02 0. -1.
    10030    2    1    2    0    0  0.00000000000E+00  0.00000000000E+00  0.34237735988E+03  0.86936669906E+03  0.79910963007E+03 0.  0.
        5    1    3    3  502    0  0.38164898952E+02  0.31851542553E+03 -0.87894482133E+02  0.33265021539E+03  0.46999998093E+01 0.  1.
       -5    1    3    3    0  502 -0.38164898952E+02 -0.31851542553E+03  0.43027184202E+03  0.53671648367E+03  0.46999998093E+01 0. -1.
</event>
<event>
 5   0  0.4169155E-04  0.7999437E+03  0.7818609E-02  0.9560099E-01
       -1   -1    0    0    0  501  0.00000000000E+00  0.00000000000E+00  0.23792243010E+03  0.23792243015E+03  0.50400001928E-02 0. -1.
        1   -1    0    0  501    0  0.00000000000E+00  0.00000000000E+00 -0.67239348070E+03  0.67239348072E+03  0.50400001928E-02 0.  1.
    10030    2    1    2    0    0  0.00000000000E+00  0.00000000000E+00 -0.43447105060E+03  0.91031591086E+03  0.79994372537E+03 0.  0.
        4    1    3    3  502    0 -0.27177128441E+03  0.25593504217E+03 -0.53851881030E+02  0.37717902226E+03  0.12699999809E+01 0. -1.
       -4    1    3    3    0  502  0.27177128441E+03 -0.25593504217E+03 -0.38061916957E+03  0.53313688860E+03  0.12699999809E+01 0.  1.
</event>
<event>
 5   0  0.4104786E-04  0.8001225E+03  0.7818609E-02  0.9559840E-01
       -1   -1    0    0    0  501  0.00000000000E+00  0.00000000000E+00  0.12383974514E+03  0.12383974524E+03  0.50400001928E-02 0. -1.
        1   -1    0    0  501    0  0.00000000000E+00  0.00000000000E+00 -0.12923880746E+04  0.12923880747E+04  0.50400001928E-02 0.  1.
    10030    2    1    2    0    0  0.00000000000E+00  0.00000000000E+00 -0.11685483295E+04  0.14162278199E+04  0.80012251527E+03 0.  0.
        2    1    3    3  502    0 -0.27606451953E+03  0.23172284542E+03 -0.89157379778E+03  0.96167090677E+03  0.25500000920E-02 0.  1.
       -2    1    3    3    0  502  0.27606451953E+03 -0.23172284542E+03 -0.27697453173E+03  0.45455691313E+03  0.25500000920E-02 0. -1.
</event>
<event>
 5   0  0.4087283E-04  0.8001244E+03  0.7818609E-02  0.9559837E-01
        1   -1    0    0  501    0  0.00000000000E+00  0.00000000000E+00  0.73951096057E+03  0.73951096059E+03  0.50400001928E-02 0. -1.
       -1   -1    0    0    0  501  0.00000000000E+00  0.00000000000E+00 -0.21642651683E+03  0.21642651689E+03  0.50400001928E-02 0.  1.
    10030    2    1    2    0    0  0.00000000000E+00  0.00000000000E+00  0.52308444375E+03  0.95593747747E+03  0.80012444379E+03 0.  0.
        1    1    3    3  502    0 -0.19647623895E+03  0.33827612954E+03  0.16146834260E+03  0.42320878769E+03  0.50400001928E-02 0.  1.
       -1    1    3    3    0  502  0.19647623895E+03 -0.33827612954E+03  0.36161610115E+03  0.53272868979E+03  0.50400001928E-02 0. -1.
</event>
<event>
 5   0  0.6672462E-04  0.8001253E+03  0.7818609E-02  0.9559836E-01
       -2   -1    0    0    0  501  0.00000000000E+00  0.00000000000E+00  0.44674459223E+03  0.44674459224E+03  0.25500000920E-02 0. -1.
        2   -1    0    0  501    0  0.00000000000E+00  0.00000000000E+00 -0.35825865338E+03  0.35825865339E+03  0.25500000920E-02 0.  1.
    10030    2    1    2    0    0  0.00000000000E+00  0.00000000000E+00  0.88485938853E+02  0.80500324562E+03  0.80012528025E+03 0.  0.
        5    1    3    3  502    0  0.43321663096E+02  0.38139015866E+03 -0.69106232639E+02  0.39004228104E+03  0.46999998093E+01 0. -1.
       -5    1    3    3    0  502 -0.43321663096E+02 -0.38139015866E+03  0.15759217149E+03  0.41496096458E+03  0.46999998093E+01 0.  1.
</event>
<event>
 5   0  0.4392552E-04  0.7994646E+03  0.7818609E-02  0.9560792E-01
        1   -1    0    0  501    0  0.00000000000E+00  0.00000000000E+00  0.43155466223E+03  0.43155466226E+03  0.50400001928E-02 0.  1.
       -1   -1    0    0    0  501  0.00000000000E+00  0.00000000000E+00 -0.37025648722E+03  0.37025648726E+03  0.50400001928E-02 0. -1.
    10030    2    1    2    0    0  0.00000000000E+00  0.00000000000E+00  0.61298175007E+02  0.80181114952E+03  0.79946460411E+03 0.  0.
        5    1    3    3  502    0  0.13431425650E+03 -0.37165813367E+03 -0.29474640926E+02  0.39630913727E+03  0.46999998093E+01 0. -1.
       -5    1    3    3    0  502 -0.13431425650E+03  0.37165813367E+03  0.90772815934E+02  0.40550201225E+03  0.46999998093E+01 0.  1.
</event>
<event>
 5   0  0.4086111E-04  0.7999638E+03  0.7818609E-02  0.9560070E-01
       -1   -1    0    0    0  501  0.00000000000E+00  0.00000000000E+00  0.11458816462E+03  0.11458816473E+03  0.50400001928E-02 0.  1.
        1   -1    0    0  501    0  0.00000000000E+00  0.00000000000E+00 -0.13961783686E+04  0.13961783686E+04  0.50400001928E-02 0. -1.
    10030    2    1    2    0    0  0.00000000000E+00  0.00000000000E+00 -0.12815902040E+04  0.15107665334E+04  0.79996379126E+03 0.  0.
        3    1    3    3  502    0  0.46074234973E+02  0.85131630326E+01 -0.13909777866E+04  0.13917666910E+04  0.10100000352E+00 0. -1.
       -3    1    3    3    0  502 -0.46074234973E+02 -0.85131630326E+01  0.10938758257E+03  0.11899984241E+03  0.10100000352E+00 0.  1.
</event>
<event>
 5   0  0.6593118E-04  0.7999209E+03  0.7818609E-02  0.9560132E-01
        2   -1    0    0  501    0  0.00000000000E+00  0.00000000000E+00  0.13292238881E+04  0.13292238881E+04  0.25500000920E-02 0.  1.
       -2   -1    0    0    0  501  0.00000000000E+00  0.00000000000E+00 -0.12034719488E+03  0.12034719491E+03  0.25500000920E-02 0. -1.
    10030    2    1    2    0    0  0.00000000000E+00  0.00000000000E+00  0.12088766932E+04  0.14495710830E+04  0.79992091189E+03 0.  0.
        1    1    3    3  502    0 -0.50648614791E+02  0.39071640056E+03  0.47962682868E+03  0.62069838301E+03  0.50400001928E-02 0. -1.
       -1    1    3    3    0  502  0.50648614791E+02 -0.39071640056E+03  0.72924986450E+03  0.82887269997E+03  0.50400001928E-02 0.  1.
</event>
<event>
 5   0  0.4087283E-04  0.8001945E+03  0.7818609E-02  0.9559736E-01
        1   -1    0    0  501    0  0.00000000000E+00  0.00000000000E+00  0.52783584124E+03  0.52783584126E+03  0.50400001928E-02 0.  1.
       -1   -1    0    0    0  501  0.00000000000E+00  0.00000000000E+00 -0.30327193984E+03  0.30327193988E+03  0.50400001928E-02 0. -1.
    10030    2    1    2    0    0  0.00000000000E+00  0.00000000000E+00  0.22456390140E+03  0.83110778114E+03  0.80019447515E+03 0.  0.
        1    1    3    3  502    0 -0.11076408287E+03  0.23552154053E+03  0.42789411116E+03  0.50083175668E+03  0.50400001928E-02 0.  1.
       -1    1    3    3    0  502  0.11076408287E+03 -0.23552154053E+03 -0.20333020976E+03  0.33027602446E+03  0.50400001928E-02 0. -1.
</event>
<event>
 5   0  0.6970013E-04  0.7992226E+03  0.7818609E-02  0.9561143E-01
       -2   -1    0    0    0  501  0.00000000000E+00  0.00000000000E+00  0.30064676090E+03  0.30064676091E+03  0.25500000920E-02 0.  1.
        2   -1    0    0  501    0  0.00000000000E+00  0.00000000000E+00 -0.53115214223E+03  0.53115214223E+03  0.25500000920E-02 0. -1.
    10030    2    1    2    0    0  0.00000000000E+00  0.00000000000E+00 -0.23050538133E+03  0.83179890314E+03  0.79922255001E+03 0.  0.
        3    1    3    3  502    0 -0.12529746323E+03 -0.17406875755E+03 -0.46617527292E+03  0.51314596552E+03  0.10100000352E+00 0. -1.
       -3    1    3    3    0  502  0.12529746323E+03  0.17406875755E+03  0.23566989160E+03  0.31865293762E+03  0.10100000352E+00 0.  1.
</event>
<event>
 5   0  0.4087283E-04  0.8002304E+03  0.7818609E-02  0.9559684E-01
       -1   -1    0    0    0  501  0.00000000000E+00  0.00000000000E+00  0.32833314168E+03  0.32833314172E+03  0.50400001928E-02 0. -1.
        1   -1    0    0  501    0  0.00000000000E+00  0.00000000000E+00 -0.48759062652E+03  0.48759062655E+03  0.50400001928E-02 0.  1.
    10030    2    1    2    0    0  0.00000000000E+00  0.00000000000E+00 -0.15925748485E+03  0.81592376827E+03  0.80023037254E+03 0.  0.
        1    1    3    3  502    0 -0.13807937713E+03 -0.10346921126E+03 -0.44770745914E+03  0.47980596189E+03  0.50400001928E-02 0.  1.
       -1    1    3    3    0  502  0.13807937713E+03  0.10346921126E+03  0.28844997430E+03  0.33611780638E+03  0.50400001928E-02 0. -1.
</event>
<event>
 5   0  0.4169155E-04  0.7999895E+03  0.7818609E-02  0.9560032E-01
       -1   -1    0    0    0  501  0.00000000000E+00  0.00000000000E+00  0.97907403654E+02  0.97907403784E+02  0.50400001928E-02 0.  1.
        1   -1    0    0  501    0  0.00000000000E+00  0.00000000000E+00 -0.16341541271E+04  0.16341541271E+04  0.50400001928E-02 0. -1.
    10030    2    1    2    0    0  0.00000000000E+00  0.00000000000E+00 -0.15362467234E+04  0.17320615309E+04  0.79998946962E+03 0.  0.
        4    1    3    3  502    0 -0.92063401835E+02  0.19732604240E+03 -0.14945829783E+04  0.15103619199E+04  0.12699999809E+01 0. -1.
       -4    1    3    3    0  502  0.92063401835E+02 -0.19732604240E+03 -0.41663745100E+02  0.22169961101E+03  0.12699999809E+01 0.  1.
</event>
<event>
 5   0  0.6593118E-04  0.7999564E+03  0.7818609E-02  0.9560080E-01
       -2   -1    0    0    0  501  0.00000000000E+00  0.00000000000E+00  0.61416576967E+03  0.61416576968E+03  0.25500000920E-02 0. -1.
        2   -1    0    0  501    0  0.00000000000E+00  0.00000000000E+00 -0.26048757213E+03  0.26048757214E+03  0.25500000920E-02 0.  1.
    10030    2    1    2    0    0  0.00000000000E+00  0.00000000000E+00  0.35367819755E+03  0.87465334182E+03  0.79995637440E+03 0.  0.
        1    1    3    3  502    0  0.41126023787E+02 -0.39785824607E+03  0.17697916014E+03  0.43738330667E+03  0.50400001928E-02 0. -1.
       -1    1    3    3    0  502 -0.41126023787E+02  0.39785824607E+03  0.17669903740E+03  0.43727003515E+03  0.50400001928E-02 0.  1.
</event>
<event>
 5   0  0.4087283E-04  0.8002167E+03  0.7818609E-02  0.9559704E-01
       -1   -1    0    0    0  501  0.00000000000E+00  0.00000000000E+00  0.11673966516E+03  0.11673966527E+03  0.50400001928E-02 0. -1.
        1   -1    0    0  501    0  0.00000000000E+00  0.00000000000E+00 -0.13713134523E+04  0.13713134523E+04  0.50400001928E-02 0.  1.
    10030    2    1    2    0    0  0.00000000000E+00  0.00000000000E+00 -0.12545737871E+04  0.14880531175E+04  0.80021665399E+03 0.  0.
        1    1    3    3  502    0  0.11809130493E+03  0.23386267482E+03 -0.64944016217E+02  0.26991671353E+03  0.50400001928E-02 0. -1.
       -1    1    3    3    0  502 -0.11809130493E+03 -0.23386267482E+03 -0.11896297709E+04  0.12181364040E+04  0.50400001928E-02 0.  1.
</event>
<event>
 5   0  0.4087283E-04  0.7998947E+03  0.7818609E-02  0.9560170E-01
        1   -1    0    0  501    0  0.00000000000E+00  0.00000000000E+00  0.11646232554E+04  0.11646232554E+04  0.50400001928E-02 0.  1.
       -1   -1    0    0    0  501  0.00000000000E+00  0.00000000000E+00 -0.13734732718E+03  0.13734732728E+03  0.50400001928E-02 0. -1.
    10030    2    1    2    0    0  0.00000000000E+00  0.00000000000E+00  0.10272759282E+04  0.13019705827E+04  0.79989472151E+03 0.  0.
        1    1    3    3  502    0 -0.27195464107E+02 -0.39818918871E+03  0.55556979289E+03  0.68407018505E+03  0.50400001928E-02 0. -1.
       -1    1    3    3    0  502  0.27195464107E+02  0.39818918871E+03  0.47170613534E+03  0.61790039765E+03  0.50400001928E-02 0.  1.
</event>
<event>
 5   0  0.6970013E-04  0.8001289E+03  0.7818609E-02  0.9559831E-01
        2   -1    0    0  501    0  0.00000000000E+00  0.00000000000E+00  0.50008816268E+03  0.50008816268E+03  0.25500000920E-02 0. -1.
       -2   -1    0    0    0  501  0.00000000000E+00  0.00000000000E+00 -0.32004670408E+03  0.32004670409E+03  0.25500000920E-02 0.  1.
    10030    2    1    2    0    0  0.00000000000E+00  0.00000000000E+00  0.18004145860E+03  0.82013486677E+03  0.80012891016E+03 0.  0.
        3    1    3    3  502    0  0.13549876718E+03 -0.77919588582E+02 -0.28745364250E+03  0.32720174966E+03  0.10100000352E+00 0.  1.
       -3    1    3    3    0  502 -0.13549876718E+03  0.77919588582E+02  0.46749510110E+03  0.49293311711E+03  0.10100000352E+00 0. -1.
</event>
<event>
 5   0  0.6672462E-04  0.8000534E+03  0.7818609E-02  0.9559940E-01
       -2   -1    0    0    0  501  0.00000000000E+00  0.00000000000E+00  0.25334251614E+03  0.25334251615E+03  0.25500000920E-02 0.  1.
        2   -1    0    0  501    0  0.00000000000E+00  0.00000000000E+00 -0.63164038066E+03  0.63164038067E+03  0.25500000920E-02 0. -1.
    10030    2    1    2    0    0  0.00000000000E+00  0.00000000000E+00 -0.37829786452E+03  0.88498289682E+03  0.80005340656E+03 0.  0.
        5    1    3    3  502    0 -0.21312954317E+03  0.33692034558E+03 -0.22515850775E+03  0.45788422669E+03  0.46999998093E+01 0. -1.
       -5    1    3    3    0  502  0.21312954317E+03 -0.33692034558E+03 -0.15313935677E+03  0.42709867013E+03  0.46999998093E+01 0.  1.
</event>
<event>
 5   0  0.7133039E-04  0.7997944E+03  0.7818609E-02  0.9560315E-01
        2   -1    0    0  501    0  0.00000000000E+00  0.00000000000E+00  0.45958691679E+03  0.45958691680E+03  0.25500000920E-02 0. -1.
       -2   -1    0    0    0  501  0.00000000000E+00  0.00000000000E+00 -0.34795983466E+03  0.34795983467E+03  0.25500000920E-02 0.  1.
    10030    2    1    2    0    0  0.00000000000E+00  0.00000000000E+00  0.11162708214E+03  0.80754675147E+03  0.79979444255E+03 0.  0.
        2    1    3    3  502    0 -0.41513382578E+02  0.18832400973E+03  0.40953547832E+03  0.45266831299E+03  0.25500000920E-02 0. -1.
       -2    1    3    3    0  502  0.41513382578E+02 -0.18832400973E+03 -0.29790839618E+03  0.35487843848E+03  0.25500000920E-02 0.  1.
</event>
<event>
 5   0  0.7133039E-04  0.7998600E+03  0.7818609E-02  0.9560220E-01
       -2   -1    0    0    0  501  0.00000000000E+00  0.00000000000E+00  0.68256249953E+02  0.68256250000E+02  0.25500000920E-02 0.  1.
        2   -1    0    0  501    0  0.00000000000E+00  0.00000000000E+00 -0.23432874938E+04  0.23432874938E+04  0.25500000920E-02 0. -1.
    10030    2    1    2    0    0  0.00000000000E+00  0.00000000000E+00 -0.22750312438E+04  0.24115437438E+04  0.79986003012E+03 0.  0.
        2    1    3    3  502    0 -0.32284264043E+03  0.23416784968E+03 -0.12270585627E+04  0.12902459722E+04  0.25500000920E-02 0.  1.
       -2    1    3    3    0  502  0.32284264043E+03 -0.23416784968E+03 -0.10479726811E+04  0.11212977716E+04  0.25500000920E-02 0. -1.
</event>
<event>
 5   0  0.6970013E-04  0.8001516E+03  0.7818609E-02  0.9559798E-01
        2   -1    0    0  501    0  0.00000000000E+00  0.00000000000E+00  0.11637354295E+04  0.11637354295E+04  0.25500000920E-02 0. -1.
       -2   -1    0    0    0  501  0.00000000000E+00  0.00000000000E+00 -0.13754040548E+03  0.13754040551E+03  0.25500000920E-02 0.  1.
    10030    2    1    2    0    0  0.00000000000E+00  0.00000000000E+00  0.10261950240E+04  0.13012758350E+04  0.80015159281E+03 0.  0.
        3    1    3    3  502    0  0.12283060985E+03 -0.33907746938E+02 -0.10365663140E+03  0.16426138150E+03  0.10100000352E+00 0.  1.
       -3    1    3    3    0  502 -0.12283060985E+03  0.33907746938E+02  0.11298516554E+04  0.11370144535E+04  0.10100000352E+00 0. -1.
</event>
<event>
 5   0  0.4104786E-04  0.7992722E+03  0.7818609E-02  0.9561071E-01
        1   -1    0    0  501    0  0.00000000000E+00  0.00000000000E+00  0.56199620662E+03  0.56199620664E+03  0.50400001928E-02 0. -1.
       -1   -1    0    0    0  501  0.00000000000E+00  0.00000000000E+00 -0.28418167276E+03  0.28418167281E+03  0.50400001928E-02 0.  1.
    10030    2    1    2    0    0  0.00000000000E+00  0.00000000000E+00  0.27781453385E+03  0.84617787945E+03  0.79927222424E+03 0.  0.
        2    1    3    3  502    0  0.13604788569E+03  0.30883107807E+03 -0.87719087643E+02  0.34868366799E+03  0.25500000920E-02 0.  1.
       -2    1    3    3    0  502 -0.13604788569E+03 -0.30883107807E+03  0.36553362150E+03  0.49749421146E+03  0.25500000920E-02 0. -1.
</event>
<event>
 5   0  0.6593118E-04  0.7993958E+03  0.7818609E-02  0.9560892E-01
        2   -1    0    0  501    0  0.00000000000E+00  0.00000000000E+00  0.10322798451E+04  0.10322798451E+04  0.25500000920E-02 0. -1.
       -2   -1    0    0    0  501  0.00000000000E+00  0.00000000000E+00 -0.15476268018E+03  0.15476268021E+03  0.25500000920E-02 0.  1.
    10030    2    1    2    0    0  0.00000000000E+00  0.00000000000E+00  0.87751716490E+03  0.11870425253E+04  0.79939576066E+03 0.  0.
        1    1    3    3  502    0  0.39811554414E+03  0.12651966867E+02  0.38945691781E+03  0.55707517410E+03  0.50400001928E-02 0. -1.
       -1    1    3    3    0  502 -0.39811554414E+03 -0.12651966867E+02  0.48806024709E+03  0.62996735119E+03  0.50400001928E-02 0.  1.
</event>
<event>
 5   0  0.4087283E-04  0.8004234E+03  0.7818609E-02  0.9559404E-01
       -1   -1    0    0    0  501  0.00000000000E+00  0.00000000000E+00  0.28014545788E+03  0.28014545793E+03  0.50400001928E-02 0.  1.
        1   -1    0    0  501    0  0.00000000000E+00  0.00000000000E+00 -0.57173662007E+03  0.57173662009E+03  0.50400001928E-02 0. -1.
    10030    2    1    2    0    0  0.00000000000E+00  0.00000000000E+00 -0.29159116219E+03  0.85188207802E+03  0.80042343106E+03 0.  0.
        1    1    3    3  502    0  0.31667955356E+03  0.24426461003E+03 -0.13007152658E+03  0.42055884416E+03  0.50400001928E-02 0. -1.
       -1    1    3    3    0  502 -0.31667955356E+03 -0.24426461003E+03 -0.16151963561E+03  0.43132323386E+03  0.50400001928E-02 0.  1.
</event>
<event>
 5   0  0.4086111E-04  0.7997857E+03  0.7818609E-02  0.9560327E-01
       -1   -1    0    0    0  501  0.00000000000E+00  0.00000000000E+00  0.25230640465E+03  0.25230640470E+03  0.50400001928E-02 0.  1.
        1   -1    0    0  501    0  0.00000000000E+00  0.00000000000E+00 -0.63380985491E+03  0.63380985493E+03  0.50400001928E-02 0. -1.
    10030    2    1    2    0    0  0.00000000000E+00  0.00000000000E+00 -0.38150345026E+03  0.88611625962E+03  0.79978568567E+03 0.  0.
        3    1    3    3  502    0 -0.20257996341E+03 -0.45803134900E+02 -0.56936605741E+03  0.60606458919E+03  0.10100000352E+00 0. -1.
       -3    1    3    3    0  502  0.20257996341E+03  0.45803134900E+02  0.18786260715E+03  0.28005167043E+03  0.10100000352E+00 0.  1.
</event>
<event>
 5   0  0.4169155E-04  0.7965849E+03  0.7818609E-02  0.9564973E-01
       -1   -1    0    0    0  501  0.00000000000E+00  0.00000000000E+00  0.91278121645E+03  0.91278121646E+03  0.50400001928E-02 0.  1.
        1   -1    0    0  501    0  0.00000000000E+00  0.00000000000E+00 -0.17379508199E+03  0.17379508206E+03  0.50400001928E-02 0. -1.
    10030    2    1    2    0    0  0.00000000000E+00  0.00000000000E+00  0.73898613446E+03  0.10865762985E+04  0.79658492679E+03 0.  0.
        4    1    3    3  502    0  0.79483707373E+02 -0.21848074893E+03  0.81061667679E+03  0.84329858708E+03  0.12699999809E+01 0.  1.
       -4    1    3    3    0  502 -0.79483707373E+02  0.21848074893E+03 -0.71630542323E+02  0.24327771144E+03  0.12699999809E+01 0. -1.
</event>
<event>
 5   0  0.6801147E-04  0.8004459E+03  0.7818609E-02  0.9559372E-01
        2   -1    0    0  501    0  0.00000000000E+00  0.00000000000E+00  0.11064447357E+04  0.11064447357E+04  0.25500000920E-02 0.  1.
       -2   -1    0    0    0  501  0.00000000000E+00  0.00000000000E+00 -0.14476855371E+03  0.14476855373E+03  0.25500000920E-02 0. -1.
    10030    2    1    2    0    0  0.00000000000E+00  0.00000000000E+00  0.96167618199E+03  0.12512132894E+04  0.80044588614E+03 0.  0.
        4    1    3    3  502    0 -0.11774539271E+03 -0.31208716018E+03  0.13512341383E+03  0.35989209900E+03  0.12699999809E+01 0. -1.
       -4    1    3    3    0  502  0.11774539271E+03  0.31208716018E+03  0.82655276816E+03  0.89132119043E+03  0.12699999809E+01 0.  1.
</event>
<event>
 5   0  0.4086111E-04  0.8000436E+03  0.7818609E-02  0.9559954E-01
        1   -1    0    0  501    0  0.00000000000E+00  0.00000000000E+00  0.10555141241E+04  0.10555141241E+04  0.50400001928E-02 0.  1.
       -1   -1    0    0    0  501  0.00000000000E+00  0.00000000000E+00 -0.15160142739E+03  0.15160142747E+03  0.50400001928E-02 0. -1.
    10030    2    1    2    0    0  0.00000000000E+00  0.00000000000E+00  0.90391269675E+03  0.12071155516E+04  0.80004361857E+03 0.  0.
        3    1    3    3  502    0 -0.50535796293E+01  0.28021194857E+03  0.88262421394E+03  0.92605064010E+03  0.10100000352E+00 0.  1.
       -3    1    3    3    0  502  0.50535796293E+01 -0.28021194857E+03  0.21288482808E+02  0.28106491152E+03  0.10100000352E+00 0. -1.
</event>
<event>
 5   0  0.6672462E-04  0.7992495E+03  0.7818609E-02  0.9561104E-01
       -2   -1    0    0    0  501  0.00000000000E+00  0.00000000000E+00  0.25072145733E+03  0.25072145735E+03  0.25500000920E-02 0. -1.
        2   -1    0    0  501    0  0.00000000000E+00  0.00000000000E+00 -0.63696167481E+03  0.63696167482E+03  0.25500000920E-02 0.  1.
    10030    2    1    2    0    0  0.00000000000E+00  0.00000000000E+00 -0.38624021748E+03  0.88768313217E+03  0.79924954647E+03 0.  0.
        5    1    3    3  502    0 -0.18485825606E+03  0.74490012509E+02 -0.57778940312E+03  0.61121520036E+03  0.46999998093E+01 0.  1.
       -5    1    3    3    0  502  0.18485825606E+03 -0.74490012509E+02  0.19154918564E+03  0.27646793180E+03  0.46999998093E+01 0. -1.
</event>
<event>
 5   0  0.4086111E-04  0.8001843E+03  0.7818609E-02  0.9559750E-01
       -1   -1    0    0    0  501  0.00000000000E+00  0.00000000000E+00  0.12259610597E+04  0.12259610597E+04  0.50400001928E-02 0.  1.
        1   -1    0    0  501    0  0.00000000000E+00  0.00000000000E+00 -0.13056999632E+03  0.13056999642E+03  0.50400001928E-02 0. -1.
    10030    2    1    2    0    0  0.00000000000E+00  0.00000000000E+00  0.10953910634E+04  0.13565310561E+04  0.80018430659E+03 0.  0.
        3    1    3    3  502    0  0.36798992811E+02  0.14116289261E+03 -0.83876450669E+02  0.16827476727E+03  0.10100000352E+00 0. -1.
       -3    1    3    3    0  502 -0.36798992811E+02 -0.14116289261E+03  0.11792675141E+04  0.11882562889E+04  0.10100000352E+00 0.  1.
</event>
<event>
 5   0  0.6593118E-04  0.7992714E+03  0.7818609E-02  0.9561072E-01
       -2   -1    0    0    0  501  0.00000000000E+00  0.00000000000E+00  0.37709160558E+03  0.37709160559E+03  0.25500000920E-02 0.  1.
        2   -1    0    0  501    0  0.00000000000E+00  0.00000000000E+00 -0.42352754528E+03  0.42352754529E+03  0.25500000920E-02 0. -1.
    10030    2    1    2    0    0  0.00000000000E+00  0.00000000000E+00 -0.46435939706E+02  0.80061915088E+03  0.79927137335E+03 0.  0.
        1    1    3    3  502    0 -0.88636771087E+02 -0.75967299476E+02  0.35963219751E+03  0.37810425188E+03  0.50400001928E-02 0.  1.
       -1    1    3    3    0  502  0.88636771087E+02  0.75967299476E+02 -0.40606813722E+03  0.42251489899E+03  0.50400001928E-02 0. -1.
</event>
<event>
 5   0  0.4086111E-04  0.7998378E+03  0.7818609E-02  0.9560252E-01
        1   -1    0    0  501    0  0.00000000000E+00  0.00000000000E+00  0.84184809280E+03  0.84184809282E+03  0.50400001928E-02 0. -1.
       -1   -1    0    0    0  501  0.00000000000E+00  0.00000000000E+00 -0.18998096837E+03  0.18998096844E+03  0.50400001928E-02 0.  1.
    10030    2    1    2    0    0  0.00000000000E+00  0.00000000000E+00  0.65186712443E+03  0.10318290613E+04  0.79983777339E+03 0.  0.
        3    1    3    3  502    0  0.19826831295E+03 -0.14854527913E+03 -0.79065641820E+02  0.26005270579E+03  0.10100000352E+00 0.  1.
       -3    1    3    3    0  502 -0.19826831295E+03  0.14854527913E+03  0.73093276625E+03  0.77177635546E+03  0.10100000352E+00 0. -1.
</event>
<event>
 5   0  0.6672462E-04  0.8002340E+03  0.7818609E-02  0.9559679E-01
        2   -1    0    0  501    0  0.00000000000E+00  0.00000000000E+00  0.41821488895E+03  0.41821488896E+03  0.25500000920E-02 0.  1.
       -2   -1    0    0    0  501  0.00000000000E+00  0.00000000000E+00 -0.38280224961E+03  0.38280224962E+03  0.25500000920E-02 0. -1.
    10030    2    1    2    0    0  0.00000000000E+00  0.00000000000E+00  0.35412639341E+02  0.80101713858E+03  0.80023396658E+03 0.  0.
        5    1    3    3  502    0  0.12304012032E+03 -0.35160606552E+03 -0.12840164487E+03  0.39404919607E+03  0.46999998093E+01 0. -1.
       -5    1    3    3    0  502 -0.12304012032E+03  0.35160606552E+03  0.16381428421E+03  0.40696794251E+03  0.46999998093E+01 0.  1.
</event>
<event>
 5   0  0.6970013E-04  0.8003996E+03  0.7818609E-02  0.9559439E-01
       -2   -1    0    0    0  501  0.00000000000E+00  0.00000000000E+00  0.11608509758E+04  0.11608509758E+04  0.25500000920E-02 0.  1.
        2   -1    0    0  501    0  0.00000000000E+00  0.00000000000E+00 -0.13796765904E+03  0.13796765906E+03  0.25500000920E-02 0. -1.
    10030    2    1    2    0    0  0.00000000000E+00  0.00000000000E+00  0.10228833168E+04  0.12988186349E+04  0.80039962930E+03 0.  0.
        3    1    3    3  502    0 -0.39409128814E+01  0.33954153103E+03  0.85511940848E+03  0.92007238577E+03  0.10100000352E+00 0.  1.
       -3    1    3    3    0  502  0.39409128814E+01 -0.33954153103E+03  0.16776390828E+03  0.37874624910E+03  0.10100000352E+00 0. -1.
</event>
<event>
 5   0  0.2736375E-04  0.7999140E+03  0.7818609E-02  0.9560142E-01
        3   -1    0    0  501    0  0.00000000000E+00  0.00000000000E+00  0.37170163473E+03  0.37170164845E+03  0.10100000352E+00 0. -1.
       -3   -1    0    0    0  501  0.00000000000E+00  0.00000000000E+00 -0.43036019353E+03  0.43036020538E+03  0.10100000352E+00 0.  1.
    10030    2    1    2    0    0  0.00000000000E+00  0.00000000000E+00 -0.58658558802E+02  0.80206185383E+03  0.79991398965E+03 0.  0.
        3    1    3    3  502    0  0.18555776849E+03  0.13849214082E+03  0.29766573760E+03  0.37711624210E+03  0.10100000352E+00 0. -1.
       -3    1    3    3    0  502 -0.18555776849E+03 -0.13849214082E+03 -0.35632429641E+03  0.42494561172E+03  0.10100000352E+00 0.  1.
</event>
<event>
 5   0  0.6970013E-04  0.8001453E+03  0.7818609E-02  0.9559807E-01
        2   -1    0    0  501    0  0.00000000000E+00  0.00000000000E+00  0.52508551062E+03  0.52508551063E+03  0.25500000920E-02 0. -1.
       -2   -1    0    0    0  501  0.00000000000E+00  0.00000000000E+00 -0.30482300436E+03  0.30482300438E+03  0.25500000920E-02 0.  1.
    10030    2    1    2    0    0  0.00000000000E+00  0.00000000000E+00  0.22026250626E+03  0.82990851500E+03  0.80014534406E+03 0.  0.
        3    1    3    3  502    0 -0.16050643361E+03  0.33154529929E+03 -0.51796232366E+02  0.37197776896E+03  0.10100000352E+00 0.  1.
       -3    1    3    3    0  502  0.16050643361E+03 -0.33154529929E+03  0.27205873862E+03  0.45793074605E+03  0.10100000352E+00 0. -1.
</event>
<event>
 5   0  0.4169155E-04  0.8000904E+03  0.7818609E-02  0.9559886E-01
        1   -1    0    0  501    0  0.00000000000E+00  0.00000000000E+00  0.42351261280E+03  0.42351261283E+03  0.50400001928E-02 0. -1.
       -1   -1    0    0    0  501  0.00000000000E+00  0.00000000000E+00 -0.37787812931E+03  0.37787812934E+03  0.50400001928E-02 0.  1.
    10030    2    1    2    0    0  0.00000000000E+00  0.00000000000E+00  0.45634483496E+02  0.80139074217E+03  0.80009037962E+03 0.  0.
        4    1    3    3  502    0 -0.37777530039E+03 -0.12174417667E+03  0.72885671279E+02  0.40354647330E+03  0.12699999809E+01 0. -1.
       -4    1    3    3    0  502  0.37777530039E+03  0.12174417667E+03 -0.27251187782E+02  0.39784426887E+03  0.12699999809E+01 0.  1.
</event>
<event>
 5   0  0.4169155E-04  0.7991537E+03  0.7818609E-02  0.9561243E-01
       -1   -1    0    0    0  501  0.00000000000E+00  0.00000000000E+00  0.15981537854E+03  0.15981537862E+03  0.50400001928E-02 0.  1.
        1   -1    0    0  501    0  0.00000000000E+00  0.00000000000E+00 -0.99903820162E+03  0.99903820163E+03  0.50400001928E-02 0. -1.
    10030    2    1    2    0    0  0.00000000000E+00  0.00000000000E+00 -0.83922282308E+03  0.11588535802E+04  0.79915372344E+03 0.  0.
        4    1    3    3  502    0 -0.37969200439E+03 -0.12447326667E+03 -0.42057680129E+03  0.58012590960E+03  0.12699999809E+01 0. -1.
       -4    1    3    3    0  502  0.37969200439E+03  0.12447326667E+03 -0.41864602179E+03  0.57872767064E+03  0.12699999809E+01 0.  1.
</event>
<event>
 5   0  0.4087283E-04  0.7999196E+03  0.7818609E-02  0.9560134E-01
       -1   -1    0    0    0  501  0.00000000000E+00  0.00000000000E+00  0.52186281537E+03  0.52186281540E+03  0.50400001928E-02 0.  1.
        1   -1    0    0  501    0  0.00000000000E+00  0.00000000000E+00 -0.30653234424E+03  0.30653234428E+03  0.50400001928E-02 0. -1.
    10030    2    1    2    0    0  0.00000000000E+00  0.00000000000E+00  0.21533047113E+03  0.82839515968E+03  0.79991957645E+03 0.  0.
        1    1    3    3  502    0  0.16243381833E+03  0.36186045068E+03  0.54454225428E+02  0.40036607473E+03  0.50400001928E-02 0. -1.
       -1    1    3    3    0  502 -0.16243381833E+03 -0.36186045068E+03  0.16087624570E+03  0.42802908495E+03  0.50400001928E-02 0.  1.
</event>
<event>
 5   0  0.4392552E-04  0.7996495E+03  0.7818609E-02  0.9560525E-01
        1   -1    0    0  501    0  0.00000000000E+00  0.00000000000E+00  0.13106729019E+04  0.13106729019E+04  0.50400001928E-02 0. -1.
       -1   -1    0    0    0  501  0.00000000000E+00  0.00000000000E+00 -0.12196774916E+03  0.12196774927E+03  0.50400001928E-02 0.  1.
    10030    2    1    2    0    0  0.00000000000E+00  0.00000000000E+00  0.11887051527E+04  0.14326406511E+04  0.79964948274E+03 0.  0.
        5    1    3    3  502    0 -0.33069984455E+03 -0.12392923131E+03  0.25861832724E+03  0.43775149428E+03  0.46999998093E+01 0.  1.
       -5    1    3    3    0  502  0.33069984455E+03  0.12392923131E+03  0.93008682545E+03  0.99488915686E+03  0.46999998093E+01 0. -1.
</event>
<event>
 5   0  0.4086111E-04  0.7998762E+03  0.7818609E-02  0.9560196E-01
       -1   -1    0    0    0  501  0.00000000000E+00  0.00000000000E+00  0.70439191865E+02  0.70439192046E+02  0.50400001928E-02 0.  1.
        1   -1    0    0  501    0  0.00000000000E+00  0.00000000000E+00 -0.22707599705E+04  0.22707599705E+04  0.50400001928E-02 0. -1.
    10030    2    1    2    0    0  0.00000000000E+00  0.00000000000E+00 -0.22003207786E+04  0.23411991625E+04  0.79987623407E+03 0.  0.
        3    1    3    3  502    0 -0.15788851555E+03 -0.17864363953E+03 -0.16030275697E+03  0.28729656695E+03  0.10100000352E+00 0.  1.
       -3    1    3    3    0  502  0.15788851555E+03  0.17864363953E+03 -0.20400180216E+04  0.20539025956E+04  0.10100000352E+00 0. -1.
</event>
<event>
 5   0  0.4104786E-04  0.8000915E+03  0.7818609E-02  0.9559885E-01
        1   -1    0    0  501    0  0.00000000000E+00  0.00000000000E+00  0.12076928950E+03  0.12076928961E+03  0.50400001928E-02 0.  1.
       -1   -1    0    0    0  501  0.00000000000E+00  0.00000000000E+00 -0.13251430585E+04  0.13251430585E+04  0.50400001928E-02 0. -1.
    10030    2    1    2    0    0  0.00000000000E+00  0.00000000000E+00 -0.12043737690E+04  0.14459123481E+04  0.80009145913E+03 0.  0.
        2    1    3    3  502    0  0.14438094528E+02  0.70757138309E+02 -0.13132661974E+04  0.13152502182E+04  0.25500000920E-02 0. -1.
       -2    1    3    3    0  502 -0.14438094528E+02 -0.70757138309E+02  0.10889242847E+03  0.13066212986E+03  0.25500000920E-02 0.  1.
</event>
<event>
 5   0  0.4104786E-04  0.7997453E+03  0.7818609E-02  0.9560386E-01
        1   -1    0    0  501    0  0.00000000000E+00  0.00000000000E+00  0.17087669991E+04  0.17087669991E+04  0.50400001928E-02 0.  1.
       -1   -1    0    0    0  501  0.00000000000E+00  0.00000000000E+00 -0.93575162070E+02  0.93575162206E+02  0.50400001928E-02 0. -1.
    10030    2    1    2    0    0  0.00000000000E+00  0.00000000000E+00  0.16151918370E+04  0.18023421613E+04  0.79974533199E+03 0.  0.
        2    1    3    3  502    0  0.31206240257E+02 -0.30265168598E+03  0.22283569082E+03  0.37713076985E+03  0.25500000920E-02 0. -1.
       -2    1    3    3    0  502 -0.31206240257E+02  0.30265168598E+03  0.13923561462E+04  0.14252113915E+04  0.25500000920E-02 0.  1.
</event>
<event>
 5   0  0.7133039E-04  0.8005104E+03  0.7818609E-02  0.9559279E-01
       -2   -1    0    0    0  501  0.00000000000E+00  0.00000000000E+00  0.77362434678E+03  0.77362434678E+03  0.25500000920E-02 0.  1.
        2   -1    0    0  501    0  0.00000000000E+00  0.00000000000E+00 -0.20708273370E+03  0.20708273372E+03  0.25500000920E-02 0. -1.
    10030    2    1    2    0    0  0.00000000000E+00  0.00000000000E+00  0.56654161308E+03  0.98070708050E+03  0.80051044865E+03 0.  0.
        2    1    3    3  502    0 -0.67690235864E+02  0.32204530397E+03  0.56239279493E+03  0.65159865074E+03  0.25500000920E-02 0.  1.
       -2    1    3    3    0  502  0.67690235864E+02 -0.32204530397E+03  0.41488181438E+01  0.32910842976E+03  0.25500000920E-02 0. -1.
</event>
<event>
 5   0  0.4086111E-04  0.7996311E+03  0.7818609E-02  0.9560551E-01
       -1   -1    0    0    0  501  0.00000000000E+00  0.00000000000E+00  0.43204496252E+03  0.43204496255E+03  0.50400001928E-02 0.  1.
        1   -1    0    0  501    0  0.00000000000E+00  0.00000000000E+00 -0.36999038554E+03  0.36999038558E+03  0.50400001928E-02 0. -1.
    10030    2    1    2    0    0  0.00000000000E+00  0.00000000000E+00  0.62054576973E+02  0.80203534813E+03  0.79963112066E+03 0.  0.
        3    1    3    3  502    0  0.21459011507E+03 -0.19590871879E+03  0.30648609949E+03  0.42233030078E+03  0.10100000352E+00 0.  1.
       -3    1    3    3    0  502 -0.21459011507E+03  0.19590871879E+03 -0.24443152251E+03  0.37970504734E+03  0.10100000352E+00 0. -1.
</event>
<event>
 5   0  0.4087283E-04  0.7992841E+03  0.7818609E-02  0.9561054E-01
        1   -1    0    0  501    0  0.00000000000E+00  0.00000000000E+00  0.13338972045E+04  0.13338972045E+04  0.50400001928E-02 0.  1.
       -1   -1    0    0    0  501  0.00000000000E+00  0.00000000000E+00 -0.11973467910E+03  0.11973467921E+03  0.50400001928E-02 0. -1.
    10030    2    1    2    0    0  0.00000000000E+00  0.00000000000E+00  0.12141625254E+04  0.14536318837E+04  0.79928406421E+03 0.  0.
        1    1    3    3  502    0 -0.24307583486E+03 -0.27808210267E+03  0.88467828957E+03  0.95868200848E+03  0.50400001928E-02 0. -1.
       -1    1    3    3    0  502  0.24307583486E+03  0.27808210267E+03  0.32948423583E+03  0.49494987525E+03  0.50400001928E-02 0.  1.
</event>
<event>
 5   0  0.7133039E-04  0.8001982E+03  0.7818609E-02  0.9559730E-01
       -2   -1    0    0    0  501  0.00000000000E+00  0.00000000000E+00  0.28817108918E+03  0.28817108920E+03  0.25500000920E-02 0.  1.
        2   -1    0    0  501    0  0.00000000000E+00  0.00000000000E+00 -0.55550086194E+03  0.55550086195E+03  0.25500000920E-02 0. -1.
    10030    2    1    2    0    0  0.00000000000E+00  0.00000000000E+00 -0.26732977276E+03  0.84367195114E+03  0.80019819654E+03 0.  0.
        2    1    3    3  502    0  0.50017944516E+02 -0.85908559027E+02  0.27494322132E+03  0.29236253222E+03  0.25500000920E-02 0.  1.
       -2    1    3    3    0  502 -0.50017944516E+02  0.85908559027E+02 -0.54227299408E+03  0.55130941893E+03  0.25500000920E-02 0. -1.
</event>
<event>
 5   0  0.4104786E-04  0.8001937E+03  0.7818609E-02  0.9559737E-01
        1   -1    0    0  501    0  0.00000000000E+00  0.00000000000E+00  0.19187985127E+04  0.19187985127E+04  0.50400001928E-02 0.  1.
       -1   -1    0    0    0  501  0.00000000000E+00  0.00000000000E+00 -0.83425904698E+02  0.83425904850E+02  0.50400001928E-02 0. -1.
    10030    2    1    2    0    0  0.00000000000E+00  0.00000000000E+00  0.18353726080E+04  0.20022244176E+04  0.80019373158E+03 0.  0.
        2    1    3    3  502    0  0.29851539737E+03  0.13833779402E+03  0.14873293843E+04  0.15232850965E+04  0.25500000920E-02 0.  1.
       -2    1    3    3    0  502 -0.29851539737E+03 -0.13833779402E+03  0.34804322373E+03  0.47893932111E+03  0.25500000920E-02 0. -1.
</event>
<event>
 5   0  0.4086111E-04  0.7985607E+03  0.7818609E-02  0.9562103E-01
        1   -1    0    0  501    0  0.00000000000E+00  0.00000000000E+00  0.72053709279E+03  0.72053709281E+03  0.50400001928E-02 0. -1.
       -1   -1    0    0    0  501  0.00000000000E+00  0.00000000000E+00 -0.22125829235E+03  0.22125829240E+03  0.50400001928E-02 0.  1.
    10030    2    1    2    0    0  0.00000000000E+00  0.00000000000E+00  0.49927880044E+03  0.94179538521E+03  0.79856072220E+03 0.  0.
        3    1    3    3  502    0 -0.36454491768E+03  0.12457867118E+03  0.12587925457E+03  0.40528809414E+03  0.10100000352E+00 0.  1.
       -3    1    3    3    0  502  0.36454491768E+03 -0.12457867118E+03  0.37339954587E+03  0.53650729107E+03  0.10100000352E+00 0. -1.
</event>
<event>
 5   0  0.6593118E-04  0.8002531E+03  0.7818609E-02  0.9559651E-01
       -2   -1    0    0    0  501  0.00000000000E+00  0.00000000000E+00  0.74399748267E+02  0.74399748311E+02  0.25500000920E-02 0. -1.
        2   -1    0    0  501    0  0.00000000000E+00  0.00000000000E+00 -0.21519057728E+04  0.21519057728E+04  0.25500000920E-02 0.  1.
    10030    2    1    2    0    0  0.00000000000E+00  0.00000000000E+00 -0.20775060246E+04  0.22263055212E+04  0.80025307958E+03 0.  0.
        1    1    3    3  502    0  0.13219871264E+03 -0.18008492947E+03 -0.19622526112E+04  0.19749284522E+04  0.50400001928E-02 0.  1.
       -1    1    3    3    0  502 -0.13219871264E+03  0.18008492947E+03 -0.11525341342E+03  0.25137706891E+03  0.50400001928E-02 0. -1.
</event>
<event>
 5   0  0.7133039E-04  0.8000981E+03  0.7818609E-02  0.9559875E-01
       -2   -1    0    0    0  501  0.00000000000E+00  0.00000000000E+00  0.11262790265E+03  0.11262790268E+03  0.25500000920E-02 0. -1.
        2   -1    0    0  501    0  0.00000000000E+00  0.00000000000E+00 -0.14209556050E+04  0.14209556050E+04  0.25500000920E-02 0.  1.
    10030    2    1    2    0    0  0.00000000000E+00  0.00000000000E+00 -0.13083277024E+04  0.15335835077E+04  0.80009811794E+03 0.  0.
        2    1    3    3  502    0  0.50617178383E+01  0.16379450989E+03 -0.13536704522E+04  0.13635534297E+04  0.25500000920E-02 0.  1.
       -2    1    3    3    0  502 -0.50617178383E+01 -0.16379450989E+03  0.45342749834E+02  0.17003007801E+03  0.25500000920E-02 0. -1.
</event>
<event>
 5   0  0.6801147E-04  0.8003095E+03  0.7818609E-02  0.9559569E-01
       -2   -1    0    0    0  501  0.00000000000E+00  0.00000000000E+00  0.16841266826E+03  0.16841266828E+03  0.25500000920E-02 0. -1.
        2   -1    0    0  501    0  0.00000000000E+00  0.00000000000E+00 -0.95078253547E+03  0.95078253547E+03  0.25500000920E-02 0.  1.
    10030    2    1    2    0    0  0.00000000000E+00  0.00000000000E+00 -0.78236986721E+03  0.11191952037E+04  0.80030949949E+03 0.  0.
        4    1    3    3  502    0  0.14649012933E+03 -0.30509539426E+03 -0.68974614000E+03  0.76830586887E+03  0.12699999809E+01 0.  1.
       -4    1    3    3    0  502 -0.14649012933E+03  0.30509539426E+03 -0.92623727214E+02  0.35088933488E+03  0.12699999809E+01 0. -1.
</event>
<event>
 5   0  0.6672462E-04  0.8008262E+03  0.7818609E-02  0.9558822E-01
       -2   -1    0    0    0  501  0.00000000000E+00  0.00000000000E+00  0.13328440859E+03  0.13328440861E+03  0.25500000920E-02 0.  1.
        2   -1    0    0  501    0  0.00000000000E+00  0.00000000000E+00 -0.12029212767E+04  0.12029212767E+04  0.25500000920E-02 0. -1.
    10030    2    1    2    0    0  0.00000000000E+00  0.00000000000E+00 -0.10696368681E+04  0.13362056853E+04  0.80082620078E+03 0.  0.
        5    1    3    3  502    0  0.43279084499E+02 -0.10502108038E+03  0.10579007443E+03  0.15529370988E+03  0.46999998093E+01 0.  1.
       -5    1    3    3    0  502 -0.43279084499E+02  0.10502108038E+03 -0.11754269426E+04  0.11809119755E+04  0.46999998093E+01 0. -1.
</event>
<event>
 5   0  0.6801147E-04  0.7998840E+03  0.7818609E-02  0.9560185E-01
       -2   -1    0    0    0  501  0.00000000000E+00  0.00000000000E+00  0.78458463620E+02  0.78458463661E+02  0.25500000920E-02 0.  1.
        2   -1    0    0  501    0  0.00000000000E+00  0.00000000000E+00 -0.20387042274E+04  0.20387042274E+04  0.25500000920E-02 0. -1.
    10030    2    1    2    0    0  0.00000000000E+00  0.00000000000E+00 -0.19602457638E+04  0.21171626911E+04  0.79988399535E+03 0.  0.
        4    1    3    3  502    0  0.30703224185E+03 -0.23015965666E+03 -0.12785204481E+04  0.13348626949E+04  0.12699999809E+01 0. -1.
       -4    1    3    3    0  502 -0.30703224185E+03  0.23015965666E+03 -0.68172531572E+03  0.78229999622E+03  0.12699999809E+01 0.  1.
</event>
<event>
 5   0  0.6593118E-04  0.7998970E+03  0.7818609E-02  0.9560166E-01
        2   -1    0    0  501    0  0.00000000000E+00  0.00000000000E+00  0.54914538785E+03  0.54914538785E+03  0.25500000920E-02 0.  1.
       -2   -1    0    0    0  501  0.00000000000E+00  0.00000000000E+00 -0.29128678757E+03  0.29128678758E+03  0.25500000920E-02 0. -1.
    10030    2    1    2    0    0  0.00000000000E+00  0.00000000000E+00  0.25785860028E+03  0.84043217543E+03  0.79989698322E+03 0.  0.
        1    1    3    3  502    0 -0.35322556968E+03  0.52142129763E+02  0.31826001107E+03  0.47830590571E+03  0.50400001928E-02 0.  1.
       -1    1    3    3    0  502  0.35322556968E+03 -0.52142129763E+02 -0.60401410791E+02  0.36212626972E+03  0.50400001928E-02 0. -1.
</event>
<event>
 5   0  0.4104786E-04  0.7999459E+03  0.7818609E-02  0.9560095E-01
        1   -1    0    0  501    0  0.00000000000E+00  0.00000000000E+00  0.63870017667E+03  0.63870017669E+03  0.50400001928E-02 0.  1.
       -1   -1    0    0    0  501  0.00000000000E+00  0.00000000000E+00 -0.25047492555E+03  0.25047492560E+03  0.50400001928E-02 0. -1.
    10030    2    1    2    0    0  0.00000000000E+00  0.00000000000E+00  0.38822525113E+03  0.88917510229E+03  0.79994594625E+03 0.  0.
        2    1    3    3  502    0 -0.32540520997E+02  0.24247373317E+03  0.54583504087E+03  0.59815406764E+03  0.25500000920E-02 0.  1.
       -2    1    3    3    0  502  0.32540520997E+02 -0.24247373317E+03 -0.15760978974E+03  0.29102103465E+03  0.25500000920E-02 0. -1.
</event>
<event>
 5   0  0.7133039E-04  0.7999986E+03  0.7818609E-02  0.9560019E-01
        2   -1    0    0  501    0  0.00000000000E+00  0.00000000000E+00  0.27889933182E+03  0.27889933183E+03  0.25500000920E-02 0. -1.
       -2   -1    0    0    0  501  0.00000000000E+00  0.00000000000E+00 -0.57368174871E+03  0.57368174872E+03  0.25500000920E-02 0.  1.
    10030    2    1    2    0    0  0.00000000000E+00  0.00000000000E+00 -0.29478241690E+03  0.85258108055E+03  0.79999864100E+03 0.  0.
        2    1    3    3  502    0  0.30574764453E+03  0.10181418451E+03  0.10514747961E+03  0.33897454591E+03  0.25500000920E-02 0. -1.
       -2    1    3    3    0  502 -0.30574764453E+03 -0.10181418451E+03 -0.39992989650E+03  0.51360653464E+03  0.25500000920E-02 0.  1.
</event>
<event>
 5   0  0.6970013E-04  0.8002829E+03  0.7818609E-02  0.9559608E-01
       -2   -1    0    0    0  501  0.00000000000E+00  0.00000000000E+00  0.39453563854E+03  0.39453563855E+03  0.25500000920E-02 0. -1.
        2   -1    0    0  501    0  0.00000000000E+00  0.00000000000E+00 -0.40582692809E+03  0.40582692810E+03  0.25500000920E-02 0.  1.
    10030    2    1    2    0    0  0.00000000000E+00  0.00000000000E+00 -0.11291289549E+02  0.80036256665E+03  0.80028291552E+03 0.  0.
        3    1    3    3  502    0  0.10340814528E+02  0.18700792175E+03  0.34799141637E+03  0.39519227132E+03  0.10100000352E+00 0. -1.
       -3    1    3    3    0  502 -0.10340814528E+02 -0.18700792175E+03 -0.35928270592E+03  0.40517029533E+03  0.10100000352E+00 0.  1.
</event>
<event>
 5   0  0.6672462E-04  0.7999914E+03  0.7818609E-02  0.9560029E-01
       -2   -1    0    0    0  501  0.00000000000E+00  0.00000000000E+00  0.10190830779E+03  0.10190830783E+03  0.25500000920E-02 0.  1.
        2   -1    0    0  501    0  0.00000000000E+00  0.00000000000E+00 -0.15700052422E+04  0.15700052422E+04  0.25500000920E-02 0. -1.
    10030    2    1    2    0    0  0.00000000000E+00  0.00000000000E+00 -0.14680969344E+04  0.16719135501E+04  0.79999144369E+03 0.  0.
        5    1    3    3  502    0  0.11594008939E+03  0.33994279798E+03 -0.36625159329E+03  0.51299661774E+03  0.46999998093E+01 0.  1.
       -5    1    3    3    0  502 -0.11594008939E+03 -0.33994279798E+03 -0.11018453412E+04  0.11589169323E+04  0.46999998093E+01 0. -1.
</event>
<event>
 5   0  0.6593118E-04  0.7997908E+03  0.7818609E-02  0.9560320E-01
       -2   -1    0    0    0  501  0.00000000000E+00  0.00000000000E+00  0.26415357780E+03  0.26415357782E+03  0.25500000920E-02 0.  1.
        2   -1    0    0  501    0  0.00000000000E+00  0.00000000000E+00 -0.60539157485E+03  0.60539157486E+03  0.25500000920E-02 0. -1.
    10030    2    1    2    0    0  0.00000000000E+00  0.00000000000E+00 -0.34123799705E+03  0.86954515268E+03  0.79979084885E+03 0.  0.
        1    1    3    3  502    0  0.95854939274E+02 -0.24652354570E+03  0.15546292652E+03  0.30680734919E+03  0.50400001928E-02 0.  1.
       -1    1    3    3    0  502 -0.95854939274E+02  0.24652354570E+03 -0.49670092358E+03  0.56273780349E+03  0.50400001928E-02 0. -1.
</event>
<event>
 5   0  0.4087283E-04  0.7998335E+03  0.7818609E-02  0.9560258E-01
       -1   -1    0    0    0  501  0.00000000000E+00  0.00000000000E+00  0.27208976509E+03  0.27208976514E+03  0.50400001928E-02 0.  1.
        1   -1    0    0  501    0  0.00000000000E+00  0.00000000000E+00 -0.58779642463E+03  0.58779642465E+03  0.50400001928E-02 0. -1.
    10030    2    1    2    0    0  0.00000000000E+00  0.00000000000E+00 -0.31570665954E+03  0.85988618979E+03  0.79983346049E+03 0.  0.
        1    1    3    3  502    0  0.37715176900E+03  0.13228182484E+03 -0.14297779575E+03  0.42448155218E+03  0.50400001928E-02 0.  1.
       -1    1    3    3    0  502 -0.37715176900E+03 -0.13228182484E+03 -0.17272886379E+03  0.43540463761E+03  0.50400001928E-02 0. -1.
</event>
<event>
 5   0  0.7133039E-04  0.7994414E+03  0.7818609E-02  0.9560826E-01
       -2   -1    0    0    0  501  0.00000000000E+00  0.00000000000E+00  0.28219875610E+03  0.28219875611E+03  0.25500000920E-02 0. -1.
        2   -1    0    0  501    0  0.00000000000E+00  0.00000000000E+00 -0.56618473013E+03  0.56618473014E+03  0.25500000920E-02 0.  1.
    10030    2    1    2    0    0  0.00000000000E+00  0.00000000000E+00 -0.28398597404E+03  0.84838348625E+03  0.79944137139E+03 0.  0.
        2    1    3    3  502    0 -0.25079780848E+03  0.13196027049E+03  0.15715744265E+03  0.32405480325E+03  0.25500000920E-02 0. -1.
       -2    1    3    3    0  502  0.25079780848E+03 -0.13196027049E+03 -0.44114341668E+03  0.52432868300E+03  0.25500000920E-02 0.  1.
</event>
<event>
 5   0  0.4086111E-04  0.8000017E+03  0.7818609E-02  0.9560015E-01
        1   -1    0    0  501    0  0.00000000000E+00  0.00000000000E+00  0.63897002786E+03  0.63897002788E+03  0.50400001928E-02 0. -1.
       -1   -1    0    0    0  501  0.00000000000E+00  0.00000000000E+00 -0.25040407203E+03  0.25040407209E+03  0.50400001928E-02 0.  1.
    10030    2    1    2    0    0  0.00000000000E+00  0.00000000000E+00  0.38856595582E+03  0.88937409996E+03  0.80000174229E+03 0.  0.
        3    1    3    3  502    0 -0.38468595302E+03  0.22117218896E+02  0.31364740441E+03  0.49683715473E+03  0.10100000352E+00 0. -1.
       -3    1    3    3    0  502  0.38468595302E+03 -0.22117218896E+02  0.74918551409E+02  0.39253694523E+03  0.10100000352E+00 0.  1.
</event>
<event>
 5   0  0.6672462E-04  0.7988715E+03  0.7818609E-02  0.9561652E-01
        2   -1    0    0  501    0  0.00000000000E+00  0.00000000000E+00  0.43859593175E+03  0.43859593176E+03  0.25500000920E-02 0.  1.
       -2   -1    0    0    0  501  0.00000000000E+00  0.00000000000E+00 -0.36377197959E+03  0.36377197960E+03  0.25500000920E-02 0. -1.
    10030    2    1    2    0    0  0.00000000000E+00  0.00000000000E+00  0.74823952159E+02  0.80236791136E+03  0.79887147988E+03 0.  0.
        5    1    3    3  502    0  0.95648270234E+02  0.17554311627E+03 -0.30988000189E+03  0.36879761772E+03  0.46999998093E+01 0. -1.
       -5    1    3    3    0  502 -0.95648270234E+02 -0.17554311627E+03  0.38470395405E+03  0.43357029364E+03  0.46999998093E+01 0.  1.
</event>
<event>
 5   0  0.4104786E-04  0.8004405E+03  0.7818609E-02  0.9559380E-01
       -1   -1    0    0    0  501  0.00000000000E+00  0.00000000000E+00  0.15839697210E+03  0.15839697218E+03  0.50400001928E-02 0.  1.
        1   -1    0    0  501    0  0.00000000000E+00  0.00000000000E+00 -0.10112330437E+04  0.10112330437E+04  0.50400001928E-02 0. -1.
    10030    2    1    2    0    0  0.00000000000E+00  0.00000000000E+00 -0.85283607162E+03  0.11696300159E+04  0.80044050940E+03 0.  0.
        2    1    3    3  502    0  0.72484629593E+02 -0.10947143794E+03 -0.97886889439E+03  0.98763471469E+03  0.25500000920E-02 0. -1.
       -2    1    3    3    0  502 -0.72484629593E+02  0.10947143794E+03  0.12603282276E+03  0.18199530123E+03  0.25500000920E-02 0.  1.
</event>
<event>
 5   0  0.6801147E-04  0.7999850E+03  0.7818609E-02  0.9560039E-01
       -2   -1    0    0    0  501  0.00000000000E+00  0.00000000000E+00  0.17084534185E+03  0.17084534187E+03  0.25500000920E-02 0.  1.
        2   -1    0    0  501    0  0.00000000000E+00  0.00000000000E+00 -0.93648434660E+03  0.93648434661E+03  0.25500000920E-02 0. -1.
    10030    2    1    2    0    0  0.00000000000E+00  0.00000000000E+00 -0.76563900475E+03  0.11073296885E+04  0.79998497073E+03 0.  0.
        4    1    3    3  502    0 -0.11397033539E+03  0.34506142885E+03 -0.61417257476E+03  0.71362888921E+03  0.12699999809E+01 0. -1.
       -4    1    3    3    0  502  0.11397033539E+03 -0.34506142885E+03 -0.15146642999E+03  0.39370079927E+03  0.12699999809E+01 0.  1.
</event>
<event>
 5   0  0.4087283E-04  0.8006058E+03  0.7818609E-02  0.9559141E-01
       -1   -1    0    0    0  501  0.00000000000E+00  0.00000000000E+00  0.79368654835E+03  0.79368654836E+03  0.50400001928E-02 0. -1.
        1   -1    0    0  501    0  0.00000000000E+00  0.00000000000E+00 -0.20189636575E+03  0.20189636582E+03  0.50400001928E-02 0.  1.
    10030    2    1    2    0    0  0.00000000000E+00  0.00000000000E+00  0.59179018259E+03  0.99558291418E+03  0.80060584484E+03 0.  0.
        1    1    3    3  502    0  0.63218816765E+02 -0.35328535234E+03  0.75416065768E+02  0.36673524779E+03  0.50400001928E-02 0.  1.
       -1    1    3    3    0  502 -0.63218816765E+02  0.35328535234E+03  0.51637411683E+03  0.62884766639E+03  0.50400001928E-02 0. -1.
</event>
<event>
 5   0  0.6593118E-04  0.8007915E+03  0.7818609E-02  0.9558872E-01
        2   -1    0    0  501    0  0.00000000000E+00  0.00000000000E+00  0.85564120809E+03  0.85564120810E+03  0.25500000920E-02 0. -1.
       -2   -1    0    0    0  501  0.00000000000E+00  0.00000000000E+00 -0.18736444228E+03  0.18736444230E+03  0.25500000920E-02 0.  1.
    10030    2    1    2    0    0  0.00000000000E+00  0.00000000000E+00  0.66827676581E+03  0.10430056504E+04  0.80079145290E+03 0.  0.
        1    1    3    3  502    0  0.16770823363E+03 -0.25821514835E+03  0.75828443464E+00  0.30789882995E+03  0.50400001928E-02 0.  1.
       -1    1    3    3    0  502 -0.16770823363E+03  0.25821514835E+03  0.66751848138E+03  0.73510682045E+03  0.50400001928E-02 0. -1.
</event>
<event>
 5   0  0.4169155E-04  0.8004305E+03  0.7818609E-02  0.9559394E-01
        1   -1    0    0  501    0  0.00000000000E+00  0.00000000000E+00  0.33469091975E+03  0.33469091979E+03  0.50400001928E-02 0. -1.
       -1   -1    0    0    0  501  0.00000000000E+00  0.00000000000E+00 -0.47856764279E+03  0.47856764282E+03  0.50400001928E-02 0.  1.
    10030    2    1    2    0    0  0.00000000000E+00  0.00000000000E+00 -0.14387672304E+03  0.81325856260E+03  0.80043049556E+03 0.  0.
        4    1    3    3  502    0 -0.16675719321E+03 -0.27161142581E+03  0.17399441314E+03  0.36312036134E+03  0.12699999809E+01 0. -1.
       -4    1    3    3    0  502  0.16675719321E+03  0.27161142581E+03 -0.31787113618E+03  0.45013820126E+03  0.12699999809E+01 0.  1.
</event>
<event>
 5   0  0.2736375E-04  0.8000297E+03  0.7818609E-02  0.9559974E-01
       -3   -1    0    0    0  501  0.00000000000E+00  0.00000000000E+00  0.49298171697E+03  0.49298172731E+03  0.10100000352E+00 0. -1.
        3   -1    0    0  501    0  0.00000000000E+00  0.00000000000E+00 -0.32457973391E+03  0.32457974962E+03  0.10100000352E+00 0.  1.
    10030    2    1    2    0    0  0.00000000000E+00  0.00000000000E+00  0.16840198306E+03  0.81756147694E+03  0.80002971237E+03 0.  0.
        4    1    3    3  502    0 -0.12228237688E+03 -0.37939646470E+03  0.50068223941E+02  0.40175004303E+03  0.12699999809E+01 0. -1.
       -4    1    3    3    0  502  0.12228237688E+03  0.37939646470E+03  0.11833375912E+03  0.41581143391E+03  0.12699999809E+01 0.  1.
</event>
<event>
 5   0  0.6970013E-04  0.7997928E+03  0.7818609E-02  0.9560317E-01
        2   -1    0    0  501    0  0.00000000000E+00  0.00000000000E+00  0.10813374634E+04  0.10813374634E+04  0.25500000920E-02 0. -1.
       -2   -1    0    0    0  501  0.00000000000E+00  0.00000000000E+00 -0.14788827005E+03  0.14788827007E+03  0.25500000920E-02 0.  1.
    10030    2    1    2    0    0  0.00000000000E+00  0.00000000000E+00  0.93344919337E+03  0.12292257335E+04  0.79979279022E+03 0.  0.
        3    1    3    3  502    0 -0.32571468116E+03 -0.23177826966E+03  0.48254055809E+03  0.62662318838E+03  0.10100000352E+00 0. -1.
       -3    1    3    3    0  502  0.32571468116E+03  0.23177826966E+03  0.45090863529E+03  0.60260254512E+03  0.10100000352E+00 0.  1.
</event>
<event>
 5   0  0.4086111E-04  0.7997624E+03  0.7818609E-02  0.9560361E-01
        1   -1    0    0  501    0  0.00000000000E+00  0.00000000000E+00  0.60207151684E+03  0.60207151686E+03  0.50400001928E-02 0.  1.
       -1   -1    0    0    0  501  0.00000000000E+00  0.00000000000E+00 -0.26559131942E+03  0.26559131947E+03  0.50400001928E-02 0. -1.
    10030    2    1    2    0    0  0.00000000000E+00  0.00000000000E+00  0.33648019742E+03  0.86766283632E+03  0.79976238614E+03 0.  0.
        3    1    3    3  502    0 -0.90308785399E+02 -0.13933046700E+03 -0.22642572460E+03  0.28077976194E+03  0.10100000352E+00 0. -1.
       -3    1    3    3    0  502  0.90308785399E+02  0.13933046700E+03  0.56290592201E+03  0.58688307438E+03  0.10100000352E+00 0.  1.
</event>
<event>
 5   0  0.6593118E-04  0.7997834E+03  0.7818609E-02  0.9560331E-01
        2   -1    0    0  501    0  0.00000000000E+00  0.00000000000E+00  0.81269351052E+03  0.81269351053E+03  0.25500000920E-02 0. -1.
       -2   -1    0    0    0  501  0.00000000000E+00  0.00000000000E+00 -0.19676960117E+03  0.19676960118E+03  0.25500000920E-02 0.  1.
    10030    2    1    2    0    0  0.00000000000E+00  0.00000000000E+00  0.61592390936E+03  0.10094631117E+04  0.79978341555E+03 0.  0.
        1    1    3    3  502    0 -0.32893797001E+03  0.20877952210E+03  0.42172758063E+03  0.57414565160E+03  0.50400001928E-02 0. -1.
       -1    1    3    3    0  502  0.32893797001E+03 -0.20877952210E+03  0.19419632873E+03  0.43531746011E+03  0.50400001928E-02 0.  1.
</event>
<event>
 5   0  0.4169155E-04  0.8002153E+03  0.7818609E-02  0.9559706E-01
       -1   -1    0    0    0  501  0.00000000000E+00  0.00000000000E+00  0.10799661813E+03  0.10799661825E+03  0.50400001928E-02 0.  1.
        1   -1    0    0  501    0  0.00000000000E+00  0.00000000000E+00 -0.14823254271E+04  0.14823254271E+04  0.50400001928E-02 0. -1.
    10030    2    1    2    0    0  0.00000000000E+00  0.00000000000E+00 -0.13743288090E+04  0.15903220453E+04  0.80021530401E+03 0.  0.
        4    1    3    3  502    0 -0.10676600807E+03 -0.10963107875E+03 -0.14218632679E+04  0.14300750747E+04  0.12699999809E+01 0. -1.
       -4    1    3    3    0  502  0.10676600807E+03  0.10963107875E+03  0.47534458924E+02  0.16024697062E+03  0.12699999809E+01 0.  1.
</event>
<event>
 5   0  0.6970013E-04  0.7989726E+03  0.7818609E-02  0.9561505E-01
        2   -1    0    0  501    0  0.00000000000E+00  0.00000000000E+00  0.14788918420E+04  0.14788918420E+04  0.25500000920E-02 0.  1.
       -2   -1    0    0    0  501  0.00000000000E+00  0.00000000000E+00 -0.10791140555E+03  0.10791140558E+03  0.25500000920E-02 0. -1.
    10030    2    1    2    0    0  0.00000000000E+00  0.00000000000E+00  0.13709804365E+04  0.15868032476E+04  0.79897258364E+03 0.  0.
        3    1    3    3  502    0 -0.77718184689E+02  0.34255986886E+03  0.10633728479E+04  0.11198880318E+04  0.10100000352E+00 0.  1.
       -3    1    3    3    0  502  0.77718184689E+02 -0.34255986886E+03  0.30760758862E+03  0.46691521581E+03  0.10100000352E+00 0. -1.
</event>
<event>
 5   0  0.4169155E-04  0.7998828E+03  0.7818609E-02  0.9560187E-01
        1   -1    0    0  501    0  0.00000000000E+00  0.00000000000E+00  0.74223264074E+03  0.74223264076E+03  0.50400001928E-02 0.  1.
       -1   -1    0    0    0  501  0.00000000000E+00  0.00000000000E+00 -0.21550266722E+03  0.21550266728E+03  0.50400001928E-02 0. -1.
    10030    2    1    2    0    0  0.00000000000E+00  0.00000000000E+00  0.52672997352E+03  0.95773530804E+03  0.79988277595E+03 0.  0.
        4    1    3    3  502    0  0.31444747156E+02 -0.32422611402E+03 -0.14460642870E+02  0.32607064914E+03  0.12699999809E+01 0. -1.
       -4    1    3    3    0  502 -0.31444747156E+02  0.32422611402E+03  0.54119061639E+03  0.63166465890E+03  0.12699999809E+01 0.  1.
</event>
<event>
 5   0  0.4392552E-04  0.8000736E+03  0.7818609E-02  0.9559911E-01
        1   -1    0    0  501    0  0.00000000000E+00  0.00000000000E+00  0.79477911355E+03  0.79477911357E+03  0.50400001928E-02 0. -1.
       -1   -1    0    0    0  501  0.00000000000E+00  0.00000000000E+00 -0.20135085873E+03  0.20135085879E+03  0.50400001928E-02 0.  1.
    10030    2    1    2    0    0  0.00000000000E+00  0.00000000000E+00  0.59342825482E+03  0.99612997236E+03  0.80007363925E+03 0.  0.
        5    1    3    3  502    0  0.74427525401E+02  0.86561454347E+02 -0.18060387863E+03  0.21371053528E+03  0.46999998093E+01 0.  1.
       -5    1    3    3    0  502 -0.74427525401E+02 -0.86561454347E+02  0.77403213345E+03  0.78241943708E+03  0.46999998093E+01 0. -1.
</event>
<event>
 5   0  0.4169155E-04  0.8000627E+03  0.7818609E-02  0.9559926E-01
        1   -1    0    0  501    0  0.00000000000E+00  0.00000000000E+00  0.12221673858E+04  0.12221673858E+04  0.50400001928E-02 0. -1.
       -1   -1    0    0    0  501  0.00000000000E+00  0.00000000000E+00 -0.13093548998E+03  0.13093549008E+03  0.50400001928E-02 0.  1.
    10030    2    1    2    0    0  0.00000000000E+00  0.00000000000E+00  0.10912318958E+04  0.13531028759E+04  0.80006271147E+03 0.  0.
        4    1    3    3  502    0  0.98513999340E+02  0.12831156593E+03 -0.73145786982E+02  0.17754093914E+03  0.12699999809E+01 0.  1.
       -4    1    3    3    0  502 -0.98513999340E+02 -0.12831156593E+03  0.11643776828E+04  0.11755619368E+04  0.12699999809E+01 0. -1.
</event>
<event>
 5   0  0.4086111E-04  0.8010486E+03  0.7818609E-02  0.9558501E-01
        1   -1    0    0  501    0  0.00000000000E+00  0.00000000000E+00  0.95896858691E+03  0.95896858693E+03  0.50400001928E-02 0. -1.
       -1   -1    0    0    0  501  0.00000000000E+00  0.00000000000E+00 -0.16728360499E+03  0.16728360506E+03  0.50400001928E-02 0.  1.
    10030    2    1    2    0    0  0.00000000000E+00  0.00000000000E+00  0.79168498192E+03  0.11262521920E+04  0.80104861860E+03 0.  0.
        3    1    3    3  502    0 -0.21784257107E+03  0.33590976223E+03  0.41180866754E+03  0.57434932140E+03  0.10100000352E+00 0. -1.
       -3    1    3    3    0  502  0.21784257107E+03 -0.33590976223E+03  0.37987631438E+03  0.55190287059E+03  0.10100000352E+00 0.  1.
</event>
<event>
 5   0  0.7133039E-04  0.7998192E+03  0.7818609E-02  0.9560279E-01
        2   -1    0    0  501    0  0.00000000000E+00  0.00000000000E+00  0.20761630519E+03  0.20761630521E+03  0.25500000920E-02 0.  1.
       -2   -1    0    0    0  501  0.00000000000E+00  0.00000000000E+00 -0.77030399691E+03  0.77030399691E+03  0.25500000920E-02 0. -1.
    10030    2    1    2    0    0  0.00000000000E+00  0.00000000000E+00 -0.56268769172E+03  0.97792030212E+03  0.79981915386E+03 0.  0.
        2    1    3    3  502    0 -0.67853739673E+02  0.36465922981E+03 -0.46412149299E+03  0.59412897938E+03  0.25500000920E-02 0. -1.
       -2    1    3    3    0  502  0.67853739673E+02 -0.36465922981E+03 -0.98566198732E+02  0.38379132275E+03  0.25500000920E-02 0.  1.
</event>
<event>
 5   0  0.6801147E-04  0.8002115E+03  0.7818609E-02  0.9559711E-01
       -2   -1    0    0    0  501  0.00000000000E+00  0.00000000000E+00  0.23094347517E+03  0.23094347518E+03  0.25500000920E-02 0. -1.
        2   -1    0    0  501    0  0.00000000000E+00  0.00000000000E+00 -0.69317667289E+03  0.69317667289E+03  0.25500000920E-02 0.  1.
    10030    2    1    2    0    0  0.00000000000E+00  0.00000000000E+00 -0.46223319772E+03  0.92412014808E+03  0.80021154641E+03 0.  0.
        4    1    3    3  502    0  0.36495888979E+03 -0.11828302333E+03 -0.99965922476E+02  0.39646016622E+03  0.12699999809E+01 0. -1.
       -4    1    3    3    0  502 -0.36495888979E+03  0.11828302333E+03 -0.36226727524E+03  0.52765998186E+03  0.12699999809E+01 0.  1.
</event>
<event>
 5   0  0.6672462E-04  0.8003400E+03  0.7818609E-02  0.9559525E-01
       -2   -1    0    0    0  501  0.00000000000E+00  0.00000000000E+00  0.28272558860E+03  0.28272558861E+03  0.25500000920E-02 0. -1.
        2   -1    0    0  501    0  0.00000000000E+00  0.00000000000E+00 -0.56640083701E+03  0.56640083702E+03  0.25500000920E-02 0.  1.
    10030    2    1    2    0    0  0.00000000000E+00  0.00000000000E+00 -0.28367524841E+03  0.84912642563E+03  0.80033995286E+03 0.  0.
        5    1    3    3  502    0  0.22052295278E+02  0.29395741987E+03 -0.42891752745E+03  0.52047055996E+03  0.46999998093E+01 0.  1.
       -5    1    3    3    0  502 -0.22052295278E+02 -0.29395741987E+03  0.14524227904E+03  0.32865586568E+03  0.46999998093E+01 0. -1.
</event>
<event>
 5   0  0.6672462E-04  0.7995071E+03  0.7818609E-02  0.9560731E-01
        2   -1    0    0  501    0  0.00000000000E+00  0.00000000000E+00  0.11012457531E+04  0.11012457531E+04  0.25500000920E-02 0. -1.
       -2   -1    0    0    0  501  0.00000000000E+00  0.00000000000E+00 -0.14511103715E+03  0.14511103718E+03  0.25500000920E-02 0.  1.
    10030    2    1    2    0    0  0.00000000000E+00  0.00000000000E+00  0.95613471591E+03  0.12463567902E+04  0.79950713168E+03 0.  0.
        5    1    3    3  502    0  0.13079355309E+02 -0.30681377606E+03  0.79172905146E+02  0.31716904266E+03  0.46999998093E+01 0.  1.
       -5    1    3    3    0  502 -0.13079355309E+02  0.30681377606E+03  0.87696181076E+03  0.92918774758E+03  0.46999998093E+01 0. -1.
</event>
<event>
 5   0  0.4104786E-04  0.7994232E+03  0.7818609E-02  0.9560852E-01
       -1   -1    0    0    0  501  0.00000000000E+00  0.00000000000E+00  0.45079209549E+03  0.45079209552E+03  0.50400001928E-02 0.  1.
        1   -1    0    0  501    0  0.00000000000E+00  0.00000000000E+00 -0.35441913311E+03  0.35441913315E+03  0.50400001928E-02 0. -1.
    10030    2    1    2    0    0  0.00000000000E+00  0.00000000000E+00  0.96372962375E+02  0.80521122867E+03  0.79942315134E+03 0.  0.
        2    1    3    3  502    0 -0.33417069529E+03  0.71762154417E+02  0.25692955439E+03  0.42758935478E+03  0.25500000920E-02 0.  1.
       -2    1    3    3    0  502  0.33417069529E+03 -0.71762154417E+02 -0.16055659201E+03  0.37762187389E+03  0.25500000920E-02 0. -1.
</event>
<event>
 5   0  0.4169155E-04  0.8016767E+03  0.7818609E-02  0.9557593E-01
        1   -1    0    0  501    0  0.00000000000E+00  0.00000000000E+00  0.27379217748E+03  0.27379217752E+03  0.50400001928E-02 0.  1.
       -1   -1    0    0    0  501  0.00000000000E+00  0.00000000000E+00 -0.58683698717E+03  0.58683698720E+03  0.50400001928E-02 0. -1.
    10030    2    1    2    0    0  0.00000000000E+00  0.00000000000E+00 -0.31304480970E+03  0.86062916472E+03  0.80167668439E+03 0.  0.
        4    1    3    3  502    0  0.24301712511E+03 -0.38846078177E+01  0.18566025454E+03  0.30584923784E+03  0.12699999809E+01 0.  1.
       -4    1    3    3    0  502 -0.24301712511E+03  0.38846078177E+01 -0.49870506423E+03  0.55477992688E+03  0.12699999809E+01 0. -1.
</event>
<event>
 5   0  0.6970013E-04  0.7978063E+03  0.7818609E-02  0.9563198E-01
        2   -1    0    0  501    0  0.00000000000E+00  0.00000000000E+00  0.32853287529E+03  0.32853287530E+03  0.25500000920E-02 0. -1.
       -2   -1    0    0    0  501  0.00000000000E+00  0.00000000000E+00 -0.48434642132E+03  0.48434642133E+03  0.25500000920E-02 0.  1.
    10030    2    1    2    0    0  0.00000000000E+00  0.00000000000E+00 -0.15581354602E+03  0.81287929663E+03  0.79780629840E+03 0.  0.
        3    1    3    3  502    0  0.30107418231E+03  0.34846034834E+02  0.18634585221E+03  0.35578743125E+03  0.10100000352E+00 0. -1.
       -3    1    3    3    0  502 -0.30107418231E+03 -0.34846034834E+02 -0.34215939823E+03  0.45709186538E+03  0.10100000352E+00 0.  1.
</event>
<event>
 5   0  0.6593118E-04  0.8000843E+03  0.7818609E-02  0.9559895E-01
        2   -1    0    0  501    0  0.00000000000E+00  0.00000000000E+00  0.51110289372E+03  0.51110289372E+03  0.25500000920E-02 0. -1.
       -2   -1    0    0    0  501  0.00000000000E+00  0.00000000000E+00 -0.31311448392E+03  0.31311448393E+03  0.25500000920E-02 0.  1.
    10030    2    1    2    0    0  0.00000000000E+00  0.00000000000E+00  0.19798840980E+03  0.82421737765E+03  0.80008429256E+03 0.  0.
        1    1    3    3  502    0 -0.39182770193E+03  0.63210993660E+02  0.47391964121E+02  0.39971311713E+03  0.50400001928E-02 0.  1.
       -1    1    3    3    0  502  0.39182770193E+03 -0.63210993660E+02  0.15059644568E+03  0.42450426052E+03  0.50400001928E-02 0. -1.
</event>
<event>
 5   0  0.2736375E-04  0.8002144E+03  0.7818609E-02  0.9559707E-01
        3   -1    0    0  501    0  0.00000000000E+00  0.00000000000E+00  0.55203784316E+03  0.55203785240E+03  0.10100000352E+00 0.  1.
       -3   -1    0    0    0  501  0.00000000000E+00  0.00000000000E+00 -0.28999054029E+03  0.28999055788E+03  0.10100000352E+00 0. -1.
    10030    2    1    2    0    0  0.00000000000E+00  0.00000000000E+00  0.26204730287E+03  0.84202841029E+03  0.80021438052E+03 0.  0.
        2    1    3    3  502    0 -0.84927566031E+02 -0.32043520297E+03 -0.10472424332E+03  0.34764720324E+03  0.25500000920E-02 0. -1.
       -2    1    3    3    0  502  0.84927566031E+02  0.32043520297E+03  0.36677154620E+03  0.49438120705E+03  0.25500000920E-02 0.  1.
</event>
<event>
 5   0  0.6672462E-04  0.8014761E+03  0.7818609E-02  0.9557883E-01
        2   -1    0    0  501    0  0.00000000000E+00  0.00000000000E+00  0.97087102078E+03  0.97087102079E+03  0.25500000920E-02 0. -1.
       -2   -1    0    0    0  501  0.00000000000E+00  0.00000000000E+00 -0.16540919661E+03  0.16540919663E+03  0.25500000920E-02 0.  1.
    10030    2    1    2    0    0  0.00000000000E+00  0.00000000000E+00  0.80546182417E+03  0.11362802174E+04  0.80147612708E+03 0.  0.
        5    1    3    3  502    0  0.17962038336E+02  0.11020983227E+03  0.94832854485E+03  0.95489159642E+03  0.46999998093E+01 0. -1.
       -5    1    3    3    0  502 -0.17962038336E+02 -0.11020983227E+03 -0.14286672067E+03  0.18138862099E+03  0.46999998093E+01 0.  1.
</event>
<event>
 5   0  0.4086111E-04  0.8010614E+03  0.7818609E-02  0.9558482E-01
        1   -1    0    0  501    0  0.00000000000E+00  0.00000000000E+00  0.39634868145E+03  0.39634868148E+03  0.50400001928E-02 0.  1.
       -1   -1    0    0    0  501  0.00000000000E+00  0.00000000000E+00 -0.40475685768E+03  0.40475685771E+03  0.50400001928E-02 0. -1.
    10030    2    1    2    0    0  0.00000000000E+00  0.00000000000E+00 -0.84081762345E+01  0.80110553919E+03  0.80106141306E+03 0.  0.
        3    1    3    3  502    0 -0.14658554565E+03  0.63241077127E+02  0.36315533679E+03  0.39669706940E+03  0.10100000352E+00 0.  1.
       -3    1    3    3    0  502  0.14658554565E+03 -0.63241077127E+02 -0.37156351302E+03  0.40440846979E+03  0.10100000352E+00 0. -1.
</event>
<event>
 5   0  0.2736375E-04  0.7998889E+03  0.7818609E-02  0.9560178E-01
       -3   -1    0    0    0  501  0.00000000000E+00  0.00000000000E+00  0.82060942879E+03  0.82060943500E+03  0.10100000352E+00 0.  1.
        3   -1    0    0  501    0  0.00000000000E+00  0.00000000000E+00 -0.19492285546E+03  0.19492288162E+03  0.10100000352E+00 0. -1.
    10030    2    1    2    0    0  0.00000000000E+00  0.00000000000E+00  0.62568657333E+03  0.10155323166E+04  0.79988886607E+03 0.  0.
        4    1    3    3  502    0  0.23845934286E+03 -0.11991206564E+03  0.69098597719E+03  0.74074624215E+03  0.12699999809E+01 0.  1.
       -4    1    3    3    0  502 -0.23845934286E+03  0.11991206564E+03 -0.65299403858E+02  0.27478607448E+03  0.12699999809E+01 0. -1.
</event>
<event>
 5   0  0.7133039E-04  0.7986377E+03  0.7818609E-02  0.9561991E-01
       -2   -1    0    0    0  501  0.00000000000E+00  0.00000000000E+00  0.50645085104E+03  0.50645085105E+03  0.25500000920E-02 0.  1.
        2   -1    0    0  501    0  0.00000000000E+00  0.00000000000E+00 -0.31484900285E+03  0.31484900286E+03  0.25500000920E-02 0. -1.
    10030    2    1    2    0    0  0.00000000000E+00  0.00000000000E+00  0.19160184819E+03  0.82129985391E+03  0.79863770372E+03 0.  0.
        2    1    3    3  502    0  0.97446966801E+02  0.35179002118E+03  0.26226897115E+03  0.44948542087E+03  0.25500000920E-02 0.  1.
       -2    1    3    3    0  502 -0.97446966801E+02 -0.35179002118E+03 -0.70667122963E+02  0.37181443304E+03  0.25500000920E-02 0. -1.
</event>
<event>
 5   0  0.4087283E-04  0.7998989E+03  0.7818609E-02  0.9560163E-01
       -1   -1    0    0    0  501  0.00000000000E+00  0.00000000000E+00  0.26990817892E+03  0.26990817897E+03  0.50400001928E-02 0.  1.
        1   -1    0    0  501    0  0.00000000000E+00  0.00000000000E+00 -0.59264443045E+03  0.59264443048E+03  0.50400001928E-02 0. -1.
    10030    2    1    2    0    0  0.00000000000E+00  0.00000000000E+00 -0.32273625153E+03  0.86255260945E+03  0.79989894112E+03 0.  0.
        1    1    3    3  502    0 -0.18397377316E+03 -0.80099001112E+02 -0.53444024427E+03  0.57086651146E+03  0.50400001928E-02 0. -1.
       -1    1    3    3    0  502  0.18397377316E+03  0.80099001112E+02  0.21170399274E+03  0.29168609798E+03  0.50400001928E-02 0.  1.
</event>
<event>
 5   0  0.6970013E-04  0.8000415E+03  0.7818609E-02  0.9559957E-01
       -2   -1    0    0    0  501  0.00000000000E+00  0.00000000000E+00  0.54726304659E+03  0.54726304659E+03  0.25500000920E-02 0.  1.
        2   -1    0    0  501    0  0.00000000000E+00  0.00000000000E+00 -0.29239428686E+03  0.29239428687E+03  0.25500000920E-02 0. -1.
    10030    2    1    2    0    0  0.00000000000E+00  0.00000000000E+00  0.25486875973E+03  0.83965733346E+03  0.80004146952E+03 0.  0.
        3    1    3    3  502    0 -0.14411106323E+03 -0.35896708225E+03  0.23441933710E+03  0.45230277525E+03  0.10100000352E+00 0.  1.
       -3    1    3    3    0  502  0.14411106323E+03  0.35896708225E+03  0.20449422625E+02  0.38735455822E+03  0.10100000352E+00 0. -1.
</event>
<event>
 5   0  0.7133039E-04  0.7996262E+03  0.7818609E-02  0.9560558E-01
        2   -1    0    0  501    0  0.00000000000E+00  0.00000000000E+00  0.32675154711E+03  0.32675154712E+03  0.25500000920E-02 0. -1.
       -2   -1    0    0    0  501  0.00000000000E+00  0.00000000000E+00 -0.48921123722E+03  0.48921123723E+03  0.25500000920E-02 0.  1.
    10030    2    1    2    0    0  0.00000000000E+00  0.00000000000E+00 -0.16245969011E+03  0.81596278435E+03  0.79962623427E+03 0.  0.
        2    1    3    3  502    0 -0.56266198982E+02  0.35139027070E+03  0.10472805097E+03  0.37095683328E+03  0.25500000920E-02 0. -1.
       -2    1    3    3    0  502  0.56266198982E+02 -0.35139027070E+03 -0.26718774108E+03  0.44500595106E+03  0.25500000920E-02 0.  1.
</event>
<event>
 5   0  0.4087283E-04  0.7999670E+03  0.7818609E-02  0.9560065E-01
        1   -1    0    0  501    0  0.00000000000E+00  0.00000000000E+00  0.47534168547E+03  0.47534168550E+03  0.50400001928E-02 0. -1.
       -1   -1    0    0    0  501  0.00000000000E+00  0.00000000000E+00 -0.33657222954E+03  0.33657222958E+03  0.50400001928E-02 0.  1.
    10030    2    1    2    0    0  0.00000000000E+00  0.00000000000E+00  0.13876945593E+03  0.81191391508E+03  0.79996702657E+03 0.  0.
        1    1    3    3  502    0  0.34347107578E+03 -0.19225242477E+03 -0.27644337515E+01  0.39362547789E+03  0.50400001928E-02 0.  1.
       -1    1    3    3    0  502 -0.34347107578E+03  0.19225242477E+03  0.14153388968E+03  0.41828843718E+03  0.50400001928E-02 0. -1.
</event>
<event>
 5   0  0.6672462E-04  0.8007895E+03  0.7818609E-02  0.9558875E-01
       -2   -1    0    0    0  501  0.00000000000E+00  0.00000000000E+00  0.30471513629E+03  0.30471513630E+03  0.25500000920E-02 0. -1.
        2   -1    0    0  501    0  0.00000000000E+00  0.00000000000E+00 -0.52611751101E+03  0.52611751102E+03  0.25500000920E-02 0.  1.
    10030    2    1    2    0    0  0.00000000000E+00  0.00000000000E+00 -0.22140237473E+03  0.83083264731E+03  0.80078953309E+03 0.  0.
        5    1    3    3  502    0 -0.28174225724E+02 -0.39864625128E+03 -0.13571499439E+03  0.42208206590E+03  0.46999998093E+01 0.  1.
       -5    1    3    3    0  502  0.28174225724E+02  0.39864625128E+03 -0.85687380340E+02  0.40875058141E+03  0.46999998093E+01 0. -1.
</event>
<event>
 5   0  0.7133039E-04  0.7997549E+03  0.7818609E-02  0.9560372E-01
       -2   -1    0    0    0  501  0.00000000000E+00  0.00000000000E+00  0.25493130891E+03  0.25493130892E+03  0.25500000920E-02 0.  1.
        2   -1    0    0  501    0  0.00000000000E+00  0.00000000000E+00 -0.62723550385E+03  0.62723550386E+03  0.25500000920E-02 0. -1.
    10030    2    1    2    0    0  0.00000000000E+00  0.00000000000E+00 -0.37230419494E+03  0.88216681278E+03  0.79975488245E+03 0.  0.
        2    1    3    3  502    0  0.19773920810E+02 -0.39317284116E+03 -0.26357053721E+03  0.47375660319E+03  0.25500000920E-02 0. -1.
       -2    1    3    3    0  502 -0.19773920810E+02  0.39317284116E+03 -0.10873365773E+03  0.40841020959E+03  0.25500000920E-02 0.  1.
</event>
<event>
 5   0  0.6672462E-04  0.7991377E+03  0.7818609E-02  0.9561266E-01
       -2   -1    0    0    0  501  0.00000000000E+00  0.00000000000E+00  0.46383495271E+03  0.46383495272E+03  0.25500000920E-02 0.  1.
        2   -1    0    0  501    0  0.00000000000E+00  0.00000000000E+00 -0.34420708325E+03  0.34420708326E+03  0.25500000920E-02 0. -1.
    10030    2    1    2    0    0  0.00000000000E+00  0.00000000000E+00  0.11962786946E+03  0.80804203598E+03  0.79913772577E+03 0.  0.
        5    1    3    3  502    0  0.31284612769E+03  0.11319070749E+03  0.28352185001E+03  0.43714021241E+03  0.46999998093E+01 0.  1.
       -5    1    3    3    0  502 -0.31284612769E+03 -0.11319070749E+03 -0.16389398055E+03  0.37090182357E+03  0.46999998093E+01 0. -1.
</event>
<event>
 5   0  0.4169155E-04  0.8000491E+03  0.7818609E-02  0.9559946E-01
       -1   -1    0    0    0  501  0.00000000000E+00  0.00000000000E+00  0.68294066225E+03  0.68294066227E+03  0.50400001928E-02 0. -1.
        1   -1    0    0  501    0  0.00000000000E+00  0.00000000000E+00 -0.23430969858E+03  0.23430969863E+03  0.50400001928E-02 0.  1.
    10030    2    1    2    0    0  0.00000000000E+00  0.00000000000E+00  0.44863096367E+03  0.91725036091E+03  0.80004905038E+03 0.  0.
        4    1    3    3  502    0  0.22058151775E+02  0.38122305219E+03  0.36093791924E+03  0.52544778240E+03  0.12699999809E+01 0. -1.
       -4    1    3    3    0  502 -0.22058151775E+02 -0.38122305219E+03  0.87693044434E+02  0.39180257851E+03  0.12699999809E+01 0.  1.
</event>
<event>
 5   0  0.6801147E-04  0.7998807E+03  0.7818609E-02  0.9560190E-01
       -2   -1    0    0    0  501  0.00000000000E+00  0.00000000000E+00  0.10911905550E+03  0.10911905553E+03  0.25500000920E-02 0.  1.
        2   -1    0    0  501    0  0.00000000000E+00  0.00000000000E+00 -0.14658511334E+04  0.14658511334E+04  0.25500000920E-02 0. -1.
    10030    2    1    2    0    0  0.00000000000E+00  0.00000000000E+00 -0.13567320779E+04  0.15749701889E+04  0.79988071910E+03 0.  0.
        4    1    3    3  502    0  0.27154461780E+03  0.16656979674E+03 -0.20225436025E+03  0.37734654600E+03  0.12699999809E+01 0.  1.
       -4    1    3    3    0  502 -0.27154461780E+03 -0.16656979674E+03 -0.11544777176E+04  0.11976236429E+04  0.12699999809E+01 0. -1.
</event>
<event>
 5   0  0.6970013E-04  0.8002093E+03  0.7818609E-02  0.9559714E-01
       -2   -1    0    0    0  501  0.00000000000E+00  0.00000000000E+00  0.92402843432E+02  0.92402843467E+02  0.25500000920E-02 0. -1.
        2   -1    0    0  501    0  0.00000000000E+00  0.00000000000E+00 -0.17324543890E+04  0.17324543890E+04  0.25500000920E-02 0.  1.
    10030    2    1    2    0    0  0.00000000000E+00  0.00000000000E+00 -0.16400515455E+04  0.18248572324E+04  0.80020925186E+03 0.  0.
        3    1    3    3  502    0  0.17260060368E+03  0.36045341861E+03 -0.86365776957E+03  0.95164194344E+03  0.10100000352E+00 0.  1.
       -3    1    3    3    0  502 -0.17260060368E+03 -0.36045341861E+03 -0.77639377596E+03  0.87321528899E+03  0.10100000352E+00 0. -1.
</event>
<event>
 5   0  0.6672462E-04  0.8006787E+03  0.7818609E-02  0.9559035E-01
       -2   -1    0    0    0  501  0.00000000000E+00  0.00000000000E+00  0.96298462175E+02  0.96298462208E+02  0.25500000920E-02 0. -1.
        2   -1    0    0  501    0  0.00000000000E+00  0.00000000000E+00 -0.16643216169E+04  0.16643216169E+04  0.25500000920E-02 0.  1.
    10030    2    1    2    0    0  0.00000000000E+00  0.00000000000E+00 -0.15680231548E+04  0.17606200791E+04  0.80067874283E+03 0.  0.
        5    1    3    3  502    0 -0.90967894643E+02  0.11576922954E+03 -0.16025609111E+04  0.16093170092E+04  0.46999998093E+01 0.  1.
       -5    1    3    3    0  502  0.90967894643E+02 -0.11576922954E+03  0.34537756323E+02  0.15130306995E+03  0.46999998093E+01 0. -1.
</event>
<event>
 5   0  0.6970013E-04  0.8001743E+03  0.7818609E-02  0.9559765E-01
       -2   -1    0    0    0  501  0.00000000000E+00  0.00000000000E+00  0.18234643829E+03  0.18234643830E+03  0.25500000920E-02 0.  1.
        2   -1    0    0  501    0  0.00000000000E+00  0.00000000000E+00 -0.87783308334E+03  0.87783308334E+03  0.25500000920E-02 0. -1.
    10030    2    1    2    0    0  0.00000000000E+00  0.00000000000E+00 -0.69548664505E+03  0.10601795216E+04  0.80017432143E+03 0.  0.
        3    1    3    3  502    0  0.19561741855E+03 -0.69755041407E+02 -0.80082054967E+03  0.82731221629E+03  0.10100000352E+00 0. -1.
       -3    1    3    3    0  502 -0.19561741855E+03  0.69755041407E+02  0.10533390462E+03  0.23286730536E+03  0.10100000352E+00 0.  1.
</event>
<event>
 5   0  0.4086111E-04  0.8002793E+03  0.7818609E-02  0.9559613E-01
       -1   -1    0    0    0  501  0.00000000000E+00  0.00000000000E+00  0.42372666667E+03  0.42372666670E+03  0.50400001928E-02 0. -1.
        1   -1    0    0  501    0  0.00000000000E+00  0.00000000000E+00 -0.37786560941E+03  0.37786560944E+03  0.50400001928E-02 0.  1.
    10030    2    1    2    0    0  0.00000000000E+00  0.00000000000E+00  0.45861057261E+02  0.80159227615E+03  0.80027928913E+03 0.  0.
        3    1    3    3  502    0  0.60089541735E+01 -0.39659420782E+03  0.75824854569E+02  0.40382235200E+03  0.10100000352E+00 0.  1.
       -3    1    3    3    0  502 -0.60089541735E+01  0.39659420782E+03 -0.29963797307E+02  0.39776992415E+03  0.10100000352E+00 0. -1.
</event>
<event>
 5   0  0.4086111E-04  0.7998748E+03  0.7818609E-02  0.9560198E-01
        1   -1    0    0  501    0  0.00000000000E+00  0.00000000000E+00  0.51314760167E+03  0.51314760170E+03  0.50400001928E-02 0.  1.
       -1   -1    0    0    0  501  0.00000000000E+00  0.00000000000E+00 -0.31170352067E+03  0.31170352071E+03  0.50400001928E-02 0. -1.
    10030    2    1    2    0    0  0.00000000000E+00  0.00000000000E+00  0.20144408101E+03  0.82485112241E+03  0.79987477543E+03 0.  0.
        3    1    3    3  502    0 -0.76277048732E+01  0.38825172204E+02 -0.30968015140E+03  0.31219766535E+03  0.10100000352E+00 0. -1.
       -3    1    3    3    0  502  0.76277048732E+01 -0.38825172204E+02  0.51112423241E+03  0.51265345706E+03  0.10100000352E+00 0.  1.
</event>
<event>
 5   0  0.6801147E-04  0.7995829E+03  0.7818609E-02  0.9560621E-01
       -2   -1    0    0    0  501  0.00000000000E+00  0.00000000000E+00  0.12998350365E+03  0.12998350367E+03  0.25500000920E-02 0.  1.
        2   -1    0    0  501    0  0.00000000000E+00  0.00000000000E+00 -0.12296420858E+04  0.12296420858E+04  0.25500000920E-02 0. -1.
    10030    2    1    2    0    0  0.00000000000E+00  0.00000000000E+00 -0.10996585822E+04  0.13596255895E+04  0.79958285767E+03 0.  0.
        4    1    3    3  502    0  0.93222392059E+02 -0.16433306585E+03 -0.11489362770E+04  0.11643676191E+04  0.12699999809E+01 0. -1.
       -4    1    3    3    0  502 -0.93222392059E+02  0.16433306585E+03  0.49277694789E+02  0.19525797043E+03  0.12699999809E+01 0.  1.
</event>
<event>
 5   0  0.4392552E-04  0.7997837E+03  0.7818609E-02  0.9560330E-01
       -1   -1    0    0    0  501  0.00000000000E+00  0.00000000000E+00  0.47380864730E+03  0.47380864733E+03  0.50400001928E-02 0.  1.
        1   -1    0    0  501    0  0.00000000000E+00  0.00000000000E+00 -0.33750647788E+03  0.33750647791E+03  0.50400001928E-02 0. -1.
    10030    2    1    2    0    0  0.00000000000E+00  0.00000000000E+00  0.13630216942E+03  0.81131512524E+03  0.79978369017E+03 0.  0.
        5    1    3    3  502    0 -0.33494748760E+03 -0.77986883997E+02  0.27510140677E+03  0.44042553006E+03  0.46999998093E+01 0.  1.
       -5    1    3    3    0  502  0.33494748760E+03  0.77986883997E+02 -0.13879923734E+03  0.37088959518E+03  0.46999998093E+01 0. -1.
</event>
<event>
 5   0  0.4392552E-04  0.8002112E+03  0.7818609E-02  0.9559711E-01
        1   -1    0    0  501    0  0.00000000000E+00  0.00000000000E+00  0.74447311587E+03  0.74447311589E+03  0.50400001928E-02 0. -1.
       -1   -1    0    0    0  501  0.00000000000E+00  0.00000000000E+00 -0.21503059171E+03  0.21503059177E+03  0.50400001928E-02 0.  1.
    10030    2    1    2    0    0  0.00000000000E+00  0.00000000000E+00  0.52944252416E+03  0.95950370765E+03  0.80021120875E+03 0.  0.
        5    1    3    3  502    0  0.15652372233E+03 -0.14077687872E+03 -0.14321507784E+03  0.25465752248E+03  0.46999998093E+01 0.  1.
       -5    1    3    3    0  502 -0.15652372233E+03  0.14077687872E+03  0.67265760200E+03  0.70484618518E+03  0.46999998093E+01 0. -1.
</event>
<event>
 5   0  0.4086111E-04  0.8000087E+03  0.7818609E-02  0.9560005E-01
       -1   -1    0    0    0  501  0.00000000000E+00  0.00000000000E+00  0.54839033264E+03  0.54839033266E+03  0.50400001928E-02 0. -1.
        1   -1    0    0  501    0  0.00000000000E+00  0.00000000000E+00 -0.29176932684E+03  0.29176932688E+03  0.50400001928E-02 0.  1.
    10030    2    1    2    0    0  0.00000000000E+00  0.00000000000E+00  0.25662100580E+03  0.84015965955E+03  0.80000869552E+03 0.  0.
        3    1    3    3  502    0  0.20992785711E+03 -0.27587234028E+03 -0.81275626519E+02  0.35606318398E+03  0.10100000352E+00 0.  1.
       -3    1    3    3    0  502 -0.20992785711E+03  0.27587234028E+03  0.33789663232E+03  0.48409647556E+03  0.10100000352E+00 0. -1.
</event>
<event>
 5   0  0.4392552E-04  0.7999835E+03  0.7818609E-02  0.9560041E-01
       -1   -1    0    0    0  501  0.00000000000E+00  0.00000000000E+00  0.16784836908E+03  0.16784836915E+03  0.50400001928E-02 0.  1.
        1   -1    0    0  501    0  0.00000000000E+00  0.00000000000E+00 -0.95320197700E+03  0.95320197702E+03  0.50400001928E-02 0. -1.
    10030    2    1    2    0    0  0.00000000000E+00  0.00000000000E+00 -0.78535360793E+03  0.11210503462E+04  0.79998349305E+03 0.  0.
        5    1    3    3  502    0  0.32691313325E+03  0.20322946091E+03 -0.54488147531E+03  0.66715239834E+03  0.46999998093E+01 0. -1.
       -5    1    3    3    0  502 -0.32691313325E+03 -0.20322946091E+03 -0.24047213262E+03  0.45389794783E+03  0.46999998093E+01 0.  1.
</event>
<event>
 5   0  0.4087283E-04  0.7999899E+03  0.7818609E-02  0.9560032E-01
       -1   -1    0    0    0  501  0.00000000000E+00  0.00000000000E+00  0.33014829789E+03  0.33014829792E+03  0.50400001928E-02 0. -1.
        1   -1    0    0  501    0  0.00000000000E+00  0.00000000000E+00 -0.48461840347E+03  0.48461840349E+03  0.50400001928E-02 0.  1.
    10030    2    1    2    0    0  0.00000000000E+00  0.00000000000E+00 -0.15447010558E+03  0.81476670142E+03  0.79998985257E+03 0.  0.
        1    1    3    3  502    0  0.78958392553E+02  0.34428685260E+03  0.11392329057E+03  0.37114199545E+03  0.50400001928E-02 0. -1.
       -1    1    3    3    0  502 -0.78958392553E+02 -0.34428685260E+03 -0.26839339615E+03  0.44362470597E+03  0.50400001928E-02 0.  1.
</event>
<event>
 5   0  0.6593118E-04  0.7995204E+03  0.7818609E-02  0.9560712E-01
        2   -1    0    0  501    0  0.00000000000E+00  0.00000000000E+00  0.16068190474E+04  0.16068190474E+04  0.25500000920E-02 0. -1.
       -2   -1    0    0    0  501  0.00000000000E+00  0.00000000000E+00 -0.99456269182E+02  0.99456269214E+02  0.25500000920E-02 0.  1.
    10030    2    1    2    0    0  0.00000000000E+00  0.00000000000E+00  0.15073627782E+04  0.17062753166E+04  0.79952042558E+03 0.  0.
        1    1    3    3  502    0  0.37153461304E+03 -0.14686413857E+03  0.72341113479E+03  0.82639622086E+03  0.50400001928E-02 0. -1.
       -1    1    3    3    0  502 -0.37153461304E+03  0.14686413857E+03  0.78395164339E+03  0.87987909572E+03  0.50400001928E-02 0.  1.
</event>
<event>
 5   0  0.4104786E-04  0.8000083E+03  0.7818609E-02  0.9560005E-01
       -1   -1    0    0    0  501  0.00000000000E+00  0.00000000000E+00  0.23134867321E+03  0.23134867327E+03  0.50400001928E-02 0. -1.
        1   -1    0    0  501    0  0.00000000000E+00  0.00000000000E+00 -0.69161107136E+03  0.69161107138E+03  0.50400001928E-02 0.  1.
    10030    2    1    2    0    0  0.00000000000E+00  0.00000000000E+00 -0.46026239815E+03  0.92295974465E+03  0.80000825939E+03 0.  0.
        2    1    3    3  502    0 -0.17107254385E+03  0.80493691214E+02  0.17654701951E+03  0.25867721138E+03  0.25500000920E-02 0. -1.
       -2    1    3    3    0  502  0.17107254385E+03 -0.80493691214E+02 -0.63680941766E+03  0.66428253327E+03  0.25500000920E-02 0.  1.
</event>
<event>
 5   0  0.4086111E-04  0.7999575E+03  0.7818609E-02  0.9560079E-01
       -1   -1    0    0    0  501  0.00000000000E+00  0.00000000000E+00  0.40157792911E+03  0.40157792914E+03  0.50400001928E-02 0. -1.
        1   -1    0    0  501    0  0.00000000000E+00  0.00000000000E+00 -0.39838593464E+03  0.39838593467E+03  0.50400001928E-02 0.  1.
    10030    2    1    2    0    0  0.00000000000E+00  0.00000000000E+00  0.31919944668E+01  0.79996386381E+03  0.79995749548E+03 0.  0.
        3    1    3    3  502    0  0.29491891748E+03  0.22902566492E+03  0.14496054168E+03  0.40055398128E+03  0.10100000352E+00 0. -1.
       -3    1    3    3    0  502 -0.29491891748E+03 -0.22902566492E+03 -0.14176854721E+03  0.39940988252E+03  0.10100000352E+00 0.  1.
</event>
<event>
 5   0  0.4104786E-04  0.8003285E+03  0.7818609E-02  0.9559542E-01
       -1   -1    0    0    0  501  0.00000000000E+00  0.00000000000E+00  0.28226521584E+03  0.28226521588E+03  0.50400001928E-02 0.  1.
        1   -1    0    0  501    0  0.00000000000E+00  0.00000000000E+00 -0.56730841707E+03  0.56730841709E+03  0.50400001928E-02 0. -1.
    10030    2    1    2    0    0  0.00000000000E+00  0.00000000000E+00 -0.28504320123E+03  0.84957363297E+03  0.80032851459E+03 0.  0.
        2    1    3    3  502    0 -0.34372923457E+03  0.15757749575E+03 -0.35016301877E+01  0.37814377594E+03  0.25500000920E-02 0. -1.
       -2    1    3    3    0  502  0.34372923457E+03 -0.15757749575E+03 -0.28154157105E+03  0.47142985703E+03  0.25500000920E-02 0.  1.
</event>
<event>
 5   0  0.4086111E-04  0.7996801E+03  0.7818609E-02  0.9560480E-01
       -1   -1    0    0    0  501  0.00000000000E+00  0.00000000000E+00  0.26232927201E+03  0.26232927205E+03  0.50400001928E-02 0. -1.
        1   -1    0    0  501    0  0.00000000000E+00  0.00000000000E+00 -0.60943284315E+03  0.60943284317E+03  0.50400001928E-02 0.  1.
    10030    2    1    2    0    0  0.00000000000E+00  0.00000000000E+00 -0.34710357115E+03  0.87176211523E+03  0.79968012133E+03 0.  0.
        3    1    3    3  502    0 -0.42933028167E+02 -0.19524956092E+03  0.20393601771E+03  0.28557931555E+03  0.10100000352E+00 0. -1.
       -3    1    3    3    0  502  0.42933028167E+02  0.19524956092E+03 -0.55103958886E+03  0.58618279968E+03  0.10100000352E+00 0.  1.
</event>
<event>
 5   0  0.6672462E-04  0.7999795E+03  0.7818609E-02  0.9560047E-01
       -2   -1    0    0    0  501  0.00000000000E+00  0.00000000000E+00  0.54854136499E+03  0.54854136500E+03  0.25500000920E-02 0. -1.
        2   -1    0    0  501    0  0.00000000000E+00  0.00000000000E+00 -0.29166773416E+03  0.29166773417E+03  0.25500000920E-02 0.  1.
    10030    2    1    2    0    0  0.00000000000E+00  0.00000000000E+00  0.25687363083E+03  0.84020909917E+03  0.79997954230E+03 0.  0.
        5    1    3    3  502    0 -0.55899815820E+02  0.34905908503E+03  0.32493531001E+03  0.48017921648E+03  0.46999998093E+01 0. -1.
       -5    1    3    3    0  502  0.55899815820E+02 -0.34905908503E+03 -0.68061679183E+02  0.36002988268E+03  0.46999998093E+01 0.  1.
</event>
<event>
 5   0  0.6593118E-04  0.8020511E+03  0.7818609E-02  0.9557053E-01
       -2   -1    0    0    0  501  0.00000000000E+00  0.00000000000E+00  0.43362630804E+03  0.43362630805E+03  0.25500000920E-02 0. -1.
        2   -1    0    0  501    0  0.00000000000E+00  0.00000000000E+00 -0.37087576967E+03  0.37087576968E+03  0.25500000920E-02 0.  1.
    10030    2    1    2    0    0  0.00000000000E+00  0.00000000000E+00  0.62750538373E+02  0.80450207772E+03  0.80205109750E+03 0.  0.
        1    1    3    3  502    0 -0.29583399935E+03  0.14075148759E+03 -0.20061651907E+03  0.38415585923E+03  0.50400001928E-02 0.  1.
       -1    1    3    3    0  502  0.29583399935E+03 -0.14075148759E+03  0.26336705744E+03  0.42034621850E+03  0.50400001928E-02 0. -1.
</event>
<event>
 5   0  0.4087283E-04  0.7990407E+03  0.7818609E-02  0.9561407E-01
        1   -1    0    0  501    0  0.00000000000E+00  0.00000000000E+00  0.64039764219E+03  0.64039764221E+03  0.50400001928E-02 0. -1.
       -1   -1    0    0    0  501  0.00000000000E+00  0.00000000000E+00 -0.24924595991E+03  0.24924595997E+03  0.50400001928E-02 0.  1.
    10030    2    1    2    0    0  0.00000000000E+00  0.00000000000E+00  0.39115168228E+03  0.88964360218E+03  0.79904073760E+03 0.  0.
        1    1    3    3  502    0 -0.77002068176E+02 -0.13544747196E+02  0.63179690035E+03  0.63661613394E+03  0.50400001928E-02 0. -1.
       -1    1    3    3    0  502  0.77002068176E+02  0.13544747196E+02 -0.24064521807E+03  0.25302746824E+03  0.50400001928E-02 0.  1.
</event>
<event>
 5   0  0.7133039E-04  0.7999310E+03  0.7818609E-02  0.9560117E-01
       -2   -1    0    0    0  501  0.00000000000E+00  0.00000000000E+00  0.39953498109E+03  0.39953498110E+03  0.25500000920E-02 0. -1.
        2   -1    0    0  501    0  0.00000000000E+00  0.00000000000E+00 -0.40039650281E+03  0.40039650282E+03  0.25500000920E-02 0.  1.
    10030    2    1    2    0    0  0.00000000000E+00  0.00000000000E+00 -0.86152171785E+00  0.79993148392E+03  0.79993102000E+03 0.  0.
        2    1    3    3  502    0 -0.48290592205E+02 -0.16860382861E+03 -0.35989331349E+03  0.40035288111E+03  0.25500000920E-02 0.  1.
       -2    1    3    3    0  502  0.48290592205E+02  0.16860382861E+03  0.35903179177E+03  0.39957860281E+03  0.25500000920E-02 0. -1.
</event>
<event>
 5   0  0.6672462E-04  0.8000946E+03  0.7818609E-02  0.9559880E-01
        2   -1    0    0  501    0  0.00000000000E+00  0.00000000000E+00  0.91340870758E+03  0.91340870758E+03  0.25500000920E-02 0.  1.
       -2   -1    0    0    0  501  0.00000000000E+00  0.00000000000E+00 -0.17520943560E+03  0.17520943562E+03  0.25500000920E-02 0. -1.
    10030    2    1    2    0    0  0.00000000000E+00  0.00000000000E+00  0.73819927198E+03  0.10886181432E+04  0.80009455476E+03 0.  0.
        5    1    3    3  502    0  0.23735821619E+03  0.49532956638E+02 -0.63787314427E+02  0.25076552408E+03  0.46999998093E+01 0. -1.
       -5    1    3    3    0  502 -0.23735821619E+03 -0.49532956638E+02  0.80198658641E+03  0.83785261912E+03  0.46999998093E+01 0.  1.
</event>
<event>
 5   0  0.4104786E-04  0.8008220E+03  0.7818609E-02  0.9558828E-01
        1   -1    0    0  501    0  0.00000000000E+00  0.00000000000E+00  0.12754290324E+04  0.12754290324E+04  0.50400001928E-02 0.  1.
       -1   -1    0    0    0  501  0.00000000000E+00  0.00000000000E+00 -0.12570591860E+03  0.12570591870E+03  0.50400001928E-02 0. -1.
    10030    2    1    2    0    0  0.00000000000E+00  0.00000000000E+00  0.11497231138E+04  0.14011349511E+04  0.80082202318E+03 0.  0.
        2    1    3    3  502    0 -0.36983524214E+03 -0.85691735009E+02  0.35211757872E+03  0.51779143391E+03  0.25500000920E-02 0.  1.
       -2    1    3    3    0  502  0.36983524214E+03  0.85691735009E+02  0.79760553511E+03  0.88334351723E+03  0.25500000920E-02 0. -1.
</event>
<event>
 5   0  0.7133039E-04  0.7996793E+03  0.7818609E-02  0.9560481E-01
        2   -1    0    0  501    0  0.00000000000E+00  0.00000000000E+00  0.38386259766E+03  0.38386259767E+03  0.25500000920E-02 0.  1.
       -2   -1    0    0    0  501  0.00000000000E+00  0.00000000000E+00 -0.41648165401E+03  0.41648165402E+03  0.25500000920E-02 0. -1.
    10030    2    1    2    0    0  0.00000000000E+00  0.00000000000E+00 -0.32619056352E+02  0.80034425169E+03  0.79967925969E+03 0.  0.
        2    1    3    3  502    0 -0.27940154701E+03  0.10945998603E+03 -0.28077350326E+03  0.41095069430E+03  0.25500000920E-02 0. -1.
       -2    1    3    3    0  502  0.27940154701E+03 -0.10945998603E+03  0.24815444690E+03  0.38939355739E+03  0.25500000920E-02 0.  1.
</event>
<event>
 5   0  0.6970013E-04  0.8004624E+03  0.7818609E-02  0.9559348E-01
        2   -1    0    0  501    0  0.00000000000E+00  0.00000000000E+00  0.80808700234E+03  0.80808700235E+03  0.25500000920E-02 0.  1.
       -2   -1    0    0    0  501  0.00000000000E+00  0.00000000000E+00 -0.19822741321E+03  0.19822741323E+03  0.25500000920E-02 0. -1.
    10030    2    1    2    0    0  0.00000000000E+00  0.00000000000E+00  0.60985958913E+03  0.10063144156E+04  0.80046235673E+03 0.  0.
        3    1    3    3  502    0  0.70596131300E+02  0.12819979031E+03  0.77324072427E+03  0.78696901328E+03  0.10100000352E+00 0.  1.
       -3    1    3    3    0  502 -0.70596131300E+02 -0.12819979031E+03 -0.16338113514E+03  0.21934540230E+03  0.10100000352E+00 0. -1.
</event>
<event>
 5   0  0.4392552E-04  0.8001805E+03  0.7818609E-02  0.9559756E-01
        1   -1    0    0  501    0  0.00000000000E+00  0.00000000000E+00  0.38068350989E+03  0.38068350992E+03  0.50400001928E-02 0. -1.
       -1   -1    0    0    0  501  0.00000000000E+00  0.00000000000E+00 -0.42048633843E+03  0.42048633846E+03  0.50400001928E-02 0.  1.
    10030    2    1    2    0    0  0.00000000000E+00  0.00000000000E+00 -0.39802828546E+02  0.80116984838E+03  0.80018051763E+03 0.  0.
        5    1    3    3  502    0 -0.33179786359E+02 -0.28773937641E+03 -0.29620506800E+03  0.41431193473E+03  0.46999998093E+01 0.  1.
       -5    1    3    3    0  502  0.33179786359E+02  0.28773937641E+03  0.25640223945E+03  0.38685791365E+03  0.46999998093E+01 0. -1.
</event>
<event>
 5   0  0.4086111E-04  0.7995707E+03  0.7818609E-02  0.9560639E-01
        1   -1    0    0  501    0  0.00000000000E+00  0.00000000000E+00  0.10497409180E+04  0.10497409180E+04  0.50400001928E-02 0. -1.
       -1   -1    0    0    0  501  0.00000000000E+00  0.00000000000E+00 -0.15225503643E+03  0.15225503651E+03  0.50400001928E-02 0.  1.
    10030    2    1    2    0    0  0.00000000000E+00  0.00000000000E+00  0.89748588156E+03  0.12019959545E+04  0.79957073925E+03 0.  0.
        3    1    3    3  502    0 -0.15243004356E+03  0.93121874883E+02  0.98641599888E+03  0.10024585452E+04  0.10100000352E+00 0. -1.
       -3    1    3    3    0  502  0.15243004356E+03 -0.93121874883E+02 -0.88930117313E+02  0.19953740934E+03  0.10100000352E+00 0.  1.
</event>
<event>
 5   0  0.6593118E-04  0.7999836E+03  0.7818609E-02  0.9560041E-01
        2   -1    0    0  501    0  0.00000000000E+00  0.00000000000E+00  0.92293485776E+03  0.92293485777E+03  0.25500000920E-02 0. -1.
       -2   -1    0    0    0  501  0.00000000000E+00  0.00000000000E+00 -0.17335289800E+03  0.17335289802E+03  0.25500000920E-02 0.  1.
    10030    2    1    2    0    0  0.00000000000E+00  0.00000000000E+00  0.74958195977E+03  0.10962877558E+04  0.79998358050E+03 0.  0.
        1    1    3    3  502    0  0.30351672726E+03 -0.23796385425E+03  0.52010529542E+03  0.64750190579E+03  0.50400001928E-02 0. -1.
       -1    1    3    3    0  502 -0.30351672726E+03  0.23796385425E+03  0.22947666435E+03  0.44878585000E+03  0.50400001928E-02 0.  1.
</event>
<event>
 5   0  0.4169155E-04  0.7943745E+03  0.7818609E-02  0.9568196E-01
        1   -1    0    0  501    0  0.00000000000E+00  0.00000000000E+00  0.66085910721E+03  0.66085910723E+03  0.50400001928E-02 0. -1.
       -1   -1    0    0    0  501  0.00000000000E+00  0.00000000000E+00 -0.23871610884E+03  0.23871610890E+03  0.50400001928E-02 0.  1.
    10030    2    1    2    0    0  0.00000000000E+00  0.00000000000E+00  0.42214299837E+03  0.89957521613E+03  0.79437450765E+03 0.  0.
        4    1    3    3  502    0 -0.27165837415E+03 -0.25718756371E+03  0.59933649671E+02  0.37886326087E+03  0.12699999809E+01 0.  1.
       -4    1    3    3    0  502  0.27165837415E+03  0.25718756371E+03  0.36220934870E+03  0.52071195526E+03  0.12699999809E+01 0. -1.
</event>
<event>
 5   0  0.4104786E-04  0.7999596E+03  0.7818609E-02  0.9560076E-01
        1   -1    0    0  501    0  0.00000000000E+00  0.00000000000E+00  0.86345080420E+02  0.86345080567E+02  0.50400001928E-02 0. -1.
       -1   -1    0    0    0  501  0.00000000000E+00  0.00000000000E+00 -0.18528424770E+04  0.18528424770E+04  0.50400001928E-02 0.  1.
    10030    2    1    2    0    0  0.00000000000E+00  0.00000000000E+00 -0.17664973966E+04  0.19391875576E+04  0.79995958106E+03 0.  0.
        2    1    3    3  502    0  0.52893802917E+01  0.39661146409E+03 -0.10081596569E+04  0.10833810617E+04  0.25500000920E-02 0.  1.
       -2    1    3    3    0  502 -0.52893802917E+01 -0.39661146409E+03 -0.75833773968E+03  0.85580649590E+03  0.25500000920E-02 0. -1.
</event>
<event>
 5   0  0.6801147E-04  0.7995357E+03  0.7818609E-02  0.9560689E-01
       -2   -1    0    0    0  501  0.00000000000E+00  0.00000000000E+00  0.85255842523E+02  0.85255842561E+02  0.25500000920E-02 0. -1.
        2   -1    0    0  501    0  0.00000000000E+00  0.00000000000E+00 -0.18745265690E+04  0.18745265690E+04  0.25500000920E-02 0.  1.
    10030    2    1    2    0    0  0.00000000000E+00  0.00000000000E+00 -0.17892707265E+04  0.19597824115E+04  0.79953572030E+03 0.  0.
        4    1    3    3  502    0 -0.33158769875E+03  0.20034308919E+03 -0.11363562638E+04  0.12005810787E+04  0.12699999809E+01 0.  1.
       -4    1    3    3    0  502  0.33158769875E+03 -0.20034308919E+03 -0.65291446268E+03  0.75920133287E+03  0.12699999809E+01 0. -1.
</event>
<event>
 5   0  0.7133039E-04  0.7972375E+03  0.7818609E-02  0.9564024E-01
       -2   -1    0    0    0  501  0.00000000000E+00  0.00000000000E+00  0.52479324271E+03  0.52479324272E+03  0.25500000920E-02 0. -1.
        2   -1    0    0  501    0  0.00000000000E+00  0.00000000000E+00 -0.30278000070E+03  0.30278000071E+03  0.25500000920E-02 0.  1.
    10030    2    1    2    0    0  0.00000000000E+00  0.00000000000E+00  0.22201324202E+03  0.82757324343E+03  0.79723747630E+03 0.  0.
        2    1    3    3  502    0  0.69087755763E+02 -0.37618470853E+03 -0.55552194721E+01  0.38251655311E+03  0.25500000920E-02 0.  1.
       -2    1    3    3    0  502 -0.69087755763E+02  0.37618470853E+03  0.22756846149E+03  0.44505669032E+03  0.25500000920E-02 0. -1.
</event>
<event>
 5   0  0.6970013E-04  0.8000393E+03  0.7818609E-02  0.9559960E-01
       -2   -1    0    0    0  501  0.00000000000E+00  0.00000000000E+00  0.47308253919E+03  0.47308253919E+03  0.25500000920E-02 0.  1.
        2   -1    0    0  501    0  0.00000000000E+00  0.00000000000E+00 -0.33824063700E+03  0.33824063701E+03  0.25500000920E-02 0. -1.
    10030    2    1    2    0    0  0.00000000000E+00  0.00000000000E+00  0.13484190219E+03  0.81132317620E+03  0.80003934757E+03 0.  0.
        3    1    3    3  502    0 -0.86969557461E+02  0.14987326895E+03 -0.29820545595E+03  0.34489448362E+03  0.10100000352E+00 0. -1.
       -3    1    3    3    0  502  0.86969557461E+02 -0.14987326895E+03  0.43304735814E+03  0.46642869258E+03  0.10100000352E+00 0.  1.
</event>
<event>
 5   0  0.2736375E-04  0.8000519E+03  0.7818609E-02  0.9559942E-01
        4   -1    0    0  501    0  0.00000000000E+00  0.00000000000E+00  0.42080959692E+03  0.42081151335E+03  0.12699999809E+01 0. -1.
       -4   -1    0    0    0  501  0.00000000000E+00  0.00000000000E+00 -0.38026491767E+03  0.38026703842E+03  0.12699999809E+01 0.  1.
    10030    2    1    2    0    0  0.00000000000E+00  0.00000000000E+00  0.40544679255E+02  0.80107855177E+03  0.80005185775E+03 0.  0.
        2    1    3    3  502    0 -0.36773541268E+03 -0.13771844390E+03  0.96692233581E+02  0.40440708645E+03  0.25500000920E-02 0.  1.
       -2    1    3    3    0  502  0.36773541268E+03  0.13771844390E+03 -0.56147554326E+02  0.39667146532E+03  0.25500000920E-02 0. -1.
</event>
<event>
 5   0  0.6801147E-04  0.7987352E+03  0.7818609E-02  0.9561850E-01
        2   -1    0    0  501    0  0.00000000000E+00  0.00000000000E+00  0.10240333461E+04  0.10240333461E+04  0.25500000920E-02 0. -1.
       -2   -1    0    0    0  501  0.00000000000E+00  0.00000000000E+00 -0.15575124311E+03  0.15575124313E+03  0.25500000920E-02 0.  1.
    10030    2    1    2    0    0  0.00000000000E+00  0.00000000000E+00  0.86828210303E+03  0.11797845893E+04  0.79873516677E+03 0.  0.
        4    1    3    3  502    0 -0.45974829965E+02  0.21892077352E+03 -0.54526472316E+02  0.23024929783E+03  0.12699999809E+01 0.  1.
       -4    1    3    3    0  502  0.45974829965E+02 -0.21892077352E+03  0.92280857535E+03  0.94953529145E+03  0.12699999809E+01 0. -1.
</event>
<event>
 5   0  0.6970013E-04  0.8000890E+03  0.7818609E-02  0.9559888E-01
       -2   -1    0    0    0  501  0.00000000000E+00  0.00000000000E+00  0.16552590642E+03  0.16552590644E+03  0.25500000920E-02 0. -1.
        2   -1    0    0  501    0  0.00000000000E+00  0.00000000000E+00 -0.96683103438E+03  0.96683103438E+03  0.25500000920E-02 0.  1.
    10030    2    1    2    0    0  0.00000000000E+00  0.00000000000E+00 -0.80130512796E+03  0.11323569408E+04  0.80008895339E+03 0.  0.
        3    1    3    3  502    0  0.17064590403E+03  0.31698618606E+03 -0.15374527472E+03  0.39145611046E+03  0.10100000352E+00 0. -1.
       -3    1    3    3    0  502 -0.17064590403E+03 -0.31698618606E+03 -0.64755985324E+03  0.74090083037E+03  0.10100000352E+00 0.  1.
</event>
<event>
 5   0  0.4086111E-04  0.8007508E+03  0.7818609E-02  0.9558931E-01
       -1   -1    0    0    0  501  0.00000000000E+00  0.00000000000E+00  0.28195637550E+03  0.28195637555E+03  0.50400001928E-02 0. -1.
        1   -1    0    0  501    0  0.00000000000E+00  0.00000000000E+00 -0.56852927686E+03  0.56852927689E+03  0.50400001928E-02 0.  1.
    10030    2    1    2    0    0  0.00000000000E+00  0.00000000000E+00 -0.28657290136E+03  0.85048565243E+03  0.80075078345E+03 0.  0.
        3    1    3    3  502    0  0.33466849230E+02  0.32821018819E+03  0.97647567378E+02  0.34405961002E+03  0.10100000352E+00 0. -1.
       -3    1    3    3    0  502 -0.33466849230E+02 -0.32821018819E+03 -0.38422046874E+03  0.50642604241E+03  0.10100000352E+00 0.  1.
</event>
<event>
 5   0  0.6593118E-04  0.7999298E+03  0.7818609E-02  0.9560119E-01
        2   -1    0    0  501    0  0.00000000000E+00  0.00000000000E+00  0.76091919091E+03  0.76091919091E+03  0.25500000920E-02 0. -1.
       -2   -1    0    0    0  501  0.00000000000E+00  0.00000000000E+00 -0.21023509800E+03  0.21023509802E+03  0.25500000920E-02 0.  1.
    10030    2    1    2    0    0  0.00000000000E+00  0.00000000000E+00  0.55068409291E+03  0.97115428893E+03  0.79992979862E+03 0.  0.
        1    1    3    3  502    0 -0.52348012480E+02  0.14725960811E+03  0.72231377374E+03  0.73902834476E+03  0.50400001928E-02 0. -1.
       -1    1    3    3    0  502  0.52348012480E+02 -0.14725960811E+03 -0.17162968083E+03  0.23212594418E+03  0.50400001928E-02 0.  1.
</event>
<event>
 5   0  0.4104786E-04  0.8001231E+03  0.7818609E-02  0.9559839E-01
       -1   -1    0    0    0  501  0.00000000000E+00  0.00000000000E+00  0.33298551216E+03  0.33298551220E+03  0.50400001928E-02 0.  1.
        1   -1    0    0  501    0  0.00000000000E+00  0.00000000000E+00 -0.48064932719E+03  0.48064932721E+03  0.50400001928E-02 0. -1.
    10030    2    1    2    0    0  0.00000000000E+00  0.00000000000E+00 -0.14766381503E+03  0.81363483942E+03  0.80012314655E+03 0.  0.
        2    1    3    3  502    0 -0.22519560037E+03  0.19170489657E+03 -0.34779839970E+03  0.45653866500E+03  0.25500000920E-02 0. -1.
       -2    1    3    3    0  502  0.22519560037E+03 -0.19170489657E+03  0.20013458467E+03  0.35709617442E+03  0.25500000920E-02 0.  1.
</event>
<event>
 5   0  0.4087283E-04  0.8001744E+03  0.7818609E-02  0.9559765E-01
       -1   -1    0    0    0  501  0.00000000000E+00  0.00000000000E+00  0.43642225167E+03  0.43642225170E+03  0.50400001928E-02 0.  1.
        1   -1    0    0  501    0  0.00000000000E+00  0.00000000000E+00 -0.36677729807E+03  0.36677729810E+03  0.50400001928E-02 0. -1.
    10030    2    1    2    0    0  0.00000000000E+00  0.00000000000E+00  0.69644953603E+02  0.80319954980E+03  0.80017441676E+03 0.  0.
        1    1    3    3  502    0  0.86416314945E+02 -0.23665973061E+03  0.34679349082E+03  0.42865059534E+03  0.50400001928E-02 0.  1.
       -1    1    3    3    0  502 -0.86416314945E+02  0.23665973061E+03 -0.27714853722E+03  0.37454895446E+03  0.50400001928E-02 0. -1.
</event>
<event>
 5   0  0.6801147E-04  0.7999466E+03  0.7818609E-02  0.9560094E-01
        2   -1    0    0  501    0  0.00000000000E+00  0.00000000000E+00  0.87685138522E+03  0.87685138523E+03  0.25500000920E-02 0. -1.
       -2   -1    0    0    0  501  0.00000000000E+00  0.00000000000E+00 -0.18244670905E+03  0.18244670907E+03  0.25500000920E-02 0.  1.
    10030    2    1    2    0    0  0.00000000000E+00  0.00000000000E+00  0.69440467617E+03  0.10592980943E+04  0.79994662215E+03 0.  0.
        4    1    3    3  502    0  0.53829514721E+02  0.28356139374E+03  0.71387335781E+03  0.77001393791E+03  0.12699999809E+01 0. -1.
       -4    1    3    3    0  502 -0.53829514721E+02 -0.28356139374E+03 -0.19468681640E+02  0.28928415639E+03  0.12699999809E+01 0.  1.
</event>
<event>
 5   0  0.6801147E-04  0.8001302E+03  0.7818609E-02  0.9559829E-01
       -2   -1    0    0    0  501  0.00000000000E+00  0.00000000000E+00  0.26477566516E+03  0.26477566518E+03  0.25500000920E-02 0. -1.
        2   -1    0    0  501    0  0.00000000000E+00  0.00000000000E+00 -0.60448192161E+03  0.60448192161E+03  0.25500000920E-02 0.  1.
    10030    2    1    2    0    0  0.00000000000E+00  0.00000000000E+00 -0.33970625644E+03  0.86925758679E+03  0.80013024660E+03 0.  0.
        4    1    3    3  502    0 -0.11508761054E+03 -0.38302144638E+03 -0.18071183585E+03  0.43887238123E+03  0.12699999809E+01 0.  1.
       -4    1    3    3    0  502  0.11508761054E+03  0.38302144638E+03 -0.15899442059E+03  0.43038520556E+03  0.12699999809E+01 0. -1.
</event>
<event>
 5   0  0.6801147E-04  0.7998121E+03  0.7818609E-02  0.9560289E-01
        2   -1    0    0  501    0  0.00000000000E+00  0.00000000000E+00  0.15574713060E+04  0.15574713060E+04  0.25500000920E-02 0. -1.
       -2   -1    0    0    0  501  0.00000000000E+00  0.00000000000E+00 -0.10268238477E+03  0.10268238480E+03  0.25500000920E-02 0.  1.
    10030    2    1    2    0    0  0.00000000000E+00  0.00000000000E+00  0.14547889212E+04  0.16601536908E+04  0.79981214779E+03 0.  0.
        4    1    3    3  502    0  0.39767496212E+03 -0.44128315802E+01  0.64035424983E+03  0.75380370572E+03  0.12699999809E+01 0. -1.
       -4    1    3    3    0  502 -0.39767496212E+03  0.44128315802E+01  0.81443467137E+03  0.90634998506E+03  0.12699999809E+01 0.  1.
</event>
<event>
 5   0  0.2736375E-04  0.8005138E+03  0.7818609E-02  0.9559274E-01
        3   -1    0    0  501    0  0.00000000000E+00  0.00000000000E+00  0.67339395927E+03  0.67339396684E+03  0.10100000352E+00 0. -1.
       -3   -1    0    0    0  501  0.00000000000E+00  0.00000000000E+00 -0.23790764679E+03  0.23790766823E+03  0.10100000352E+00 0.  1.
    10030    2    1    2    0    0  0.00000000000E+00  0.00000000000E+00  0.43548631248E+03  0.91130163507E+03  0.80051379858E+03 0.  0.
        2    1    3    3  502    0  0.31228569372E+03 -0.13641573289E+01  0.50275477659E+03  0.59185013375E+03  0.25500000920E-02 0. -1.
       -2    1    3    3    0  502 -0.31228569372E+03  0.13641573289E+01 -0.67268464110E+02  0.31945150132E+03  0.25500000920E-02 0.  1.
</event>
<event>
 5   0  0.4087283E-04  0.8000691E+03  0.7818609E-02  0.9559917E-01
        1   -1    0    0  501    0  0.00000000000E+00  0.00000000000E+00  0.10360108636E+04  0.10360108636E+04  0.50400001928E-02 0. -1.
       -1   -1    0    0    0  501  0.00000000000E+00  0.00000000000E+00 -0.15446522086E+03  0.15446522094E+03  0.50400001928E-02 0.  1.
    10030    2    1    2    0    0  0.00000000000E+00  0.00000000000E+00  0.88154564277E+03  0.11904760846E+04  0.80006911432E+03 0.  0.
        1    1    3    3  502    0 -0.27582173872E+03 -0.21541673685E+03  0.15245402670E+03  0.38173843447E+03  0.50400001928E-02 0.  1.
       -1    1    3    3    0  502  0.27582173872E+03  0.21541673685E+03  0.72909161607E+03  0.80873765012E+03  0.50400001928E-02 0. -1.
</event>
<event>
 5   0  0.2736375E-04  0.7991062E+03  0.7818609E-02  0.9561312E-01
       -3   -1    0    0    0  501  0.00000000000E+00  0.00000000000E+00  0.18658087329E+03  0.18658090063E+03  0.10100000352E+00 0.  1.
        3   -1    0    0  501    0  0.00000000000E+00  0.00000000000E+00 -0.85562174468E+03  0.85562175064E+03  0.10100000352E+00 0. -1.
    10030    2    1    2    0    0  0.00000000000E+00  0.00000000000E+00 -0.66904087139E+03  0.10422026513E+04  0.79910617487E+03 0.  0.
        2    1    3    3  502    0 -0.12882324844E+03  0.33245032713E+03 -0.56972719543E+03  0.67209205215E+03  0.25500000920E-02 0. -1.
       -2    1    3    3    0  502  0.12882324844E+03 -0.33245032713E+03 -0.99313675964E+02  0.37011059912E+03  0.25500000920E-02 0.  1.
</event>
<event>
 5   0  0.6970013E-04  0.8002061E+03  0.7818609E-02  0.9559719E-01
        2   -1    0    0  501    0  0.00000000000E+00  0.00000000000E+00  0.86583077425E+03  0.86583077426E+03  0.25500000920E-02 0.  1.
       -2   -1    0    0    0  501  0.00000000000E+00  0.00000000000E+00 -0.18488884121E+03  0.18488884123E+03  0.25500000920E-02 0. -1.
    10030    2    1    2    0    0  0.00000000000E+00  0.00000000000E+00  0.68094193304E+03  0.10507196155E+04  0.80020609483E+03 0.  0.
        3    1    3    3  502    0 -0.34120933092E+03  0.19080270605E+03  0.22864502265E+03  0.45288854780E+03  0.10100000352E+00 0. -1.
       -3    1    3    3    0  502  0.34120933092E+03 -0.19080270605E+03  0.45229691039E+03  0.59783106769E+03  0.10100000352E+00 0.  1.
</event>
<event>
 5   0  0.2736375E-04  0.7989155E+03  0.7818609E-02  0.9561588E-01
        3   -1    0    0  501    0  0.00000000000E+00  0.00000000000E+00  0.78523097973E+03  0.78523098623E+03  0.10100000352E+00 0. -1.
       -3   -1    0    0    0  501  0.00000000000E+00  0.00000000000E+00 -0.20320959190E+03  0.20320961700E+03  0.10100000352E+00 0.  1.
    10030    2    1    2    0    0  0.00000000000E+00  0.00000000000E+00  0.58202138783E+03  0.98844060322E+03  0.79891547125E+03 0.  0.
        1    1    3    3  502    0  0.19882867623E+03  0.35912037878E+02  0.71735014317E+03  0.74526085694E+03  0.50400001928E-02 0. -1.
       -1    1    3    3    0  502 -0.19882867623E+03 -0.35912037878E+02 -0.13532875534E+03  0.24317974628E+03  0.50400001928E-02 0.  1.
</event>
<event>
 5   0  0.6593118E-04  0.7993982E+03  0.7818609E-02  0.9560889E-01
        2   -1    0    0  501    0  0.00000000000E+00  0.00000000000E+00  0.56344934267E+03  0.56344934267E+03  0.25500000920E-02 0. -1.
       -2   -1    0    0    0  501  0.00000000000E+00  0.00000000000E+00 -0.28353813119E+03  0.28353813120E+03  0.25500000920E-02 0.  1.
    10030    2    1    2    0    0  0.00000000000E+00  0.00000000000E+00  0.27991121148E+03  0.84698747387E+03  0.79939820777E+03 0.  0.
        1    1    3    3  502    0 -0.14311434313E+03 -0.28128180042E+03  0.39982866545E+03  0.50937621480E+03  0.50400001928E-02 0. -1.
       -1    1    3    3    0  502  0.14311434313E+03  0.28128180042E+03 -0.11991745398E+03  0.33761125907E+03  0.50400001928E-02 0.  1.
</event>
<event>
 5   0  0.2736375E-04  0.7992550E+03  0.7818609E-02  0.9561096E-01
       -4   -1    0    0    0  501  0.00000000000E+00  0.00000000000E+00  0.10900620364E+04  0.10900627762E+04  0.12699999809E+01 0. -1.
        4   -1    0    0  501    0  0.00000000000E+00  0.00000000000E+00 -0.14650386010E+03  0.14650936463E+03  0.12699999809E+01 0.  1.
    10030    2    1    2    0    0  0.00000000000E+00  0.00000000000E+00  0.94355817626E+03  0.12365721408E+04  0.79925504531E+03 0.  0.
        2    1    3    3  502    0 -0.12696547931E+03 -0.33915399584E+03  0.21033038497E+03  0.41878937030E+03  0.25500000920E-02 0.  1.
       -2    1    3    3    0  502  0.12696547931E+03  0.33915399584E+03  0.73322779128E+03  0.81778277051E+03  0.25500000920E-02 0. -1.
</event>
<event>
 5   0  0.4087283E-04  0.7959984E+03  0.7818609E-02  0.9565827E-01
        1   -1    0    0  501    0  0.00000000000E+00  0.00000000000E+00  0.56086379316E+03  0.56086379319E+03  0.50400001928E-02 0.  1.
       -1   -1    0    0    0  501  0.00000000000E+00  0.00000000000E+00 -0.28242752322E+03  0.28242752327E+03  0.50400001928E-02 0. -1.
    10030    2    1    2    0    0  0.00000000000E+00  0.00000000000E+00  0.27843626994E+03  0.84329131646E+03  0.79599842210E+03 0.  0.
        1    1    3    3  502    0  0.16301610449E+03  0.34481801810E+03  0.25968258642E+03  0.46142037411E+03  0.50400001928E-02 0. -1.
       -1    1    3    3    0  502 -0.16301610449E+03 -0.34481801810E+03  0.18753683521E+02  0.38187094234E+03  0.50400001928E-02 0.  1.
</event>
<event>
 5   0  0.2736375E-04  0.8001859E+03  0.7818609E-02  0.9559748E-01
       -4   -1    0    0    0  501  0.00000000000E+00  0.00000000000E+00  0.10285764275E+04  0.10285772115E+04  0.12699999809E+01 0.  1.
        4   -1    0    0  501    0  0.00000000000E+00  0.00000000000E+00 -0.15562365398E+03  0.15562883595E+03  0.12699999809E+01 0. -1.
    10030    2    1    2    0    0  0.00000000000E+00  0.00000000000E+00  0.87295277352E+03  0.11842060475E+04  0.80018586474E+03 0.  0.
        5    1    3    3  502    0  0.98402511038E+02 -0.10611424749E+02 -0.13718179174E+03  0.16922349275E+03  0.46999998093E+01 0. -1.
       -5    1    3    3    0  502 -0.98402511038E+02  0.10611424749E+02  0.10101345653E+04  0.10149825547E+04  0.46999998093E+01 0.  1.
</event>
<event>
 5   0  0.6970013E-04  0.8000359E+03  0.7818609E-02  0.9559965E-01
        2   -1    0    0  501    0  0.00000000000E+00  0.00000000000E+00  0.11393886512E+04  0.11393886512E+04  0.25500000920E-02 0.  1.
       -2   -1    0    0    0  501  0.00000000000E+00  0.00000000000E+00 -0.14043877759E+03  0.14043877761E+03  0.25500000920E-02 0. -1.
    10030    2    1    2    0    0  0.00000000000E+00  0.00000000000E+00  0.99894987362E+03  0.12798274288E+04  0.80003587268E+03 0.  0.
        3    1    3    3  502    0 -0.21516951209E+03 -0.83390373577E+02 -0.23223559684E+02  0.23192933679E+03  0.10100000352E+00 0. -1.
       -3    1    3    3    0  502  0.21516951209E+03  0.83390373577E+02  0.10221734333E+04  0.10478980920E+04  0.10100000352E+00 0.  1.
</event>
<event>
 5   0  0.4104786E-04  0.8002197E+03  0.7818609E-02  0.9559699E-01
        1   -1    0    0  501    0  0.00000000000E+00  0.00000000000E+00  0.66605437040E+03  0.66605437042E+03  0.50400001928E-02 0.  1.
       -1   -1    0    0    0  501  0.00000000000E+00  0.00000000000E+00 -0.24035258762E+03  0.24035258768E+03  0.50400001928E-02 0. -1.
    10030    2    1    2    0    0  0.00000000000E+00  0.00000000000E+00  0.42570178277E+03  0.90640695810E+03  0.80021969847E+03 0.  0.
        2    1    3    3  502    0 -0.12562506007E+01  0.26698266417E+03  0.55039967078E+03  0.61173615124E+03  0.25500000920E-02 0.  1.
       -2    1    3    3    0  502  0.12562506007E+01 -0.26698266417E+03 -0.12469788801E+03  0.29467080685E+03  0.25500000920E-02 0. -1.
</event>
<event>
 5   0  0.6801147E-04  0.7998076E+03  0.7818609E-02  0.9560296E-01
       -2   -1    0    0    0  501  0.00000000000E+00  0.00000000000E+00  0.14089801845E+03  0.14089801847E+03  0.25500000920E-02 0.  1.
        2   -1    0    0  501    0  0.00000000000E+00  0.00000000000E+00 -0.11350270789E+04  0.11350270789E+04  0.25500000920E-02 0. -1.
    10030    2    1    2    0    0  0.00000000000E+00  0.00000000000E+00 -0.99412906044E+03  0.12759250974E+04  0.79980764267E+03 0.  0.
        4    1    3    3  502    0 -0.30618270153E+03 -0.16408339953E+03 -0.18101087702E+03  0.39171132128E+03  0.12699999809E+01 0.  1.
       -4    1    3    3    0  502  0.30618270153E+03  0.16408339953E+03 -0.81311818342E+03  0.88421377609E+03  0.12699999809E+01 0. -1.
</event>
<event>
 5   0  0.4086111E-04  0.8003961E+03  0.7818609E-02  0.9559444E-01
       -1   -1    0    0    0  501  0.00000000000E+00  0.00000000000E+00  0.13510559634E+03  0.13510559643E+03  0.50400001928E-02 0. -1.
        1   -1    0    0  501    0  0.00000000000E+00  0.00000000000E+00 -0.11854318270E+04  0.11854318270E+04  0.50400001928E-02 0.  1.
    10030    2    1    2    0    0  0.00000000000E+00  0.00000000000E+00 -0.10503262307E+04  0.13205374235E+04  0.80039608689E+03 0.  0.
        3    1    3    3  502    0 -0.97614790110E+02 -0.36284211297E+03 -0.75243275728E+03  0.84103395331E+03  0.10100000352E+00 0.  1.
       -3    1    3    3    0  502  0.97614790110E+02  0.36284211297E+03 -0.29789347339E+03  0.47950347014E+03  0.10100000352E+00 0. -1.
</event>
<event>
 5   0  0.4087283E-04  0.8004856E+03  0.7818609E-02  0.9559315E-01
        1   -1    0    0  501    0  0.00000000000E+00  0.00000000000E+00  0.10026629492E+03  0.10026629505E+03  0.50400001928E-02 0. -1.
       -1   -1    0    0    0  501  0.00000000000E+00  0.00000000000E+00 -0.15976882744E+04  0.15976882744E+04  0.50400001928E-02 0.  1.
    10030    2    1    2    0    0  0.00000000000E+00  0.00000000000E+00 -0.14974219795E+04  0.16979545695E+04  0.80048556222E+03 0.  0.
        1    1    3    3  502    0  0.39600525237E+03  0.19943428889E+02 -0.63298870213E+03  0.74692208249E+03  0.50400001928E-02 0. -1.
       -1    1    3    3    0  502 -0.39600525237E+03 -0.19943428889E+02 -0.86443327734E+03  0.95103248697E+03  0.50400001928E-02 0.  1.
</event>
<event>
 5   0  0.6801147E-04  0.7998558E+03  0.7818609E-02  0.9560226E-01
       -2   -1    0    0    0  501  0.00000000000E+00  0.00000000000E+00  0.12596059206E+03  0.12596059209E+03  0.25500000920E-02 0.  1.
        2   -1    0    0  501    0  0.00000000000E+00  0.00000000000E+00 -0.12697807022E+04  0.12697807022E+04  0.25500000920E-02 0. -1.
    10030    2    1    2    0    0  0.00000000000E+00  0.00000000000E+00 -0.11438201101E+04  0.13957412943E+04  0.79985580965E+03 0.  0.
        4    1    3    3  502    0 -0.34423028993E+03 -0.98954326631E+02 -0.88237269083E+03  0.95229702808E+03  0.12699999809E+01 0.  1.
       -4    1    3    3    0  502  0.34423028993E+03  0.98954326631E+02 -0.26144741929E+03  0.44344426619E+03  0.12699999809E+01 0. -1.
</event>
<event>
 5   0  0.6672462E-04  0.8000504E+03  0.7818609E-02  0.9559944E-01
       -2   -1    0    0    0  501  0.00000000000E+00  0.00000000000E+00  0.26812337984E+03  0.26812337986E+03  0.25500000920E-02 0. -1.
        2   -1    0    0  501    0  0.00000000000E+00  0.00000000000E+00 -0.59681543054E+03  0.59681543055E+03  0.25500000920E-02 0.  1.
    10030    2    1    2    0    0  0.00000000000E+00  0.00000000000E+00 -0.32869205070E+03  0.86493881040E+03  0.80005042438E+03 0.  0.
        5    1    3    3  502    0 -0.14740944597E+03  0.18506443808E+03 -0.51302503277E+03  0.56497359695E+03  0.46999998093E+01 0.  1.
       -5    1    3    3    0  502  0.14740944597E+03 -0.18506443808E+03  0.18433298207E+03  0.29996521345E+03  0.46999998093E+01 0. -1.
</event>
<event>
 5   0  0.2736375E-04  0.8001280E+03  0.7818609E-02  0.9559832E-01
        4   -1    0    0  501    0  0.00000000000E+00  0.00000000000E+00  0.48640953684E+03  0.48641119480E+03  0.12699999809E+01 0.  1.
       -4   -1    0    0    0  501  0.00000000000E+00  0.00000000000E+00 -0.32904277598E+03  0.32904522687E+03  0.12699999809E+01 0. -1.
    10030    2    1    2    0    0  0.00000000000E+00  0.00000000000E+00  0.15736676086E+03  0.81545642166E+03  0.80012803863E+03 0.  0.
        5    1    3    3  502    0  0.18259208359E+03  0.19140623624E+02  0.44091162084E+03  0.47763100805E+03  0.46999998093E+01 0.  1.
       -5    1    3    3    0  502 -0.18259208359E+03 -0.19140623624E+02 -0.28354485998E+03  0.33782541361E+03  0.46999998093E+01 0. -1.
</event>
<event>
 5   0  0.4104786E-04  0.8015545E+03  0.7818609E-02  0.9557770E-01
       -1   -1    0    0    0  501  0.00000000000E+00  0.00000000000E+00  0.14755054663E+03  0.14755054672E+03  0.50400001928E-02 0.  1.
        1   -1    0    0  501    0  0.00000000000E+00  0.00000000000E+00 -0.10885923610E+04  0.10885923610E+04  0.50400001928E-02 0. -1.
    10030    2    1    2    0    0  0.00000000000E+00  0.00000000000E+00 -0.94104181434E+03  0.12361429077E+04  0.80155448470E+03 0.  0.
        2    1    3    3  502    0  0.35468322145E+03  0.13307715485E+03 -0.67226213687E+03  0.77165153884E+03  0.25500000920E-02 0.  1.
       -2    1    3    3    0  502 -0.35468322145E+03 -0.13307715485E+03 -0.26877967747E+03  0.46449136887E+03  0.25500000920E-02 0. -1.
</event>
<event>
 5   0  0.4087283E-04  0.7997001E+03  0.7818609E-02  0.9560451E-01
       -1   -1    0    0    0  501  0.00000000000E+00  0.00000000000E+00  0.50955243631E+03  0.50955243633E+03  0.50400001928E-02 0. -1.
        1   -1    0    0  501    0  0.00000000000E+00  0.00000000000E+00 -0.31376566498E+03  0.31376566502E+03  0.50400001928E-02 0.  1.
    10030    2    1    2    0    0  0.00000000000E+00  0.00000000000E+00  0.19578677133E+03  0.82331810135E+03  0.79970009140E+03 0.  0.
        1    1    3    3  502    0 -0.87812309798E+02 -0.27005140036E+03  0.38770534951E+03  0.48057694353E+03  0.50400001928E-02 0. -1.
       -1    1    3    3    0  502  0.87812309798E+02  0.27005140036E+03 -0.19191857818E+03  0.34274115782E+03  0.50400001928E-02 0.  1.
</event>
<event>
 5   0  0.4392552E-04  0.7999565E+03  0.7818609E-02  0.9560080E-01
       -1   -1    0    0    0  501  0.00000000000E+00  0.00000000000E+00  0.20518619158E+03  0.20518619164E+03  0.50400001928E-02 0.  1.
        1   -1    0    0  501    0  0.00000000000E+00  0.00000000000E+00 -0.77969480812E+03  0.77969480814E+03  0.50400001928E-02 0. -1.
    10030    2    1    2    0    0  0.00000000000E+00  0.00000000000E+00 -0.57450861654E+03  0.98488099977E+03  0.79995651959E+03 0.  0.
        5    1    3    3  502    0 -0.15131056618E+03 -0.34437257998E+03 -0.45458975131E+03  0.59005194117E+03  0.46999998093E+01 0. -1.
       -5    1    3    3    0  502  0.15131056618E+03  0.34437257998E+03 -0.11991886523E+03  0.39482905861E+03  0.46999998093E+01 0.  1.
</event>
<event>
 5   0  0.4086111E-04  0.7992115E+03  0.7818609E-02  0.9561159E-01
        1   -1    0    0  501    0  0.00000000000E+00  0.00000000000E+00  0.89063883653E+03  0.89063883655E+03  0.50400001928E-02 0. -1.
       -1   -1    0    0    0  501  0.00000000000E+00  0.00000000000E+00 -0.17929237387E+03  0.17929237394E+03  0.50400001928E-02 0.  1.
    10030    2    1    2    0    0  0.00000000000E+00  0.00000000000E+00  0.71134646266E+03  0.10699312105E+04  0.79921148968E+03 0.  0.
        3    1    3    3  502    0  0.15549230818E+03 -0.13516815607E+03  0.81405303293E+03  0.83972057195E+03  0.10100000352E+00 0. -1.
       -3    1    3    3    0  502 -0.15549230818E+03  0.13516815607E+03 -0.10270657027E+03  0.23021063854E+03  0.10100000352E+00 0.  1.
</event>
<event>
 5   0  0.6593118E-04  0.8000468E+03  0.7818609E-02  0.9559949E-01
       -2   -1    0    0    0  501  0.00000000000E+00  0.00000000000E+00  0.33986588956E+03  0.33986588957E+03  0.25500000920E-02 0.  1.
        2   -1    0    0  501    0  0.00000000000E+00  0.00000000000E+00 -0.47082905966E+03  0.47082905967E+03  0.25500000920E-02 0. -1.
    10030    2    1    2    0    0  0.00000000000E+00  0.00000000000E+00 -0.13096317011E+03  0.81069494924E+03  0.80004684162E+03 0.  0.
        1    1    3    3  502    0  0.38520553611E+03 -0.46741148484E+02 -0.16399014619E+03  0.42126097385E+03  0.50400001928E-02 0. -1.
       -1    1    3    3    0  502 -0.38520553611E+03  0.46741148484E+02  0.33026976077E+02  0.38943397539E+03  0.50400001928E-02 0.  1.
</event>
<event>
 5   0  0.4086111E-04  0.8001827E+03  0.7818609E-02  0.9559753E-01
        1   -1    0    0  501    0  0.00000000000E+00  0.00000000000E+00  0.88424066003E+03  0.88424066004E+03  0.50400001928E-02 0.  1.
       -1   -1    0    0    0  501  0.00000000000E+00  0.00000000000E+00 -0.18102886271E+03  0.18102886278E+03  0.50400001928E-02 0. -1.
    10030    2    1    2    0    0  0.00000000000E+00  0.00000000000E+00  0.70321179732E+03  0.10652695228E+04  0.80018268187E+03 0.  0.
        3    1    3    3  502    0  0.95440568268E+01  0.10735557494E+03  0.86455036242E+03  0.87124258840E+03  0.10100000352E+00 0.  1.
       -3    1    3    3    0  502 -0.95440568268E+01 -0.10735557494E+03 -0.16133856510E+03  0.19402693442E+03  0.10100000352E+00 0. -1.
</event>
<event>
 5   0  0.4087283E-04  0.8000596E+03  0.7818609E-02  0.9559931E-01
        1   -1    0    0  501    0  0.00000000000E+00  0.00000000000E+00  0.14408799187E+04  0.14408799188E+04  0.50400001928E-02 0.  1.
       -1   -1    0    0    0  501  0.00000000000E+00  0.00000000000E+00 -0.11105979979E+03  0.11105979991E+03  0.50400001928E-02 0. -1.
    10030    2    1    2    0    0  0.00000000000E+00  0.00000000000E+00  0.13298201190E+04  0.15519397187E+04  0.80005958627E+03 0.  0.
        1    1    3    3  502    0 -0.38594687539E+02 -0.11703929766E+03 -0.73318611820E+02  0.14339932345E+03  0.50400001928E-02 0. -1.
       -1    1    3    3    0  502  0.38594687539E+02  0.11703929766E+03  0.14031387308E+04  0.14085403952E+04  0.50400001928E-02 0.  1.
</event>
<event>
 5   0  0.4087283E-04  0.7999062E+03  0.7818609E-02  0.9560153E-01
        1   -1    0    0  501    0  0.00000000000E+00  0.00000000000E+00  0.33810474545E+03  0.33810474549E+03  0.50400001928E-02 0.  1.
       -1   -1    0    0    0  501  0.00000000000E+00  0.00000000000E+00 -0.47311520607E+03  0.47311520610E+03  0.50400001928E-02 0. -1.
    10030    2    1    2    0    0  0.00000000000E+00  0.00000000000E+00 -0.13501046062E+03  0.81121995159E+03  0.79990623537E+03 0.  0.
        1    1    3    3  502    0  0.12440788739E+03  0.84940554838E+02  0.30823508432E+03  0.34307592094E+03  0.50400001928E-02 0.  1.
       -1    1    3    3    0  502 -0.12440788739E+03 -0.84940554838E+02 -0.44324554494E+03  0.46814403065E+03  0.50400001928E-02 0. -1.
</event>
<event>
 5   0  0.4104786E-04  0.7998280E+03  0.7818609E-02  0.9560266E-01
       -1   -1    0    0    0  501  0.00000000000E+00  0.00000000000E+00  0.35323980158E+03  0.35323980162E+03  0.50400001928E-02 0. -1.
        1   -1    0    0  501    0  0.00000000000E+00  0.00000000000E+00 -0.45275538142E+03  0.45275538145E+03  0.50400001928E-02 0.  1.
    10030    2    1    2    0    0  0.00000000000E+00  0.00000000000E+00 -0.99515579840E+02  0.80599518307E+03  0.79982803433E+03 0.  0.
        2    1    3    3  502    0  0.48429950696E+02 -0.26969786300E+03 -0.34329200902E+03  0.43924002651E+03  0.25500000920E-02 0.  1.
       -2    1    3    3    0  502 -0.48429950696E+02  0.26969786300E+03  0.24377642918E+03  0.36675515655E+03  0.25500000920E-02 0. -1.
</event>
<event>
 5   0  0.4086111E-04  0.8001020E+03  0.7818609E-02  0.9559870E-01
       -1   -1    0    0    0  501  0.00000000000E+00  0.00000000000E+00  0.28888134890E+03  0.28888134895E+03  0.50400001928E-02 0. -1.
        1   -1    0    0  501    0  0.00000000000E+00  0.00000000000E+00 -0.55400179230E+03  0.55400179232E+03  0.50400001928E-02 0.  1.
    10030    2    1    2    0    0  0.00000000000E+00  0.00000000000E+00 -0.26512044339E+03  0.84288314127E+03  0.80010195621E+03 0.  0.
        3    1    3    3  502    0  0.10190452660E+02  0.20658955304E+03 -0.49329888791E+03  0.53490830220E+03  0.10100000352E+00 0.  1.
       -3    1    3    3    0  502 -0.10190452660E+02 -0.20658955304E+03  0.22817844452E+03  0.30797483906E+03  0.10100000352E+00 0. -1.
</event>
<event>
 5   0  0.6593118E-04  0.7999082E+03  0.7818609E-02  0.9560150E-01
        2   -1    0    0  501    0  0.00000000000E+00  0.00000000000E+00  0.12136384408E+04  0.12136384408E+04  0.25500000920E-02 0.  1.
       -2   -1    0    0    0  501  0.00000000000E+00  0.00000000000E+00 -0.13180471327E+03  0.13180471330E+03  0.25500000920E-02 0. -1.
    10030    2    1    2    0    0  0.00000000000E+00  0.00000000000E+00  0.10818337276E+04  0.13454431541E+04  0.79990816155E+03 0.  0.
        1    1    3    3  502    0  0.57323991926E+02 -0.38515982525E+03  0.69442280658E+03  0.79615147136E+03  0.50400001928E-02 0.  1.
       -1    1    3    3    0  502 -0.57323991926E+02  0.38515982525E+03  0.38741092100E+03  0.54929168278E+03  0.50400001928E-02 0. -1.
</event>
<event>
 5   0  0.6970013E-04  0.7997433E+03  0.7818609E-02  0.9560389E-01
        2   -1    0    0  501    0  0.00000000000E+00  0.00000000000E+00  0.10259293822E+04  0.10259293822E+04  0.25500000920E-02 0.  1.
       -2   -1    0    0    0  501  0.00000000000E+00  0.00000000000E+00 -0.15585607179E+03  0.15585607181E+03  0.25500000920E-02 0. -1.
    10030    2    1    2    0    0  0.00000000000E+00  0.00000000000E+00  0.87007331037E+03  0.11817854540E+04  0.79974326744E+03 0.  0.
        3    1    3    3  502    0  0.20020182341E+03  0.21982873573E+03  0.83014515834E+03  0.88178593619E+03  0.10100000352E+00 0.  1.
       -3    1    3    3    0  502 -0.20020182341E+03 -0.21982873573E+03  0.39928152038E+02  0.29999951779E+03  0.10100000352E+00 0. -1.
</event>
<event>
 5   0  0.4086111E-04  0.7998974E+03  0.7818609E-02  0.9560166E-01
        1   -1    0    0  501    0  0.00000000000E+00  0.00000000000E+00  0.23257267101E+03  0.23257267106E+03  0.50400001928E-02 0. -1.
       -1   -1    0    0    0  501  0.00000000000E+00  0.00000000000E+00 -0.68778060310E+03  0.68778060312E+03  0.50400001928E-02 0.  1.
    10030    2    1    2    0    0  0.00000000000E+00  0.00000000000E+00 -0.45520793209E+03  0.92035327418E+03  0.79989742333E+03 0.  0.
        3    1    3    3  502    0  0.14663874259E+03  0.36212529860E+03 -0.12915421243E+03  0.41148326030E+03  0.10100000352E+00 0. -1.
       -3    1    3    3    0  502 -0.14663874259E+03 -0.36212529860E+03 -0.32605371967E+03  0.50887001388E+03  0.10100000352E+00 0.  1.
</event>
<event>
 5   0  0.6672462E-04  0.7960882E+03  0.7818609E-02  0.9565697E-01
       -2   -1    0    0    0  501  0.00000000000E+00  0.00000000000E+00  0.91217921737E+03  0.91217921738E+03  0.25500000920E-02 0.  1.
        2   -1    0    0  501    0  0.00000000000E+00  0.00000000000E+00 -0.17369297467E+03  0.17369297468E+03  0.25500000920E-02 0. -1.
    10030    2    1    2    0    0  0.00000000000E+00  0.00000000000E+00  0.73848624271E+03  0.10858721921E+04  0.79608824060E+03 0.  0.
        5    1    3    3  502    0  0.26629064742E+02  0.36520690780E+03  0.58201046463E+03  0.68763614181E+03  0.46999998093E+01 0.  1.
       -5    1    3    3    0  502 -0.26629064742E+02 -0.36520690780E+03  0.15647577808E+03  0.39823605025E+03  0.46999998093E+01 0. -1.
</event>
<event>
 5   0  0.4104786E-04  0.7998692E+03  0.7818609E-02  0.9560206E-01
        1   -1    0    0  501    0  0.00000000000E+00  0.00000000000E+00  0.12048099271E+04  0.12048099271E+04  0.50400001928E-02 0.  1.
       -1   -1    0    0    0  501  0.00000000000E+00  0.00000000000E+00 -0.13275760670E+03  0.13275760680E+03  0.50400001928E-02 0. -1.
    10030    2    1    2    0    0  0.00000000000E+00  0.00000000000E+00  0.10720523204E+04  0.13375675339E+04  0.79986919562E+03 0.  0.
        2    1    3    3  502    0 -0.79268590997E+02 -0.88697220653E+01 -0.11932165598E+03  0.14352644036E+03  0.25500000920E-02 0. -1.
       -2    1    3    3    0  502  0.79268590997E+02  0.88697220653E+01  0.11913739764E+04  0.11940410936E+04  0.25500000920E-02 0.  1.
</event>
<event>
 5   0  0.4104786E-04  0.8008477E+03  0.7818609E-02  0.9558791E-01
        1   -1    0    0  501    0  0.00000000000E+00  0.00000000000E+00  0.18927490272E+03  0.18927490279E+03  0.50400001928E-02 0.  1.
       -1   -1    0    0    0  501  0.00000000000E+00  0.00000000000E+00 -0.84712371784E+03  0.84712371785E+03  0.50400001928E-02 0. -1.
    10030    2    1    2    0    0  0.00000000000E+00  0.00000000000E+00 -0.65784881512E+03  0.10363986206E+04  0.80084769920E+03 0.  0.
        2    1    3    3  502    0 -0.17773872180E+03 -0.21786057478E+03  0.40037928356E+02  0.28400232214E+03  0.25500000920E-02 0.  1.
       -2    1    3    3    0  502  0.17773872180E+03  0.21786057478E+03 -0.69788674348E+03  0.75239629850E+03  0.25500000920E-02 0. -1.
</event>
<event>
 5   0  0.4087283E-04  0.7999003E+03  0.7818609E-02  0.9560161E-01
        1   -1    0    0  501    0  0.00000000000E+00  0.00000000000E+00  0.77064010404E+03  0.77064010405E+03  0.50400001928E-02 0. -1.
       -1   -1    0    0    0  501  0.00000000000E+00  0.00000000000E+00 -0.20756786074E+03  0.20756786080E+03  0.50400001928E-02 0.  1.
    10030    2    1    2    0    0  0.00000000000E+00  0.00000000000E+00  0.56307224330E+03  0.97820796486E+03  0.79990028838E+03 0.  0.
        1    1    3    3  502    0  0.35928254000E+03  0.17202226453E+03  0.23770678555E+03  0.46387511139E+03  0.50400001928E-02 0.  1.
       -1    1    3    3    0  502 -0.35928254000E+03 -0.17202226453E+03  0.32536545774E+03  0.51433285347E+03  0.50400001928E-02 0. -1.
</event>
<event>
 5   0  0.4086111E-04  0.7993090E+03  0.7818609E-02  0.9561018E-01
       -1   -1    0    0    0  501  0.00000000000E+00  0.00000000000E+00  0.21500777753E+03  0.21500777758E+03  0.50400001928E-02 0.  1.
        1   -1    0    0  501    0  0.00000000000E+00  0.00000000000E+00 -0.74287406066E+03  0.74287406067E+03  0.50400001928E-02 0. -1.
    10030    2    1    2    0    0  0.00000000000E+00  0.00000000000E+00 -0.52786628313E+03  0.95788183826E+03  0.79930895353E+03 0.  0.
        3    1    3    3  502    0  0.98791066021E+02  0.52676975853E+02  0.19583107055E+03  0.22557561239E+03  0.10100000352E+00 0.  1.
       -3    1    3    3    0  502 -0.98791066021E+02 -0.52676975853E+02 -0.72369735369E+03  0.73230622587E+03  0.10100000352E+00 0. -1.
</event>
<event>
 5   0  0.6672462E-04  0.8000453E+03  0.7818609E-02  0.9559952E-01
        2   -1    0    0  501    0  0.00000000000E+00  0.00000000000E+00  0.54914370453E+03  0.54914370453E+03  0.25500000920E-02 0. -1.
       -2   -1    0    0    0  501  0.00000000000E+00  0.00000000000E+00 -0.29139571960E+03  0.29139571961E+03  0.25500000920E-02 0.  1.
    10030    2    1    2    0    0  0.00000000000E+00  0.00000000000E+00  0.25774798493E+03  0.84053942414E+03  0.80004531109E+03 0.  0.
        5    1    3    3  502    0  0.24751188651E+03  0.24337087503E+02  0.45800597573E+03  0.52119669185E+03  0.46999998093E+01 0. -1.
       -5    1    3    3    0  502 -0.24751188651E+03 -0.24337087503E+02 -0.20025799080E+03  0.31934273229E+03  0.46999998093E+01 0.  1.
</event>
<event>
 5   0  0.6801147E-04  0.7993075E+03  0.7818609E-02  0.9561020E-01
        2   -1    0    0  501    0  0.00000000000E+00  0.00000000000E+00  0.96026209011E+03  0.96026209011E+03  0.25500000920E-02 0.  1.
       -2   -1    0    0    0  501  0.00000000000E+00  0.00000000000E+00 -0.16633283541E+03  0.16633283543E+03  0.25500000920E-02 0. -1.
    10030    2    1    2    0    0  0.00000000000E+00  0.00000000000E+00  0.79392925470E+03  0.11265949255E+04  0.79930749077E+03 0.  0.
        4    1    3    3  502    0  0.26325236898E+03  0.30069845112E+03  0.39644671728E+03  0.56293248336E+03  0.12699999809E+01 0.  1.
       -4    1    3    3    0  502 -0.26325236898E+03 -0.30069845112E+03  0.39748253742E+03  0.56366244219E+03  0.12699999809E+01 0. -1.
</event>
<event>
 5   0  0.4392552E-04  0.8003443E+03  0.7818609E-02  0.9559519E-01
       -1   -1    0    0    0  501  0.00000000000E+00  0.00000000000E+00  0.24114725346E+03  0.24114725351E+03  0.50400001928E-02 0.  1.
        1   -1    0    0  501    0  0.00000000000E+00  0.00000000000E+00 -0.66406622036E+03  0.66406622038E+03  0.50400001928E-02 0. -1.
    10030    2    1    2    0    0  0.00000000000E+00  0.00000000000E+00 -0.42291896691E+03  0.90521347389E+03  0.80034428888E+03 0.  0.
        5    1    3    3  502    0 -0.12790093144E+03 -0.16402683898E+03  0.17516790127E+03  0.27197304242E+03  0.46999998093E+01 0.  1.
       -5    1    3    3    0  502  0.12790093144E+03  0.16402683898E+03 -0.59808686818E+03  0.63324043147E+03  0.46999998093E+01 0. -1.
</event>
<event>
 5   0  0.4392552E-04  0.8009296E+03  0.7818609E-02  0.9558673E-01
        1   -1    0    0  501    0  0.00000000000E+00  0.00000000000E+00  0.29054684010E+03  0.29054684015E+03  0.50400001928E-02 0. -1.
       -1   -1    0    0    0  501  0.00000000000E+00  0.00000000000E+00 -0.55196629230E+03  0.55196629233E+03  0.50400001928E-02 0.  1.
    10030    2    1    2    0    0  0.00000000000E+00  0.00000000000E+00 -0.26141945220E+03  0.84251313247E+03  0.80092961513E+03 0.  0.
        5    1    3    3  502    0  0.11401498560E+03 -0.50974389989E+02  0.26950665743E+03  0.29707529984E+03  0.46999998093E+01 0. -1.
       -5    1    3    3    0  502 -0.11401498560E+03  0.50974389989E+02 -0.53092610963E+03  0.54543783263E+03  0.46999998093E+01 0.  1.
</event>
<event>
 5   0  0.6593118E-04  0.8000184E+03  0.7818609E-02  0.9559990E-01
       -2   -1    0    0    0  501  0.00000000000E+00  0.00000000000E+00  0.28433983040E+03  0.28433983042E+03  0.25500000920E-02 0.  1.
        2   -1    0    0  501    0  0.00000000000E+00  0.00000000000E+00 -0.56273288752E+03  0.56273288752E+03  0.25500000920E-02 0. -1.
    10030    2    1    2    0    0  0.00000000000E+00  0.00000000000E+00 -0.27839305711E+03  0.84707271794E+03  0.80001843430E+03 0.  0.
        1    1    3    3  502    0  0.21735376572E+02  0.35134357180E+03  0.61958102501E+02  0.35742627006E+03  0.50400001928E-02 0. -1.
       -1    1    3    3    0  502 -0.21735376572E+02 -0.35134357180E+03 -0.34035115961E+03  0.48964644787E+03  0.50400001928E-02 0.  1.
</event>
<event>
 5   0  0.6801147E-04  0.7995539E+03  0.7818609E-02  0.9560663E-01
        2   -1    0    0  501    0  0.00000000000E+00  0.00000000000E+00  0.16270433933E+04  0.16270433933E+04  0.25500000920E-02 0. -1.
       -2   -1    0    0    0  501  0.00000000000E+00  0.00000000000E+00 -0.98228240165E+02  0.98228240199E+02  0.25500000920E-02 0.  1.
    10030    2    1    2    0    0  0.00000000000E+00  0.00000000000E+00  0.15288151532E+04  0.17252716335E+04  0.79955389870E+03 0.  0.
        4    1    3    3  502    0  0.14551239040E+03 -0.34111365310E+02  0.15644877978E+04  0.15716109962E+04  0.12699999809E+01 0. -1.
       -4    1    3    3    0  502 -0.14551239040E+03  0.34111365310E+02 -0.35672644598E+02  0.15366063737E+03  0.12699999809E+01 0.  1.
</event>
<event>
 5   0  0.6801147E-04  0.7992639E+03  0.7818609E-02  0.9561083E-01
       -2   -1    0    0    0  501  0.00000000000E+00  0.00000000000E+00  0.21279910172E+03  0.21279910173E+03  0.25500000920E-02 0. -1.
        2   -1    0    0  501    0  0.00000000000E+00  0.00000000000E+00 -0.75049980256E+03  0.75049980256E+03  0.25500000920E-02 0.  1.
    10030    2    1    2    0    0  0.00000000000E+00  0.00000000000E+00 -0.53770070084E+03  0.96329890429E+03  0.79926387090E+03 0.  0.
        4    1    3    3  502    0  0.57084274611E+02  0.27417047816E+02  0.20671093315E+03  0.21619743686E+03  0.12699999809E+01 0. -1.
       -4    1    3    3    0  502 -0.57084274611E+02 -0.27417047816E+02 -0.74441163399E+03  0.74710146743E+03  0.12699999809E+01 0.  1.
</event>
<event>
 5   0  0.4169155E-04  0.7997343E+03  0.7818609E-02  0.9560402E-01
       -1   -1    0    0    0  501  0.00000000000E+00  0.00000000000E+00  0.13306078100E+03  0.13306078109E+03  0.50400001928E-02 0.  1.
        1   -1    0    0  501    0  0.00000000000E+00  0.00000000000E+00 -0.12016594306E+04  0.12016594306E+04  0.50400001928E-02 0. -1.
    10030    2    1    2    0    0  0.00000000000E+00  0.00000000000E+00 -0.10685986496E+04  0.13347202117E+04  0.79973431187E+03 0.  0.
        4    1    3    3  502    0 -0.12488429615E+03  0.35824714873E+03 -0.32348834920E+03  0.49858141960E+03  0.12699999809E+01 0.  1.
       -4    1    3    3    0  502  0.12488429615E+03 -0.35824714873E+03 -0.74511030038E+03  0.83613879209E+03  0.12699999809E+01 0. -1.
</event>
<event>
 5   0  0.4086111E-04  0.8000839E+03  0.7818609E-02  0.9559896E-01
       -1   -1    0    0    0  501  0.00000000000E+00  0.00000000000E+00  0.14093892702E+03  0.14093892711E+03  0.50400001928E-02 0.  1.
        1   -1    0    0  501    0  0.00000000000E+00  0.00000000000E+00 -0.11354816647E+04  0.11354816648E+04  0.50400001928E-02 0. -1.
    10030    2    1    2    0    0  0.00000000000E+00  0.00000000000E+00 -0.99454273773E+03  0.12764205919E+04  0.80008391446E+03 0.  0.
        3    1    3    3  502    0  0.26314156653E+03  0.62474915858E+01 -0.16671029346E+02  0.26374314893E+03  0.10100000352E+00 0.  1.
       -3    1    3    3    0  502 -0.26314156653E+03 -0.62474915858E+01 -0.97787170838E+03  0.10126774429E+04  0.10100000352E+00 0. -1.
</event>
<event>
 5   0  0.4087283E-04  0.7998274E+03  0.7818609E-02  0.9560267E-01
       -1   -1    0    0    0  501  0.00000000000E+00  0.00000000000E+00  0.30390385336E+03  0.30390385340E+03  0.50400001928E-02 0. -1.
        1   -1    0    0  501    0  0.00000000000E+00  0.00000000000E+00 -0.52625520070E+03  0.52625520073E+03  0.50400001928E-02 0.  1.
    10030    2    1    2    0    0  0.00000000000E+00  0.00000000000E+00 -0.22235134735E+03  0.83015905413E+03  0.79982743982E+03 0.  0.
        1    1    3    3  502    0  0.14778631835E+03  0.22458219560E+03  0.19611435181E+03  0.33277439427E+03  0.50400001928E-02 0. -1.
       -1    1    3    3    0  502 -0.14778631835E+03 -0.22458219560E+03 -0.41846569915E+03  0.49738465986E+03  0.50400001928E-02 0.  1.
</event>
<event>
 5   0  0.6801147E-04  0.7995963E+03  0.7818609E-02  0.9560602E-01
        2   -1    0    0  501    0  0.00000000000E+00  0.00000000000E+00  0.24506309521E+03  0.24506309522E+03  0.25500000920E-02 0. -1.
       -2   -1    0    0    0  501  0.00000000000E+00  0.00000000000E+00 -0.65223426682E+03  0.65223426682E+03  0.25500000920E-02 0.  1.
    10030    2    1    2    0    0  0.00000000000E+00  0.00000000000E+00 -0.40717117161E+03  0.89729736204E+03  0.79959626871E+03 0.  0.
        4    1    3    3  502    0  0.12303732870E+02 -0.12089806037E+03 -0.63100402974E+03  0.64260051455E+03  0.12699999809E+01 0.  1.
       -4    1    3    3    0  502 -0.12303732870E+02  0.12089806037E+03  0.22383285813E+03  0.25469684750E+03  0.12699999809E+01 0. -1.
</event>
<event>
 5   0  0.4169155E-04  0.8000444E+03  0.7818609E-02  0.9559953E-01
        1   -1    0    0  501    0  0.00000000000E+00  0.00000000000E+00  0.15803289852E+03  0.15803289860E+03  0.50400001928E-02 0.  1.
       -1   -1    0    0    0  501  0.00000000000E+00  0.00000000000E+00 -0.10125596957E+04  0.10125596958E+04  0.50400001928E-02 0. -1.
    10030    2    1    2    0    0  0.00000000000E+00  0.00000000000E+00 -0.85452679722E+03  0.11705925944E+04  0.80004435802E+03 0.  0.
        4    1    3    3  502    0 -0.28048117503E+03  0.19111035004E+03 -0.73703635432E+03  0.81142902088E+03  0.12699999809E+01 0. -1.
       -4    1    3    3    0  502  0.28048117503E+03 -0.19111035004E+03 -0.11749044290E+03  0.35916357348E+03  0.12699999809E+01 0.  1.
</event>
<event>
 5   0  0.2736375E-04  0.8000406E+03  0.7818609E-02  0.9559958E-01
       -3   -1    0    0    0  501  0.00000000000E+00  0.00000000000E+00  0.16122184115E+03  0.16122187278E+03  0.10100000352E+00 0. -1.
        3   -1    0    0  501    0  0.00000000000E+00  0.00000000000E+00 -0.99252199280E+03  0.99252199793E+03  0.10100000352E+00 0.  1.
    10030    2    1    2    0    0  0.00000000000E+00  0.00000000000E+00 -0.83130015165E+03  0.11537438707E+04  0.80004060965E+03 0.  0.
        5    1    3    3  502    0 -0.14240115218E+03  0.35286788762E+03 -0.23785335760E+03  0.44876513230E+03  0.46999998093E+01 0.  1.
       -5    1    3    3    0  502  0.14240115218E+03 -0.35286788762E+03 -0.59344679405E+03  0.70497873841E+03  0.46999998093E+01 0. -1.
</event>
<event>
 5   0  0.6593118E-04  0.8001924E+03  0.7818609E-02  0.9559739E-01
        2   -1    0    0  501    0  0.00000000000E+00  0.00000000000E+00  0.82266077459E+03  0.82266077459E+03  0.25500000920E-02 0.  1.
       -2   -1    0    0    0  501  0.00000000000E+00  0.00000000000E+00 -0.19458439807E+03  0.19458439808E+03  0.25500000920E-02 0. -1.
    10030    2    1    2    0    0  0.00000000000E+00  0.00000000000E+00  0.62807637652E+03  0.10172451727E+04  0.80019235599E+03 0.  0.
        1    1    3    3  502    0 -0.17368754302E+03  0.34845098940E+03  0.43118308387E+03  0.58095120832E+03  0.50400001928E-02 0. -1.
       -1    1    3    3    0  502  0.17368754302E+03 -0.34845098940E+03  0.19689329265E+03  0.43629396435E+03  0.50400001928E-02 0.  1.
</event>
<event>
 5   0  0.4086111E-04  0.7998454E+03  0.7818609E-02  0.9560241E-01
        1   -1    0    0  501    0  0.00000000000E+00  0.00000000000E+00  0.14424789168E+03  0.14424789177E+03  0.50400001928E-02 0. -1.
       -1   -1    0    0    0  501  0.00000000000E+00  0.00000000000E+00 -0.11087730357E+04  0.11087730357E+04  0.50400001928E-02 0.  1.
    10030    2    1    2    0    0  0.00000000000E+00  0.00000000000E+00 -0.96452514400E+03  0.12530209275E+04  0.79984541710E+03 0.  0.
        3    1    3    3  502    0 -0.25281547472E+02 -0.78719150705E+02  0.13071293713E+03  0.15466655574E+03  0.10100000352E+00 0. -1.
       -3    1    3    3    0  502  0.25281547472E+02  0.78719150705E+02 -0.10952380811E+04  0.10983543717E+04  0.10100000352E+00 0.  1.
</event>
<event>
 5   0  0.6970013E-04  0.7999793E+03  0.7818609E-02  0.9560047E-01
        2   -1    0    0  501    0  0.00000000000E+00  0.00000000000E+00  0.87920752308E+03  0.87920752309E+03  0.25500000920E-02 0.  1.
       -2   -1    0    0    0  501  0.00000000000E+00  0.00000000000E+00 -0.18197263738E+03  0.18197263740E+03  0.25500000920E-02 0. -1.
    10030    2    1    2    0    0  0.00000000000E+00  0.00000000000E+00  0.69723488570E+03  0.10611801605E+04  0.79997927920E+03 0.  0.
        3    1    3    3  502    0 -0.30996907319E+03  0.19891679079E+03  0.55558263203E+03  0.66657391729E+03  0.10100000352E+00 0. -1.
       -3    1    3    3    0  502  0.30996907319E+03 -0.19891679079E+03  0.14165225368E+03  0.39460624320E+03  0.10100000352E+00 0.  1.
</event>
<event>
 5   0  0.6593118E-04  0.7999115E+03  0.7818609E-02  0.9560145E-01
       -2   -1    0    0    0  501  0.00000000000E+00  0.00000000000E+00  0.25691663202E+03  0.25691663204E+03  0.25500000920E-02 0.  1.
        2   -1    0    0  501    0  0.00000000000E+00  0.00000000000E+00 -0.62263232552E+03  0.62263232552E+03  0.25500000920E-02 0. -1.
    10030    2    1    2    0    0  0.00000000000E+00  0.00000000000E+00 -0.36571569349E+03  0.87954895756E+03  0.79991149528E+03 0.  0.
        1    1    3    3  502    0 -0.42290451149E+02  0.37604112069E+03 -0.40469592227E+02  0.38056956608E+03  0.50400001928E-02 0. -1.
       -1    1    3    3    0  502  0.42290451149E+02 -0.37604112069E+03 -0.32524610127E+03  0.49897939148E+03  0.50400001928E-02 0.  1.
</event>
<event>
 5   0  0.4392552E-04  0.7998699E+03  0.7818609E-02  0.9560205E-01
       -1   -1    0    0    0  501  0.00000000000E+00  0.00000000000E+00  0.15448669285E+03  0.15448669293E+03  0.50400001928E-02 0. -1.
        1   -1    0    0  501    0  0.00000000000E+00  0.00000000000E+00 -0.10353509747E+04  0.10353509747E+04  0.50400001928E-02 0.  1.
    10030    2    1    2    0    0  0.00000000000E+00  0.00000000000E+00 -0.88086428184E+03  0.11898376676E+04  0.79986985960E+03 0.  0.
        5    1    3    3  502    0  0.27552104802E+03  0.25149269436E+03 -0.22607453567E+03  0.43622495217E+03  0.46999998093E+01 0. -1.
       -5    1    3    3    0  502 -0.27552104802E+03 -0.25149269436E+03 -0.65478974617E+03  0.75361271546E+03  0.46999998093E+01 0.  1.
</event>
<event>
 5   0  0.4104786E-04  0.8004036E+03  0.7818609E-02  0.9559433E-01
       -1   -1    0    0    0  501  0.00000000000E+00  0.00000000000E+00  0.94815955524E+02  0.94815955658E+02  0.50400001928E-02 0. -1.
        1   -1    0    0  501    0  0.00000000000E+00  0.00000000000E+00 -0.16891827836E+04  0.16891827836E+04  0.50400001928E-02 0.  1.
    10030    2    1    2    0    0  0.00000000000E+00  0.00000000000E+00 -0.15943668280E+04  0.17839987392E+04  0.80040359770E+03 0.  0.
        2    1    3    3  502    0 -0.19304718293E+03  0.12221047331E+03 -0.15295266360E+04  0.15464974442E+04  0.25500000920E-02 0.  1.
       -2    1    3    3    0  502  0.19304718293E+03 -0.12221047331E+03 -0.64840192000E+02  0.23750129501E+03  0.25500000920E-02 0. -1.
</event>
<event>
 5   0  0.7133039E-04  0.7996669E+03  0.7818609E-02  0.9560499E-01
       -2   -1    0    0    0  501  0.00000000000E+00  0.00000000000E+00  0.20452463964E+03  0.20452463966E+03  0.25500000920E-02 0. -1.
        2   -1    0    0  501    0  0.00000000000E+00  0.00000000000E+00 -0.78165057963E+03  0.78165057963E+03  0.25500000920E-02 0.  1.
    10030    2    1    2    0    0  0.00000000000E+00  0.00000000000E+00 -0.57712593998E+03  0.98617521929E+03  0.79966693851E+03 0.  0.
        2    1    3    3  502    0  0.10193008341E+02  0.39644102946E+03 -0.22571146382E+03  0.45630587566E+03  0.25500000920E-02 0. -1.
       -2    1    3    3    0  502 -0.10193008341E+02 -0.39644102946E+03 -0.35141447617E+03  0.52986934363E+03  0.25500000920E-02 0.  1.
</event>
<event>
 5   0  0.7133039E-04  0.7999146E+03  0.7818609E-02  0.9560141E-01
        2   -1    0    0  501    0  0.00000000000E+00  0.00000000000E+00  0.70687964036E+03  0.70687964037E+03  0.25500000920E-02 0.  1.
       -2   -1    0    0    0  501  0.00000000000E+00  0.00000000000E+00 -0.22629858046E+03  0.22629858048E+03  0.25500000920E-02 0. -1.
    10030    2    1    2    0    0  0.00000000000E+00  0.00000000000E+00  0.48058105990E+03  0.93317822085E+03  0.79991464340E+03 0.  0.
        2    1    3    3  502    0  0.20818982268E+03  0.65889409104E+02 -0.15061781287E+03  0.26527371159E+03  0.25500000920E-02 0. -1.
       -2    1    3    3    0  502 -0.20818982268E+03 -0.65889409104E+02  0.63119887277E+03  0.66790450926E+03  0.25500000920E-02 0.  1.
</event>
<event>
 5   0  0.4087283E-04  0.7999080E+03  0.7818609E-02  0.9560150E-01
       -1   -1    0    0    0  501  0.00000000000E+00  0.00000000000E+00  0.38937858614E+03  0.38937858618E+03  0.50400001928E-02 0.  1.
        1   -1    0    0  501    0  0.00000000000E+00  0.00000000000E+00 -0.41081668666E+03  0.41081668669E+03  0.50400001928E-02 0. -1.
    10030    2    1    2    0    0  0.00000000000E+00  0.00000000000E+00 -0.21438100517E+02  0.80019527287E+03  0.79990804632E+03 0.  0.
        1    1    3    3  502    0  0.28945129943E+03 -0.24880377929E+03  0.10881379353E+03  0.39689522171E+03  0.50400001928E-02 0. -1.
       -1    1    3    3    0  502 -0.28945129943E+03  0.24880377929E+03 -0.13025189405E+03  0.40330005115E+03  0.50400001928E-02 0.  1.
</event>
<event>
 5   0  0.4104786E-04  0.7999513E+03  0.7818609E-02  0.9560088E-01
        1   -1    0    0  501    0  0.00000000000E+00  0.00000000000E+00  0.53286365105E+03  0.53286365107E+03  0.50400001928E-02 0. -1.
       -1   -1    0    0    0  501  0.00000000000E+00  0.00000000000E+00 -0.30022786468E+03  0.30022786472E+03  0.50400001928E-02 0.  1.
    10030    2    1    2    0    0  0.00000000000E+00  0.00000000000E+00  0.23263578637E+03  0.83309151580E+03  0.79995128889E+03 0.  0.
        2    1    3    3  502    0  0.36791513751E+03 -0.70613114470E+02 -0.29603780250E+02  0.37579800978E+03  0.25500000920E-02 0.  1.
       -2    1    3    3    0  502 -0.36791513751E+03  0.70613114470E+02  0.26223956662E+03  0.45729350602E+03  0.25500000920E-02 0. -1.
</event>
<event>
 5   0  0.6593118E-04  0.7995180E+03  0.7818609E-02  0.9560715E-01
        2   -1    0    0  501    0  0.00000000000E+00  0.00000000000E+00  0.43600181142E+03  0.43600181143E+03  0.25500000920E-02 0. -1.
       -2   -1    0    0    0  501  0.00000000000E+00  0.00000000000E+00 -0.36652887652E+03  0.36652887653E+03  0.25500000920E-02 0.  1.
    10030    2    1    2    0    0  0.00000000000E+00  0.00000000000E+00  0.69472934899E+02  0.80253068796E+03  0.79951799006E+03 0.  0.
        1    1    3    3  502    0  0.39370215819E+02  0.12188494248E+03  0.41484704381E+03  0.43417049978E+03  0.50400001928E-02 0. -1.
       -1    1    3    3    0  502 -0.39370215819E+02 -0.12188494248E+03 -0.34537410891E+03  0.36836018817E+03  0.50400001928E-02 0.  1.
</event>
<event>
 5   0  0.4169155E-04  0.7995737E+03  0.7818609E-02  0.9560634E-01
        1   -1    0    0  501    0  0.00000000000E+00  0.00000000000E+00  0.12663982484E+04  0.12663982484E+04  0.50400001928E-02 0. -1.
       -1   -1    0    0    0  501  0.00000000000E+00  0.00000000000E+00 -0.12620795282E+03  0.12620795292E+03  0.50400001928E-02 0.  1.
    10030    2    1    2    0    0  0.00000000000E+00  0.00000000000E+00  0.11401902956E+04  0.13926062013E+04  0.79957371259E+03 0.  0.
        4    1    3    3  502    0  0.23950802576E+03 -0.17069702292E+03  0.98466855783E+02  0.31015947934E+03  0.12699999809E+01 0.  1.
       -4    1    3    3    0  502 -0.23950802576E+03  0.17069702292E+03  0.10417234398E+04  0.10824467220E+04  0.12699999809E+01 0. -1.
</event>
<event>
 5   0  0.6593118E-04  0.8002727E+03  0.7818609E-02  0.9559622E-01
        2   -1    0    0  501    0  0.00000000000E+00  0.00000000000E+00  0.94788895919E+03  0.94788895919E+03  0.25500000920E-02 0.  1.
       -2   -1    0    0    0  501  0.00000000000E+00  0.00000000000E+00 -0.16891124074E+03  0.16891124076E+03  0.25500000920E-02 0. -1.
    10030    2    1    2    0    0  0.00000000000E+00  0.00000000000E+00  0.77897771844E+03  0.11168002000E+04  0.80027270401E+03 0.  0.
        1    1    3    3  502    0 -0.36235227198E+03 -0.16729932262E+03  0.34950597738E+03  0.53051169696E+03  0.50400001928E-02 0. -1.
       -1    1    3    3    0  502  0.36235227198E+03  0.16729932262E+03  0.42947174106E+03  0.58628850300E+03  0.50400001928E-02 0.  1.
</event>
<event>
 5   0  0.4087283E-04  0.7999755E+03  0.7818609E-02  0.9560053E-01
        1   -1    0    0  501    0  0.00000000000E+00  0.00000000000E+00  0.78538867295E+03  0.78538867296E+03  0.50400001928E-02 0.  1.
       -1   -1    0    0    0  501  0.00000000000E+00  0.00000000000E+00 -0.20370829680E+03  0.20370829686E+03  0.50400001928E-02 0. -1.
    10030    2    1    2    0    0  0.00000000000E+00  0.00000000000E+00  0.58168037614E+03  0.98909696982E+03  0.79997547195E+03 0.  0.
        1    1    3    3  502    0  0.75044540244E+01 -0.29708052586E+02 -0.20225505932E+03  0.20456293473E+03  0.50400001928E-02 0. -1.
       -1    1    3    3    0  502 -0.75044540244E+01  0.29708052586E+02  0.78393543547E+03  0.78453403510E+03  0.50400001928E-02 0.  1.
</event>
<event>
 5   0  0.6801147E-04  0.7994115E+03  0.7818609E-02  0.9560869E-01
        2   -1    0    0  501    0  0.00000000000E+00  0.00000000000E+00  0.40718875439E+03  0.40718875439E+03  0.25500000920E-02 0. -1.
       -2   -1    0    0    0  501  0.00000000000E+00  0.00000000000E+00 -0.39236028906E+03  0.39236028907E+03  0.25500000920E-02 0.  1.
    10030    2    1    2    0    0  0.00000000000E+00  0.00000000000E+00  0.14828465325E+02  0.79954904346E+03  0.79941152701E+03 0.  0.
        4    1    3    3  502    0  0.22203256204E+03 -0.18842529404E+03  0.28125054580E+03  0.40485309985E+03  0.12699999809E+01 0. -1.
       -4    1    3    3    0  502 -0.22203256204E+03  0.18842529404E+03 -0.26642208048E+03  0.39469594362E+03  0.12699999809E+01 0.  1.
</event>
<event>
 5   0  0.4392552E-04  0.7996083E+03  0.7818609E-02  0.9560584E-01
       -1   -1    0    0    0  501  0.00000000000E+00  0.00000000000E+00  0.24749295329E+03  0.24749295334E+03  0.50400001928E-02 0. -1.
        1   -1    0    0  501    0  0.00000000000E+00  0.00000000000E+00 -0.64585017113E+03  0.64585017114E+03  0.50400001928E-02 0.  1.
    10030    2    1    2    0    0  0.00000000000E+00  0.00000000000E+00 -0.39835721784E+03  0.89334312448E+03  0.79960831978E+03 0.  0.
        5    1    3    3  502    0 -0.23603247454E+02  0.11359301631E+03  0.22823994138E+03  0.25607820580E+03  0.46999998093E+01 0. -1.
       -5    1    3    3    0  502  0.23603247454E+02 -0.11359301631E+03 -0.62659715922E+03  0.63726491868E+03  0.46999998093E+01 0.  1.
</event>
<event>
 5   0  0.6970013E-04  0.8000033E+03  0.7818609E-02  0.9560012E-01
       -2   -1    0    0    0  501  0.00000000000E+00  0.00000000000E+00  0.42239105235E+03  0.42239105235E+03  0.25500000920E-02 0. -1.
        2   -1    0    0  501    0  0.00000000000E+00  0.00000000000E+00 -0.37879899803E+03  0.37879899804E+03  0.25500000920E-02 0.  1.
    10030    2    1    2    0    0  0.00000000000E+00  0.00000000000E+00  0.43592054313E+02  0.80119005039E+03  0.80000326852E+03 0.  0.
        3    1    3    3  502    0 -0.23572641046E+03  0.30045108013E+03  0.14098310090E+03  0.40707989029E+03  0.10100000352E+00 0. -1.
       -3    1    3    3    0  502  0.23572641046E+03 -0.30045108013E+03 -0.97391046584E+02  0.39411016010E+03  0.10100000352E+00 0.  1.
</event>
<event>
 5   0  0.7133039E-04  0.7999372E+03  0.7818609E-02  0.9560108E-01
       -2   -1    0    0    0  501  0.00000000000E+00  0.00000000000E+00  0.10917633319E+03  0.10917633322E+03  0.25500000920E-02 0.  1.
        2   -1    0    0  501    0  0.00000000000E+00  0.00000000000E+00 -0.14652891331E+04  0.14652891331E+04  0.25500000920E-02 0. -1.
    10030    2    1    2    0    0  0.00000000000E+00  0.00000000000E+00 -0.13561127999E+04  0.15744654663E+04  0.79993723413E+03 0.  0.
        2    1    3    3  502    0  0.86475732481E+02 -0.28110325190E+03 -0.12115820600E+04  0.12467670908E+04  0.25500000920E-02 0.  1.
       -2    1    3    3    0  502 -0.86475732481E+02  0.28110325190E+03 -0.14453073988E+03  0.32769837551E+03  0.25500000920E-02 0. -1.
</event>
<event>
 5   0  0.6593118E-04  0.7998112E+03  0.7818609E-02  0.9560290E-01
        2   -1    0    0  501    0  0.00000000000E+00  0.00000000000E+00  0.10416917077E+04  0.10416917077E+04  0.25500000920E-02 0.  1.
       -2   -1    0    0    0  501  0.00000000000E+00  0.00000000000E+00 -0.15352380577E+03  0.15352380579E+03  0.25500000920E-02 0. -1.
    10030    2    1    2    0    0  0.00000000000E+00  0.00000000000E+00  0.88816790193E+03  0.11952155135E+04  0.79981116627E+03 0.  0.
        1    1    3    3  502    0  0.40699649549E+02 -0.39640201477E+03  0.49439474926E+03  0.63499384793E+03  0.50400001928E-02 0.  1.
       -1    1    3    3    0  502 -0.40699649549E+02  0.39640201477E+03  0.39377315267E+03  0.56022166557E+03  0.50400001928E-02 0. -1.
</event>
<event>
 5   0  0.4104786E-04  0.8002750E+03  0.7818609E-02  0.9559619E-01
       -1   -1    0    0    0  501  0.00000000000E+00  0.00000000000E+00  0.23097213606E+03  0.23097213612E+03  0.50400001928E-02 0.  1.
        1   -1    0    0  501    0  0.00000000000E+00  0.00000000000E+00 -0.69320066384E+03  0.69320066386E+03  0.50400001928E-02 0. -1.
    10030    2    1    2    0    0  0.00000000000E+00  0.00000000000E+00 -0.46222852778E+03  0.92417279997E+03  0.80027504792E+03 0.  0.
        2    1    3    3  502    0 -0.46035911751E+02 -0.43315980778E+02  0.22516997768E+03  0.23387410762E+03  0.25500000920E-02 0.  1.
       -2    1    3    3    0  502  0.46035911751E+02  0.43315980778E+02 -0.68739850545E+03  0.69029869236E+03  0.25500000920E-02 0. -1.
</event>
<event>
 5   0  0.7133039E-04  0.8000672E+03  0.7818609E-02  0.9559920E-01
        2   -1    0    0  501    0  0.00000000000E+00  0.00000000000E+00  0.15385787097E+04  0.15385787097E+04  0.25500000920E-02 0. -1.
       -2   -1    0    0    0  501  0.00000000000E+00  0.00000000000E+00 -0.10400954566E+03  0.10400954569E+03  0.25500000920E-02 0.  1.
    10030    2    1    2    0    0  0.00000000000E+00  0.00000000000E+00  0.14345691640E+04  0.16425882554E+04  0.80006717862E+03 0.  0.
        2    1    3    3  502    0  0.17523547625E+03 -0.33343736403E+03  0.99379279003E+03  0.10627850476E+04  0.25500000920E-02 0. -1.
       -2    1    3    3    0  502 -0.17523547625E+03  0.33343736403E+03  0.44077637401E+03  0.57980320779E+03  0.25500000920E-02 0.  1.
</event>
<event>
 5   0  0.4086111E-04  0.7998214E+03  0.7818609E-02  0.9560276E-01
       -1   -1    0    0    0  501  0.00000000000E+00  0.00000000000E+00  0.32636667890E+03  0.32636667894E+03  0.50400001928E-02 0. -1.
        1   -1    0    0  501    0  0.00000000000E+00  0.00000000000E+00 -0.49002728340E+03  0.49002728343E+03  0.50400001928E-02 0.  1.
    10030    2    1    2    0    0  0.00000000000E+00  0.00000000000E+00 -0.16366060450E+03  0.81639396237E+03  0.79982142277E+03 0.  0.
        3    1    3    3  502    0  0.18709329697E+03  0.63213458046E+02 -0.43678382183E+03  0.47935369015E+03  0.10100000352E+00 0.  1.
       -3    1    3    3    0  502 -0.18709329697E+03 -0.63213458046E+02  0.27312321733E+03  0.33704027221E+03  0.10100000352E+00 0. -1.
</event>
<event>
 5   0  0.4104786E-04  0.8005445E+03  0.7818609E-02  0.9559229E-01
       -1   -1    0    0    0  501  0.00000000000E+00  0.00000000000E+00  0.38211228092E+03  0.38211228095E+03  0.50400001928E-02 0. -1.
        1   -1    0    0  501    0  0.00000000000E+00  0.00000000000E+00 -0.41929526419E+03  0.41929526422E+03  0.50400001928E-02 0.  1.
    10030    2    1    2    0    0  0.00000000000E+00  0.00000000000E+00 -0.37182983268E+02  0.80140754517E+03  0.80054448921E+03 0.  0.
        2    1    3    3  502    0 -0.20708707945E+03 -0.30430877618E+03 -0.17601553281E+03  0.40800779102E+03  0.25500000920E-02 0.  1.
       -2    1    3    3    0  502  0.20708707945E+03  0.30430877618E+03  0.13883254954E+03  0.39339975414E+03  0.25500000920E-02 0. -1.
</event>
<event>
 5   0  0.4104786E-04  0.7995467E+03  0.7818609E-02  0.9560673E-01
       -1   -1    0    0    0  501  0.00000000000E+00  0.00000000000E+00  0.26945834051E+03  0.26945834056E+03  0.50400001928E-02 0.  1.
        1   -1    0    0  501    0  0.00000000000E+00  0.00000000000E+00 -0.59311114894E+03  0.59311114896E+03  0.50400001928E-02 0. -1.
    10030    2    1    2    0    0  0.00000000000E+00  0.00000000000E+00 -0.32365280843E+03  0.86256948951E+03  0.79954673649E+03 0.  0.
        2    1    3    3  502    0 -0.39610371040E+03 -0.53000081322E+02 -0.15043023570E+03  0.42700868122E+03  0.25500000920E-02 0. -1.
       -2    1    3    3    0  502  0.39610371040E+03  0.53000081322E+02 -0.17322257272E+03  0.43556080830E+03  0.25500000920E-02 0.  1.
</event>
<event>
 5   0  0.4392552E-04  0.7996771E+03  0.7818609E-02  0.9560485E-01
        1   -1    0    0  501    0  0.00000000000E+00  0.00000000000E+00  0.87336703741E+03  0.87336703742E+03  0.50400001928E-02 0. -1.
       -1   -1    0    0    0  501  0.00000000000E+00  0.00000000000E+00 -0.18305116653E+03  0.18305116660E+03  0.50400001928E-02 0.  1.
    10030    2    1    2    0    0  0.00000000000E+00  0.00000000000E+00  0.69031587087E+03  0.10564182040E+04  0.79967707246E+03 0.  0.
        5    1    3    3  502    0  0.49714344897E+02  0.10094649119E+03 -0.16166474272E+03  0.19702611301E+03  0.46999998093E+01 0.  1.
       -5    1    3    3    0  502 -0.49714344897E+02 -0.10094649119E+03  0.85198061359E+03  0.85939209101E+03  0.46999998093E+01 0. -1.
</event>
<event>
 5   0  0.6593118E-04  0.7999453E+03  0.7818609E-02  0.9560096E-01
       -2   -1    0    0    0  501  0.00000000000E+00  0.00000000000E+00  0.29045210917E+03  0.29045210919E+03  0.25500000920E-02 0. -1.
        2   -1    0    0  501    0  0.00000000000E+00  0.00000000000E+00 -0.55079001511E+03  0.55079001511E+03  0.25500000920E-02 0.  1.
    10030    2    1    2    0    0  0.00000000000E+00  0.00000000000E+00 -0.26033790593E+03  0.84124212430E+03  0.79994530215E+03 0.  0.
        1    1    3    3  502    0  0.38185744020E+00  0.63782228545E+02 -0.54540727811E+03  0.54912422778E+03  0.50400001928E-02 0.  1.
       -1    1    3    3    0  502 -0.38185744020E+00 -0.63782228545E+02  0.28506937217E+03  0.29211789652E+03  0.50400001928E-02 0. -1.
</event>
<event>
 5   0  0.6801147E-04  0.8003266E+03  0.7818609E-02  0.9559545E-01
       -2   -1    0    0    0  501  0.00000000000E+00  0.00000000000E+00  0.62487310908E+03  0.62487310908E+03  0.25500000920E-02 0. -1.
        2   -1    0    0  501    0  0.00000000000E+00  0.00000000000E+00 -0.25626108909E+03  0.25626108910E+03  0.25500000920E-02 0.  1.
    10030    2    1    2    0    0  0.00000000000E+00  0.00000000000E+00  0.36861201998E+03  0.88113419819E+03  0.80032659205E+03 0.  0.
        4    1    3    3  502    0  0.40358712810E+02  0.27419790489E+03 -0.13348259601E+03  0.30762401252E+03  0.12699999809E+01 0.  1.
       -4    1    3    3    0  502 -0.40358712810E+02 -0.27419790489E+03  0.50209461600E+03  0.57351018566E+03  0.12699999809E+01 0. -1.
</event>
<event>
 5   0  0.6970013E-04  0.8001632E+03  0.7818609E-02  0.9559781E-01
       -2   -1    0    0    0  501  0.00000000000E+00  0.00000000000E+00  0.19554952474E+03  0.19554952475E+03  0.25500000920E-02 0. -1.
        2   -1    0    0  501    0  0.00000000000E+00  0.00000000000E+00 -0.81854082507E+03  0.81854082508E+03  0.25500000920E-02 0.  1.
    10030    2    1    2    0    0  0.00000000000E+00  0.00000000000E+00 -0.62299130033E+03  0.10140903498E+04  0.80016315669E+03 0.  0.
        3    1    3    3  502    0  0.13544000718E+03  0.15208318701E+03  0.12494554576E+03  0.23892402751E+03  0.10100000352E+00 0. -1.
       -3    1    3    3    0  502 -0.13544000718E+03 -0.15208318701E+03 -0.74793684609E+03  0.77516632232E+03  0.10100000352E+00 0.  1.
</event>
<event>
 5   0  0.4104786E-04  0.7999672E+03  0.7818609E-02  0.9560065E-01
        1   -1    0    0  501    0  0.00000000000E+00  0.00000000000E+00  0.25100818123E+03  0.25100818128E+03  0.50400001928E-02 0. -1.
       -1   -1    0    0    0  501  0.00000000000E+00  0.00000000000E+00 -0.63737709997E+03  0.63737709999E+03  0.50400001928E-02 0.  1.
    10030    2    1    2    0    0  0.00000000000E+00  0.00000000000E+00 -0.38636891874E+03  0.88838528127E+03  0.79996716596E+03 0.  0.
        2    1    3    3  502    0 -0.21628412297E+03  0.54884642771E+02 -0.56183218381E+03  0.60452175199E+03  0.25500000920E-02 0.  1.
       -2    1    3    3    0  502  0.21628412297E+03 -0.54884642771E+02  0.17546326507E+03  0.28386352928E+03  0.25500000920E-02 0. -1.
</event>
<event>
 5   0  0.2736375E-04  0.7995571E+03  0.7818609E-02  0.9560658E-01
       -4   -1    0    0    0  501  0.00000000000E+00  0.00000000000E+00  0.16569388296E+03  0.16569875000E+03  0.12699999809E+01 0. -1.
        4   -1    0    0  501    0  0.00000000000E+00  0.00000000000E+00 -0.96454782851E+03  0.96454866460E+03  0.12699999809E+01 0.  1.
    10030    2    1    2    0    0  0.00000000000E+00  0.00000000000E+00 -0.79885394554E+03  0.11302474146E+04  0.79955712235E+03 0.  0.
        2    1    3    3  502    0  0.83173409273E+02  0.27849619356E+03 -0.78744428825E+03  0.83937265439E+03  0.25500000920E-02 0.  1.
       -2    1    3    3    0  502 -0.83173409273E+02 -0.27849619356E+03 -0.11409657294E+02  0.29087476021E+03  0.25500000920E-02 0. -1.
</event>
<event>
 5   0  0.4392552E-04  0.7948806E+03  0.7818609E-02  0.9567457E-01
        1   -1    0    0  501    0  0.00000000000E+00  0.00000000000E+00  0.64554505233E+03  0.64554505234E+03  0.50400001928E-02 0.  1.
       -1   -1    0    0    0  501  0.00000000000E+00  0.00000000000E+00 -0.24469059071E+03  0.24469059076E+03  0.50400001928E-02 0. -1.
    10030    2    1    2    0    0  0.00000000000E+00  0.00000000000E+00  0.40085446162E+03  0.89023564310E+03  0.79488062050E+03 0.  0.
        5    1    3    3  502    0 -0.21237879290E+03  0.28670637744E+03  0.39644099811E+03  0.53337871491E+03  0.46999998093E+01 0.  1.
       -5    1    3    3    0  502  0.21237879290E+03 -0.28670637744E+03  0.44134635150E+01  0.35685692819E+03  0.46999998093E+01 0. -1.
</event>
<event>
 5   0  0.4392552E-04  0.8002333E+03  0.7818609E-02  0.9559680E-01
       -1   -1    0    0    0  501  0.00000000000E+00  0.00000000000E+00  0.20640759131E+03  0.20640759137E+03  0.50400001928E-02 0. -1.
        1   -1    0    0  501    0  0.00000000000E+00  0.00000000000E+00 -0.77561739656E+03  0.77561739658E+03  0.50400001928E-02 0.  1.
    10030    2    1    2    0    0  0.00000000000E+00  0.00000000000E+00 -0.56920980525E+03  0.98202498795E+03  0.80023326259E+03 0.  0.
        5    1    3    3  502    0  0.12326316937E+03 -0.35829796906E+03 -0.12697169418E+03  0.39964377222E+03  0.46999998093E+01 0. -1.
       -5    1    3    3    0  502 -0.12326316937E+03  0.35829796906E+03 -0.44223811107E+03  0.58238121573E+03  0.46999998093E+01 0.  1.
</event>
<event>
 5   0  0.4169155E-04  0.7997678E+03  0.7818609E-02  0.9560353E-01
        1   -1    0    0  501    0  0.00000000000E+00  0.00000000000E+00  0.59024918095E+03  0.59024918097E+03  0.50400001928E-02 0.  1.
       -1   -1    0    0    0  501  0.00000000000E+00  0.00000000000E+00 -0.27091459929E+03  0.27091459934E+03  0.50400001928E-02 0. -1.
    10030    2    1    2    0    0  0.00000000000E+00  0.00000000000E+00  0.31933458166E+03  0.86116378032E+03  0.79976776722E+03 0.  0.
        4    1    3    3  502    0  0.19149933383E+03 -0.21854041960E+03 -0.13614715916E+03  0.32088872169E+03  0.12699999809E+01 0. -1.
       -4    1    3    3    0  502 -0.19149933383E+03  0.21854041960E+03  0.45548174082E+03  0.54027505863E+03  0.12699999809E+01 0.  1.
</event>
<event>
 5   0  0.4087283E-04  0.8001323E+03  0.7818609E-02  0.9559826E-01
        1   -1    0    0  501    0  0.00000000000E+00  0.00000000000E+00  0.94371400388E+03  0.94371400389E+03  0.50400001928E-02 0. -1.
       -1   -1    0    0    0  501  0.00000000000E+00  0.00000000000E+00 -0.16959896889E+03  0.16959896896E+03  0.50400001928E-02 0.  1.
    10030    2    1    2    0    0  0.00000000000E+00  0.00000000000E+00  0.77411503499E+03  0.11133129729E+04  0.80013229414E+03 0.  0.
        1    1    3    3  502    0 -0.35662751655E+03 -0.11145724071E+03  0.58601967453E+03  0.69499997196E+03  0.50400001928E-02 0. -1.
       -1    1    3    3    0  502  0.35662751655E+03  0.11145724071E+03  0.18809536046E+03  0.41831300090E+03  0.50400001928E-02 0.  1.
</event>
<event>
 5   0  0.6801147E-04  0.8001889E+03  0.7818609E-02  0.9559744E-01
       -2   -1    0    0    0  501  0.00000000000E+00  0.00000000000E+00  0.21789874456E+03  0.21789874458E+03  0.25500000920E-02 0.  1.
        2   -1    0    0  501    0  0.00000000000E+00  0.00000000000E+00 -0.73463284109E+03  0.73463284110E+03  0.25500000920E-02 0. -1.
    10030    2    1    2    0    0  0.00000000000E+00  0.00000000000E+00 -0.51673409653E+03  0.95253158567E+03  0.80018891219E+03 0.  0.
        4    1    3    3  502    0 -0.11433692626E+03  0.18871297685E+03  0.13892229723E+03  0.26074228255E+03  0.12699999809E+01 0.  1.
       -4    1    3    3    0  502  0.11433692626E+03 -0.18871297685E+03 -0.65565639376E+03  0.69178930313E+03  0.12699999809E+01 0. -1.
</event>
<event>
 5   0  0.6672462E-04  0.8000120E+03  0.7818609E-02  0.9560000E-01
       -2   -1    0    0    0  501  0.00000000000E+00  0.00000000000E+00  0.13173180769E+03  0.13173180771E+03  0.25500000920E-02 0.  1.
        2   -1    0    0  501    0  0.00000000000E+00  0.00000000000E+00 -0.12146252600E+04  0.12146252600E+04  0.25500000920E-02 0. -1.
    10030    2    1    2    0    0  0.00000000000E+00  0.00000000000E+00 -0.10828934523E+04  0.13463570677E+04  0.80001195287E+03 0.  0.
        5    1    3    3  502    0  0.29340906826E+03  0.23507573444E+03 -0.31172207248E+03  0.48840784467E+03  0.46999998093E+01 0.  1.
       -5    1    3    3    0  502 -0.29340906826E+03 -0.23507573444E+03 -0.77117137986E+03  0.85794922307E+03  0.46999998093E+01 0. -1.
</event>
<event>
 5   0  0.4392552E-04  0.7998633E+03  0.7818609E-02  0.9560215E-01
       -1   -1    0    0    0  501  0.00000000000E+00  0.00000000000E+00  0.22584075805E+03  0.22584075811E+03  0.50400001928E-02 0.  1.
        1   -1    0    0  501    0  0.00000000000E+00  0.00000000000E+00 -0.70822175966E+03  0.70822175968E+03  0.50400001928E-02 0. -1.
    10030    2    1    2    0    0  0.00000000000E+00  0.00000000000E+00 -0.48238100160E+03  0.93406251779E+03  0.79986333609E+03 0.  0.
        5    1    3    3  502    0 -0.19561216860E+03  0.31351436944E+03 -0.41970344270E+03  0.55922128908E+03  0.46999998093E+01 0. -1.
       -5    1    3    3    0  502  0.19561216860E+03 -0.31351436944E+03 -0.62677558908E+02  0.37484122871E+03  0.46999998093E+01 0.  1.
</event>
<event>
 5   0  0.6593118E-04  0.7974586E+03  0.7818609E-02  0.9563703E-01
        2   -1    0    0  501    0  0.00000000000E+00  0.00000000000E+00  0.30358601405E+03  0.30358601406E+03  0.25500000920E-02 0.  1.
       -2   -1    0    0    0  501  0.00000000000E+00  0.00000000000E+00 -0.52369035740E+03  0.52369035740E+03  0.25500000920E-02 0. -1.
    10030    2    1    2    0    0  0.00000000000E+00  0.00000000000E+00 -0.22010434335E+03  0.82727637146E+03  0.79745863392E+03 0.  0.
        1    1    3    3  502    0  0.94832232531E+02  0.34014576245E+03  0.82055088446E+02  0.36252631574E+03  0.50400001928E-02 0.  1.
       -1    1    3    3    0  502 -0.94832232531E+02 -0.34014576245E+03 -0.30215943179E+03  0.46475005572E+03  0.50400001928E-02 0. -1.
</event>
<event>
 5   0  0.7133039E-04  0.8000673E+03  0.7818609E-02  0.9559920E-01
       -2   -1    0    0    0  501  0.00000000000E+00  0.00000000000E+00  0.57971110231E+02  0.57971110287E+02  0.25500000920E-02 0.  1.
        2   -1    0    0  501    0  0.00000000000E+00  0.00000000000E+00 -0.27604599881E+04  0.27604599881E+04  0.25500000920E-02 0. -1.
    10030    2    1    2    0    0  0.00000000000E+00  0.00000000000E+00 -0.27024888779E+04  0.28184310984E+04  0.80006732302E+03 0.  0.
        2    1    3    3  502    0  0.34003913370E+03 -0.71240353016E+02 -0.20498241571E+04  0.20790576893E+04  0.25500000920E-02 0. -1.
       -2    1    3    3    0  502 -0.34003913370E+03  0.71240353016E+02 -0.65266472078E+03  0.73937340911E+03  0.25500000920E-02 0.  1.
</event>
<event>
 5   0  0.7133039E-04  0.8000488E+03  0.7818609E-02  0.9559947E-01
       -2   -1    0    0    0  501  0.00000000000E+00  0.00000000000E+00  0.28617446578E+03  0.28617446579E+03  0.25500000920E-02 0. -1.
        2   -1    0    0  501    0  0.00000000000E+00  0.00000000000E+00 -0.55916767005E+03  0.55916767006E+03  0.25500000920E-02 0.  1.
    10030    2    1    2    0    0  0.00000000000E+00  0.00000000000E+00 -0.27299320427E+03  0.84534213584E+03  0.80004877167E+03 0.  0.
        2    1    3    3  502    0  0.20304246872E+03  0.21613817586E+03 -0.42016834330E+03  0.51427948811E+03  0.25500000920E-02 0.  1.
       -2    1    3    3    0  502 -0.20304246872E+03 -0.21613817586E+03  0.14717513903E+03  0.33106264773E+03  0.25500000920E-02 0. -1.
</event>
<event>
 5   0  0.4169155E-04  0.7987874E+03  0.7818609E-02  0.9561774E-01
        1   -1    0    0  501    0  0.00000000000E+00  0.00000000000E+00  0.11162151187E+04  0.11162151187E+04  0.50400001928E-02 0. -1.
       -1   -1    0    0    0  501  0.00000000000E+00  0.00000000000E+00 -0.14290732868E+03  0.14290732877E+03  0.50400001928E-02 0.  1.
    10030    2    1    2    0    0  0.00000000000E+00  0.00000000000E+00  0.97330779001E+03  0.12591224475E+04  0.79878738324E+03 0.  0.
        4    1    3    3  502    0  0.16792183473E+03 -0.25800602460E+02  0.10564139079E+04  0.10699884912E+04  0.12699999809E+01 0. -1.
       -4    1    3    3    0  502 -0.16792183473E+03  0.25800602460E+02 -0.83106117901E+02  0.18913395623E+03  0.12699999809E+01 0.  1.
</event>
<event>
 5   0  0.4087283E-04  0.7999848E+03  0.7818609E-02  0.9560039E-01
       -1   -1    0    0    0  501  0.00000000000E+00  0.00000000000E+00  0.20362686888E+03  0.20362686895E+03  0.50400001928E-02 0.  1.
        1   -1    0    0  501    0  0.00000000000E+00  0.00000000000E+00 -0.78572105215E+03  0.78572105216E+03  0.50400001928E-02 0. -1.
    10030    2    1    2    0    0  0.00000000000E+00  0.00000000000E+00 -0.58209418326E+03  0.98934792111E+03  0.79998479412E+03 0.  0.
        1    1    3    3  502    0 -0.35210968929E+03 -0.18966812246E+03 -0.28335483388E+03  0.49014813259E+03  0.50400001928E-02 0. -1.
       -1    1    3    3    0  502  0.35210968929E+03  0.18966812246E+03 -0.29873934938E+03  0.49919978852E+03  0.50400001928E-02 0.  1.
</event>
<event>
 5   0  0.6672462E-04  0.8000130E+03  0.7818609E-02  0.9559998E-01
       -2   -1    0    0    0  501  0.00000000000E+00  0.00000000000E+00  0.12229213587E+03  0.12229213589E+03  0.25500000920E-02 0.  1.
        2   -1    0    0  501    0  0.00000000000E+00  0.00000000000E+00 -0.13083849034E+04  0.13083849034E+04  0.25500000920E-02 0. -1.
    10030    2    1    2    0    0  0.00000000000E+00  0.00000000000E+00 -0.11860927676E+04  0.14306770393E+04  0.80001296089E+03 0.  0.
        5    1    3    3  502    0 -0.95952675011E+02 -0.25289900386E+03 -0.11199730216E+04  0.11521833539E+04  0.46999998093E+01 0. -1.
       -5    1    3    3    0  502  0.95952675011E+02  0.25289900386E+03 -0.66119745969E+02  0.27849368539E+03  0.46999998093E+01 0.  1.
</event>
<event>
 5   0  0.4392552E-04  0.8002403E+03  0.7818609E-02  0.9559669E-01
       -1   -1    0    0    0  501  0.00000000000E+00  0.00000000000E+00  0.54959367909E+03  0.54959367911E+03  0.50400001928E-02 0. -1.
        1   -1    0    0  501    0  0.00000000000E+00  0.00000000000E+00 -0.29129909181E+03  0.29129909185E+03  0.50400001928E-02 0.  1.
    10030    2    1    2    0    0  0.00000000000E+00  0.00000000000E+00  0.25829458728E+03  0.84089277096E+03  0.80024031293E+03 0.  0.
        5    1    3    3  502    0  0.51656536038E+02  0.38693532191E+03  0.22127503008E+03  0.44874499439E+03  0.46999998093E+01 0. -1.
       -5    1    3    3    0  502 -0.51656536038E+02 -0.38693532191E+03  0.37019557198E+02  0.39214777657E+03  0.46999998093E+01 0.  1.
</event>
<event>
 5   0  0.7133039E-04  0.8001447E+03  0.7818609E-02  0.9559808E-01
       -2   -1    0    0    0  501  0.00000000000E+00  0.00000000000E+00  0.36384969839E+03  0.36384969840E+03  0.25500000920E-02 0. -1.
        2   -1    0    0  501    0  0.00000000000E+00  0.00000000000E+00 -0.43990105963E+03  0.43990105964E+03  0.25500000920E-02 0.  1.
    10030    2    1    2    0    0  0.00000000000E+00  0.00000000000E+00 -0.76051361243E+02  0.80375075804E+03  0.80014465661E+03 0.  0.
        2    1    3    3  502    0  0.20222372516E+03 -0.18053206528E+03  0.25753089354E+03  0.37390964516E+03  0.25500000920E-02 0. -1.
       -2    1    3    3    0  502 -0.20222372516E+03  0.18053206528E+03 -0.33358225478E+03  0.42984111288E+03  0.25500000920E-02 0.  1.
</event>
<event>
 5   0  0.6801147E-04  0.8002250E+03  0.7818609E-02  0.9559692E-01
       -2   -1    0    0    0  501  0.00000000000E+00  0.00000000000E+00  0.30132482067E+03  0.30132482068E+03  0.25500000920E-02 0. -1.
        2   -1    0    0  501    0  0.00000000000E+00  0.00000000000E+00 -0.53128714626E+03  0.53128714627E+03  0.25500000920E-02 0.  1.
    10030    2    1    2    0    0  0.00000000000E+00  0.00000000000E+00 -0.22996232559E+03  0.83261196695E+03  0.80022497856E+03 0.  0.
        4    1    3    3  502    0 -0.39678616717E+03 -0.27160796012E+02 -0.69491931846E+02  0.40374213650E+03  0.12699999809E+01 0.  1.
       -4    1    3    3    0  502  0.39678616717E+03  0.27160796012E+02 -0.16047039374E+03  0.42886983044E+03  0.12699999809E+01 0. -1.
</event>
<event>
 5   0  0.4169155E-04  0.7997061E+03  0.7818609E-02  0.9560443E-01
       -1   -1    0    0    0  501  0.00000000000E+00  0.00000000000E+00  0.83332391185E+03  0.83332391187E+03  0.50400001928E-02 0. -1.
        1   -1    0    0  501    0  0.00000000000E+00  0.00000000000E+00 -0.19186111965E+03  0.19186111972E+03  0.50400001928E-02 0.  1.
    10030    2    1    2    0    0  0.00000000000E+00  0.00000000000E+00  0.64146279220E+03  0.10251850316E+04  0.79970609302E+03 0.  0.
        4    1    3    3  502    0 -0.27076111212E+03 -0.12362608684E+03 -0.21542310726E+02  0.29843034905E+03  0.12699999809E+01 0.  1.
       -4    1    3    3    0  502  0.27076111212E+03  0.12362608684E+03  0.66300510292E+03  0.72675468254E+03  0.12699999809E+01 0. -1.
</event>
<event>
 5   0  0.6672462E-04  0.8005271E+03  0.7818609E-02  0.9559254E-01
        2   -1    0    0  501    0  0.00000000000E+00  0.00000000000E+00  0.16520497595E+04  0.16520497595E+04  0.25500000920E-02 0. -1.
       -2   -1    0    0    0  501  0.00000000000E+00  0.00000000000E+00 -0.96977060238E+02  0.96977060271E+02  0.25500000920E-02 0.  1.
    10030    2    1    2    0    0  0.00000000000E+00  0.00000000000E+00  0.15550726992E+04  0.17490268197E+04  0.80052714900E+03 0.  0.
        5    1    3    3  502    0 -0.16081231644E+03 -0.15653487712E+03  0.15015906690E+04  0.15182754678E+04  0.46999998093E+01 0. -1.
       -5    1    3    3    0  502  0.16081231644E+03  0.15653487712E+03  0.53482030244E+02  0.23075135196E+03  0.46999998093E+01 0.  1.
</event>
<event>
 5   0  0.6970013E-04  0.8011730E+03  0.7818609E-02  0.9558321E-01
        2   -1    0    0  501    0  0.00000000000E+00  0.00000000000E+00  0.84404252121E+03  0.84404252121E+03  0.25500000920E-02 0.  1.
       -2   -1    0    0    0  501  0.00000000000E+00  0.00000000000E+00 -0.19012019736E+03  0.19012019737E+03  0.25500000920E-02 0. -1.
    10030    2    1    2    0    0  0.00000000000E+00  0.00000000000E+00  0.65392232385E+03  0.10341627186E+04  0.80117296689E+03 0.  0.
        3    1    3    3  502    0 -0.47628282244E+02 -0.39731713940E+03  0.35076806631E+03  0.53213495382E+03  0.10100000352E+00 0. -1.
       -3    1    3    3    0  502  0.47628282244E+02  0.39731713940E+03  0.30315425755E+03  0.50202776477E+03  0.10100000352E+00 0.  1.
</event>
<event>
 5   0  0.6801147E-04  0.8000331E+03  0.7818609E-02  0.9559969E-01
        2   -1    0    0  501    0  0.00000000000E+00  0.00000000000E+00  0.17678805570E+03  0.17678805572E+03  0.25500000920E-02 0.  1.
       -2   -1    0    0    0  501  0.00000000000E+00  0.00000000000E+00 -0.90511342474E+03  0.90511342475E+03  0.25500000920E-02 0. -1.
    10030    2    1    2    0    0  0.00000000000E+00  0.00000000000E+00 -0.72832536905E+03  0.10819014805E+04  0.80003310571E+03 0.  0.
        4    1    3    3  502    0  0.33016183623E+03 -0.21823095736E+03 -0.44278407643E+03  0.59387788315E+03  0.12699999809E+01 0. -1.
       -4    1    3    3    0  502 -0.33016183623E+03  0.21823095736E+03 -0.28554129261E+03  0.48802359732E+03  0.12699999809E+01 0.  1.
</event>
<event>
 5   0  0.4104786E-04  0.7996815E+03  0.7818609E-02  0.9560478E-01
       -1   -1    0    0    0  501  0.00000000000E+00  0.00000000000E+00  0.42310214298E+03  0.42310214301E+03  0.50400001928E-02 0. -1.
        1   -1    0    0  501    0  0.00000000000E+00  0.00000000000E+00 -0.37785824157E+03  0.37785824160E+03  0.50400001928E-02 0.  1.
    10030    2    1    2    0    0  0.00000000000E+00  0.00000000000E+00  0.45243901418E+02  0.80096038461E+03  0.79968151604E+03 0.  0.
        2    1    3    3  502    0  0.13834586688E+03 -0.88726321054E+02  0.38770547569E+03  0.42110268916E+03  0.25500000920E-02 0. -1.
       -2    1    3    3    0  502 -0.13834586688E+03  0.88726321054E+02 -0.34246157427E+03  0.37985769545E+03  0.25500000920E-02 0.  1.
</event>
<event>
 5   0  0.6970013E-04  0.8005203E+03  0.7818609E-02  0.9559264E-01
        2   -1    0    0  501    0  0.00000000000E+00  0.00000000000E+00  0.38557610971E+03  0.38557610972E+03  0.25500000920E-02 0. -1.
       -2   -1    0    0    0  501  0.00000000000E+00  0.00000000000E+00 -0.41550339322E+03  0.41550339322E+03  0.25500000920E-02 0.  1.
    10030    2    1    2    0    0  0.00000000000E+00  0.00000000000E+00 -0.29927283509E+02  0.80107950294E+03  0.80052028565E+03 0.  0.
        3    1    3    3  502    0  0.76116027366E+02  0.34380781783E+03  0.17546039930E+03  0.39342575811E+03  0.10100000352E+00 0. -1.
       -3    1    3    3    0  502 -0.76116027366E+02 -0.34380781783E+03 -0.20538768281E+03  0.40765374483E+03  0.10100000352E+00 0.  1.
</event>
<event>
 5   0  0.4086111E-04  0.8003030E+03  0.7818609E-02  0.9559579E-01
       -1   -1    0    0    0  501  0.00000000000E+00  0.00000000000E+00  0.18505645569E+03  0.18505645576E+03  0.50400001928E-02 0.  1.
        1   -1    0    0  501    0  0.00000000000E+00  0.00000000000E+00 -0.86525609597E+03  0.86525609599E+03  0.50400001928E-02 0. -1.
    10030    2    1    2    0    0  0.00000000000E+00  0.00000000000E+00 -0.68019964028E+03  0.10503125517E+04  0.80030300869E+03 0.  0.
        3    1    3    3  502    0 -0.21123873260E+03  0.27026637215E+03 -0.69684621756E+02  0.35003095688E+03  0.10100000352E+00 0.  1.
       -3    1    3    3    0  502  0.21123873260E+03 -0.27026637215E+03 -0.61051501852E+03  0.70028159487E+03  0.10100000352E+00 0. -1.
</event>
<event>
 5   0  0.6801147E-04  0.7999497E+03  0.7818609E-02  0.9560090E-01
       -2   -1    0    0    0  501  0.00000000000E+00  0.00000000000E+00  0.10103315537E+03  0.10103315540E+03  0.25500000920E-02 0. -1.
        2   -1    0    0  501    0  0.00000000000E+00  0.00000000000E+00 -0.15834393869E+04  0.15834393869E+04  0.25500000920E-02 0.  1.
    10030    2    1    2    0    0  0.00000000000E+00  0.00000000000E+00 -0.14824062315E+04  0.16844725423E+04  0.79994969246E+03 0.  0.
        4    1    3    3  502    0  0.23034700752E+03  0.32698261885E+03 -0.73921902380E+03  0.84049018730E+03  0.12699999809E+01 0. -1.
       -4    1    3    3    0  502 -0.23034700752E+03 -0.32698261885E+03 -0.74318720769E+03  0.84398235495E+03  0.12699999809E+01 0.  1.
</event>
<event>
 5   0  0.4087283E-04  0.8000826E+03  0.7818609E-02  0.9559898E-01
        1   -1    0    0  501    0  0.00000000000E+00  0.00000000000E+00  0.13533912623E+04  0.13533912623E+04  0.50400001928E-02 0.  1.
       -1   -1    0    0    0  501  0.00000000000E+00  0.00000000000E+00 -0.11824595062E+03  0.11824595073E+03  0.50400001928E-02 0. -1.
    10030    2    1    2    0    0  0.00000000000E+00  0.00000000000E+00  0.12351453117E+04  0.14716372131E+04  0.80008258689E+03 0.  0.
        1    1    3    3  502    0  0.35421129135E+01  0.48412287217E+02  0.13479541475E+04  0.13488278911E+04  0.50400001928E-02 0.  1.
       -1    1    3    3    0  502 -0.35421129135E+01 -0.48412287217E+02 -0.11280883574E+03  0.12280932198E+03  0.50400001928E-02 0. -1.
</event>
<event>
 5   0  0.6672462E-04  0.8000737E+03  0.7818609E-02  0.9559910E-01
        2   -1    0    0  501    0  0.00000000000E+00  0.00000000000E+00  0.22543068192E+03  0.22543068194E+03  0.25500000920E-02 0. -1.
       -2   -1    0    0    0  501  0.00000000000E+00  0.00000000000E+00 -0.70988340193E+03  0.70988340194E+03  0.25500000920E-02 0.  1.
    10030    2    1    2    0    0  0.00000000000E+00  0.00000000000E+00 -0.48445272001E+03  0.93531408387E+03  0.80007374508E+03 0.  0.
        5    1    3    3  502    0 -0.31445713617E+03 -0.31680899629E+02  0.44414783931E+02  0.31918918045E+03  0.46999998093E+01 0. -1.
       -5    1    3    3    0  502  0.31445713617E+03  0.31680899629E+02 -0.52886750394E+03  0.61612490342E+03  0.46999998093E+01 0.  1.
</event>
<event>
 5   0  0.4392552E-04  0.7999515E+03  0.7818609E-02  0.9560087E-01
        1   -1    0    0  501    0  0.00000000000E+00  0.00000000000E+00  0.42046443274E+03  0.42046443277E+03  0.50400001928E-02 0.  1.
       -1   -1    0    0    0  501  0.00000000000E+00  0.00000000000E+00 -0.38048549638E+03  0.38048549641E+03  0.50400001928E-02 0. -1.
    10030    2    1    2    0    0  0.00000000000E+00  0.00000000000E+00  0.39978936355E+02  0.80094992918E+03  0.79995154460E+03 0.  0.
        5    1    3    3  502    0 -0.13329267802E+03  0.23223136151E+03  0.31744640621E+03  0.41532234963E+03  0.46999998093E+01 0.  1.
       -5    1    3    3    0  502  0.13329267802E+03 -0.23223136151E+03 -0.27746746986E+03  0.38562757955E+03  0.46999998093E+01 0. -1.
</event>
<event>
 5   0  0.4392552E-04  0.7996650E+03  0.7818609E-02  0.9560502E-01
       -1   -1    0    0    0  501  0.00000000000E+00  0.00000000000E+00  0.28098402602E+03  0.28098402606E+03  0.50400001928E-02 0.  1.
        1   -1    0    0  501    0  0.00000000000E+00  0.00000000000E+00 -0.56895060851E+03  0.56895060853E+03  0.50400001928E-02 0. -1.
    10030    2    1    2    0    0  0.00000000000E+00  0.00000000000E+00 -0.28796658249E+03  0.84993463459E+03  0.79966501140E+03 0.  0.
        5    1    3    3  502    0 -0.24060210421E+03 -0.30886960688E+03 -0.23003017712E+03  0.45412088588E+03  0.46999998093E+01 0. -1.
       -5    1    3    3    0  502  0.24060210421E+03  0.30886960688E+03 -0.57936405365E+02  0.39581374871E+03  0.46999998093E+01 0.  1.
</event>
<event>
 5   0  0.6672462E-04  0.8015777E+03  0.7818609E-02  0.9557736E-01
        2   -1    0    0  501    0  0.00000000000E+00  0.00000000000E+00  0.15260033545E+04  0.15260033545E+04  0.25500000920E-02 0. -1.
       -2   -1    0    0    0  501  0.00000000000E+00  0.00000000000E+00 -0.10526300552E+03  0.10526300555E+03  0.25500000920E-02 0.  1.
    10030    2    1    2    0    0  0.00000000000E+00  0.00000000000E+00  0.14207403489E+04  0.16312663600E+04  0.80157769317E+03 0.  0.
        5    1    3    3  502    0  0.19361366739E+03 -0.12383508005E+03  0.42234089119E+02  0.23372459762E+03  0.46999998093E+01 0.  1.
       -5    1    3    3    0  502 -0.19361366739E+03  0.12383508005E+03  0.13785062598E+04  0.13975417624E+04  0.46999998093E+01 0. -1.
</event>
<event>
 5   0  0.4169155E-04  0.8011700E+03  0.7818609E-02  0.9558325E-01
        1   -1    0    0  501    0  0.00000000000E+00  0.00000000000E+00  0.17406238220E+03  0.17406238228E+03  0.50400001928E-02 0. -1.
       -1   -1    0    0    0  501  0.00000000000E+00  0.00000000000E+00 -0.92190142997E+03  0.92190142998E+03  0.50400001928E-02 0.  1.
    10030    2    1    2    0    0  0.00000000000E+00  0.00000000000E+00 -0.74783904776E+03  0.10959638123E+04  0.80117004214E+03 0.  0.
        4    1    3    3  502    0 -0.36528409678E+03 -0.13248928368E+03 -0.50711684303E+03  0.63887008620E+03  0.12699999809E+01 0. -1.
       -4    1    3    3    0  502  0.36528409678E+03  0.13248928368E+03 -0.24072220474E+03  0.45709372606E+03  0.12699999809E+01 0.  1.
</event>
<event>
 5   0  0.4169155E-04  0.8000702E+03  0.7818609E-02  0.9559915E-01
       -1   -1    0    0    0  501  0.00000000000E+00  0.00000000000E+00  0.19594304383E+03  0.19594304390E+03  0.50400001928E-02 0.  1.
        1   -1    0    0  501    0  0.00000000000E+00  0.00000000000E+00 -0.81670717538E+03  0.81670717540E+03  0.50400001928E-02 0. -1.
    10030    2    1    2    0    0  0.00000000000E+00  0.00000000000E+00 -0.62076413155E+03  0.10126502193E+04  0.80007022168E+03 0.  0.
        4    1    3    3  502    0 -0.18088563453E+03  0.30600077183E+03 -0.54263191466E+03  0.64869645663E+03  0.12699999809E+01 0. -1.
       -4    1    3    3    0  502  0.18088563453E+03 -0.30600077183E+03 -0.78132216891E+02  0.36395376266E+03  0.12699999809E+01 0.  1.
</event>
<event>
 5   0  0.4392552E-04  0.8014755E+03  0.7818609E-02  0.9557884E-01
       -1   -1    0    0    0  501  0.00000000000E+00  0.00000000000E+00  0.77403332409E+03  0.77403332411E+03  0.50400001928E-02 0.  1.
        1   -1    0    0  501    0  0.00000000000E+00  0.00000000000E+00 -0.20747262595E+03  0.20747262601E+03  0.50400001928E-02 0. -1.
    10030    2    1    2    0    0  0.00000000000E+00  0.00000000000E+00  0.56656069814E+03  0.98150595011E+03  0.80147545529E+03 0.  0.
        5    1    3    3  502    0 -0.38773263541E+03  0.77904719290E+02  0.20426701046E+03  0.44514362110E+03  0.46999998093E+01 0. -1.
       -5    1    3    3    0  502  0.38773263541E+03 -0.77904719290E+02  0.36229368769E+03  0.53636232901E+03  0.46999998093E+01 0.  1.
</event>
<event>
 5   0  0.4104786E-04  0.8003352E+03  0.7818609E-02  0.9559532E-01
       -1   -1    0    0    0  501  0.00000000000E+00  0.00000000000E+00  0.15818859177E+03  0.15818859185E+03  0.50400001928E-02 0.  1.
        1   -1    0    0  501    0  0.00000000000E+00  0.00000000000E+00 -0.10122987983E+04  0.10122987983E+04  0.50400001928E-02 0. -1.
    10030    2    1    2    0    0  0.00000000000E+00  0.00000000000E+00 -0.85411020649E+03  0.11704873901E+04  0.80033523326E+03 0.  0.
        2    1    3    3  502    0  0.73193034038E+02  0.49237747602E+02  0.14379181420E+03  0.16869398880E+03  0.25500000920E-02 0.  1.
       -2    1    3    3    0  502 -0.73193034038E+02 -0.49237747602E+02 -0.99790202069E+03  0.10017934013E+04  0.25500000920E-02 0. -1.
</event>
<event>
 5   0  0.4169155E-04  0.8001482E+03  0.7818609E-02  0.9559803E-01
       -1   -1    0    0    0  501  0.00000000000E+00  0.00000000000E+00  0.13207824511E+04  0.13207824512E+04  0.50400001928E-02 0.  1.
        1   -1    0    0  501    0  0.00000000000E+00  0.00000000000E+00 -0.12118519798E+03  0.12118519809E+03  0.50400001928E-02 0. -1.
    10030    2    1    2    0    0  0.00000000000E+00  0.00000000000E+00  0.11995972532E+04  0.14419676492E+04  0.80014819357E+03 0.  0.
        4    1    3    3  502    0  0.24321321670E+03 -0.31680448211E+03  0.55792405864E+03  0.68614766397E+03  0.12699999809E+01 0.  1.
       -4    1    3    3    0  502 -0.24321321670E+03  0.31680448211E+03  0.64167319453E+03  0.75581998527E+03  0.12699999809E+01 0. -1.
</event>
<event>
 5   0  0.4169155E-04  0.8004579E+03  0.7818609E-02  0.9559355E-01
        1   -1    0    0  501    0  0.00000000000E+00  0.00000000000E+00  0.69373212242E+03  0.69373212244E+03  0.50400001928E-02 0.  1.
       -1   -1    0    0    0  501  0.00000000000E+00  0.00000000000E+00 -0.23090067396E+03  0.23090067401E+03  0.50400001928E-02 0. -1.
    10030    2    1    2    0    0  0.00000000000E+00  0.00000000000E+00  0.46283144846E+03  0.92463279645E+03  0.80045790557E+03 0.  0.
        4    1    3    3  502    0  0.19330614262E+03 -0.34501867393E+03  0.16042971558E+03  0.42678385241E+03  0.12699999809E+01 0. -1.
       -4    1    3    3    0  502 -0.19330614262E+03  0.34501867393E+03  0.30240173288E+03  0.49784894404E+03  0.12699999809E+01 0.  1.
</event>
<event>
 5   0  0.4087283E-04  0.7993647E+03  0.7818609E-02  0.9560937E-01
       -1   -1    0    0    0  501  0.00000000000E+00  0.00000000000E+00  0.21534777834E+03  0.21534777840E+03  0.50400001928E-02 0.  1.
        1   -1    0    0  501    0  0.00000000000E+00  0.00000000000E+00 -0.74180462881E+03  0.74180462883E+03  0.50400001928E-02 0. -1.
    10030    2    1    2    0    0  0.00000000000E+00  0.00000000000E+00 -0.52645685047E+03  0.95715240723E+03  0.79936469477E+03 0.  0.
        1    1    3    3  502    0 -0.18053929080E+03  0.10976566262E+03  0.14300862939E+03  0.25513605061E+03  0.50400001928E-02 0.  1.
       -1    1    3    3    0  502  0.18053929080E+03 -0.10976566262E+03 -0.66946547986E+03  0.70201635662E+03  0.50400001928E-02 0. -1.
</event>
<event>
 5   0  0.7133039E-04  0.8001227E+03  0.7818609E-02  0.9559840E-01
       -2   -1    0    0    0  501  0.00000000000E+00  0.00000000000E+00  0.17251346167E+03  0.17251346169E+03  0.25500000920E-02 0.  1.
        2   -1    0    0  501    0  0.00000000000E+00  0.00000000000E+00 -0.92774833317E+03  0.92774833317E+03  0.25500000920E-02 0. -1.
    10030    2    1    2    0    0  0.00000000000E+00  0.00000000000E+00 -0.75523487150E+03  0.11002617949E+04  0.80012268191E+03 0.  0.
        2    1    3    3  502    0 -0.23385449676E+03 -0.13874922974E+03  0.25903197585E+02  0.27314876910E+03  0.25500000920E-02 0.  1.
       -2    1    3    3    0  502  0.23385449676E+03  0.13874922974E+03 -0.78113806908E+03  0.82711302576E+03  0.25500000920E-02 0. -1.
</event>
<event>
 5   0  0.4087283E-04  0.7992274E+03  0.7818609E-02  0.9561136E-01
        1   -1    0    0  501    0  0.00000000000E+00  0.00000000000E+00  0.10448290477E+04  0.10448290477E+04  0.50400001928E-02 0.  1.
       -1   -1    0    0    0  501  0.00000000000E+00  0.00000000000E+00 -0.15283945014E+03  0.15283945022E+03  0.50400001928E-02 0. -1.
    10030    2    1    2    0    0  0.00000000000E+00  0.00000000000E+00  0.89198959759E+03  0.11976684980E+04  0.79922736991E+03 0.  0.
        1    1    3    3  502    0  0.26287654808E+03 -0.23009085667E+03  0.73674576809E+03  0.81537734129E+03  0.50400001928E-02 0.  1.
       -1    1    3    3    0  502 -0.26287654808E+03  0.23009085667E+03  0.15524382950E+03  0.38229115668E+03  0.50400001928E-02 0. -1.
</event>
<event>
 5   0  0.4169155E-04  0.7999749E+03  0.7818609E-02  0.9560053E-01
       -1   -1    0    0    0  501  0.00000000000E+00  0.00000000000E+00  0.87106232766E+03  0.87106232767E+03  0.50400001928E-02 0. -1.
        1   -1    0    0  501    0  0.00000000000E+00  0.00000000000E+00 -0.18367222917E+03  0.18367222924E+03  0.50400001928E-02 0.  1.
    10030    2    1    2    0    0  0.00000000000E+00  0.00000000000E+00  0.68739009849E+03  0.10547345569E+04  0.79997489839E+03 0.  0.
        4    1    3    3  502    0  0.33989548823E+03 -0.11166300503E+03  0.10787582322E+03  0.37367950940E+03  0.12699999809E+01 0.  1.
       -4    1    3    3    0  502 -0.33989548823E+03  0.11166300503E+03  0.57951427526E+03  0.68105504751E+03  0.12699999809E+01 0. -1.
</event>
<event>
 5   0  0.6672462E-04  0.8002880E+03  0.7818609E-02  0.9559600E-01
       -2   -1    0    0    0  501  0.00000000000E+00  0.00000000000E+00  0.13338004030E+03  0.13338004032E+03  0.25500000920E-02 0. -1.
        2   -1    0    0  501    0  0.00000000000E+00  0.00000000000E+00 -0.12004435187E+04  0.12004435187E+04  0.25500000920E-02 0.  1.
    10030    2    1    2    0    0  0.00000000000E+00  0.00000000000E+00 -0.10670634784E+04  0.13338235590E+04  0.80028796046E+03 0.  0.
        5    1    3    3  502    0  0.88735171744E+02 -0.13126315235E+03  0.78820855722E+02  0.17702757741E+03  0.46999998093E+01 0. -1.
       -5    1    3    3    0  502 -0.88735171744E+02  0.13126315235E+03 -0.11458843341E+04  0.11567959816E+04  0.46999998093E+01 0.  1.
</event>
<event>
 5   0  0.6672462E-04  0.8000222E+03  0.7818609E-02  0.9559985E-01
        2   -1    0    0  501    0  0.00000000000E+00  0.00000000000E+00  0.42819840237E+03  0.42819840238E+03  0.25500000920E-02 0.  1.
       -2   -1    0    0    0  501  0.00000000000E+00  0.00000000000E+00 -0.37367930709E+03  0.37367930710E+03  0.25500000920E-02 0. -1.
    10030    2    1    2    0    0  0.00000000000E+00  0.00000000000E+00  0.54519095286E+02  0.80187770948E+03  0.80002220545E+03 0.  0.
        5    1    3    3  502    0  0.35495885597E+03  0.18435478359E+03  0.25177075421E+02  0.40079726893E+03  0.46999998093E+01 0. -1.
       -5    1    3    3    0  502 -0.35495885597E+03 -0.18435478359E+03  0.29342019865E+02  0.40108044055E+03  0.46999998093E+01 0.  1.
</event>
<event>
 5   0  0.4086111E-04  0.8005298E+03  0.7818609E-02  0.9559251E-01
       -1   -1    0    0    0  501  0.00000000000E+00  0.00000000000E+00  0.16503861915E+03  0.16503861923E+03  0.50400001928E-02 0.  1.
        1   -1    0    0  501    0  0.00000000000E+00  0.00000000000E+00 -0.97075464859E+03  0.97075464861E+03  0.50400001928E-02 0. -1.
    10030    2    1    2    0    0  0.00000000000E+00  0.00000000000E+00 -0.80571602944E+03  0.11357932678E+04  0.80052984152E+03 0.  0.
        3    1    3    3  502    0  0.21624753215E+03 -0.21679172397E+03 -0.76859627961E+03  0.82734629870E+03  0.10100000352E+00 0. -1.
       -3    1    3    3    0  502 -0.21624753215E+03  0.21679172397E+03 -0.37119749834E+02  0.30844696914E+03  0.10100000352E+00 0.  1.
</event>
<event>
 5   0  0.4169155E-04  0.7999813E+03  0.7818609E-02  0.9560044E-01
        1   -1    0    0  501    0  0.00000000000E+00  0.00000000000E+00  0.10758600021E+04  0.10758600021E+04  0.50400001928E-02 0. -1.
       -1   -1    0    0    0  501  0.00000000000E+00  0.00000000000E+00 -0.14871126884E+03  0.14871126892E+03  0.50400001928E-02 0.  1.
    10030    2    1    2    0    0  0.00000000000E+00  0.00000000000E+00  0.92714873322E+03  0.12245712710E+04  0.79998126492E+03 0.  0.
        4    1    3    3  502    0 -0.27130221204E+03 -0.24816133875E+03  0.22250213453E+03  0.42976476482E+03  0.12699999809E+01 0. -1.
       -4    1    3    3    0  502  0.27130221204E+03  0.24816133875E+03  0.70464659869E+03  0.79480650617E+03  0.12699999809E+01 0.  1.
</event>
<event>
 5   0  0.4104786E-04  0.8008764E+03  0.7818609E-02  0.9558749E-01
        1   -1    0    0  501    0  0.00000000000E+00  0.00000000000E+00  0.11868691329E+04  0.11868691329E+04  0.50400001928E-02 0.  1.
       -1   -1    0    0    0  501  0.00000000000E+00  0.00000000000E+00 -0.13510399789E+03  0.13510399798E+03  0.50400001928E-02 0. -1.
    10030    2    1    2    0    0  0.00000000000E+00  0.00000000000E+00  0.10517651350E+04  0.13219731309E+04  0.80087643215E+03 0.  0.
        2    1    3    3  502    0  0.36100760556E+03  0.16966269013E+03  0.46778397186E+03  0.61476317719E+03  0.25500000920E-02 0.  1.
       -2    1    3    3    0  502 -0.36100760556E+03 -0.16966269013E+03  0.58398116312E+03  0.70720995368E+03  0.25500000920E-02 0. -1.
</event>
<event>
 5   0  0.6801147E-04  0.7999940E+03  0.7818609E-02  0.9560026E-01
       -2   -1    0    0    0  501  0.00000000000E+00  0.00000000000E+00  0.12478736521E+03  0.12478736524E+03  0.25500000920E-02 0.  1.
        2   -1    0    0  501    0  0.00000000000E+00  0.00000000000E+00 -0.12821619454E+04  0.12821619454E+04  0.25500000920E-02 0. -1.
    10030    2    1    2    0    0  0.00000000000E+00  0.00000000000E+00 -0.11573745802E+04  0.14069493107E+04  0.79999402739E+03 0.  0.
        4    1    3    3  502    0  0.30419206034E+03  0.48024014881E+02 -0.12976429189E+03  0.33418482899E+03  0.12699999809E+01 0.  1.
       -4    1    3    3    0  502 -0.30419206034E+03 -0.48024014881E+02 -0.10276102883E+04  0.10727644817E+04  0.12699999809E+01 0. -1.
</event>
<event>
 5   0  0.4392552E-04  0.7964816E+03  0.7818609E-02  0.9565124E-01
        1   -1    0    0  501    0  0.00000000000E+00  0.00000000000E+00  0.93282359824E+03  0.93282359826E+03  0.50400001928E-02 0. -1.
       -1   -1    0    0    0  501  0.00000000000E+00  0.00000000000E+00 -0.17001685561E+03  0.17001685568E+03  0.50400001928E-02 0.  1.
    10030    2    1    2    0    0  0.00000000000E+00  0.00000000000E+00  0.76280674264E+03  0.11028404539E+04  0.79648160068E+03 0.  0.
        5    1    3    3  502    0  0.12892350750E+03 -0.26392687858E+03  0.75370162805E+03  0.80892947909E+03  0.46999998093E+01 0. -1.
       -5    1    3    3    0  502 -0.12892350750E+03  0.26392687858E+03  0.91051145892E+01  0.29391097485E+03  0.46999998093E+01 0.  1.
</event>
<event>
 5   0  0.4086111E-04  0.7999033E+03  0.7818609E-02  0.9560157E-01
       -1   -1    0    0    0  501  0.00000000000E+00  0.00000000000E+00  0.22015864224E+03  0.22015864230E+03  0.50400001928E-02 0. -1.
        1   -1    0    0  501    0  0.00000000000E+00  0.00000000000E+00 -0.72657298942E+03  0.72657298944E+03  0.50400001928E-02 0.  1.
    10030    2    1    2    0    0  0.00000000000E+00  0.00000000000E+00 -0.50641434718E+03  0.94673163174E+03  0.79990330135E+03 0.  0.
        3    1    3    3  502    0  0.34274655294E+03  0.12745900254E+03 -0.44493004611E+03  0.57591991892E+03  0.10100000352E+00 0.  1.
       -3    1    3    3    0  502 -0.34274655294E+03 -0.12745900254E+03 -0.61484301070E+02  0.37081171282E+03  0.10100000352E+00 0. -1.
</event>
<event>
 5   0  0.7133039E-04  0.7998291E+03  0.7818609E-02  0.9560264E-01
        2   -1    0    0  501    0  0.00000000000E+00  0.00000000000E+00  0.11459661373E+04  0.11459661373E+04  0.25500000920E-02 0. -1.
       -2   -1    0    0    0  501  0.00000000000E+00  0.00000000000E+00 -0.13956054742E+03  0.13956054745E+03  0.25500000920E-02 0.  1.
    10030    2    1    2    0    0  0.00000000000E+00  0.00000000000E+00  0.10064055899E+04  0.12855266848E+04  0.79982913542E+03 0.  0.
        2    1    3    3  502    0 -0.26027151360E+02  0.54703367380E+01  0.11445431726E+04  0.11448521350E+04  0.25500000920E-02 0. -1.
       -2    1    3    3    0  502  0.26027151360E+02 -0.54703367380E+01 -0.13813758267E+03  0.14067454974E+03  0.25500000920E-02 0.  1.
</event>
<event>
 5   0  0.6672462E-04  0.8026242E+03  0.7818609E-02  0.9556226E-01
        2   -1    0    0  501    0  0.00000000000E+00  0.00000000000E+00  0.11277445294E+04  0.11277445294E+04  0.25500000920E-02 0. -1.
       -2   -1    0    0    0  501  0.00000000000E+00  0.00000000000E+00 -0.14280842178E+03  0.14280842180E+03  0.25500000920E-02 0.  1.
    10030    2    1    2    0    0  0.00000000000E+00  0.00000000000E+00  0.98493610759E+03  0.12705529512E+04  0.80262423693E+03 0.  0.
        5    1    3    3  502    0  0.16412559244E+03 -0.32899731042E+03  0.23794037586E+03  0.43796592655E+03  0.46999998093E+01 0.  1.
       -5    1    3    3    0  502 -0.16412559244E+03  0.32899731042E+03  0.74699573174E+03  0.83258702463E+03  0.46999998093E+01 0. -1.
</event>
<event>
 5   0  0.6970013E-04  0.8000775E+03  0.7818609E-02  0.9559905E-01
        2   -1    0    0  501    0  0.00000000000E+00  0.00000000000E+00  0.13937455025E+04  0.13937455025E+04  0.25500000920E-02 0. -1.
       -2   -1    0    0    0  501  0.00000000000E+00  0.00000000000E+00 -0.11482083012E+03  0.11482083014E+03  0.25500000920E-02 0.  1.
    10030    2    1    2    0    0  0.00000000000E+00  0.00000000000E+00  0.12789246724E+04  0.15085663326E+04  0.80007753521E+03 0.  0.
        3    1    3    3  502    0  0.24764068240E+03  0.31060562929E+03  0.55043757197E+03  0.67881020570E+03  0.10100000352E+00 0.  1.
       -3    1    3    3    0  502 -0.24764068240E+03 -0.31060562929E+03  0.72848710038E+03  0.82975612691E+03  0.10100000352E+00 0. -1.
</event>
<event>
 5   0  0.2736375E-04  0.8026960E+03  0.7818609E-02  0.9556123E-01
        4   -1    0    0  501    0  0.00000000000E+00  0.00000000000E+00  0.76487098643E+03  0.76487204079E+03  0.12699999809E+01 0.  1.
       -4   -1    0    0    0  501  0.00000000000E+00  0.00000000000E+00 -0.21059477765E+03  0.21059860701E+03  0.12699999809E+01 0. -1.
    10030    2    1    2    0    0  0.00000000000E+00  0.00000000000E+00  0.55427620878E+03  0.97547064780E+03  0.80269600043E+03 0.  0.
        1    1    3    3  502    0  0.76623152468E+02 -0.15922283595E+03  0.71505945663E+03  0.73656842555E+03  0.50400001928E-02 0.  1.
       -1    1    3    3    0  502 -0.76623152468E+02  0.15922283595E+03 -0.16078324785E+03  0.23890222225E+03  0.50400001928E-02 0. -1.
</event>
<event>
 5   0  0.6970013E-04  0.7996264E+03  0.7818609E-02  0.9560558E-01
       -2   -1    0    0    0  501  0.00000000000E+00  0.00000000000E+00  0.40055091663E+03  0.40055091663E+03  0.25500000920E-02 0. -1.
        2   -1    0    0  501    0  0.00000000000E+00  0.00000000000E+00 -0.39907683378E+03  0.39907683379E+03  0.25500000920E-02 0.  1.
    10030    2    1    2    0    0  0.00000000000E+00  0.00000000000E+00  0.14740828416E+01  0.79962775043E+03  0.79962639172E+03 0.  0.
        3    1    3    3  502    0  0.12013338555E+03 -0.36611278165E+03 -0.10594013910E+03  0.39961721996E+03  0.10100000352E+00 0.  1.
       -3    1    3    3    0  502 -0.12013338555E+03  0.36611278165E+03  0.10741422194E+03  0.40001053047E+03  0.10100000352E+00 0. -1.
</event>
<event>
 5   0  0.4392552E-04  0.7997552E+03  0.7818609E-02  0.9560372E-01
        1   -1    0    0  501    0  0.00000000000E+00  0.00000000000E+00  0.34812721866E+03  0.34812721870E+03  0.50400001928E-02 0.  1.
       -1   -1    0    0    0  501  0.00000000000E+00  0.00000000000E+00 -0.45932082432E+03  0.45932082435E+03  0.50400001928E-02 0. -1.
    10030    2    1    2    0    0  0.00000000000E+00  0.00000000000E+00 -0.11119360566E+03  0.80744804305E+03  0.79975516521E+03 0.  0.
        5    1    3    3  502    0 -0.18398008230E+03 -0.10140316938E+03 -0.39908801195E+03  0.45102616856E+03  0.46999998093E+01 0. -1.
       -5    1    3    3    0  502  0.18398008230E+03  0.10140316938E+03  0.28789440629E+03  0.35642187449E+03  0.46999998093E+01 0.  1.
</event>
<event>
 5   0  0.4086111E-04  0.7994118E+03  0.7818609E-02  0.9560869E-01
       -1   -1    0    0    0  501  0.00000000000E+00  0.00000000000E+00  0.86008891088E+02  0.86008891236E+02  0.50400001928E-02 0.  1.
        1   -1    0    0  501    0  0.00000000000E+00  0.00000000000E+00 -0.18575381477E+04  0.18575381477E+04  0.50400001928E-02 0. -1.
    10030    2    1    2    0    0  0.00000000000E+00  0.00000000000E+00 -0.17715292566E+04  0.19435470390E+04  0.79941177472E+03 0.  0.
        3    1    3    3  502    0 -0.34798564782E+03 -0.12128516085E+03 -0.50943004566E+03  0.62874723296E+03  0.10100000352E+00 0.  1.
       -3    1    3    3    0  502  0.34798564782E+03  0.12128516085E+03 -0.12620992110E+04  0.13147998060E+04  0.10100000352E+00 0. -1.
</event>
<event>
 5   0  0.2736375E-04  0.7996737E+03  0.7818609E-02  0.9560490E-01
       -3   -1    0    0    0  501  0.00000000000E+00  0.00000000000E+00  0.17820272810E+03  0.17820275672E+03  0.10100000352E+00 0.  1.
        3   -1    0    0  501    0  0.00000000000E+00  0.00000000000E+00 -0.89712140384E+03  0.89712140952E+03  0.10100000352E+00 0. -1.
    10030    2    1    2    0    0  0.00000000000E+00  0.00000000000E+00 -0.71891867573E+03  0.10753241662E+04  0.79967368357E+03 0.  0.
        1    1    3    3  502    0 -0.84638380829E+02  0.18181391740E+03 -0.82459766409E+03  0.84863494137E+03  0.50400001928E-02 0. -1.
       -1    1    3    3    0  502  0.84638380829E+02 -0.18181391740E+03  0.10567898835E+03  0.22668922487E+03  0.50400001928E-02 0.  1.
</event>
<event>
 5   0  0.4169155E-04  0.8001628E+03  0.7818609E-02  0.9559781E-01
       -1   -1    0    0    0  501  0.00000000000E+00  0.00000000000E+00  0.39838163167E+03  0.39838163170E+03  0.50400001928E-02 0.  1.
        1   -1    0    0  501    0  0.00000000000E+00  0.00000000000E+00 -0.40178846295E+03  0.40178846298E+03  0.50400001928E-02 0. -1.
    10030    2    1    2    0    0  0.00000000000E+00  0.00000000000E+00 -0.34068312802E+01  0.80017009468E+03  0.80016284213E+03 0.  0.
        4    1    3    3  502    0 -0.35476372769E+03  0.12564984908E+03  0.13401201240E+03  0.39950722074E+03  0.12699999809E+01 0.  1.
       -4    1    3    3    0  502  0.35476372769E+03 -0.12564984908E+03 -0.13741884368E+03  0.40066287394E+03  0.12699999809E+01 0. -1.
</event>
<event>
 5   0  0.6801147E-04  0.7999788E+03  0.7818609E-02  0.9560048E-01
        2   -1    0    0  501    0  0.00000000000E+00  0.00000000000E+00  0.10630133732E+04  0.10630133732E+04  0.25500000920E-02 0. -1.
       -2   -1    0    0    0  501  0.00000000000E+00  0.00000000000E+00 -0.15050751865E+03  0.15050751867E+03  0.25500000920E-02 0.  1.
    10030    2    1    2    0    0  0.00000000000E+00  0.00000000000E+00  0.91250585450E+03  0.12135208918E+04  0.79997876247E+03 0.  0.
        4    1    3    3  502    0 -0.28798355826E+03  0.22225417357E+03  0.70853284304E+03  0.79646208325E+03  0.12699999809E+01 0. -1.
       -4    1    3    3    0  502  0.28798355826E+03 -0.22225417357E+03  0.20397301147E+03  0.41705880857E+03  0.12699999809E+01 0.  1.
</event>
<event>
 5   0  0.4169155E-04  0.7997927E+03  0.7818609E-02  0.9560317E-01
       -1   -1    0    0    0  501  0.00000000000E+00  0.00000000000E+00  0.13961415748E+03  0.13961415757E+03  0.50400001928E-02 0. -1.
        1   -1    0    0  501    0  0.00000000000E+00  0.00000000000E+00 -0.11454217131E+04  0.11454217131E+04  0.50400001928E-02 0.  1.
    10030    2    1    2    0    0  0.00000000000E+00  0.00000000000E+00 -0.10058075556E+04  0.12850358707E+04  0.79979269188E+03 0.  0.
        4    1    3    3  502    0  0.11656012962E+03 -0.13672138681E+03  0.71113833390E+02  0.19322989321E+03  0.12699999809E+01 0. -1.
       -4    1    3    3    0  502 -0.11656012962E+03  0.13672138681E+03 -0.10769213890E+04  0.10918059775E+04  0.12699999809E+01 0.  1.
</event>
<event>
 5   0  0.6672462E-04  0.8000257E+03  0.7818609E-02  0.9559980E-01
       -2   -1    0    0    0  501  0.00000000000E+00  0.00000000000E+00  0.47178832088E+03  0.47178832089E+03  0.25500000920E-02 0. -1.
        2   -1    0    0  501    0  0.00000000000E+00  0.00000000000E+00 -0.33915693173E+03  0.33915693174E+03  0.25500000920E-02 0.  1.
    10030    2    1    2    0    0  0.00000000000E+00  0.00000000000E+00  0.13263138916E+03  0.81094525263E+03  0.80002569794E+03 0.  0.
        5    1    3    3  502    0  0.13861487720E+03 -0.80226461417E+02 -0.30520819657E+03  0.34470930150E+03  0.46999998093E+01 0.  1.
       -5    1    3    3    0  502 -0.13861487720E+03  0.80226461417E+02  0.43783958572E+03  0.46623595112E+03  0.46999998093E+01 0. -1.
</event>
<event>
 5   0  0.4086111E-04  0.7999050E+03  0.7818609E-02  0.9560155E-01
        1   -1    0    0  501    0  0.00000000000E+00  0.00000000000E+00  0.34745119094E+03  0.34745119098E+03  0.50400001928E-02 0.  1.
       -1   -1    0    0    0  501  0.00000000000E+00  0.00000000000E+00 -0.46038702937E+03  0.46038702940E+03  0.50400001928E-02 0. -1.
    10030    2    1    2    0    0  0.00000000000E+00  0.00000000000E+00 -0.11293583843E+03  0.80783822038E+03  0.79990504855E+03 0.  0.
        3    1    3    3  502    0  0.35329664133E+02 -0.39837484517E+03 -0.59864163307E+02  0.40439390535E+03  0.10100000352E+00 0.  1.
       -3    1    3    3    0  502 -0.35329664133E+02  0.39837484517E+03 -0.53071675125E+02  0.40344431503E+03  0.10100000352E+00 0. -1.
</event>
<event>
 5   0  0.7133039E-04  0.8003281E+03  0.7818609E-02  0.9559542E-01
        2   -1    0    0  501    0  0.00000000000E+00  0.00000000000E+00  0.15029182858E+04  0.15029182858E+04  0.25500000920E-02 0. -1.
       -2   -1    0    0    0  501  0.00000000000E+00  0.00000000000E+00 -0.10654688964E+03  0.10654688967E+03  0.25500000920E-02 0.  1.
    10030    2    1    2    0    0  0.00000000000E+00  0.00000000000E+00  0.13963713962E+04  0.16094651755E+04  0.80032810461E+03 0.  0.
        2    1    3    3  502    0  0.18190214091E+03 -0.19957288555E+03  0.12920749720E+04  0.13199907041E+04  0.25500000920E-02 0. -1.
       -2    1    3    3    0  502 -0.18190214091E+03  0.19957288555E+03  0.10429642420E+03  0.28947447145E+03  0.25500000920E-02 0.  1.
</event>
<event>
 5   0  0.6801147E-04  0.7999062E+03  0.7818609E-02  0.9560153E-01
        2   -1    0    0  501    0  0.00000000000E+00  0.00000000000E+00  0.29616556690E+03  0.29616556691E+03  0.25500000920E-02 0. -1.
       -2   -1    0    0    0  501  0.00000000000E+00  0.00000000000E+00 -0.54011170505E+03  0.54011170505E+03  0.25500000920E-02 0.  1.
    10030    2    1    2    0    0  0.00000000000E+00  0.00000000000E+00 -0.24394613815E+03  0.83627727197E+03  0.79990621781E+03 0.  0.
        4    1    3    3  502    0 -0.93869183450E+01  0.13985976560E+03  0.26964132060E+03  0.30390281826E+03  0.12699999809E+01 0. -1.
       -4    1    3    3    0  502  0.93869183450E+01 -0.13985976560E+03 -0.51358745875E+03  0.53237445370E+03  0.12699999809E+01 0.  1.
</event>
<event>
 5   0  0.7133039E-04  0.7977339E+03  0.7818609E-02  0.9563303E-01
        2   -1    0    0  501    0  0.00000000000E+00  0.00000000000E+00  0.54707028973E+03  0.54707028974E+03  0.25500000920E-02 0. -1.
       -2   -1    0    0    0  501  0.00000000000E+00  0.00000000000E+00 -0.29081246205E+03  0.29081246206E+03  0.25500000920E-02 0.  1.
    10030    2    1    2    0    0  0.00000000000E+00  0.00000000000E+00  0.25625782768E+03  0.83788275179E+03  0.79773393528E+03 0.  0.
        2    1    3    3  502    0  0.33530234958E+02 -0.17434371359E+03 -0.24702347623E+03  0.30420487330E+03  0.25500000920E-02 0.  1.
       -2    1    3    3    0  502 -0.33530234958E+02  0.17434371359E+03  0.50328130391E+03  0.53367787850E+03  0.25500000920E-02 0. -1.
</event>
<event>
 5   0  0.4169155E-04  0.7997933E+03  0.7818609E-02  0.9560316E-01
        1   -1    0    0  501    0  0.00000000000E+00  0.00000000000E+00  0.69936301202E+03  0.69936301204E+03  0.50400001928E-02 0.  1.
       -1   -1    0    0    0  501  0.00000000000E+00  0.00000000000E+00 -0.22866138756E+03  0.22866138761E+03  0.50400001928E-02 0. -1.
    10030    2    1    2    0    0  0.00000000000E+00  0.00000000000E+00  0.47070162446E+03  0.92802439965E+03  0.79979326521E+03 0.  0.
        4    1    3    3  502    0 -0.13383947383E+03  0.28893551439E+03 -0.45341152253E+02  0.32164292192E+03  0.12699999809E+01 0. -1.
       -4    1    3    3    0  502  0.13383947383E+03 -0.28893551439E+03  0.51604277672E+03  0.60638147773E+03  0.12699999809E+01 0.  1.
</event>
<event>
 5   0  0.6672462E-04  0.7999171E+03  0.7818609E-02  0.9560137E-01
        2   -1    0    0  501    0  0.00000000000E+00  0.00000000000E+00  0.10250374160E+03  0.10250374163E+03  0.25500000920E-02 0.  1.
       -2   -1    0    0    0  501  0.00000000000E+00  0.00000000000E+00 -0.15605950020E+04  0.15605950020E+04  0.25500000920E-02 0. -1.
    10030    2    1    2    0    0  0.00000000000E+00  0.00000000000E+00 -0.14580912604E+04  0.16630987437E+04  0.79991706284E+03 0.  0.
        5    1    3    3  502    0 -0.27680965252E+03 -0.28737835141E+03 -0.67268596985E+03  0.78213707534E+03  0.46999998093E+01 0.  1.
       -5    1    3    3    0  502  0.27680965252E+03  0.28737835141E+03 -0.78540529057E+03  0.88096166832E+03  0.46999998093E+01 0. -1.
</event>
<event>
 5   0  0.4104786E-04  0.7987491E+03  0.7818609E-02  0.9561829E-01
       -1   -1    0    0    0  501  0.00000000000E+00  0.00000000000E+00  0.17982108696E+03  0.17982108703E+03  0.50400001928E-02 0. -1.
        1   -1    0    0  501    0  0.00000000000E+00  0.00000000000E+00 -0.88699302297E+03  0.88699302298E+03  0.50400001928E-02 0.  1.
    10030    2    1    2    0    0  0.00000000000E+00  0.00000000000E+00 -0.70717193601E+03  0.10668141100E+04  0.79874914601E+03 0.  0.
        2    1    3    3  502    0  0.18985412140E+03 -0.13669002650E+03 -0.78590017533E+03  0.81998038778E+03  0.25500000920E-02 0.  1.
       -2    1    3    3    0  502 -0.18985412140E+03  0.13669002650E+03  0.78728239323E+02  0.24683372223E+03  0.25500000920E-02 0. -1.
</event>
<event>
 5   0  0.4169155E-04  0.7990749E+03  0.7818609E-02  0.9561357E-01
       -1   -1    0    0    0  501  0.00000000000E+00  0.00000000000E+00  0.13851857646E+03  0.13851857655E+03  0.50400001928E-02 0. -1.
        1   -1    0    0  501    0  0.00000000000E+00  0.00000000000E+00 -0.11524099903E+04  0.11524099903E+04  0.50400001928E-02 0.  1.
    10030    2    1    2    0    0  0.00000000000E+00  0.00000000000E+00 -0.10138914138E+04  0.12909285668E+04  0.79907494371E+03 0.  0.
        4    1    3    3  502    0 -0.15154012750E+03 -0.35027021229E+03 -0.31596487626E+03  0.49546851342E+03  0.12699999809E+01 0. -1.
       -4    1    3    3    0  502  0.15154012750E+03  0.35027021229E+03 -0.69792653754E+03  0.79546005340E+03  0.12699999809E+01 0.  1.
</event>
<event>
 5   0  0.4392552E-04  0.7999982E+03  0.7818609E-02  0.9560020E-01
       -1   -1    0    0    0  501  0.00000000000E+00  0.00000000000E+00  0.14424888509E+03  0.14424888518E+03  0.50400001928E-02 0. -1.
        1   -1    0    0  501    0  0.00000000000E+00  0.00000000000E+00 -0.11091891479E+04  0.11091891479E+04  0.50400001928E-02 0.  1.
    10030    2    1    2    0    0  0.00000000000E+00  0.00000000000E+00 -0.96494026283E+03  0.12534380331E+04  0.79999824500E+03 0.  0.
        5    1    3    3  502    0  0.36149433739E+03 -0.15477830268E+03 -0.36794642117E+03  0.53855467484E+03  0.46999998093E+01 0. -1.
       -5    1    3    3    0  502 -0.36149433739E+03  0.15477830268E+03 -0.59699384166E+03  0.71488335826E+03  0.46999998093E+01 0.  1.
</event>
<event>
 5   0  0.4104786E-04  0.7999410E+03  0.7818609E-02  0.9560103E-01
       -1   -1    0    0    0  501  0.00000000000E+00  0.00000000000E+00  0.45087462709E+03  0.45087462711E+03  0.50400001928E-02 0.  1.
        1   -1    0    0  501    0  0.00000000000E+00  0.00000000000E+00 -0.35481345562E+03  0.35481345566E+03  0.50400001928E-02 0. -1.
    10030    2    1    2    0    0  0.00000000000E+00  0.00000000000E+00  0.96061171465E+02  0.80568808277E+03  0.79994095911E+03 0.  0.
        2    1    3    3  502    0  0.95038770546E+02 -0.46221523929E+02  0.43655788852E+03  0.44916766048E+03  0.25500000920E-02 0.  1.
       -2    1    3    3    0  502 -0.95038770546E+02  0.46221523929E+02 -0.34049671706E+03  0.35652042230E+03  0.25500000920E-02 0. -1.
</event>
<event>
 5   0  0.6593118E-04  0.7996106E+03  0.7818609E-02  0.9560581E-01
        2   -1    0    0  501    0  0.00000000000E+00  0.00000000000E+00  0.67806045269E+03  0.67806045269E+03  0.25500000920E-02 0.  1.
       -2   -1    0    0    0  501  0.00000000000E+00  0.00000000000E+00 -0.23573749163E+03  0.23573749164E+03  0.25500000920E-02 0. -1.
    10030    2    1    2    0    0  0.00000000000E+00  0.00000000000E+00  0.44232296106E+03  0.91379794434E+03  0.79961058096E+03 0.  0.
        1    1    3    3  502    0  0.34225746878E+03  0.17225186795E+03  0.35162837610E+03  0.52005133963E+03  0.50400001928E-02 0. -1.
       -1    1    3    3    0  502 -0.34225746878E+03 -0.17225186795E+03  0.90694584956E+02  0.39374660470E+03  0.50400001928E-02 0.  1.
</event>
<event>
 5   0  0.4169155E-04  0.8001001E+03  0.7818609E-02  0.9559872E-01
        1   -1    0    0  501    0  0.00000000000E+00  0.00000000000E+00  0.97393620685E+03  0.97393620686E+03  0.50400001928E-02 0. -1.
       -1   -1    0    0    0  501  0.00000000000E+00  0.00000000000E+00 -0.16432290245E+03  0.16432290253E+03  0.50400001928E-02 0.  1.
    10030    2    1    2    0    0  0.00000000000E+00  0.00000000000E+00  0.80961330439E+03  0.11382591094E+04  0.80010005465E+03 0.  0.
        4    1    3    3  502    0 -0.23581545214E+03  0.58444322951E+02 -0.47348070165E+02  0.24752397662E+03  0.12699999809E+01 0.  1.
       -4    1    3    3    0  502  0.23581545214E+03 -0.58444322951E+02  0.85696137456E+03  0.89073513276E+03  0.12699999809E+01 0. -1.
</event>
<event>
 5   0  0.6970013E-04  0.7994378E+03  0.7818609E-02  0.9560831E-01
       -2   -1    0    0    0  501  0.00000000000E+00  0.00000000000E+00  0.16569589552E+03  0.16569589554E+03  0.25500000920E-02 0.  1.
        2   -1    0    0  501    0  0.00000000000E+00  0.00000000000E+00 -0.96426780956E+03  0.96426780956E+03  0.25500000920E-02 0. -1.
    10030    2    1    2    0    0  0.00000000000E+00  0.00000000000E+00 -0.79857191404E+03  0.11299637051E+04  0.79943784809E+03 0.  0.
        3    1    3    3  502    0  0.78428659531E+02 -0.18456913616E+03  0.89444959581E+02  0.21958422451E+03  0.10100000352E+00 0.  1.
       -3    1    3    3    0  502 -0.78428659531E+02  0.18456913616E+03 -0.88801687362E+03  0.91037948060E+03  0.10100000352E+00 0. -1.
</event>
<event>
 5   0  0.6593118E-04  0.7997270E+03  0.7818609E-02  0.9560412E-01
       -2   -1    0    0    0  501  0.00000000000E+00  0.00000000000E+00  0.23124528438E+03  0.23124528440E+03  0.25500000920E-02 0.  1.
        2   -1    0    0  501    0  0.00000000000E+00  0.00000000000E+00 -0.69143384586E+03  0.69143384587E+03  0.25500000920E-02 0. -1.
    10030    2    1    2    0    0  0.00000000000E+00  0.00000000000E+00 -0.46018856148E+03  0.92267913026E+03  0.79972699423E+03 0.  0.
        1    1    3    3  502    0  0.15532126437E+03 -0.43167722262E+02 -0.65228001919E+03  0.67190577529E+03  0.50400001928E-02 0. -1.
       -1    1    3    3    0  502 -0.15532126437E+03  0.43167722262E+02  0.19209145771E+03  0.25077335497E+03  0.50400001928E-02 0.  1.
</event>
<event>
 5   0  0.6593118E-04  0.8008633E+03  0.7818609E-02  0.9558768E-01
       -2   -1    0    0    0  501  0.00000000000E+00  0.00000000000E+00  0.27011771147E+03  0.27011771149E+03  0.25500000920E-02 0. -1.
        2   -1    0    0  501    0  0.00000000000E+00  0.00000000000E+00 -0.59361347807E+03  0.59361347808E+03  0.25500000920E-02 0.  1.
    10030    2    1    2    0    0  0.00000000000E+00  0.00000000000E+00 -0.32349576660E+03  0.86373118957E+03  0.80086331969E+03 0.  0.
        1    1    3    3  502    0 -0.27862170306E+03  0.28436070087E+03 -0.11530404932E+03  0.41447084992E+03  0.50400001928E-02 0.  1.
       -1    1    3    3    0  502  0.27862170306E+03 -0.28436070087E+03 -0.20819171728E+03  0.44926033965E+03  0.50400001928E-02 0. -1.
</event>
<event>
 5   0  0.6672462E-04  0.7995864E+03  0.7818609E-02  0.9560616E-01
       -2   -1    0    0    0  501  0.00000000000E+00  0.00000000000E+00  0.10503284942E+03  0.10503284945E+03  0.25500000920E-02 0.  1.
        2   -1    0    0  501    0  0.00000000000E+00  0.00000000000E+00 -0.15217582138E+04  0.15217582138E+04  0.25500000920E-02 0. -1.
    10030    2    1    2    0    0  0.00000000000E+00  0.00000000000E+00 -0.14167253643E+04  0.16267910632E+04  0.79958639647E+03 0.  0.
        5    1    3    3  502    0 -0.61959748296E+02  0.39470578508E+03 -0.68100252184E+03  0.78956835799E+03  0.46999998093E+01 0. -1.
       -5    1    3    3    0  502  0.61959748296E+02 -0.39470578508E+03 -0.73572284251E+03  0.83722270524E+03  0.46999998093E+01 0.  1.
</event>
<event>
 5   0  0.4392552E-04  0.8001710E+03  0.7818609E-02  0.9559770E-01
       -1   -1    0    0    0  501  0.00000000000E+00  0.00000000000E+00  0.51827153417E+03  0.51827153419E+03  0.50400001928E-02 0. -1.
        1   -1    0    0  501    0  0.00000000000E+00  0.00000000000E+00 -0.30885049769E+03  0.30885049773E+03  0.50400001928E-02 0.  1.
    10030    2    1    2    0    0  0.00000000000E+00  0.00000000000E+00  0.20942103648E+03  0.82712203192E+03  0.80017103495E+03 0.  0.
        5    1    3    3  502    0  0.22911551798E+03 -0.10941742518E+03  0.42428406011E+03  0.49447461733E+03  0.46999998093E+01 0. -1.
       -5    1    3    3    0  502 -0.22911551798E+03  0.10941742518E+03 -0.21486302363E+03  0.33264741460E+03  0.46999998093E+01 0.  1.
</event>
<event>
 5   0  0.6970013E-04  0.7998203E+03  0.7818609E-02  0.9560277E-01
        2   -1    0    0  501    0  0.00000000000E+00  0.00000000000E+00  0.73477252329E+03  0.73477252329E+03  0.25500000920E-02 0. -1.
       -2   -1    0    0    0  501  0.00000000000E+00  0.00000000000E+00 -0.21765667001E+03  0.21765667003E+03  0.25500000920E-02 0.  1.
    10030    2    1    2    0    0  0.00000000000E+00  0.00000000000E+00  0.51711585327E+03  0.95242919332E+03  0.79982033144E+03 0.  0.
        3    1    3    3  502    0 -0.35478362794E+03  0.18210102104E+03  0.22291475752E+03  0.45686234671E+03  0.10100000352E+00 0.  1.
       -3    1    3    3    0  502  0.35478362794E+03 -0.18210102104E+03  0.29420109576E+03  0.49556684661E+03  0.10100000352E+00 0. -1.
</event>
<event>
 5   0  0.4104786E-04  0.7999710E+03  0.7818609E-02  0.9560059E-01
       -1   -1    0    0    0  501  0.00000000000E+00  0.00000000000E+00  0.49309250206E+03  0.49309250208E+03  0.50400001928E-02 0.  1.
        1   -1    0    0  501    0  0.00000000000E+00  0.00000000000E+00 -0.32445918706E+03  0.32445918710E+03  0.50400001928E-02 0. -1.
    10030    2    1    2    0    0  0.00000000000E+00  0.00000000000E+00  0.16863331500E+03  0.81755168918E+03  0.79997098045E+03 0.  0.
        2    1    3    3  502    0 -0.33737379978E+03  0.19108387949E+03  0.18473210805E+03  0.42948816227E+03  0.25500000920E-02 0.  1.
       -2    1    3    3    0  502  0.33737379978E+03 -0.19108387949E+03 -0.16098793054E+02  0.38806352692E+03  0.25500000920E-02 0. -1.
</event>
<event>
 5   0  0.4087283E-04  0.8000110E+03  0.7818609E-02  0.9560001E-01
       -1   -1    0    0    0  501  0.00000000000E+00  0.00000000000E+00  0.53334718413E+03  0.53334718415E+03  0.50400001928E-02 0.  1.
        1   -1    0    0  501    0  0.00000000000E+00  0.00000000000E+00 -0.30000047000E+03  0.30000047004E+03  0.50400001928E-02 0. -1.
    10030    2    1    2    0    0  0.00000000000E+00  0.00000000000E+00  0.23334671413E+03  0.83334765419E+03  0.80001101477E+03 0.  0.
        1    1    3    3  502    0 -0.30206471751E+01 -0.38472201159E+03  0.23070772996E+03  0.44860473382E+03  0.50400001928E-02 0.  1.
       -1    1    3    3    0  502  0.30206471751E+01  0.38472201159E+03  0.26389841650E+01  0.38474292037E+03  0.50400001928E-02 0. -1.
</event>
<event>
 5   0  0.4087283E-04  0.8002011E+03  0.7818609E-02  0.9559726E-01
        1   -1    0    0  501    0  0.00000000000E+00  0.00000000000E+00  0.19453969598E+04  0.19453969598E+04  0.50400001928E-02 0.  1.
       -1   -1    0    0    0  501  0.00000000000E+00  0.00000000000E+00 -0.82286777735E+02  0.82286777889E+02  0.50400001928E-02 0. -1.
    10030    2    1    2    0    0  0.00000000000E+00  0.00000000000E+00  0.18631101821E+04  0.20276837377E+04  0.80020109322E+03 0.  0.
        1    1    3    3  502    0 -0.18100546152E+03 -0.36159525184E+02  0.32050233758E+02  0.18734381728E+03  0.50400001928E-02 0. -1.
       -1    1    3    3    0  502  0.18100546152E+03  0.36159525184E+02  0.18310599483E+04  0.18403399204E+04  0.50400001928E-02 0.  1.
</event>
<event>
 5   0  0.4086111E-04  0.7999209E+03  0.7818609E-02  0.9560132E-01
       -1   -1    0    0    0  501  0.00000000000E+00  0.00000000000E+00  0.25687703289E+03  0.25687703293E+03  0.50400001928E-02 0. -1.
        1   -1    0    0  501    0  0.00000000000E+00  0.00000000000E+00 -0.62274288289E+03  0.62274288291E+03  0.50400001928E-02 0.  1.
    10030    2    1    2    0    0  0.00000000000E+00  0.00000000000E+00 -0.36586585001E+03  0.87961991585E+03  0.79992085618E+03 0.  0.
        3    1    3    3  502    0  0.10897318437E+02  0.24499944180E+03  0.16449712546E+03  0.29530118949E+03  0.10100000352E+00 0. -1.
       -3    1    3    3    0  502 -0.10897318437E+02 -0.24499944180E+03 -0.53036297546E+03  0.58431872636E+03  0.10100000352E+00 0.  1.
</event>
<event>
 5   0  0.7133039E-04  0.7997890E+03  0.7818609E-02  0.9560323E-01
       -2   -1    0    0    0  501  0.00000000000E+00  0.00000000000E+00  0.20956018888E+03  0.20956018890E+03  0.25500000920E-02 0. -1.
        2   -1    0    0  501    0  0.00000000000E+00  0.00000000000E+00 -0.76310110200E+03  0.76310110200E+03  0.25500000920E-02 0.  1.
    10030    2    1    2    0    0  0.00000000000E+00  0.00000000000E+00 -0.55354091311E+03  0.97266129090E+03  0.79978899988E+03 0.  0.
        2    1    3    3  502    0  0.34710104150E+03 -0.51546152389E+01 -0.51819916801E+03  0.62372756937E+03  0.25500000920E-02 0.  1.
       -2    1    3    3    0  502 -0.34710104150E+03  0.51546152389E+01 -0.35341745108E+02  0.34893372153E+03  0.25500000920E-02 0. -1.
</event>
<event>
 5   0  0.4392552E-04  0.7999740E+03  0.7818609E-02  0.9560055E-01
       -1   -1    0    0    0  501  0.00000000000E+00  0.00000000000E+00  0.79929141767E+02  0.79929141926E+02  0.50400001928E-02 0.  1.
        1   -1    0    0  501    0  0.00000000000E+00  0.00000000000E+00 -0.20016428888E+04  0.20016428889E+04  0.50400001928E-02 0. -1.
    10030    2    1    2    0    0  0.00000000000E+00  0.00000000000E+00 -0.19217137471E+04  0.20815720308E+04  0.79997399558E+03 0.  0.
        5    1    3    3  502    0 -0.18499376675E+03  0.29977867496E+03 -0.46799295227E+03  0.58577251649E+03  0.46999998093E+01 0.  1.
       -5    1    3    3    0  502  0.18499376675E+03 -0.29977867496E+03 -0.14537207948E+04  0.14957995143E+04  0.46999998093E+01 0. -1.
</event>
<event>
 5   0  0.6672462E-04  0.8000835E+03  0.7818609E-02  0.9559896E-01
       -2   -1    0    0    0  501  0.00000000000E+00  0.00000000000E+00  0.16286764875E+03  0.16286764877E+03  0.25500000920E-02 0.  1.
        2   -1    0    0  501    0  0.00000000000E+00  0.00000000000E+00 -0.98259785943E+03  0.98259785943E+03  0.25500000920E-02 0. -1.
    10030    2    1    2    0    0  0.00000000000E+00  0.00000000000E+00 -0.81973021068E+03  0.11454655082E+04  0.80008350325E+03 0.  0.
        5    1    3    3  502    0  0.27682546170E+03 -0.28875021503E+03 -0.40769852118E+03  0.57118228010E+03  0.46999998093E+01 0. -1.
       -5    1    3    3    0  502 -0.27682546170E+03  0.28875021503E+03 -0.41203168949E+03  0.57428322810E+03  0.46999998093E+01 0.  1.
</event>
<event>
 5   0  0.2736375E-04  0.7996480E+03  0.7818609E-02  0.9560527E-01
       -4   -1    0    0    0  501  0.00000000000E+00  0.00000000000E+00  0.88321890576E+03  0.88321981884E+03  0.12699999809E+01 0.  1.
        4   -1    0    0  501    0  0.00000000000E+00  0.00000000000E+00 -0.18099292465E+03  0.18099738029E+03  0.12699999809E+01 0. -1.
    10030    2    1    2    0    0  0.00000000000E+00  0.00000000000E+00  0.70222598111E+03  0.10642171991E+04  0.79964799655E+03 0.  0.
        1    1    3    3  502    0 -0.34097542925E+03 -0.20700324057E+03  0.31479632682E+03  0.50814497180E+03  0.50400001928E-02 0. -1.
       -1    1    3    3    0  502  0.34097542925E+03  0.20700324057E+03  0.38742965429E+03  0.55607222733E+03  0.50400001928E-02 0.  1.
</event>
<event>
 5   0  0.6672462E-04  0.8036616E+03  0.7818609E-02  0.9554732E-01
        2   -1    0    0  501    0  0.00000000000E+00  0.00000000000E+00  0.13110542729E+04  0.13110542729E+04  0.25500000920E-02 0.  1.
       -2   -1    0    0    0  501  0.00000000000E+00  0.00000000000E+00 -0.12315889834E+03  0.12315889837E+03  0.25500000920E-02 0. -1.
    10030    2    1    2    0    0  0.00000000000E+00  0.00000000000E+00  0.11878953746E+04  0.14342131713E+04  0.80366162017E+03 0.  0.
        5    1    3    3  502    0  0.13813507867E+03 -0.36681062926E+03  0.75170630168E+03  0.84777107269E+03  0.46999998093E+01 0. -1.
       -5    1    3    3    0  502 -0.13813507867E+03  0.36681062926E+03  0.43618907288E+03  0.58644209858E+03  0.46999998093E+01 0.  1.
</event>
<event>
 5   0  0.4087283E-04  0.8002862E+03  0.7818609E-02  0.9559603E-01
       -1   -1    0    0    0  501  0.00000000000E+00  0.00000000000E+00  0.14102239535E+03  0.14102239544E+03  0.50400001928E-02 0. -1.
        1   -1    0    0  501    0  0.00000000000E+00  0.00000000000E+00 -0.11353834938E+04  0.11353834939E+04  0.50400001928E-02 0.  1.
    10030    2    1    2    0    0  0.00000000000E+00  0.00000000000E+00 -0.99436109850E+03  0.12764058893E+04  0.80028619881E+03 0.  0.
        1    1    3    3  502    0  0.49776045039E+02  0.34271817273E+03 -0.81688919405E+03  0.88726622609E+03  0.50400001928E-02 0. -1.
       -1    1    3    3    0  502 -0.49776045039E+02 -0.34271817273E+03 -0.17747190444E+03  0.38913966320E+03  0.50400001928E-02 0.  1.
</event>
<event>
 5   0  0.4104786E-04  0.8001770E+03  0.7818609E-02  0.9559761E-01
        1   -1    0    0  501    0  0.00000000000E+00  0.00000000000E+00  0.51367509674E+03  0.51367509677E+03  0.50400001928E-02 0.  1.
       -1   -1    0    0    0  501  0.00000000000E+00  0.00000000000E+00 -0.31161880988E+03  0.31161880992E+03  0.50400001928E-02 0. -1.
    10030    2    1    2    0    0  0.00000000000E+00  0.00000000000E+00  0.20205628686E+03  0.82529390669E+03  0.80017703626E+03 0.  0.
        2    1    3    3  502    0  0.78730500190E+02  0.16757703060E+03  0.46683014603E+03  0.50220607134E+03  0.25500000920E-02 0.  1.
       -2    1    3    3    0  502 -0.78730500190E+02 -0.16757703060E+03 -0.26477385917E+03  0.32308783535E+03  0.25500000920E-02 0. -1.
</event>
<event>
 5   0  0.6593118E-04  0.7995901E+03  0.7818609E-02  0.9560611E-01
        2   -1    0    0  501    0  0.00000000000E+00  0.00000000000E+00  0.92849934140E+03  0.92849934141E+03  0.25500000920E-02 0.  1.
       -2   -1    0    0    0  501  0.00000000000E+00  0.00000000000E+00 -0.17214451508E+03  0.17214451510E+03  0.25500000920E-02 0. -1.
    10030    2    1    2    0    0  0.00000000000E+00  0.00000000000E+00  0.75635482632E+03  0.11006438565E+04  0.79959006720E+03 0.  0.
        1    1    3    3  502    0  0.38878901383E+02  0.30796429287E+03  0.72499923415E+03  0.78865547877E+03  0.50400001928E-02 0.  1.
       -1    1    3    3    0  502 -0.38878901383E+02 -0.30796429287E+03  0.31355592170E+02  0.31198837773E+03  0.50400001928E-02 0. -1.
</event>
<event>
 5   0  0.6593118E-04  0.8000199E+03  0.7818609E-02  0.9559988E-01
        2   -1    0    0  501    0  0.00000000000E+00  0.00000000000E+00  0.83683934922E+03  0.83683934923E+03  0.25500000920E-02 0. -1.
       -2   -1    0    0    0  501  0.00000000000E+00  0.00000000000E+00 -0.19120512279E+03  0.19120512281E+03  0.25500000920E-02 0.  1.
    10030    2    1    2    0    0  0.00000000000E+00  0.00000000000E+00  0.64563422643E+03  0.10280444720E+04  0.80001992609E+03 0.  0.
        1    1    3    3  502    0 -0.32315053334E+03 -0.76888530788E+02  0.60920691806E+03  0.69388124518E+03  0.50400001928E-02 0. -1.
       -1    1    3    3    0  502  0.32315053334E+03  0.76888530788E+02  0.36427308368E+02  0.33416322686E+03  0.50400001928E-02 0.  1.
</event>
<event>
 5   0  0.4392552E-04  0.8001385E+03  0.7818609E-02  0.9559817E-01
        1   -1    0    0  501    0  0.00000000000E+00  0.00000000000E+00  0.64802063783E+03  0.64802063785E+03  0.50400001928E-02 0. -1.
       -1   -1    0    0    0  501  0.00000000000E+00  0.00000000000E+00 -0.24699120956E+03  0.24699120961E+03  0.50400001928E-02 0.  1.
    10030    2    1    2    0    0  0.00000000000E+00  0.00000000000E+00  0.40102942828E+03  0.89501184746E+03  0.80013849098E+03 0.  0.
        5    1    3    3  502    0 -0.96988931640E+02 -0.14547658781E+03 -0.20195804352E+03  0.26716929427E+03  0.46999998093E+01 0.  1.
       -5    1    3    3    0  502  0.96988931640E+02  0.14547658781E+03  0.60298747179E+03  0.62784255319E+03  0.46999998093E+01 0. -1.
</event>
<event>
 5   0  0.4104786E-04  0.8003621E+03  0.7818609E-02  0.9559493E-01
       -1   -1    0    0    0  501  0.00000000000E+00  0.00000000000E+00  0.35008731454E+03  0.35008731458E+03  0.50400001928E-02 0.  1.
        1   -1    0    0  501    0  0.00000000000E+00  0.00000000000E+00 -0.45744267964E+03  0.45744267967E+03  0.50400001928E-02 0. -1.
    10030    2    1    2    0    0  0.00000000000E+00  0.00000000000E+00 -0.10735536510E+03  0.80752999424E+03  0.80036211629E+03 0.  0.
        2    1    3    3  502    0  0.21692963022E+03  0.33327695146E+03 -0.98944711604E+02  0.40978292644E+03  0.25500000920E-02 0.  1.
       -2    1    3    3    0  502 -0.21692963022E+03 -0.33327695146E+03 -0.84106534917E+01  0.39774706780E+03  0.25500000920E-02 0. -1.
</event>
<event>
 5   0  0.6672462E-04  0.8000617E+03  0.7818609E-02  0.9559928E-01
       -2   -1    0    0    0  501  0.00000000000E+00  0.00000000000E+00  0.16774270823E+03  0.16774270825E+03  0.25500000920E-02 0.  1.
        2   -1    0    0  501    0  0.00000000000E+00  0.00000000000E+00 -0.95398892082E+03  0.95398892082E+03  0.25500000920E-02 0. -1.
    10030    2    1    2    0    0  0.00000000000E+00  0.00000000000E+00 -0.78624621259E+03  0.11217316291E+04  0.80006171066E+03 0.  0.
        5    1    3    3  502    0 -0.35612437895E+03  0.14152235936E+03 -0.23234786510E+03  0.44817493448E+03  0.46999998093E+01 0.  1.
       -5    1    3    3    0  502  0.35612437895E+03 -0.14152235936E+03 -0.55389834749E+03  0.67355669459E+03  0.46999998093E+01 0. -1.
</event>
<event>
 5   0  0.4392552E-04  0.8006785E+03  0.7818609E-02  0.9559035E-01
        1   -1    0    0  501    0  0.00000000000E+00  0.00000000000E+00  0.75185904481E+03  0.75185904482E+03  0.50400001928E-02 0. -1.
       -1   -1    0    0    0  501  0.00000000000E+00  0.00000000000E+00 -0.21316699223E+03  0.21316699229E+03  0.50400001928E-02 0.  1.
    10030    2    1    2    0    0  0.00000000000E+00  0.00000000000E+00  0.53869205258E+03  0.96502603711E+03  0.80067854023E+03 0.  0.
        5    1    3    3  502    0 -0.30950285053E+03 -0.25388313037E+03  0.26827964328E+03  0.48191774752E+03  0.46999998093E+01 0.  1.
       -5    1    3    3    0  502  0.30950285053E+03  0.25388313037E+03  0.27041240930E+03  0.48310828959E+03  0.46999998093E+01 0. -1.
</event>
<event>
 5   0  0.4104786E-04  0.8000252E+03  0.7818609E-02  0.9559981E-01
       -1   -1    0    0    0  501  0.00000000000E+00  0.00000000000E+00  0.25463828277E+03  0.25463828282E+03  0.50400001928E-02 0. -1.
        1   -1    0    0  501    0  0.00000000000E+00  0.00000000000E+00 -0.62838187260E+03  0.62838187262E+03  0.50400001928E-02 0.  1.
    10030    2    1    2    0    0  0.00000000000E+00  0.00000000000E+00 -0.37374358983E+03  0.88302015544E+03  0.80002520209E+03 0.  0.
        2    1    3    3  502    0 -0.11249188310E+03 -0.37076246711E+03 -0.77101770476E+02  0.39504925490E+03  0.25500000920E-02 0. -1.
       -2    1    3    3    0  502  0.11249188310E+03  0.37076246711E+03 -0.29664181936E+03  0.48797090054E+03  0.25500000920E-02 0.  1.
</event>
<event>
 5   0  0.6672462E-04  0.7999107E+03  0.7818609E-02  0.9560146E-01
       -2   -1    0    0    0  501  0.00000000000E+00  0.00000000000E+00  0.63098412590E+03  0.63098412591E+03  0.25500000920E-02 0.  1.
        2   -1    0    0  501    0  0.00000000000E+00  0.00000000000E+00 -0.25351553501E+03  0.25351553503E+03  0.25500000920E-02 0. -1.
    10030    2    1    2    0    0  0.00000000000E+00  0.00000000000E+00  0.37746859089E+03  0.88449966093E+03  0.79991069069E+03 0.  0.
        5    1    3    3  502    0 -0.21767185099E+03 -0.22043543948E+03 -0.90933338645E+02  0.32289902411E+03  0.46999998093E+01 0. -1.
       -5    1    3    3    0  502  0.21767185099E+03  0.22043543948E+03  0.46840192954E+03  0.56160063683E+03  0.46999998093E+01 0.  1.
</event>
<event>
 5   0  0.6593118E-04  0.7997526E+03  0.7818609E-02  0.9560375E-01
       -2   -1    0    0    0  501  0.00000000000E+00  0.00000000000E+00  0.26563605955E+03  0.26563605956E+03  0.25500000920E-02 0.  1.
        2   -1    0    0  501    0  0.00000000000E+00  0.00000000000E+00 -0.60195539420E+03  0.60195539421E+03  0.25500000920E-02 0. -1.
    10030    2    1    2    0    0  0.00000000000E+00  0.00000000000E+00 -0.33631933466E+03  0.86759145377E+03  0.79975260912E+03 0.  0.
        1    1    3    3  502    0  0.11199003554E+03  0.76452819779E+02  0.23993385175E+03  0.27559944658E+03  0.50400001928E-02 0.  1.
       -1    1    3    3    0  502 -0.11199003554E+03 -0.76452819779E+02 -0.57625318640E+03  0.59199200719E+03  0.50400001928E-02 0. -1.
</event>
<event>
 5   0  0.4104786E-04  0.7995672E+03  0.7818609E-02  0.9560644E-01
       -1   -1    0    0    0  501  0.00000000000E+00  0.00000000000E+00  0.21038396793E+03  0.21038396799E+03  0.50400001928E-02 0.  1.
        1   -1    0    0  501    0  0.00000000000E+00  0.00000000000E+00 -0.75969164637E+03  0.75969164639E+03  0.50400001928E-02 0. -1.
    10030    2    1    2    0    0  0.00000000000E+00  0.00000000000E+00 -0.54930767844E+03  0.97007561438E+03  0.79956724046E+03 0.  0.
        2    1    3    3  502    0 -0.48928641450E+02  0.25676092763E+03 -0.64166323077E+03  0.69285776870E+03  0.25500000920E-02 0. -1.
       -2    1    3    3    0  502  0.48928641450E+02 -0.25676092763E+03  0.92355552328E+02  0.27721784569E+03  0.25500000920E-02 0.  1.
</event>
<event>
 5   0  0.4392552E-04  0.8000354E+03  0.7818609E-02  0.9559966E-01
        1   -1    0    0  501    0  0.00000000000E+00  0.00000000000E+00  0.15705075139E+04  0.15705075139E+04  0.50400001928E-02 0.  1.
       -1   -1    0    0    0  501  0.00000000000E+00  0.00000000000E+00 -0.10188691330E+03  0.10188691343E+03  0.50400001928E-02 0. -1.
    10030    2    1    2    0    0  0.00000000000E+00  0.00000000000E+00  0.14686206006E+04  0.16723944274E+04  0.80003540678E+03 0.  0.
        5    1    3    3  502    0 -0.20131579017E+02  0.33838768676E+03  0.29047260523E+03  0.44643916877E+03  0.46999998093E+01 0. -1.
       -5    1    3    3    0  502  0.20131579017E+02 -0.33838768676E+03  0.11781479954E+04  0.12259552586E+04  0.46999998093E+01 0.  1.
</event>
<event>
 5   0  0.4086111E-04  0.8002727E+03  0.7818609E-02  0.9559622E-01
       -1   -1    0    0    0  501  0.00000000000E+00  0.00000000000E+00  0.49149776154E+03  0.49149776157E+03  0.50400001928E-02 0.  1.
        1   -1    0    0  501    0  0.00000000000E+00  0.00000000000E+00 -0.32575756207E+03  0.32575756211E+03  0.50400001928E-02 0. -1.
    10030    2    1    2    0    0  0.00000000000E+00  0.00000000000E+00  0.16574019947E+03  0.81725532368E+03  0.80027273498E+03 0.  0.
        3    1    3    3  502    0 -0.39843521720E+03  0.31187545708E+02  0.10292915439E+03  0.41269565825E+03  0.10100000352E+00 0. -1.
       -3    1    3    3    0  502  0.39843521720E+03 -0.31187545708E+02  0.62811045078E+02  0.40455966543E+03  0.10100000352E+00 0.  1.
</event>
<event>
 5   0  0.4086111E-04  0.7997805E+03  0.7818609E-02  0.9560335E-01
       -1   -1    0    0    0  501  0.00000000000E+00  0.00000000000E+00  0.40892145168E+03  0.40892145171E+03  0.50400001928E-02 0.  1.
        1   -1    0    0  501    0  0.00000000000E+00  0.00000000000E+00 -0.39105855466E+03  0.39105855469E+03  0.50400001928E-02 0. -1.
    10030    2    1    2    0    0  0.00000000000E+00  0.00000000000E+00  0.17862897021E+02  0.79998000640E+03  0.79978054962E+03 0.  0.
        3    1    3    3  502    0  0.34998144208E+03  0.11328116800E+03  0.16579080160E+03  0.40349254382E+03  0.10100000352E+00 0.  1.
       -3    1    3    3    0  502 -0.34998144208E+03 -0.11328116800E+03 -0.14792790458E+03  0.39648746257E+03  0.10100000352E+00 0. -1.
</event>
<event>
 5   0  0.4392552E-04  0.8000970E+03  0.7818609E-02  0.9559877E-01
       -1   -1    0    0    0  501  0.00000000000E+00  0.00000000000E+00  0.24933679544E+03  0.24933679550E+03  0.50400001928E-02 0. -1.
        1   -1    0    0  501    0  0.00000000000E+00  0.00000000000E+00 -0.64185788721E+03  0.64185788723E+03  0.50400001928E-02 0.  1.
    10030    2    1    2    0    0  0.00000000000E+00  0.00000000000E+00 -0.39252109176E+03  0.89119468272E+03  0.80009696602E+03 0.  0.
        5    1    3    3  502    0  0.77620527767E+02 -0.12582697480E+03  0.21775825597E+03  0.26324536456E+03  0.46999998093E+01 0. -1.
       -5    1    3    3    0  502 -0.77620527767E+02  0.12582697480E+03 -0.61027934774E+03  0.62794931817E+03  0.46999998093E+01 0.  1.
</event>
<event>
 5   0  0.4169155E-04  0.8003043E+03  0.7818609E-02  0.9559577E-01
        1   -1    0    0  501    0  0.00000000000E+00  0.00000000000E+00  0.11270355227E+04  0.11270355227E+04  0.50400001928E-02 0.  1.
       -1   -1    0    0    0  501  0.00000000000E+00  0.00000000000E+00 -0.14207337033E+03  0.14207337042E+03  0.50400001928E-02 0. -1.
    10030    2    1    2    0    0  0.00000000000E+00  0.00000000000E+00  0.98496215238E+03  0.12691088931E+04  0.80030428028E+03 0.  0.
        4    1    3    3  502    0  0.43763684749E+02  0.11059515785E+03 -0.11339090303E+03  0.16433398563E+03  0.12699999809E+01 0. -1.
       -4    1    3    3    0  502 -0.43763684749E+02 -0.11059515785E+03  0.10983530554E+04  0.11047749075E+04  0.12699999809E+01 0.  1.
</event>
<event>
 5   0  0.4086111E-04  0.8000375E+03  0.7818609E-02  0.9559963E-01
        1   -1    0    0  501    0  0.00000000000E+00  0.00000000000E+00  0.27664039859E+03  0.27664039863E+03  0.50400001928E-02 0. -1.
       -1   -1    0    0    0  501  0.00000000000E+00  0.00000000000E+00 -0.57842245753E+03  0.57842245755E+03  0.50400001928E-02 0.  1.
    10030    2    1    2    0    0  0.00000000000E+00  0.00000000000E+00 -0.30178205895E+03  0.85506285619E+03  0.80003754720E+03 0.  0.
        3    1    3    3  502    0 -0.18714969649E+03 -0.20167086146E+03 -0.46123981075E+03  0.53706453847E+03  0.10100000352E+00 0.  1.
       -3    1    3    3    0  502  0.18714969649E+03  0.20167086146E+03  0.15945775181E+03  0.31799831772E+03  0.10100000352E+00 0. -1.
</event>
<event>
 5   0  0.6801147E-04  0.8000121E+03  0.7818609E-02  0.9560000E-01
       -2   -1    0    0    0  501  0.00000000000E+00  0.00000000000E+00  0.75869845286E+02  0.75869845329E+02  0.25500000920E-02 0.  1.
        2   -1    0    0  501    0  0.00000000000E+00  0.00000000000E+00 -0.21089384564E+04  0.21089384564E+04  0.25500000920E-02 0. -1.
    10030    2    1    2    0    0  0.00000000000E+00  0.00000000000E+00 -0.20330686111E+04  0.21848083017E+04  0.80001208603E+03 0.  0.
        4    1    3    3  502    0  0.31270010046E+02  0.15916231929E+03 -0.20150864313E+04  0.20216046587E+04  0.12699999809E+01 0. -1.
       -4    1    3    3    0  502 -0.31270010046E+02 -0.15916231929E+03 -0.17982179774E+02  0.16320364303E+03  0.12699999809E+01 0.  1.
</event>
<event>
 5   0  0.4086111E-04  0.7999585E+03  0.7818609E-02  0.9560077E-01
        1   -1    0    0  501    0  0.00000000000E+00  0.00000000000E+00  0.40053310344E+03  0.40053310347E+03  0.50400001928E-02 0. -1.
       -1   -1    0    0    0  501  0.00000000000E+00  0.00000000000E+00 -0.39942615745E+03  0.39942615748E+03  0.50400001928E-02 0.  1.
    10030    2    1    2    0    0  0.00000000000E+00  0.00000000000E+00  0.11069459924E+01  0.79995926096E+03  0.79995849509E+03 0.  0.
        3    1    3    3  502    0 -0.20238849808E+03  0.62962672161E+02 -0.33864883586E+03  0.39951025828E+03  0.10100000352E+00 0.  1.
       -3    1    3    3    0  502  0.20238849808E+03 -0.62962672161E+02  0.33975578186E+03  0.40044900268E+03  0.10100000352E+00 0. -1.
</event>
<event>
 5   0  0.6970013E-04  0.8003147E+03  0.7818609E-02  0.9559562E-01
       -2   -1    0    0    0  501  0.00000000000E+00  0.00000000000E+00  0.26008851365E+03  0.26008851366E+03  0.25500000920E-02 0. -1.
        2   -1    0    0  501    0  0.00000000000E+00  0.00000000000E+00 -0.61565920973E+03  0.61565920973E+03  0.25500000920E-02 0.  1.
    10030    2    1    2    0    0  0.00000000000E+00  0.00000000000E+00 -0.35557069608E+03  0.87574772339E+03  0.80031466007E+03 0.  0.
        3    1    3    3  502    0 -0.58409313339E+02 -0.38642345710E+03 -0.83710390221E+02  0.39967758971E+03  0.10100000352E+00 0. -1.
       -3    1    3    3    0  502  0.58409313339E+02  0.38642345710E+03 -0.27186030586E+03  0.47607013369E+03  0.10100000352E+00 0.  1.
</event>
<event>
 5   0  0.6970013E-04  0.8000150E+03  0.7818609E-02  0.9559995E-01
       -2   -1    0    0    0  501  0.00000000000E+00  0.00000000000E+00  0.45196123907E+03  0.45196123908E+03  0.25500000920E-02 0. -1.
        2   -1    0    0  501    0  0.00000000000E+00  0.00000000000E+00 -0.35402591209E+03  0.35402591210E+03  0.25500000920E-02 0.  1.
    10030    2    1    2    0    0  0.00000000000E+00  0.00000000000E+00  0.97935326979E+02  0.80598715117E+03  0.80001497460E+03 0.  0.
        3    1    3    3  502    0 -0.18463144179E+03  0.32441746417E+03  0.19381339335E+03  0.42059374935E+03  0.10100000352E+00 0. -1.
       -3    1    3    3    0  502  0.18463144179E+03 -0.32441746417E+03 -0.95878066368E+02  0.38539340182E+03  0.10100000352E+00 0.  1.
</event>
<event>
 5   0  0.2736375E-04  0.7999103E+03  0.7818609E-02  0.9560147E-01
        4   -1    0    0  501    0  0.00000000000E+00  0.00000000000E+00  0.33598275253E+03  0.33598515279E+03  0.12699999809E+01 0.  1.
       -4   -1    0    0    0  501  0.00000000000E+00  0.00000000000E+00 -0.47610323021E+03  0.47610492406E+03  0.12699999809E+01 0. -1.
    10030    2    1    2    0    0  0.00000000000E+00  0.00000000000E+00 -0.14012047768E+03  0.81209007685E+03  0.79991033538E+03 0.  0.
        2    1    3    3  502    0  0.13003550837E+03 -0.18140961192E+03 -0.40699528558E+03  0.46418083030E+03  0.25500000920E-02 0. -1.
       -2    1    3    3    0  502 -0.13003550837E+03  0.18140961192E+03  0.26687480790E+03  0.34790924654E+03  0.25500000920E-02 0.  1.
</event>
<event>
 5   0  0.6672462E-04  0.8002158E+03  0.7818609E-02  0.9559705E-01
        2   -1    0    0  501    0  0.00000000000E+00  0.00000000000E+00  0.58608465994E+03  0.58608465995E+03  0.25500000920E-02 0.  1.
       -2   -1    0    0    0  501  0.00000000000E+00  0.00000000000E+00 -0.27314537590E+03  0.27314537591E+03  0.25500000920E-02 0. -1.
    10030    2    1    2    0    0  0.00000000000E+00  0.00000000000E+00  0.31293928405E+03  0.85923003586E+03  0.80021575780E+03 0.  0.
        5    1    3    3  502    0 -0.35252820620E+03  0.11772703590E+03  0.31547294868E+03  0.48752544805E+03  0.46999998093E+01 0.  1.
       -5    1    3    3    0  502  0.35252820620E+03 -0.11772703590E+03 -0.25336646303E+01  0.37170458781E+03  0.46999998093E+01 0. -1.
</event>
<event>
 5   0  0.4392552E-04  0.8003217E+03  0.7818609E-02  0.9559552E-01
        1   -1    0    0  501    0  0.00000000000E+00  0.00000000000E+00  0.22245667099E+03  0.22245667104E+03  0.50400001928E-02 0. -1.
       -1   -1    0    0    0  501  0.00000000000E+00  0.00000000000E+00 -0.71981981005E+03  0.71981981006E+03  0.50400001928E-02 0.  1.
    10030    2    1    2    0    0  0.00000000000E+00  0.00000000000E+00 -0.49736313906E+03  0.94227648111E+03  0.80032173203E+03 0.  0.
        5    1    3    3  502    0 -0.18028251208E+03  0.10680059513E+03 -0.65002296849E+03  0.68297884363E+03  0.46999998093E+01 0.  1.
       -5    1    3    3    0  502  0.18028251208E+03 -0.10680059513E+03  0.15265982943E+03  0.25929763748E+03  0.46999998093E+01 0. -1.
</event>
<event>
 5   0  0.4104786E-04  0.8002532E+03  0.7818609E-02  0.9559651E-01
        1   -1    0    0  501    0  0.00000000000E+00  0.00000000000E+00  0.15204914700E+04  0.15204914700E+04  0.50400001928E-02 0. -1.
       -1   -1    0    0    0  501  0.00000000000E+00  0.00000000000E+00 -0.10529574934E+03  0.10529574946E+03  0.50400001928E-02 0.  1.
    10030    2    1    2    0    0  0.00000000000E+00  0.00000000000E+00  0.14151957207E+04  0.16257872195E+04  0.80025318194E+03 0.  0.
        2    1    3    3  502    0 -0.32985563929E+03 -0.46937051965E+02  0.11577383847E+04  0.12047265238E+04  0.25500000920E-02 0. -1.
       -2    1    3    3    0  502  0.32985563929E+03  0.46937051965E+02  0.25745733593E+03  0.42106069569E+03  0.25500000920E-02 0.  1.
</event>
<event>
 5   0  0.6672462E-04  0.7987900E+03  0.7818609E-02  0.9561770E-01
       -2   -1    0    0    0  501  0.00000000000E+00  0.00000000000E+00  0.38130253583E+03  0.38130253584E+03  0.25500000920E-02 0.  1.
        2   -1    0    0  501    0  0.00000000000E+00  0.00000000000E+00 -0.41834590513E+03  0.41834590514E+03  0.25500000920E-02 0. -1.
    10030    2    1    2    0    0  0.00000000000E+00  0.00000000000E+00 -0.37043369308E+02  0.79964844098E+03  0.79878997111E+03 0.  0.
        5    1    3    3  502    0 -0.33481446904E+03 -0.69417469149E+01 -0.23634539308E+03  0.40991480988E+03  0.46999998093E+01 0. -1.
       -5    1    3    3    0  502  0.33481446904E+03  0.69417469149E+01  0.19930202377E+03  0.38973363110E+03  0.46999998093E+01 0.  1.
</event>
<event>
 5   0  0.6593118E-04  0.8000342E+03  0.7818609E-02  0.9559968E-01
       -2   -1    0    0    0  501  0.00000000000E+00  0.00000000000E+00  0.22437977151E+03  0.22437977152E+03  0.25500000920E-02 0. -1.
        2   -1    0    0  501    0  0.00000000000E+00  0.00000000000E+00 -0.71313764478E+03  0.71313764479E+03  0.25500000920E-02 0.  1.
    10030    2    1    2    0    0  0.00000000000E+00  0.00000000000E+00 -0.48875787327E+03  0.93751741631E+03  0.80003415377E+03 0.  0.
        1    1    3    3  502    0 -0.13140805180E+03  0.73500579526E+02  0.18990571169E+03  0.24235220368E+03  0.50400001928E-02 0. -1.
       -1    1    3    3    0  502  0.13140805180E+03 -0.73500579526E+02 -0.67866358496E+03  0.69516521263E+03  0.50400001928E-02 0.  1.
</event>
<event>
 5   0  0.4104786E-04  0.8000419E+03  0.7818609E-02  0.9559956E-01
        1   -1    0    0  501    0  0.00000000000E+00  0.00000000000E+00  0.10516604785E+04  0.10516604785E+04  0.50400001928E-02 0.  1.
       -1   -1    0    0    0  501  0.00000000000E+00  0.00000000000E+00 -0.15215630802E+03  0.15215630810E+03  0.50400001928E-02 0. -1.
    10030    2    1    2    0    0  0.00000000000E+00  0.00000000000E+00  0.89950417051E+03  0.12038167866E+04  0.80004193829E+03 0.  0.
        2    1    3    3  502    0  0.19922898790E+03  0.61569901301E+02 -0.63905223221E+02  0.21809841798E+03  0.25500000920E-02 0. -1.
       -2    1    3    3    0  502 -0.19922898790E+03 -0.61569901301E+02  0.96340939373E+03  0.98571836865E+03  0.25500000920E-02 0.  1.
</event>
<event>
 5   0  0.6593118E-04  0.7997332E+03  0.7818609E-02  0.9560403E-01
        2   -1    0    0  501    0  0.00000000000E+00  0.00000000000E+00  0.19116752000E+04  0.19116752000E+04  0.25500000920E-02 0. -1.
       -2   -1    0    0    0  501  0.00000000000E+00  0.00000000000E+00 -0.83640404301E+02  0.83640404340E+02  0.25500000920E-02 0.  1.
    10030    2    1    2    0    0  0.00000000000E+00  0.00000000000E+00  0.18280347957E+04  0.19953156043E+04  0.79973317215E+03 0.  0.
        1    1    3    3  502    0 -0.25534762637E+03 -0.87061186027E+02  0.17763474012E+03  0.32301108546E+03  0.50400001928E-02 0.  1.
       -1    1    3    3    0  502  0.25534762637E+03  0.87061186027E+02  0.16504000556E+04  0.16723045189E+04  0.50400001928E-02 0. -1.
</event>
<event>
 5   0  0.4169155E-04  0.7999745E+03  0.7818609E-02  0.9560054E-01
        1   -1    0    0  501    0  0.00000000000E+00  0.00000000000E+00  0.96127490449E+02  0.96127490581E+02  0.50400001928E-02 0.  1.
       -1   -1    0    0    0  501  0.00000000000E+00  0.00000000000E+00 -0.16643500303E+04  0.16643500303E+04  0.50400001928E-02 0. -1.
    10030    2    1    2    0    0  0.00000000000E+00  0.00000000000E+00 -0.15682225399E+04  0.17604775209E+04  0.79997447901E+03 0.  0.
        4    1    3    3  502    0  0.36492649888E+03  0.14603665523E+03 -0.94717052456E+03  0.10254909408E+04  0.12699999809E+01 0. -1.
       -4    1    3    3    0  502 -0.36492649888E+03 -0.14603665523E+03 -0.62105201532E+03  0.73498658008E+03  0.12699999809E+01 0.  1.
</event>
<event>
 5   0  0.2736375E-04  0.7995083E+03  0.7818609E-02  0.9560729E-01
        3   -1    0    0  501    0  0.00000000000E+00  0.00000000000E+00  0.61497520223E+03  0.61497521053E+03  0.10100000352E+00 0.  1.
       -3   -1    0    0    0  501  0.00000000000E+00  0.00000000000E+00 -0.25985337776E+03  0.25985339738E+03  0.10100000352E+00 0. -1.
    10030    2    1    2    0    0  0.00000000000E+00  0.00000000000E+00  0.35512182448E+03  0.87482860791E+03  0.79950833829E+03 0.  0.
        1    1    3    3  502    0 -0.76581901336E+02 -0.20770898716E+03  0.54177874519E+03  0.58526235119E+03  0.50400001928E-02 0.  1.
       -1    1    3    3    0  502  0.76581901336E+02  0.20770898716E+03 -0.18665692071E+03  0.28956625672E+03  0.50400001928E-02 0. -1.
</event>
<event>
 5   0  0.6970013E-04  0.8000715E+03  0.7818609E-02  0.9559914E-01
       -2   -1    0    0    0  501  0.00000000000E+00  0.00000000000E+00  0.87840334346E+02  0.87840334383E+02  0.25500000920E-02 0.  1.
        2   -1    0    0  501    0  0.00000000000E+00  0.00000000000E+00 -0.18218121509E+04  0.18218121509E+04  0.25500000920E-02 0. -1.
    10030    2    1    2    0    0  0.00000000000E+00  0.00000000000E+00 -0.17339718165E+04  0.19096524853E+04  0.80007146803E+03 0.  0.
        3    1    3    3  502    0  0.23699939363E+03 -0.24862331570E+03 -0.37755711346E+03  0.51042301066E+03  0.10100000352E+00 0.  1.
       -3    1    3    3    0  502 -0.23699939363E+03  0.24862331570E+03 -0.13564147031E+04  0.13992294746E+04  0.10100000352E+00 0. -1.
</event>
<event>
 5   0  0.4169155E-04  0.7981746E+03  0.7818609E-02  0.9562663E-01
        1   -1    0    0  501    0  0.00000000000E+00  0.00000000000E+00  0.50114086666E+03  0.50114086669E+03  0.50400001928E-02 0.  1.
       -1   -1    0    0    0  501  0.00000000000E+00  0.00000000000E+00 -0.31781619911E+03  0.31781619915E+03  0.50400001928E-02 0. -1.
    10030    2    1    2    0    0  0.00000000000E+00  0.00000000000E+00  0.18332466755E+03  0.81895706584E+03  0.79817463124E+03 0.  0.
        4    1    3    3  502    0 -0.22078769319E+03 -0.18076411808E+03 -0.19461167851E+03  0.34539570084E+03  0.12699999809E+01 0. -1.
       -4    1    3    3    0  502  0.22078769319E+03  0.18076411808E+03  0.37793634606E+03  0.47356136500E+03  0.12699999809E+01 0.  1.
</event>
<event>
 5   0  0.6970013E-04  0.8001586E+03  0.7818609E-02  0.9559788E-01
        2   -1    0    0  501    0  0.00000000000E+00  0.00000000000E+00  0.50233735862E+03  0.50233735863E+03  0.25500000920E-02 0. -1.
       -2   -1    0    0    0  501  0.00000000000E+00  0.00000000000E+00 -0.31863733049E+03  0.31863733050E+03  0.25500000920E-02 0.  1.
    10030    2    1    2    0    0  0.00000000000E+00  0.00000000000E+00  0.18370002813E+03  0.82097468913E+03  0.80015857169E+03 0.  0.
        3    1    3    3  502    0  0.18188672471E+02  0.23992666590E+03  0.41980233569E+03  0.48386944940E+03  0.10100000352E+00 0. -1.
       -3    1    3    3    0  502 -0.18188672471E+02 -0.23992666590E+03 -0.23610230755E+03  0.33710523972E+03  0.10100000352E+00 0.  1.
</event>
<event>
 5   0  0.6801147E-04  0.7993574E+03  0.7818609E-02  0.9560948E-01
       -2   -1    0    0    0  501  0.00000000000E+00  0.00000000000E+00  0.54459597148E+03  0.54459597148E+03  0.25500000920E-02 0. -1.
        2   -1    0    0  501    0  0.00000000000E+00  0.00000000000E+00 -0.29332398496E+03  0.29332398497E+03  0.25500000920E-02 0.  1.
    10030    2    1    2    0    0  0.00000000000E+00  0.00000000000E+00  0.25127198652E+03  0.83791995645E+03  0.79935739329E+03 0.  0.
        4    1    3    3  502    0 -0.18877685884E+03  0.14728793306E+03 -0.20981946479E+03  0.31836497666E+03  0.12699999809E+01 0.  1.
       -4    1    3    3    0  502  0.18877685884E+03 -0.14728793306E+03  0.46109145131E+03  0.51955497979E+03  0.12699999809E+01 0. -1.
</event>
<event>
 5   0  0.7133039E-04  0.7998098E+03  0.7818609E-02  0.9560292E-01
        2   -1    0    0  501    0  0.00000000000E+00  0.00000000000E+00  0.90125236727E+03  0.90125236727E+03  0.25500000920E-02 0. -1.
       -2   -1    0    0    0  501  0.00000000000E+00  0.00000000000E+00 -0.17744633452E+03  0.17744633454E+03  0.25500000920E-02 0.  1.
    10030    2    1    2    0    0  0.00000000000E+00  0.00000000000E+00  0.72380603274E+03  0.10786987018E+04  0.79980980005E+03 0.  0.
        2    1    3    3  502    0 -0.13751106142E+03  0.15028882198E+03  0.82603389381E+03  0.85078082710E+03  0.25500000920E-02 0. -1.
       -2    1    3    3    0  502  0.13751106142E+03 -0.15028882198E+03 -0.10222786107E+03  0.22791787471E+03  0.25500000920E-02 0.  1.
</event>
<event>
 5   0  0.7133039E-04  0.7999840E+03  0.7818609E-02  0.9560040E-01
       -2   -1    0    0    0  501  0.00000000000E+00  0.00000000000E+00  0.91738980009E+02  0.91738980045E+02  0.25500000920E-02 0. -1.
        2   -1    0    0  501    0  0.00000000000E+00  0.00000000000E+00 -0.17440088848E+04  0.17440088848E+04  0.25500000920E-02 0.  1.
    10030    2    1    2    0    0  0.00000000000E+00  0.00000000000E+00 -0.16522699048E+04  0.18357478649E+04  0.79998399048E+03 0.  0.
        2    1    3    3  502    0 -0.10138281687E+03 -0.36403049220E+03 -0.11270591350E+04  0.11887215690E+04  0.25500000920E-02 0.  1.
       -2    1    3    3    0  502  0.10138281687E+03  0.36403049220E+03 -0.52521076978E+03  0.64702629584E+03  0.25500000920E-02 0. -1.
</event>
<event>
 5   0  0.4104786E-04  0.8000250E+03  0.7818609E-02  0.9559981E-01
       -1   -1    0    0    0  501  0.00000000000E+00  0.00000000000E+00  0.21860596799E+03  0.21860596805E+03  0.50400001928E-02 0. -1.
        1   -1    0    0  501    0  0.00000000000E+00  0.00000000000E+00 -0.73195623553E+03  0.73195623555E+03  0.50400001928E-02 0.  1.
    10030    2    1    2    0    0  0.00000000000E+00  0.00000000000E+00 -0.51335026753E+03  0.95056220360E+03  0.80002500319E+03 0.  0.
        2    1    3    3  502    0  0.15008179791E+03 -0.18901365525E+02 -0.69666265500E+03  0.71289596896E+03  0.25500000920E-02 0.  1.
       -2    1    3    3    0  502 -0.15008179791E+03  0.18901365525E+02  0.18331238746E+03  0.23766623464E+03  0.25500000920E-02 0. -1.
</event>
<event>
 5   0  0.7133039E-04  0.7998211E+03  0.7818609E-02  0.9560276E-01
        2   -1    0    0  501    0  0.00000000000E+00  0.00000000000E+00  0.63804946919E+03  0.63804946920E+03  0.25500000920E-02 0. -1.
       -2   -1    0    0    0  501  0.00000000000E+00  0.00000000000E+00 -0.25065209932E+03  0.25065209933E+03  0.25500000920E-02 0.  1.
    10030    2    1    2    0    0  0.00000000000E+00  0.00000000000E+00  0.38739736987E+03  0.88870156853E+03  0.79982107731E+03 0.  0.
        2    1    3    3  502    0 -0.27227085222E+03  0.51576617253E+01 -0.13171204688E+03  0.30249972188E+03  0.25500000920E-02 0. -1.
       -2    1    3    3    0  502  0.27227085222E+03 -0.51576617253E+01  0.51910941675E+03  0.58620184664E+03  0.25500000920E-02 0.  1.
</event>
<event>
 5   0  0.6672462E-04  0.8001786E+03  0.7818609E-02  0.9559759E-01
        2   -1    0    0  501    0  0.00000000000E+00  0.00000000000E+00  0.15219733484E+04  0.15219733484E+04  0.25500000920E-02 0. -1.
       -2   -1    0    0    0  501  0.00000000000E+00  0.00000000000E+00 -0.10517361098E+03  0.10517361102E+03  0.25500000920E-02 0.  1.
    10030    2    1    2    0    0  0.00000000000E+00  0.00000000000E+00  0.14167997374E+04  0.16271469594E+04  0.80017856231E+03 0.  0.
        5    1    3    3  502    0  0.28712258057E+03  0.91475085304E+02  0.12434882641E+04  0.12794890467E+04  0.46999998093E+01 0. -1.
       -5    1    3    3    0  502 -0.28712258057E+03 -0.91475085304E+02  0.17331147322E+03  0.34765791269E+03  0.46999998093E+01 0.  1.
</event>
<event>
 5   0  0.6672462E-04  0.8003762E+03  0.7818609E-02  0.9559473E-01
       -2   -1    0    0    0  501  0.00000000000E+00  0.00000000000E+00  0.92638569392E+02  0.92638569428E+02  0.25500000920E-02 0. -1.
        2   -1    0    0  501    0  0.00000000000E+00  0.00000000000E+00 -0.17287669819E+04  0.17287669819E+04  0.25500000920E-02 0.  1.
    10030    2    1    2    0    0  0.00000000000E+00  0.00000000000E+00 -0.16361284125E+04  0.18214055513E+04  0.80037616168E+03 0.  0.
        5    1    3    3  502    0 -0.23810338163E+03 -0.30408478787E+03 -0.10563888407E+04  0.11247845355E+04  0.46999998093E+01 0. -1.
       -5    1    3    3    0  502  0.23810338163E+03  0.30408478787E+03 -0.57973957176E+03  0.69662101578E+03  0.46999998093E+01 0.  1.
</event>
<event>
 5   0  0.6970013E-04  0.7994706E+03  0.7818609E-02  0.9560784E-01
        2   -1    0    0  501    0  0.00000000000E+00  0.00000000000E+00  0.53135979710E+03  0.53135979711E+03  0.25500000920E-02 0. -1.
       -2   -1    0    0    0  501  0.00000000000E+00  0.00000000000E+00 -0.30071580958E+03  0.30071580959E+03  0.25500000920E-02 0.  1.
    10030    2    1    2    0    0  0.00000000000E+00  0.00000000000E+00  0.23064398752E+03  0.83207560670E+03  0.79947055373E+03 0.  0.
        3    1    3    3  502    0 -0.26575570129E+03 -0.30064213215E+02  0.42452106086E+03  0.50174504582E+03  0.10100000352E+00 0. -1.
       -3    1    3    3    0  502  0.26575570129E+03  0.30064213215E+02 -0.19387707334E+03  0.33033056089E+03  0.10100000352E+00 0.  1.
</event>
<event>
 5   0  0.4086111E-04  0.8000516E+03  0.7818609E-02  0.9559942E-01
        1   -1    0    0  501    0  0.00000000000E+00  0.00000000000E+00  0.14282092300E+04  0.14282092300E+04  0.50400001928E-02 0.  1.
       -1   -1    0    0    0  501  0.00000000000E+00  0.00000000000E+00 -0.11204286548E+03  0.11204286559E+03  0.50400001928E-02 0. -1.
    10030    2    1    2    0    0  0.00000000000E+00  0.00000000000E+00  0.13161663645E+04  0.15402520956E+04  0.80005163513E+03 0.  0.
        3    1    3    3  502    0 -0.32663519809E+03 -0.73794568014E+02  0.10793633933E+04  0.11301157179E+04  0.10100000352E+00 0.  1.
       -3    1    3    3    0  502  0.32663519809E+03  0.73794568014E+02  0.23680297118E+03  0.41013637764E+03  0.10100000352E+00 0. -1.
</event>
<event>
 5   0  0.4087283E-04  0.8000968E+03  0.7818609E-02  0.9559877E-01
       -1   -1    0    0    0  501  0.00000000000E+00  0.00000000000E+00  0.21750767498E+03  0.21750767504E+03  0.50400001928E-02 0. -1.
        1   -1    0    0  501    0  0.00000000000E+00  0.00000000000E+00 -0.73578429336E+03  0.73578429338E+03  0.50400001928E-02 0.  1.
    10030    2    1    2    0    0  0.00000000000E+00  0.00000000000E+00 -0.51827661837E+03  0.95329196842E+03  0.80009682158E+03 0.  0.
        1    1    3    3  502    0  0.13666562220E+03 -0.33620653087E+03 -0.45966820875E+03  0.58566815336E+03  0.50400001928E-02 0. -1.
       -1    1    3    3    0  502 -0.13666562220E+03  0.33620653087E+03 -0.58608409621E+02  0.36762381506E+03  0.50400001928E-02 0.  1.
</event>
<event>
 5   0  0.6970013E-04  0.7999140E+03  0.7818609E-02  0.9560142E-01
        2   -1    0    0  501    0  0.00000000000E+00  0.00000000000E+00  0.16794158997E+04  0.16794158997E+04  0.25500000920E-02 0.  1.
       -2   -1    0    0    0  501  0.00000000000E+00  0.00000000000E+00 -0.95250735667E+02  0.95250735701E+02  0.25500000920E-02 0. -1.
    10030    2    1    2    0    0  0.00000000000E+00  0.00000000000E+00  0.15841651640E+04  0.17746666354E+04  0.79991399530E+03 0.  0.
        3    1    3    3  502    0 -0.99365959065E+02 -0.21868231372E+03  0.15015749130E+04  0.15206652419E+04  0.10100000352E+00 0.  1.
       -3    1    3    3    0  502  0.99365959065E+02  0.21868231372E+03  0.82590250991E+02  0.25400139353E+03  0.10100000352E+00 0. -1.
</event>
<event>
 5   0  0.2736375E-04  0.8004775E+03  0.7818609E-02  0.9559326E-01
        4   -1    0    0  501    0  0.00000000000E+00  0.00000000000E+00  0.39363219010E+03  0.39363423884E+03  0.12699999809E+01 0. -1.
       -4   -1    0    0    0  501  0.00000000000E+00  0.00000000000E+00 -0.40695206438E+03  0.40695404605E+03  0.12699999809E+01 0.  1.
    10030    2    1    2    0    0  0.00000000000E+00  0.00000000000E+00 -0.13319874274E+02  0.80058828489E+03  0.80047747180E+03 0.  0.
        4    1    3    3  502    0  0.28030268655E+03 -0.22166126336E+03  0.17360408043E+03  0.39729498034E+03  0.12699999809E+01 0. -1.
       -4    1    3    3    0  502 -0.28030268655E+03  0.22166126336E+03 -0.18692395470E+03  0.40329330456E+03  0.12699999809E+01 0.  1.
</event>
<event>
 5   0  0.6801147E-04  0.7994076E+03  0.7818609E-02  0.9560875E-01
       -2   -1    0    0    0  501  0.00000000000E+00  0.00000000000E+00  0.12257629971E+03  0.12257629973E+03  0.25500000920E-02 0.  1.
        2   -1    0    0  501    0  0.00000000000E+00  0.00000000000E+00 -0.13033769283E+04  0.13033769284E+04  0.25500000920E-02 0. -1.
    10030    2    1    2    0    0  0.00000000000E+00  0.00000000000E+00 -0.11808006286E+04  0.14259532281E+04  0.79940758321E+03 0.  0.
        4    1    3    3  502    0  0.25116611560E+03 -0.29414397428E+03 -0.77016616364E+03  0.86183677558E+03  0.12699999809E+01 0.  1.
       -4    1    3    3    0  502 -0.25116611560E+03  0.29414397428E+03 -0.41063446501E+03  0.56411645250E+03  0.12699999809E+01 0. -1.
</event>
<event>
 5   0  0.2736375E-04  0.7999802E+03  0.7818609E-02  0.9560046E-01
       -3   -1    0    0    0  501  0.00000000000E+00  0.00000000000E+00  0.52662806691E+03  0.52662807660E+03  0.10100000352E+00 0.  1.
        3   -1    0    0  501    0  0.00000000000E+00  0.00000000000E+00 -0.30380464681E+03  0.30380466360E+03  0.10100000352E+00 0. -1.
    10030    2    1    2    0    0  0.00000000000E+00  0.00000000000E+00  0.22282342010E+03  0.83043274019E+03  0.79998016190E+03 0.  0.
        4    1    3    3  502    0  0.19101069419E+03 -0.24575738954E+03 -0.14936557941E+03  0.34524407167E+03  0.12699999809E+01 0. -1.
       -4    1    3    3    0  502 -0.19101069419E+03  0.24575738954E+03  0.37218899951E+03  0.48518866853E+03  0.12699999809E+01 0.  1.
</event>
<event>
 5   0  0.4169155E-04  0.8018922E+03  0.7818609E-02  0.9557282E-01
        1   -1    0    0  501    0  0.00000000000E+00  0.00000000000E+00  0.85629020185E+03  0.85629020187E+03  0.50400001928E-02 0. -1.
       -1   -1    0    0    0  501  0.00000000000E+00  0.00000000000E+00 -0.18773748699E+03  0.18773748706E+03  0.50400001928E-02 0.  1.
    10030    2    1    2    0    0  0.00000000000E+00  0.00000000000E+00  0.66855271486E+03  0.10440276889E+04  0.80189218896E+03 0.  0.
        4    1    3    3  502    0  0.22009640205E+03 -0.23121970025E+03  0.18431632515E+02  0.31975977539E+03  0.12699999809E+01 0.  1.
       -4    1    3    3    0  502 -0.22009640205E+03  0.23121970025E+03  0.65012108235E+03  0.72426791354E+03  0.12699999809E+01 0. -1.
</event>
<event>
 5   0  0.6801147E-04  0.8002960E+03  0.7818609E-02  0.9559589E-01
        2   -1    0    0  501    0  0.00000000000E+00  0.00000000000E+00  0.13770272959E+04  0.13770272959E+04  0.25500000920E-02 0.  1.
       -2   -1    0    0    0  501  0.00000000000E+00  0.00000000000E+00 -0.11627833548E+03  0.11627833551E+03  0.25500000920E-02 0. -1.
    10030    2    1    2    0    0  0.00000000000E+00  0.00000000000E+00  0.12607489605E+04  0.14933056314E+04  0.80029604998E+03 0.  0.
        4    1    3    3  502    0 -0.27893920605E+03 -0.20972640654E+03  0.99566360860E+03  0.10550544444E+04  0.12699999809E+01 0.  1.
       -4    1    3    3    0  502  0.27893920605E+03  0.20972640654E+03  0.26508535186E+03  0.43825118704E+03  0.12699999809E+01 0. -1.
</event>
<event>
 5   0  0.6593118E-04  0.7995901E+03  0.7818609E-02  0.9560611E-01
       -2   -1    0    0    0  501  0.00000000000E+00  0.00000000000E+00  0.80960659210E+02  0.80960659250E+02  0.25500000920E-02 0.  1.
        2   -1    0    0  501    0  0.00000000000E+00  0.00000000000E+00 -0.19742435948E+04  0.19742435948E+04  0.25500000920E-02 0. -1.
    10030    2    1    2    0    0  0.00000000000E+00  0.00000000000E+00 -0.18932829356E+04  0.20552042541E+04  0.79959005227E+03 0.  0.
        1    1    3    3  502    0  0.56724953401E+02  0.39286793510E+03 -0.82409534766E+03  0.91471092528E+03  0.50400001928E-02 0.  1.
       -1    1    3    3    0  502 -0.56724953401E+02 -0.39286793510E+03 -0.10691875880E+04  0.11404933288E+04  0.50400001928E-02 0. -1.
</event>
<event>
 5   0  0.7133039E-04  0.7998737E+03  0.7818609E-02  0.9560200E-01
       -2   -1    0    0    0  501  0.00000000000E+00  0.00000000000E+00  0.68775217283E+02  0.68775217330E+02  0.25500000920E-02 0.  1.
        2   -1    0    0  501    0  0.00000000000E+00  0.00000000000E+00 -0.23256847958E+04  0.23256847958E+04  0.25500000920E-02 0. -1.
    10030    2    1    2    0    0  0.00000000000E+00  0.00000000000E+00 -0.22569095785E+04  0.23944600131E+04  0.79987368308E+03 0.  0.
        2    1    3    3  502    0  0.17920509463E+03  0.26426775887E+02 -0.61068696437E+02  0.19116021060E+03  0.25500000920E-02 0.  1.
       -2    1    3    3    0  502 -0.17920509463E+03 -0.26426775887E+02 -0.21958408821E+04  0.22032998026E+04  0.25500000920E-02 0. -1.
</event>
<event>
 5   0  0.4086111E-04  0.8000500E+03  0.7818609E-02  0.9559945E-01
       -1   -1    0    0    0  501  0.00000000000E+00  0.00000000000E+00  0.16683130273E+03  0.16683130281E+03  0.50400001928E-02 0.  1.
        1   -1    0    0  501    0  0.00000000000E+00  0.00000000000E+00 -0.95917254916E+03  0.95917254917E+03  0.50400001928E-02 0. -1.
    10030    2    1    2    0    0  0.00000000000E+00  0.00000000000E+00 -0.79234124643E+03  0.11260038520E+04  0.80005001336E+03 0.  0.
        3    1    3    3  502    0  0.28378813967E+03  0.24195169423E+03 -0.19249029651E+03  0.41967708421E+03  0.10100000352E+00 0.  1.
       -3    1    3    3    0  502 -0.28378813967E+03 -0.24195169423E+03 -0.59985094992E+03  0.70632676777E+03  0.10100000352E+00 0. -1.
</event>
<event>
 5   0  0.2736375E-04  0.7996737E+03  0.7818609E-02  0.9560489E-01
       -3   -1    0    0    0  501  0.00000000000E+00  0.00000000000E+00  0.39023649476E+03  0.39023650783E+03  0.10100000352E+00 0. -1.
        3   -1    0    0  501    0  0.00000000000E+00  0.00000000000E+00 -0.40967339352E+03  0.40967340597E+03  0.10100000352E+00 0.  1.
    10030    2    1    2    0    0  0.00000000000E+00  0.00000000000E+00 -0.19436898762E+02  0.79990991380E+03  0.79967373170E+03 0.  0.
        2    1    3    3  502    0 -0.23938994565E+02 -0.32752267208E+03  0.21843956342E+03  0.39441097736E+03  0.25500000920E-02 0. -1.
       -2    1    3    3    0  502  0.23938994565E+02  0.32752267208E+03 -0.23787646218E+03  0.40549893644E+03  0.25500000920E-02 0.  1.
</event>
<event>
 5   0  0.4169155E-04  0.8009252E+03  0.7818609E-02  0.9558679E-01
        1   -1    0    0  501    0  0.00000000000E+00  0.00000000000E+00  0.98920966294E+03  0.98920966295E+03  0.50400001928E-02 0.  1.
       -1   -1    0    0    0  501  0.00000000000E+00  0.00000000000E+00 -0.16211963656E+03  0.16211963664E+03  0.50400001928E-02 0. -1.
    10030    2    1    2    0    0  0.00000000000E+00  0.00000000000E+00  0.82709002638E+03  0.11513292996E+04  0.80092524267E+03 0.  0.
        4    1    3    3  502    0  0.83314819009E+02 -0.39077146352E+03  0.37483910123E+03  0.54785916117E+03  0.12699999809E+01 0. -1.
       -4    1    3    3    0  502 -0.83314819009E+02  0.39077146352E+03  0.45225092515E+03  0.60347013842E+03  0.12699999809E+01 0.  1.
</event>
<event>
 5   0  0.4104786E-04  0.8001044E+03  0.7818609E-02  0.9559866E-01
       -1   -1    0    0    0  501  0.00000000000E+00  0.00000000000E+00  0.42769995342E+03  0.42769995345E+03  0.50400001928E-02 0.  1.
        1   -1    0    0  501    0  0.00000000000E+00  0.00000000000E+00 -0.37419164241E+03  0.37419164244E+03  0.50400001928E-02 0. -1.
    10030    2    1    2    0    0  0.00000000000E+00  0.00000000000E+00  0.53508311006E+02  0.80189159589E+03  0.80010436333E+03 0.  0.
        2    1    3    3  502    0 -0.36466764707E+03 -0.16447823517E+03  0.24265589734E+02  0.40077974189E+03  0.25500000920E-02 0.  1.
       -2    1    3    3    0  502  0.36466764707E+03  0.16447823517E+03  0.29242721272E+02  0.40111185400E+03  0.25500000920E-02 0. -1.
</event>
<event>
 5   0  0.7133039E-04  0.7999539E+03  0.7818609E-02  0.9560084E-01
        2   -1    0    0  501    0  0.00000000000E+00  0.00000000000E+00  0.40678844878E+03  0.40678844879E+03  0.25500000920E-02 0.  1.
       -2   -1    0    0    0  501  0.00000000000E+00  0.00000000000E+00 -0.39327953869E+03  0.39327953870E+03  0.25500000920E-02 0. -1.
    10030    2    1    2    0    0  0.00000000000E+00  0.00000000000E+00  0.13508910094E+02  0.80006798749E+03  0.79995393239E+03 0.  0.
        2    1    3    3  502    0 -0.67538869789E+02 -0.11329573854E+03  0.38441145755E+03  0.40641061995E+03  0.25500000920E-02 0.  1.
       -2    1    3    3    0  502  0.67538869789E+02  0.11329573854E+03 -0.37090254745E+03  0.39365736754E+03  0.25500000920E-02 0. -1.
</event>
<event>
 5   0  0.6672462E-04  0.8001325E+03  0.7818609E-02  0.9559825E-01
        2   -1    0    0  501    0  0.00000000000E+00  0.00000000000E+00  0.79208907436E+03  0.79208907437E+03  0.25500000920E-02 0. -1.
       -2   -1    0    0    0  501  0.00000000000E+00  0.00000000000E+00 -0.20206442272E+03  0.20206442274E+03  0.25500000920E-02 0.  1.
    10030    2    1    2    0    0  0.00000000000E+00  0.00000000000E+00  0.59002465164E+03  0.99415349711E+03  0.80013254294E+03 0.  0.
        5    1    3    3  502    0 -0.24863027032E+02 -0.37460905617E+01  0.79107201436E+03  0.79148545483E+03  0.46999998093E+01 0. -1.
       -5    1    3    3    0  502  0.24863027032E+02  0.37460905617E+01 -0.20104736272E+03  0.20266804228E+03  0.46999998093E+01 0.  1.
</event>
<event>
 5   0  0.4087283E-04  0.7999915E+03  0.7818609E-02  0.9560029E-01
       -1   -1    0    0    0  501  0.00000000000E+00  0.00000000000E+00  0.18079467720E+03  0.18079467727E+03  0.50400001928E-02 0.  1.
        1   -1    0    0  501    0  0.00000000000E+00  0.00000000000E+00 -0.88496292746E+03  0.88496292748E+03  0.50400001928E-02 0. -1.
    10030    2    1    2    0    0  0.00000000000E+00  0.00000000000E+00 -0.70416825026E+03  0.10657576047E+04  0.79999146708E+03 0.  0.
        1    1    3    3  502    0  0.16727761897E+03 -0.25541417216E+03 -0.78205745463E+01  0.30541670315E+03  0.50400001928E-02 0.  1.
       -1    1    3    3    0  502 -0.16727761897E+03  0.25541417216E+03 -0.69634767572E+03  0.76034090160E+03  0.50400001928E-02 0. -1.
</event>
<event>
 5   0  0.6593118E-04  0.8000337E+03  0.7818609E-02  0.9559968E-01
        2   -1    0    0  501    0  0.00000000000E+00  0.00000000000E+00  0.83205853793E+03  0.83205853794E+03  0.25500000920E-02 0. -1.
       -2   -1    0    0    0  501  0.00000000000E+00  0.00000000000E+00 -0.19231034123E+03  0.19231034124E+03  0.25500000920E-02 0.  1.
    10030    2    1    2    0    0  0.00000000000E+00  0.00000000000E+00  0.63974819671E+03  0.10243688792E+04  0.80003365270E+03 0.  0.
        1    1    3    3  502    0  0.15179777745E+03  0.17493075666E+03  0.73747166384E+03  0.77298628051E+03  0.50400001928E-02 0. -1.
       -1    1    3    3    0  502 -0.15179777745E+03 -0.17493075666E+03 -0.97723467133E+02  0.25138259867E+03  0.50400001928E-02 0.  1.
</event>
<event>
 5   0  0.4169155E-04  0.8001795E+03  0.7818609E-02  0.9559757E-01
        1   -1    0    0  501    0  0.00000000000E+00  0.00000000000E+00  0.34211688631E+03  0.34211688635E+03  0.50400001928E-02 0.  1.
       -1   -1    0    0    0  501  0.00000000000E+00  0.00000000000E+00 -0.46788635885E+03  0.46788635888E+03  0.50400001928E-02 0. -1.
    10030    2    1    2    0    0  0.00000000000E+00  0.00000000000E+00 -0.12576947253E+03  0.81000324523E+03  0.80017954051E+03 0.  0.
        4    1    3    3  502    0  0.16564485489E+02  0.12412972215E+03 -0.44753348752E+03  0.46472616179E+03  0.12699999809E+01 0. -1.
       -4    1    3    3    0  502 -0.16564485489E+02 -0.12412972215E+03  0.32176401499E+03  0.34527708343E+03  0.12699999809E+01 0.  1.
</event>
<event>
 5   0  0.6672462E-04  0.8004986E+03  0.7818609E-02  0.9559296E-01
       -2   -1    0    0    0  501  0.00000000000E+00  0.00000000000E+00  0.81281872904E+02  0.81281872944E+02  0.25500000920E-02 0.  1.
        2   -1    0    0  501    0  0.00000000000E+00  0.00000000000E+00 -0.19709129197E+04  0.19709129197E+04  0.25500000920E-02 0. -1.
    10030    2    1    2    0    0  0.00000000000E+00  0.00000000000E+00 -0.18896310468E+04  0.20521947927E+04  0.80049857835E+03 0.  0.
        5    1    3    3  502    0 -0.11239600122E+03 -0.28117346770E+02 -0.19269092270E+04  0.19303949610E+04  0.46999998093E+01 0. -1.
       -5    1    3    3    0  502  0.11239600122E+03  0.28117346770E+02  0.37278180191E+02  0.12179983168E+03  0.46999998093E+01 0.  1.
</event>
<event>
 5   0  0.6593118E-04  0.8003529E+03  0.7818609E-02  0.9559506E-01
       -2   -1    0    0    0  501  0.00000000000E+00  0.00000000000E+00  0.14120983036E+03  0.14120983039E+03  0.25500000920E-02 0.  1.
        2   -1    0    0  501    0  0.00000000000E+00  0.00000000000E+00 -0.11340653581E+04  0.11340653581E+04  0.25500000920E-02 0. -1.
    10030    2    1    2    0    0  0.00000000000E+00  0.00000000000E+00 -0.99285552773E+03  0.12752751885E+04  0.80035286431E+03 0.  0.
        1    1    3    3  502    0  0.16003716328E+03 -0.23883122107E+03 -0.52878113135E+02  0.29231548139E+03  0.50400001928E-02 0.  1.
       -1    1    3    3    0  502 -0.16003716328E+03  0.23883122107E+03 -0.93997741459E+03  0.98295970709E+03  0.50400001928E-02 0. -1.
</event>
<event>
 5   0  0.6672462E-04  0.8005148E+03  0.7818609E-02  0.9559272E-01
       -2   -1    0    0    0  501  0.00000000000E+00  0.00000000000E+00  0.88568746739E+02  0.88568746776E+02  0.25500000920E-02 0.  1.
        2   -1    0    0  501    0  0.00000000000E+00  0.00000000000E+00 -0.18088322505E+04  0.18088322505E+04  0.25500000920E-02 0. -1.
    10030    2    1    2    0    0  0.00000000000E+00  0.00000000000E+00 -0.17202635038E+04  0.18974009973E+04  0.80051484815E+03 0.  0.
        5    1    3    3  502    0 -0.38590211523E+03  0.10236573667E+03 -0.92652892197E+03  0.10088989641E+04  0.46999998093E+01 0. -1.
       -5    1    3    3    0  502  0.38590211523E+03 -0.10236573667E+03 -0.79373458183E+03  0.88850203318E+03  0.46999998093E+01 0.  1.
</event>
<event>
 5   0  0.6672462E-04  0.7996838E+03  0.7818609E-02  0.9560475E-01
        2   -1    0    0  501    0  0.00000000000E+00  0.00000000000E+00  0.18196261271E+04  0.18196261271E+04  0.25500000920E-02 0.  1.
       -2   -1    0    0    0  501  0.00000000000E+00  0.00000000000E+00 -0.87860655536E+02  0.87860655573E+02  0.25500000920E-02 0. -1.
    10030    2    1    2    0    0  0.00000000000E+00  0.00000000000E+00  0.17317654716E+04  0.19074867827E+04  0.79968379851E+03 0.  0.
        5    1    3    3  502    0 -0.25140267017E+03  0.30882470165E+03  0.95107023964E+03  0.10310832603E+04  0.46999998093E+01 0. -1.
       -5    1    3    3    0  502  0.25140267017E+03 -0.30882470165E+03  0.78069523197E+03  0.87640352243E+03  0.46999998093E+01 0.  1.
</event>
<event>
 5   0  0.2736375E-04  0.8006851E+03  0.7818609E-02  0.9559026E-01
        4   -1    0    0  501    0  0.00000000000E+00  0.00000000000E+00  0.46633588584E+03  0.46633761517E+03  0.12699999809E+01 0. -1.
       -4   -1    0    0    0  501  0.00000000000E+00  0.00000000000E+00 -0.34368470003E+03  0.34368704651E+03  0.12699999809E+01 0.  1.
    10030    2    1    2    0    0  0.00000000000E+00  0.00000000000E+00  0.12265118580E+03  0.81002466168E+03  0.80068510611E+03 0.  0.
        2    1    3    3  502    0  0.12053275386E+03  0.29233066125E+03 -0.18707624765E+03  0.36740016699E+03  0.25500000920E-02 0.  1.
       -2    1    3    3    0  502 -0.12053275386E+03 -0.29233066125E+03  0.30972743346E+03  0.44262449469E+03  0.25500000920E-02 0. -1.
</event>
<event>
 5   0  0.6593118E-04  0.8003975E+03  0.7818609E-02  0.9559442E-01
       -2   -1    0    0    0  501  0.00000000000E+00  0.00000000000E+00  0.17324222897E+03  0.17324222899E+03  0.25500000920E-02 0.  1.
        2   -1    0    0  501    0  0.00000000000E+00  0.00000000000E+00 -0.92448032805E+03  0.92448032805E+03  0.25500000920E-02 0. -1.
    10030    2    1    2    0    0  0.00000000000E+00  0.00000000000E+00 -0.75123809908E+03  0.10977225570E+04  0.80039748295E+03 0.  0.
        1    1    3    3  502    0 -0.10849826944E+03  0.36941859592E+02 -0.90148943344E+03  0.90874626497E+03  0.50400001928E-02 0. -1.
       -1    1    3    3    0  502  0.10849826944E+03 -0.36941859592E+02  0.15025133436E+03  0.18897629207E+03  0.50400001928E-02 0.  1.
</event>
<event>
 5   0  0.4104786E-04  0.7982929E+03  0.7818609E-02  0.9562491E-01
       -1   -1    0    0    0  501  0.00000000000E+00  0.00000000000E+00  0.11477542381E+03  0.11477542392E+03  0.50400001928E-02 0.  1.
        1   -1    0    0  501    0  0.00000000000E+00  0.00000000000E+00 -0.13880835980E+04  0.13880835981E+04  0.50400001928E-02 0. -1.
    10030    2    1    2    0    0  0.00000000000E+00  0.00000000000E+00 -0.12733081742E+04  0.15028590220E+04  0.79829288696E+03 0.  0.
        2    1    3    3  502    0  0.37763969279E+03  0.77199843362E+02 -0.83181195677E+03  0.91677842733E+03  0.25500000920E-02 0.  1.
       -2    1    3    3    0  502 -0.37763969279E+03 -0.77199843362E+02 -0.44149621746E+03  0.58608059465E+03  0.25500000920E-02 0. -1.
</event>
<event>
 5   0  0.6801147E-04  0.7998571E+03  0.7818609E-02  0.9560224E-01
       -2   -1    0    0    0  501  0.00000000000E+00  0.00000000000E+00  0.24824227456E+03  0.24824227457E+03  0.25500000920E-02 0.  1.
        2   -1    0    0  501    0  0.00000000000E+00  0.00000000000E+00 -0.64430137035E+03  0.64430137036E+03  0.25500000920E-02 0. -1.
    10030    2    1    2    0    0  0.00000000000E+00  0.00000000000E+00 -0.39605909579E+03  0.89254364493E+03  0.79985708145E+03 0.  0.
        4    1    3    3  502    0  0.68320846951E+02  0.17302182727E+03 -0.59308367321E+03  0.62157392735E+03  0.12699999809E+01 0. -1.
       -4    1    3    3    0  502 -0.68320846951E+02 -0.17302182727E+03  0.19702457741E+03  0.27096971758E+03  0.12699999809E+01 0.  1.
</event>
<event>
 5   0  0.4086111E-04  0.7995473E+03  0.7818609E-02  0.9560673E-01
        1   -1    0    0  501    0  0.00000000000E+00  0.00000000000E+00  0.54479648829E+03  0.54479648831E+03  0.50400001928E-02 0. -1.
       -1   -1    0    0    0  501  0.00000000000E+00  0.00000000000E+00 -0.29335533126E+03  0.29335533131E+03  0.50400001928E-02 0.  1.
    10030    2    1    2    0    0  0.00000000000E+00  0.00000000000E+00  0.25144115703E+03  0.83815181962E+03  0.79954725769E+03 0.  0.
        3    1    3    3  502    0  0.11375939550E+03 -0.13570325585E+03  0.50144248715E+03  0.53179051499E+03  0.10100000352E+00 0. -1.
       -3    1    3    3    0  502 -0.11375939550E+03  0.13570325585E+03 -0.25000133012E+03  0.30636130463E+03  0.10100000352E+00 0.  1.
</event>
<event>
 5   0  0.6970013E-04  0.7999437E+03  0.7818609E-02  0.9560099E-01
        2   -1    0    0  501    0  0.00000000000E+00  0.00000000000E+00  0.33234677757E+03  0.33234677758E+03  0.25500000920E-02 0.  1.
       -2   -1    0    0    0  501  0.00000000000E+00  0.00000000000E+00 -0.48135706976E+03  0.48135706977E+03  0.25500000920E-02 0. -1.
    10030    2    1    2    0    0  0.00000000000E+00  0.00000000000E+00 -0.14901029218E+03  0.81370384735E+03  0.79994367553E+03 0.  0.
        3    1    3    3  502    0 -0.36115295729E+03 -0.16578212346E+03 -0.12069874570E+03  0.41531117061E+03  0.10100000352E+00 0.  1.
       -3    1    3    3    0  502  0.36115295729E+03  0.16578212346E+03 -0.28311546488E+02  0.39839267674E+03  0.10100000352E+00 0. -1.
</event>
<event>
 5   0  0.4169155E-04  0.7989261E+03  0.7818609E-02  0.9561573E-01
       -1   -1    0    0    0  501  0.00000000000E+00  0.00000000000E+00  0.14195460861E+03  0.14195460870E+03  0.50400001928E-02 0. -1.
        1   -1    0    0  501    0  0.00000000000E+00  0.00000000000E+00 -0.11240968781E+04  0.11240968781E+04  0.50400001928E-02 0.  1.
    10030    2    1    2    0    0  0.00000000000E+00  0.00000000000E+00 -0.98214226946E+03  0.12660514868E+04  0.79892611031E+03 0.  0.
        4    1    3    3  502    0 -0.33643930820E+03 -0.21526853840E+03 -0.48140999837E+03  0.62553109528E+03  0.12699999809E+01 0.  1.
       -4    1    3    3    0  502  0.33643930820E+03  0.21526853840E+03 -0.50073227110E+03  0.64052039151E+03  0.12699999809E+01 0. -1.
</event>
<event>
 5   0  0.6593118E-04  0.8000388E+03  0.7818609E-02  0.9559961E-01
       -2   -1    0    0    0  501  0.00000000000E+00  0.00000000000E+00  0.85312149063E+03  0.85312149063E+03  0.25500000920E-02 0.  1.
        2   -1    0    0  501    0  0.00000000000E+00  0.00000000000E+00 -0.18756477071E+03  0.18756477073E+03  0.25500000920E-02 0. -1.
    10030    2    1    2    0    0  0.00000000000E+00  0.00000000000E+00  0.66555671991E+03  0.10406862614E+04  0.80003884103E+03 0.  0.
        1    1    3    3  502    0 -0.19573264887E+03 -0.27861804588E+03  0.60587167868E+03  0.69499624199E+03  0.50400001928E-02 0.  1.
       -1    1    3    3    0  502  0.19573264887E+03  0.27861804588E+03  0.59685041229E+02  0.34569001937E+03  0.50400001928E-02 0. -1.
</event>
<event>
 5   0  0.4392552E-04  0.7996190E+03  0.7818609E-02  0.9560569E-01
        1   -1    0    0  501    0  0.00000000000E+00  0.00000000000E+00  0.17383172618E+04  0.17383172618E+04  0.50400001928E-02 0. -1.
       -1   -1    0    0    0  501  0.00000000000E+00  0.00000000000E+00 -0.91955384151E+02  0.91955384289E+02  0.50400001928E-02 0.  1.
    10030    2    1    2    0    0  0.00000000000E+00  0.00000000000E+00  0.16463618776E+04  0.18302726461E+04  0.79961898856E+03 0.  0.
        5    1    3    3  502    0 -0.26176709884E+03 -0.90090523367E+02  0.16300299659E+03  0.32129485419E+03  0.46999998093E+01 0.  1.
       -5    1    3    3    0  502  0.26176709884E+03  0.90090523367E+02  0.14833588811E+04  0.15089777919E+04  0.46999998093E+01 0. -1.
</event>
<event>
 5   0  0.4169155E-04  0.7995042E+03  0.7818609E-02  0.9560735E-01
        1   -1    0    0  501    0  0.00000000000E+00  0.00000000000E+00  0.44768728647E+03  0.44768728650E+03  0.50400001928E-02 0. -1.
       -1   -1    0    0    0  501  0.00000000000E+00  0.00000000000E+00 -0.35694944931E+03  0.35694944935E+03  0.50400001928E-02 0.  1.
    10030    2    1    2    0    0  0.00000000000E+00  0.00000000000E+00  0.90737837160E+02  0.80463673585E+03  0.79950417234E+03 0.  0.
        4    1    3    3  502    0  0.34407838427E+03  0.26282646399E+02  0.24845484862E+03  0.42522010386E+03  0.12699999809E+01 0. -1.
       -4    1    3    3    0  502 -0.34407838427E+03 -0.26282646399E+02 -0.15771701146E+03  0.37941663199E+03  0.12699999809E+01 0.  1.
</event>
<event>
 5   0  0.6970013E-04  0.7997349E+03  0.7818609E-02  0.9560401E-01
       -2   -1    0    0    0  501  0.00000000000E+00  0.00000000000E+00  0.21134671058E+03  0.21134671060E+03  0.25500000920E-02 0. -1.
        2   -1    0    0  501    0  0.00000000000E+00  0.00000000000E+00 -0.75654815584E+03  0.75654815584E+03  0.25500000920E-02 0.  1.
    10030    2    1    2    0    0  0.00000000000E+00  0.00000000000E+00 -0.54520144525E+03  0.96789486644E+03  0.79973486642E+03 0.  0.
        3    1    3    3  502    0  0.39279800076E+03 -0.63530441174E+02 -0.22468309661E+03  0.45695611437E+03  0.10100000352E+00 0. -1.
       -3    1    3    3    0  502 -0.39279800076E+03  0.63530441174E+02 -0.32051834864E+03  0.51093875207E+03  0.10100000352E+00 0.  1.
</event>
<event>
 5   0  0.4392552E-04  0.8000118E+03  0.7818609E-02  0.9560000E-01
       -1   -1    0    0    0  501  0.00000000000E+00  0.00000000000E+00  0.49890944095E+03  0.49890944097E+03  0.50400001928E-02 0. -1.
        1   -1    0    0  501    0  0.00000000000E+00  0.00000000000E+00 -0.32070890993E+03  0.32070890997E+03  0.50400001928E-02 0.  1.
    10030    2    1    2    0    0  0.00000000000E+00  0.00000000000E+00  0.17820053101E+03  0.81961835095E+03  0.80001175738E+03 0.  0.
        5    1    3    3  502    0  0.15089245505E+03  0.29455472436E+03 -0.14101887936E+03  0.35977692112E+03  0.46999998093E+01 0.  1.
       -5    1    3    3    0  502 -0.15089245505E+03 -0.29455472436E+03  0.31921941037E+03  0.45984142983E+03  0.46999998093E+01 0. -1.
</event>
<event>
 5   0  0.4086111E-04  0.7994210E+03  0.7818609E-02  0.9560856E-01
        1   -1    0    0  501    0  0.00000000000E+00  0.00000000000E+00  0.53676592933E+03  0.53676592935E+03  0.50400001928E-02 0. -1.
       -1   -1    0    0    0  501  0.00000000000E+00  0.00000000000E+00 -0.29765016247E+03  0.29765016251E+03  0.50400001928E-02 0.  1.
    10030    2    1    2    0    0  0.00000000000E+00  0.00000000000E+00  0.23911576686E+03  0.83441609187E+03  0.79942095570E+03 0.  0.
        3    1    3    3  502    0  0.47621190072E+02  0.86278275744E+02 -0.28477111695E+03  0.30134086656E+03  0.10100000352E+00 0.  1.
       -3    1    3    3    0  502 -0.47621190072E+02 -0.86278275744E+02  0.52388688381E+03  0.53307522531E+03  0.10100000352E+00 0. -1.
</event>
<event>
 5   0  0.4104786E-04  0.8001064E+03  0.7818609E-02  0.9559863E-01
       -1   -1    0    0    0  501  0.00000000000E+00  0.00000000000E+00  0.37865108412E+03  0.37865108416E+03  0.50400001928E-02 0.  1.
        1   -1    0    0  501    0  0.00000000000E+00  0.00000000000E+00 -0.42266504094E+03  0.42266504097E+03  0.50400001928E-02 0. -1.
    10030    2    1    2    0    0  0.00000000000E+00  0.00000000000E+00 -0.44013956811E+02  0.80131612512E+03  0.80010643291E+03 0.  0.
        2    1    3    3  502    0 -0.13993992779E+03  0.15234839225E+03  0.32092766540E+03  0.38182166313E+03  0.25500000920E-02 0.  1.
       -2    1    3    3    0  502  0.13993992779E+03 -0.15234839225E+03 -0.36494162221E+03  0.41949446199E+03  0.25500000920E-02 0. -1.
</event>
<event>
 5   0  0.7133039E-04  0.7998612E+03  0.7818609E-02  0.9560218E-01
       -2   -1    0    0    0  501  0.00000000000E+00  0.00000000000E+00  0.16987719554E+03  0.16987719556E+03  0.25500000920E-02 0.  1.
        2   -1    0    0  501    0  0.00000000000E+00  0.00000000000E+00 -0.94153016768E+03  0.94153016768E+03  0.25500000920E-02 0. -1.
    10030    2    1    2    0    0  0.00000000000E+00  0.00000000000E+00 -0.77165297213E+03  0.11114073632E+04  0.79986124901E+03 0.  0.
        2    1    3    3  502    0  0.16903122542E+03  0.36163873161E+03 -0.41958811124E+03  0.57914446424E+03  0.25500000920E-02 0. -1.
       -2    1    3    3    0  502 -0.16903122542E+03 -0.36163873161E+03 -0.35206486089E+03  0.53226289900E+03  0.25500000920E-02 0.  1.
</event>
<event>
 5   0  0.4104786E-04  0.8004319E+03  0.7818609E-02  0.9559392E-01
       -1   -1    0    0    0  501  0.00000000000E+00  0.00000000000E+00  0.21544539428E+03  0.21544539434E+03  0.50400001928E-02 0.  1.
        1   -1    0    0  501    0  0.00000000000E+00  0.00000000000E+00 -0.74344963933E+03  0.74344963935E+03  0.50400001928E-02 0. -1.
    10030    2    1    2    0    0  0.00000000000E+00  0.00000000000E+00 -0.52800424505E+03  0.95889503368E+03  0.80043188519E+03 0.  0.
        2    1    3    3  502    0 -0.33888907376E+03 -0.17825275953E+03 -0.12453764353E+03  0.40265304575E+03  0.25500000920E-02 0.  1.
       -2    1    3    3    0  502  0.33888907376E+03  0.17825275953E+03 -0.40346660152E+03  0.55624198793E+03  0.25500000920E-02 0. -1.
</event>
<event>
 5   0  0.4104786E-04  0.7997726E+03  0.7818609E-02  0.9560346E-01
        1   -1    0    0  501    0  0.00000000000E+00  0.00000000000E+00  0.43936504440E+03  0.43936504443E+03  0.50400001928E-02 0.  1.
       -1   -1    0    0    0  501  0.00000000000E+00  0.00000000000E+00 -0.36395488447E+03  0.36395488451E+03  0.50400001928E-02 0. -1.
    10030    2    1    2    0    0  0.00000000000E+00  0.00000000000E+00  0.75410159925E+02  0.80331992893E+03  0.79977260268E+03 0.  0.
        2    1    3    3  502    0 -0.22944477833E+03 -0.60259810107E+02  0.36105357979E+03  0.43201370176E+03  0.25500000920E-02 0.  1.
       -2    1    3    3    0  502  0.22944477833E+03  0.60259810107E+02 -0.28564341987E+03  0.37130622717E+03  0.25500000920E-02 0. -1.
</event>
<event>
 5   0  0.4086111E-04  0.7999736E+03  0.7818609E-02  0.9560055E-01
       -1   -1    0    0    0  501  0.00000000000E+00  0.00000000000E+00  0.24893147011E+03  0.24893147016E+03  0.50400001928E-02 0.  1.
        1   -1    0    0  501    0  0.00000000000E+00  0.00000000000E+00 -0.64270472724E+03  0.64270472726E+03  0.50400001928E-02 0. -1.
    10030    2    1    2    0    0  0.00000000000E+00  0.00000000000E+00 -0.39377325713E+03  0.89163619742E+03  0.79997358114E+03 0.  0.
        3    1    3    3  502    0 -0.74537052601E+01 -0.39150983244E+03 -0.10596845620E+03  0.40566590999E+03  0.10100000352E+00 0.  1.
       -3    1    3    3    0  502  0.74537052601E+01  0.39150983244E+03 -0.28780480093E+03  0.48597028743E+03  0.10100000352E+00 0. -1.
</event>
<event>
 5   0  0.6593118E-04  0.8001841E+03  0.7818609E-02  0.9559751E-01
       -2   -1    0    0    0  501  0.00000000000E+00  0.00000000000E+00  0.20258370215E+03  0.20258370217E+03  0.25500000920E-02 0.  1.
        2   -1    0    0  501    0  0.00000000000E+00  0.00000000000E+00 -0.79016057182E+03  0.79016057182E+03  0.25500000920E-02 0. -1.
    10030    2    1    2    0    0  0.00000000000E+00  0.00000000000E+00 -0.58757686966E+03  0.99274427399E+03  0.80018411367E+03 0.  0.
        1    1    3    3  502    0 -0.11748953832E+02  0.27954550198E+03  0.61022813620E+02  0.28636953295E+03  0.50400001928E-02 0.  1.
       -1    1    3    3    0  502  0.11748953832E+02 -0.27954550198E+03 -0.64859968328E+03  0.70637474104E+03  0.50400001928E-02 0. -1.
</event>
<event>
 5   0  0.2736375E-04  0.7998800E+03  0.7818609E-02  0.9560191E-01
       -3   -1    0    0    0  501  0.00000000000E+00  0.00000000000E+00  0.98597107130E+03  0.98597107647E+03  0.10100000352E+00 0.  1.
        3   -1    0    0  501    0  0.00000000000E+00  0.00000000000E+00 -0.16222785578E+03  0.16222788722E+03  0.10100000352E+00 0. -1.
    10030    2    1    2    0    0  0.00000000000E+00  0.00000000000E+00  0.82374321552E+03  0.11481989637E+04  0.79987997544E+03 0.  0.
        1    1    3    3  502    0 -0.38297258522E+03 -0.97566535372E+02  0.32379487445E+03  0.51091129426E+03  0.50400001928E-02 0. -1.
       -1    1    3    3    0  502  0.38297258522E+03  0.97566535372E+02  0.49994834107E+03  0.63728766944E+03  0.50400001928E-02 0.  1.
</event>
<event>
 5   0  0.6801147E-04  0.7994399E+03  0.7818609E-02  0.9560828E-01
        2   -1    0    0  501    0  0.00000000000E+00  0.00000000000E+00  0.51740420465E+03  0.51740420466E+03  0.25500000920E-02 0.  1.
       -2   -1    0    0    0  501  0.00000000000E+00  0.00000000000E+00 -0.30880315822E+03  0.30880315823E+03  0.25500000920E-02 0. -1.
    10030    2    1    2    0    0  0.00000000000E+00  0.00000000000E+00  0.20860104643E+03  0.82620736289E+03  0.79943993516E+03 0.  0.
        4    1    3    3  502    0 -0.34351066587E+02  0.60188253408E+02 -0.30254504131E+03  0.31038320919E+03  0.12699999809E+01 0. -1.
       -4    1    3    3    0  502  0.34351066587E+02 -0.60188253408E+02  0.51114608775E+03  0.51582415370E+03  0.12699999809E+01 0.  1.
</event>
<event>
 5   0  0.4087283E-04  0.8001983E+03  0.7818609E-02  0.9559730E-01
       -1   -1    0    0    0  501  0.00000000000E+00  0.00000000000E+00  0.27215085477E+03  0.27215085481E+03  0.50400001928E-02 0. -1.
        1   -1    0    0  501    0  0.00000000000E+00  0.00000000000E+00 -0.58820073482E+03  0.58820073485E+03  0.50400001928E-02 0.  1.
    10030    2    1    2    0    0  0.00000000000E+00  0.00000000000E+00 -0.31604988006E+03  0.86035158966E+03  0.80019830739E+03 0.  0.
        1    1    3    3  502    0 -0.35387494283E+03  0.18083295665E+03 -0.10815615766E+03  0.41185651365E+03  0.50400001928E-02 0. -1.
       -1    1    3    3    0  502  0.35387494283E+03 -0.18083295665E+03 -0.20789372239E+03  0.44849507601E+03  0.50400001928E-02 0.  1.
</event>
<event>
 5   0  0.6593118E-04  0.7998717E+03  0.7818609E-02  0.9560203E-01
       -2   -1    0    0    0  501  0.00000000000E+00  0.00000000000E+00  0.13905794015E+03  0.13905794017E+03  0.25500000920E-02 0. -1.
        2   -1    0    0  501    0  0.00000000000E+00  0.00000000000E+00 -0.11502306315E+04  0.11502306315E+04  0.25500000920E-02 0.  1.
    10030    2    1    2    0    0  0.00000000000E+00  0.00000000000E+00 -0.10111726913E+04  0.12892885717E+04  0.79987174553E+03 0.  0.
        1    1    3    3  502    0 -0.70178538106E+02 -0.12786803147E+03 -0.11058284057E+04  0.11154065284E+04  0.50400001928E-02 0.  1.
       -1    1    3    3    0  502  0.70178538106E+02  0.12786803147E+03  0.94655714370E+02  0.17388204327E+03  0.50400001928E-02 0. -1.
</event>
<event>
 5   0  0.2736375E-04  0.8012001E+03  0.7818609E-02  0.9558282E-01
        3   -1    0    0  501    0  0.00000000000E+00  0.00000000000E+00  0.88930072313E+03  0.88930072887E+03  0.10100000352E+00 0.  1.
       -3   -1    0    0    0  501  0.00000000000E+00  0.00000000000E+00 -0.18045681753E+03  0.18045684579E+03  0.10100000352E+00 0. -1.
    10030    2    1    2    0    0  0.00000000000E+00  0.00000000000E+00  0.70884390561E+03  0.10697575747E+04  0.80120009113E+03 0.  0.
        5    1    3    3  502    0 -0.28833855161E+03  0.98632827274E+02  0.72952541446E+01  0.30486532386E+03  0.46999998093E+01 0. -1.
       -5    1    3    3    0  502  0.28833855161E+03 -0.98632827274E+02  0.70154865146E+03  0.76489225080E+03  0.46999998093E+01 0.  1.
</event>
<event>
 5   0  0.6801147E-04  0.7999403E+03  0.7818609E-02  0.9560104E-01
       -2   -1    0    0    0  501  0.00000000000E+00  0.00000000000E+00  0.46642576302E+03  0.46642576303E+03  0.25500000920E-02 0.  1.
        2   -1    0    0  501    0  0.00000000000E+00  0.00000000000E+00 -0.34298301534E+03  0.34298301535E+03  0.25500000920E-02 0. -1.
    10030    2    1    2    0    0  0.00000000000E+00  0.00000000000E+00  0.12344274768E+03  0.80940877838E+03  0.79994028437E+03 0.  0.
        4    1    3    3  502    0  0.36163695166E+03 -0.54517913391E+01 -0.11107321018E+03  0.37835152670E+03  0.12699999809E+01 0. -1.
       -4    1    3    3    0  502 -0.36163695166E+03  0.54517913391E+01  0.23451595786E+03  0.43105725168E+03  0.12699999809E+01 0.  1.
</event>
<event>
 5   0  0.6672462E-04  0.8005277E+03  0.7818609E-02  0.9559254E-01
       -2   -1    0    0    0  501  0.00000000000E+00  0.00000000000E+00  0.38484085666E+03  0.38484085667E+03  0.25500000920E-02 0.  1.
        2   -1    0    0  501    0  0.00000000000E+00  0.00000000000E+00 -0.41630495113E+03  0.41630495114E+03  0.25500000920E-02 0. -1.
    10030    2    1    2    0    0  0.00000000000E+00  0.00000000000E+00 -0.31464094469E+02  0.80114580781E+03  0.80052771103E+03 0.  0.
        5    1    3    3  502    0  0.32053352272E+02 -0.10242055503E+03  0.37014532636E+03  0.38541800698E+03  0.46999998093E+01 0.  1.
       -5    1    3    3    0  502 -0.32053352272E+02  0.10242055503E+03 -0.40160942083E+03  0.41572780083E+03  0.46999998093E+01 0. -1.
</event>
<event>
 5   0  0.6593118E-04  0.7996047E+03  0.7818609E-02  0.9560589E-01
       -2   -1    0    0    0  501  0.00000000000E+00  0.00000000000E+00  0.88244956814E+03  0.88244956815E+03  0.25500000920E-02 0.  1.
        2   -1    0    0  501    0  0.00000000000E+00  0.00000000000E+00 -0.18113434507E+03  0.18113434509E+03  0.25500000920E-02 0. -1.
    10030    2    1    2    0    0  0.00000000000E+00  0.00000000000E+00  0.70131522307E+03  0.10635839132E+04  0.79960471383E+03 0.  0.
        1    1    3    3  502    0 -0.18112454493E+03  0.26108843224E+03  0.67338696546E+03  0.74459604854E+03  0.50400001928E-02 0.  1.
       -1    1    3    3    0  502  0.18112454493E+03 -0.26108843224E+03  0.27928257607E+02  0.31898786469E+03  0.50400001928E-02 0. -1.
</event>
<event>
 5   0  0.6672462E-04  0.8001677E+03  0.7818609E-02  0.9559774E-01
       -2   -1    0    0    0  501  0.00000000000E+00  0.00000000000E+00  0.65819488387E+03  0.65819488387E+03  0.25500000920E-02 0. -1.
        2   -1    0    0  501    0  0.00000000000E+00  0.00000000000E+00 -0.24319099605E+03  0.24319099607E+03  0.25500000920E-02 0.  1.
    10030    2    1    2    0    0  0.00000000000E+00  0.00000000000E+00  0.41500388781E+03  0.90138587994E+03  0.80016765596E+03 0.  0.
        5    1    3    3  502    0  0.13086086501E+03 -0.37289266192E+03  0.13741000884E+03  0.41842215983E+03  0.46999998093E+01 0. -1.
       -5    1    3    3    0  502 -0.13086086501E+03  0.37289266192E+03  0.27759387897E+03  0.48296372011E+03  0.46999998093E+01 0.  1.
</event>
<event>
 5   0  0.6593118E-04  0.8000855E+03  0.7818609E-02  0.9559893E-01
        2   -1    0    0  501    0  0.00000000000E+00  0.00000000000E+00  0.43874530460E+03  0.43874530461E+03  0.25500000920E-02 0. -1.
       -2   -1    0    0    0  501  0.00000000000E+00  0.00000000000E+00 -0.36475425914E+03  0.36475425915E+03  0.25500000920E-02 0.  1.
    10030    2    1    2    0    0  0.00000000000E+00  0.00000000000E+00  0.73991045456E+02  0.80349956376E+03  0.80008554177E+03 0.  0.
        1    1    3    3  502    0 -0.75130904414E+01 -0.39833889568E+03  0.73193838535E+00  0.39841041415E+03  0.50400001928E-02 0.  1.
       -1    1    3    3    0  502  0.75130904414E+01  0.39833889568E+03  0.73259107071E+02  0.40508914961E+03  0.50400001928E-02 0. -1.
</event>
<event>
 5   0  0.4169155E-04  0.7995201E+03  0.7818609E-02  0.9560712E-01
       -1   -1    0    0    0  501  0.00000000000E+00  0.00000000000E+00  0.17229258195E+03  0.17229258203E+03  0.50400001928E-02 0.  1.
        1   -1    0    0  501    0  0.00000000000E+00  0.00000000000E+00 -0.92753915367E+03  0.92753915369E+03  0.50400001928E-02 0. -1.
    10030    2    1    2    0    0  0.00000000000E+00  0.00000000000E+00 -0.75524657172E+03  0.10998317357E+04  0.79952014533E+03 0.  0.
        4    1    3    3  502    0  0.94454765338E+02 -0.37964651031E+03 -0.26457714643E+03  0.47228789398E+03  0.12699999809E+01 0.  1.
       -4    1    3    3    0  502 -0.94454765338E+02  0.37964651031E+03 -0.49066942529E+03  0.62754384173E+03  0.12699999809E+01 0. -1.
</event>
<event>
 5   0  0.4086111E-04  0.7996342E+03  0.7818609E-02  0.9560547E-01
        1   -1    0    0  501    0  0.00000000000E+00  0.00000000000E+00  0.12876901048E+04  0.12876901048E+04  0.50400001928E-02 0.  1.
       -1   -1    0    0    0  501  0.00000000000E+00  0.00000000000E+00 -0.12413990191E+03  0.12413990201E+03  0.50400001928E-02 0. -1.
    10030    2    1    2    0    0  0.00000000000E+00  0.00000000000E+00  0.11635502029E+04  0.14118300069E+04  0.79963422483E+03 0.  0.
        3    1    3    3  502    0 -0.32006245426E+02 -0.38073512513E+03  0.37383871872E+03  0.53454563235E+03  0.10100000352E+00 0.  1.
       -3    1    3    3    0  502  0.32006245426E+02  0.38073512513E+03  0.78971148421E+03  0.87728437450E+03  0.10100000352E+00 0. -1.
</event>
<event>
 5   0  0.6593118E-04  0.8000535E+03  0.7818609E-02  0.9559940E-01
       -2   -1    0    0    0  501  0.00000000000E+00  0.00000000000E+00  0.18923257276E+03  0.18923257278E+03  0.25500000920E-02 0.  1.
        2   -1    0    0  501    0  0.00000000000E+00  0.00000000000E+00 -0.84563344095E+03  0.84563344096E+03  0.25500000920E-02 0. -1.
    10030    2    1    2    0    0  0.00000000000E+00  0.00000000000E+00 -0.65640086819E+03  0.10348660137E+04  0.80005347735E+03 0.  0.
        1    1    3    3  502    0  0.34471079922E+03  0.19056907253E+03 -0.23784730326E+03  0.46012329456E+03  0.50400001928E-02 0.  1.
       -1    1    3    3    0  502 -0.34471079922E+03 -0.19056907253E+03 -0.41855356493E+03  0.57474271918E+03  0.50400001928E-02 0. -1.
</event>
<event>
 5   0  0.4104786E-04  0.8000790E+03  0.7818609E-02  0.9559903E-01
        1   -1    0    0  501    0  0.00000000000E+00  0.00000000000E+00  0.87382561139E+03  0.87382561140E+03  0.50400001928E-02 0.  1.
       -1   -1    0    0    0  501  0.00000000000E+00  0.00000000000E+00 -0.18313907632E+03  0.18313907639E+03  0.50400001928E-02 0. -1.
    10030    2    1    2    0    0  0.00000000000E+00  0.00000000000E+00  0.69068653507E+03  0.10569646878E+04  0.80007903453E+03 0.  0.
        2    1    3    3  502    0 -0.54476650822E+02  0.25344849443E+03 -0.57157347240E+02  0.26546338196E+03  0.25500000920E-02 0. -1.
       -2    1    3    3    0  502  0.54476650822E+02 -0.25344849443E+03  0.74784388231E+03  0.79150130583E+03  0.25500000920E-02 0.  1.
</event>
<event>
 5   0  0.7133039E-04  0.8009407E+03  0.7818609E-02  0.9558657E-01
        2   -1    0    0  501    0  0.00000000000E+00  0.00000000000E+00  0.11488900892E+04  0.11488900892E+04  0.25500000920E-02 0. -1.
       -2   -1    0    0    0  501  0.00000000000E+00  0.00000000000E+00 -0.13959254263E+03  0.13959254265E+03  0.25500000920E-02 0.  1.
    10030    2    1    2    0    0  0.00000000000E+00  0.00000000000E+00  0.10092975466E+04  0.12884826319E+04  0.80094066889E+03 0.  0.
        2    1    3    3  502    0 -0.69434257978E+02 -0.20970284987E+03  0.10420164892E+04  0.10651735845E+04  0.25500000920E-02 0. -1.
       -2    1    3    3    0  502  0.69434257978E+02  0.20970284987E+03 -0.32718942584E+02  0.22330904736E+03  0.25500000920E-02 0.  1.
</event>
<event>
 5   0  0.4169155E-04  0.7994742E+03  0.7818609E-02  0.9560779E-01
       -1   -1    0    0    0  501  0.00000000000E+00  0.00000000000E+00  0.27044052917E+03  0.27044052922E+03  0.50400001928E-02 0.  1.
        1   -1    0    0  501    0  0.00000000000E+00  0.00000000000E+00 -0.59084979882E+03  0.59084979884E+03  0.50400001928E-02 0. -1.
    10030    2    1    2    0    0  0.00000000000E+00  0.00000000000E+00 -0.32040926965E+03  0.86129032806E+03  0.79947415789E+03 0.  0.
        4    1    3    3  502    0  0.13725383496E+03 -0.10431160484E+03  0.22833145188E+03  0.28610555907E+03  0.12699999809E+01 0.  1.
       -4    1    3    3    0  502 -0.13725383496E+03  0.10431160484E+03 -0.54874072152E+03  0.57518476899E+03  0.12699999809E+01 0. -1.
</event>
<event>
 5   0  0.6672462E-04  0.7999766E+03  0.7818609E-02  0.9560051E-01
       -2   -1    0    0    0  501  0.00000000000E+00  0.00000000000E+00  0.93041960010E+02  0.93041960045E+02  0.25500000920E-02 0. -1.
        2   -1    0    0  501    0  0.00000000000E+00  0.00000000000E+00 -0.17195536307E+04  0.17195536307E+04  0.25500000920E-02 0.  1.
    10030    2    1    2    0    0  0.00000000000E+00  0.00000000000E+00 -0.16265116707E+04  0.18125955908E+04  0.79997660010E+03 0.  0.
        5    1    3    3  502    0  0.10174524130E+03 -0.23879558110E+03 -0.12378958867E+03  0.28761324020E+03  0.46999998093E+01 0. -1.
       -5    1    3    3    0  502 -0.10174524130E+03  0.23879558110E+03 -0.15027220820E+04  0.15249823506E+04  0.46999998093E+01 0.  1.
</event>
<event>
 5   0  0.4169155E-04  0.7997739E+03  0.7818609E-02  0.9560344E-01
       -1   -1    0    0    0  501  0.00000000000E+00  0.00000000000E+00  0.72650975454E+02  0.72650975629E+02  0.50400001928E-02 0. -1.
        1   -1    0    0  501    0  0.00000000000E+00  0.00000000000E+00 -0.22010657318E+04  0.22010657318E+04  0.50400001928E-02 0.  1.
    10030    2    1    2    0    0  0.00000000000E+00  0.00000000000E+00 -0.21284147564E+04  0.22737167075E+04  0.79977389970E+03 0.  0.
        4    1    3    3  502    0 -0.23126529790E+03 -0.76544848880E+01 -0.13701470780E+03  0.26891796557E+03  0.12699999809E+01 0. -1.
       -4    1    3    3    0  502  0.23126529790E+03  0.76544848880E+01 -0.19914000486E+04  0.20047987419E+04  0.12699999809E+01 0.  1.
</event>
<event>
 5   0  0.6593118E-04  0.7998276E+03  0.7818609E-02  0.9560267E-01
        2   -1    0    0  501    0  0.00000000000E+00  0.00000000000E+00  0.40138011813E+03  0.40138011814E+03  0.25500000920E-02 0.  1.
       -2   -1    0    0    0  501  0.00000000000E+00  0.00000000000E+00 -0.39845285331E+03  0.39845285331E+03  0.25500000920E-02 0. -1.
    10030    2    1    2    0    0  0.00000000000E+00  0.00000000000E+00  0.29272648217E+01  0.79983297145E+03  0.79982761477E+03 0.  0.
        1    1    3    3  502    0  0.67646291559E+02  0.26287682650E+03  0.29515047572E+03  0.40099133409E+03  0.50400001928E-02 0.  1.
       -1    1    3    3    0  502 -0.67646291559E+02 -0.26287682650E+03 -0.29222321090E+03  0.39884163736E+03  0.50400001928E-02 0. -1.
</event>
<event>
 5   0  0.4104786E-04  0.7999863E+03  0.7818609E-02  0.9560037E-01
       -1   -1    0    0    0  501  0.00000000000E+00  0.00000000000E+00  0.19485016217E+03  0.19485016224E+03  0.50400001928E-02 0. -1.
        1   -1    0    0  501    0  0.00000000000E+00  0.00000000000E+00 -0.82111562015E+03  0.82111562016E+03  0.50400001928E-02 0.  1.
    10030    2    1    2    0    0  0.00000000000E+00  0.00000000000E+00 -0.62626545798E+03  0.10159657824E+04  0.79998627935E+03 0.  0.
        2    1    3    3  502    0 -0.26567917732E+03 -0.10619071514E+03  0.41854502751E+02  0.28916032344E+03  0.25500000920E-02 0. -1.
       -2    1    3    3    0  502  0.26567917732E+03  0.10619071514E+03 -0.66811996073E+03  0.72680545896E+03  0.25500000920E-02 0.  1.
</event>
<event>
 5   0  0.2736375E-04  0.7996754E+03  0.7818609E-02  0.9560487E-01
       -4   -1    0    0    0  501  0.00000000000E+00  0.00000000000E+00  0.31386629251E+03  0.31386886190E+03  0.12699999809E+01 0.  1.
        4   -1    0    0  501    0  0.00000000000E+00  0.00000000000E+00 -0.50935212841E+03  0.50935371170E+03  0.12699999809E+01 0. -1.
    10030    2    1    2    0    0  0.00000000000E+00  0.00000000000E+00 -0.19548583591E+03  0.82322257360E+03  0.79967536766E+03 0.  0.
        5    1    3    3  502    0  0.27554886142E+03 -0.28847115525E+03 -0.70403403748E+02  0.40511913272E+03  0.46999998093E+01 0. -1.
       -5    1    3    3    0  502 -0.27554886142E+03  0.28847115525E+03 -0.12508243216E+03  0.41810344088E+03  0.46999998093E+01 0.  1.
</event>
<event>
 5   0  0.4086111E-04  0.8005938E+03  0.7818609E-02  0.9559158E-01
        1   -1    0    0  501    0  0.00000000000E+00  0.00000000000E+00  0.17386563406E+03  0.17386563413E+03  0.50400001928E-02 0. -1.
       -1   -1    0    0    0  501  0.00000000000E+00  0.00000000000E+00 -0.92161740361E+03  0.92161740362E+03  0.50400001928E-02 0.  1.
    10030    2    1    2    0    0  0.00000000000E+00  0.00000000000E+00 -0.74775176955E+03  0.10954830378E+04  0.80059376536E+03 0.  0.
        3    1    3    3  502    0  0.42708727957E+02 -0.12832442100E+02 -0.91820776692E+03  0.91929006328E+03  0.10100000352E+00 0.  1.
       -3    1    3    3    0  502 -0.42708727957E+02  0.12832442100E+02  0.17045599737E+03  0.17619297447E+03  0.10100000352E+00 0. -1.
</event>
<event>
 5   0  0.4392552E-04  0.7995216E+03  0.7818609E-02  0.9560710E-01
       -1   -1    0    0    0  501  0.00000000000E+00  0.00000000000E+00  0.15371844634E+03  0.15371844642E+03  0.50400001928E-02 0. -1.
        1   -1    0    0  501    0  0.00000000000E+00  0.00000000000E+00 -0.10396195135E+04  0.10396195135E+04  0.50400001928E-02 0.  1.
    10030    2    1    2    0    0  0.00000000000E+00  0.00000000000E+00 -0.88590106715E+03  0.11933379599E+04  0.79952159810E+03 0.  0.
        5    1    3    3  502    0  0.30482376764E+03 -0.25347000987E+03 -0.36652258795E+03  0.53993098883E+03  0.46999998093E+01 0. -1.
       -5    1    3    3    0  502 -0.30482376764E+03  0.25347000987E+03 -0.51937847920E+03  0.65340697109E+03  0.46999998093E+01 0.  1.
</event>
<event>
 5   0  0.4169155E-04  0.8000738E+03  0.7818609E-02  0.9559910E-01
        1   -1    0    0  501    0  0.00000000000E+00  0.00000000000E+00  0.56365029892E+03  0.56365029894E+03  0.50400001928E-02 0.  1.
       -1   -1    0    0    0  501  0.00000000000E+00  0.00000000000E+00 -0.28391629331E+03  0.28391629335E+03  0.50400001928E-02 0. -1.
    10030    2    1    2    0    0  0.00000000000E+00  0.00000000000E+00  0.27973400562E+03  0.84756659229E+03  0.80007375565E+03 0.  0.
        4    1    3    3  502    0 -0.34881525012E+03  0.10168222210E+03 -0.37450267727E+02  0.36526084988E+03  0.12699999809E+01 0. -1.
       -4    1    3    3    0  502  0.34881525012E+03 -0.10168222210E+03  0.31718427334E+03  0.48230574241E+03  0.12699999809E+01 0.  1.
</event>
<event>
 5   0  0.6801147E-04  0.7998241E+03  0.7818609E-02  0.9560272E-01
        2   -1    0    0  501    0  0.00000000000E+00  0.00000000000E+00  0.14909569365E+04  0.14909569365E+04  0.25500000920E-02 0. -1.
       -2   -1    0    0    0  501  0.00000000000E+00  0.00000000000E+00 -0.10726644001E+03  0.10726644004E+03  0.25500000920E-02 0.  1.
    10030    2    1    2    0    0  0.00000000000E+00  0.00000000000E+00  0.13836904965E+04  0.15982233766E+04  0.79982408769E+03 0.  0.
        4    1    3    3  502    0 -0.28631933083E+03  0.24544676520E+03  0.95772966234E+03  0.10293058791E+04  0.12699999809E+01 0. -1.
       -4    1    3    3    0  502  0.28631933083E+03 -0.24544676520E+03  0.42596083418E+03  0.56891749746E+03  0.12699999809E+01 0.  1.
</event>
<event>
 5   0  0.6593118E-04  0.7999716E+03  0.7818609E-02  0.9560058E-01
       -2   -1    0    0    0  501  0.00000000000E+00  0.00000000000E+00  0.31399557096E+03  0.31399557098E+03  0.25500000920E-02 0.  1.
        2   -1    0    0  501    0  0.00000000000E+00  0.00000000000E+00 -0.50952513949E+03  0.50952513949E+03  0.25500000920E-02 0. -1.
    10030    2    1    2    0    0  0.00000000000E+00  0.00000000000E+00 -0.19552956852E+03  0.82352071047E+03  0.79997159225E+03 0.  0.
        1    1    3    3  502    0 -0.28301300299E+03  0.26439203754E+03  0.51229830668E+01  0.38733158192E+03  0.50400001928E-02 0.  1.
       -1    1    3    3    0  502  0.28301300299E+03 -0.26439203754E+03 -0.20065255159E+03  0.43618912854E+03  0.50400001928E-02 0. -1.
</event>
<event>
 5   0  0.6672462E-04  0.7995522E+03  0.7818609E-02  0.9560666E-01
        2   -1    0    0  501    0  0.00000000000E+00  0.00000000000E+00  0.67682584650E+03  0.67682584651E+03  0.25500000920E-02 0. -1.
       -2   -1    0    0    0  501  0.00000000000E+00  0.00000000000E+00 -0.23613300508E+03  0.23613300510E+03  0.25500000920E-02 0.  1.
    10030    2    1    2    0    0  0.00000000000E+00  0.00000000000E+00  0.44069284142E+03  0.91295885160E+03  0.79955217731E+03 0.  0.
        5    1    3    3  502    0  0.37021467612E+03 -0.24029871103E+02  0.50360219237E+02  0.37442567059E+03  0.46999998093E+01 0.  1.
       -5    1    3    3    0  502 -0.37021467612E+03  0.24029871103E+02  0.39033262218E+03  0.53853318101E+03  0.46999998093E+01 0. -1.
</event>
<event>
 5   0  0.7133039E-04  0.8000308E+03  0.7818609E-02  0.9559973E-01
       -2   -1    0    0    0  501  0.00000000000E+00  0.00000000000E+00  0.11348582832E+03  0.11348582835E+03  0.25500000920E-02 0. -1.
        2   -1    0    0  501    0  0.00000000000E+00  0.00000000000E+00 -0.14099762132E+04  0.14099762133E+04  0.25500000920E-02 0.  1.
    10030    2    1    2    0    0  0.00000000000E+00  0.00000000000E+00 -0.12964903849E+04  0.15234620416E+04  0.80003079563E+03 0.  0.
        2    1    3    3  502    0  0.23627272641E+03  0.45298426709E+02 -0.12568192585E+04  0.12796372131E+04  0.25500000920E-02 0.  1.
       -2    1    3    3    0  502 -0.23627272641E+03 -0.45298426709E+02 -0.39671126472E+02  0.24382482850E+03  0.25500000920E-02 0. -1.
</event>
<event>
 5   0  0.2736375E-04  0.7972434E+03  0.7818609E-02  0.9564016E-01
        4   -1    0    0  501    0  0.00000000000E+00  0.00000000000E+00  0.12838761786E+04  0.12838768067E+04  0.12699999809E+01 0. -1.
       -4   -1    0    0    0  501  0.00000000000E+00  0.00000000000E+00 -0.12376133822E+03  0.12376785422E+03  0.12699999809E+01 0.  1.
    10030    2    1    2    0    0  0.00000000000E+00  0.00000000000E+00  0.11601148404E+04  0.14076446609E+04  0.79724340614E+03 0.  0.
        5    1    3    3  502    0  0.28418830983E+03  0.69206636568E+02  0.10581665165E+04  0.10978574683E+04  0.46999998093E+01 0. -1.
       -5    1    3    3    0  502 -0.28418830983E+03 -0.69206636568E+02  0.10194832382E+03  0.30978719263E+03  0.46999998093E+01 0.  1.
</event>
<event>
 5   0  0.4087283E-04  0.8001608E+03  0.7818609E-02  0.9559784E-01
       -1   -1    0    0    0  501  0.00000000000E+00  0.00000000000E+00  0.12921299417E+03  0.12921299427E+03  0.50400001928E-02 0.  1.
        1   -1    0    0  501    0  0.00000000000E+00  0.00000000000E+00 -0.12387634653E+04  0.12387634653E+04  0.50400001928E-02 0. -1.
    10030    2    1    2    0    0  0.00000000000E+00  0.00000000000E+00 -0.11095504712E+04  0.13679764596E+04  0.80016082508E+03 0.  0.
        1    1    3    3  502    0  0.97056662988E+02 -0.18330876005E+03 -0.11396631530E+04  0.11583843057E+04  0.50400001928E-02 0. -1.
       -1    1    3    3    0  502 -0.97056662988E+02  0.18330876005E+03  0.30112681857E+02  0.20959215390E+03  0.50400001928E-02 0.  1.
</event>
<event>
 5   0  0.6672462E-04  0.7998145E+03  0.7818609E-02  0.9560286E-01
        2   -1    0    0  501    0  0.00000000000E+00  0.00000000000E+00  0.18189006906E+04  0.18189006906E+04  0.25500000920E-02 0. -1.
       -2   -1    0    0    0  501  0.00000000000E+00  0.00000000000E+00 -0.87924424568E+02  0.87924424605E+02  0.25500000920E-02 0.  1.
    10030    2    1    2    0    0  0.00000000000E+00  0.00000000000E+00  0.17309762661E+04  0.19068251152E+04  0.79981447001E+03 0.  0.
        5    1    3    3  502    0 -0.19459477607E+03  0.22571827159E+02  0.16965974675E+04  0.17078763629E+04  0.46999998093E+01 0. -1.
       -5    1    3    3    0  502  0.19459477607E+03 -0.22571827159E+02  0.34378798534E+02  0.19894875230E+03  0.46999998093E+01 0.  1.
</event>
<event>
 5   0  0.6593118E-04  0.7986780E+03  0.7818609E-02  0.9561933E-01
        2   -1    0    0  501    0  0.00000000000E+00  0.00000000000E+00  0.69044443071E+03  0.69044443071E+03  0.25500000920E-02 0.  1.
       -2   -1    0    0    0  501  0.00000000000E+00  0.00000000000E+00 -0.23096955833E+03  0.23096955835E+03  0.25500000920E-02 0. -1.
    10030    2    1    2    0    0  0.00000000000E+00  0.00000000000E+00  0.45947487238E+03  0.92141398906E+03  0.79867802079E+03 0.  0.
        1    1    3    3  502    0 -0.30207461266E+03  0.24842189253E+02  0.52970471805E+03  0.61028951681E+03  0.50400001928E-02 0.  1.
       -1    1    3    3    0  502  0.30207461266E+03 -0.24842189253E+02 -0.70229845670E+02  0.31112447225E+03  0.50400001928E-02 0. -1.
</event>
<event>
 5   0  0.4392552E-04  0.8002111E+03  0.7818609E-02  0.9559712E-01
        1   -1    0    0  501    0  0.00000000000E+00  0.00000000000E+00  0.60634100648E+03  0.60634100650E+03  0.50400001928E-02 0.  1.
       -1   -1    0    0    0  501  0.00000000000E+00  0.00000000000E+00 -0.26401722334E+03  0.26401722339E+03  0.50400001928E-02 0. -1.
    10030    2    1    2    0    0  0.00000000000E+00  0.00000000000E+00  0.34232378314E+03  0.87035822989E+03  0.80021114453E+03 0.  0.
        5    1    3    3  502    0 -0.23168786495E+03 -0.16857567048E+03 -0.13253774803E+03  0.31572989737E+03  0.46999998093E+01 0. -1.
       -5    1    3    3    0  502  0.23168786495E+03  0.16857567048E+03  0.47486153117E+03  0.55462833251E+03  0.46999998093E+01 0.  1.
</event>
<event>
 5   0  0.4087283E-04  0.7996629E+03  0.7818609E-02  0.9560505E-01
        1   -1    0    0  501    0  0.00000000000E+00  0.00000000000E+00  0.15536981195E+04  0.15536981195E+04  0.50400001928E-02 0. -1.
       -1   -1    0    0    0  501  0.00000000000E+00  0.00000000000E+00 -0.10289333815E+03  0.10289333827E+03  0.50400001928E-02 0.  1.
    10030    2    1    2    0    0  0.00000000000E+00  0.00000000000E+00  0.14508047813E+04  0.16565914578E+04  0.79966289422E+03 0.  0.
        1    1    3    3  502    0  0.15332557184E+03  0.76789665680E+02 -0.22847791463E+02  0.17299539108E+03  0.50400001928E-02 0.  1.
       -1    1    3    3    0  502 -0.15332557184E+03 -0.76789665680E+02  0.14736525728E+04  0.14835960667E+04  0.50400001928E-02 0. -1.
</event>
<event>
 5   0  0.6672462E-04  0.8002778E+03  0.7818609E-02  0.9559615E-01
        2   -1    0    0  501    0  0.00000000000E+00  0.00000000000E+00  0.23318414498E+04  0.23318414498E+04  0.25500000920E-02 0.  1.
       -2   -1    0    0    0  501  0.00000000000E+00  0.00000000000E+00 -0.68662956518E+02  0.68662956565E+02  0.25500000920E-02 0. -1.
    10030    2    1    2    0    0  0.00000000000E+00  0.00000000000E+00  0.22631784933E+04  0.24005044063E+04  0.80027777210E+03 0.  0.
        5    1    3    3  502    0 -0.11864358113E+03  0.35373016520E+03  0.15651072696E+04  0.16089699141E+04  0.46999998093E+01 0.  1.
       -5    1    3    3    0  502  0.11864358113E+03 -0.35373016520E+03  0.69807122363E+03  0.79153449222E+03  0.46999998093E+01 0. -1.
</event>
<event>
 5   0  0.4086111E-04  0.8002930E+03  0.7818609E-02  0.9559593E-01
       -1   -1    0    0    0  501  0.00000000000E+00  0.00000000000E+00  0.32092876317E+03  0.32092876321E+03  0.50400001928E-02 0.  1.
        1   -1    0    0  501    0  0.00000000000E+00  0.00000000000E+00 -0.49891823299E+03  0.49891823302E+03  0.50400001928E-02 0. -1.
    10030    2    1    2    0    0  0.00000000000E+00  0.00000000000E+00 -0.17798946983E+03  0.81984699623E+03  0.80029297501E+03 0.  0.
        3    1    3    3  502    0  0.33071575468E+03 -0.16483543027E+03 -0.24628306458E+03  0.44407092628E+03  0.10100000352E+00 0. -1.
       -3    1    3    3    0  502 -0.33071575468E+03  0.16483543027E+03  0.68293594756E+02  0.37577606995E+03  0.10100000352E+00 0.  1.
</event>
<event>
 5   0  0.6970013E-04  0.8007647E+03  0.7818609E-02  0.9558911E-01
       -2   -1    0    0    0  501  0.00000000000E+00  0.00000000000E+00  0.70474193116E+02  0.70474193162E+02  0.25500000920E-02 0.  1.
        2   -1    0    0  501    0  0.00000000000E+00  0.00000000000E+00 -0.22746769461E+04  0.22746769461E+04  0.25500000920E-02 0. -1.
    10030    2    1    2    0    0  0.00000000000E+00  0.00000000000E+00 -0.22042027530E+04  0.23451511393E+04  0.80076469062E+03 0.  0.
        3    1    3    3  502    0  0.28276677328E+03  0.79976029039E+02 -0.30567940973E+03  0.42402019413E+03  0.10100000352E+00 0.  1.
       -3    1    3    3    0  502 -0.28276677328E+03 -0.79976029039E+02 -0.18985233433E+04  0.19211309452E+04  0.10100000352E+00 0. -1.
</event>
<event>
 5   0  0.4104786E-04  0.7999665E+03  0.7818609E-02  0.9560066E-01
       -1   -1    0    0    0  501  0.00000000000E+00  0.00000000000E+00  0.16732708490E+03  0.16732708498E+03  0.50400001928E-02 0. -1.
        1   -1    0    0  501    0  0.00000000000E+00  0.00000000000E+00 -0.95613099165E+03  0.95613099167E+03  0.50400001928E-02 0.  1.
    10030    2    1    2    0    0  0.00000000000E+00  0.00000000000E+00 -0.78880390675E+03  0.11234580766E+04  0.79996652847E+03 0.  0.
        2    1    3    3  502    0  0.13277999307E+02  0.39009474700E+03 -0.27167802733E+03  0.47556194911E+03  0.25500000920E-02 0.  1.
       -2    1    3    3    0  502 -0.13277999307E+02 -0.39009474700E+03 -0.51712587942E+03  0.64789612754E+03  0.25500000920E-02 0. -1.
</event>
<event>
 5   0  0.6593118E-04  0.7998732E+03  0.7818609E-02  0.9560201E-01
        2   -1    0    0  501    0  0.00000000000E+00  0.00000000000E+00  0.72333526329E+03  0.72333526330E+03  0.25500000920E-02 0. -1.
       -2   -1    0    0    0  501  0.00000000000E+00  0.00000000000E+00 -0.22112747675E+03  0.22112747676E+03  0.25500000920E-02 0.  1.
    10030    2    1    2    0    0  0.00000000000E+00  0.00000000000E+00  0.50220778654E+03  0.94446274006E+03  0.79987324402E+03 0.  0.
        1    1    3    3  502    0  0.39468211129E+03  0.66497150674E+01  0.32699611114E+03  0.51258623119E+03  0.50400001928E-02 0. -1.
       -1    1    3    3    0  502 -0.39468211129E+03 -0.66497150674E+01  0.17521167540E+03  0.43187650886E+03  0.50400001928E-02 0.  1.
</event>
<event>
 5   0  0.4104786E-04  0.8018037E+03  0.7818609E-02  0.9557410E-01
       -1   -1    0    0    0  501  0.00000000000E+00  0.00000000000E+00  0.32263822384E+03  0.32263822388E+03  0.50400001928E-02 0. -1.
        1   -1    0    0  501    0  0.00000000000E+00  0.00000000000E+00 -0.49815024039E+03  0.49815024042E+03  0.50400001928E-02 0.  1.
    10030    2    1    2    0    0  0.00000000000E+00  0.00000000000E+00 -0.17551201656E+03  0.82078846430E+03  0.80180373856E+03 0.  0.
        2    1    3    3  502    0  0.35377813166E+03  0.37479267465E+02  0.10144066528E+03  0.36993765759E+03  0.25500000920E-02 0. -1.
       -2    1    3    3    0  502 -0.35377813166E+03 -0.37479267465E+02 -0.27695268183E+03  0.45085080671E+03  0.25500000920E-02 0.  1.
</event>
<event>
 5   0  0.2736375E-04  0.7999189E+03  0.7818609E-02  0.9560134E-01
        3   -1    0    0  501    0  0.00000000000E+00  0.00000000000E+00  0.13308369999E+03  0.13308373832E+03  0.10100000352E+00 0. -1.
       -3   -1    0    0    0  501  0.00000000000E+00  0.00000000000E+00 -0.12020069715E+04  0.12020069758E+04  0.10100000352E+00 0.  1.
    10030    2    1    2    0    0  0.00000000000E+00  0.00000000000E+00 -0.10689232715E+04  0.13350907141E+04  0.79991890490E+03 0.  0.
        5    1    3    3  502    0 -0.36971597615E+03  0.15243588059E+03 -0.54171240462E+03  0.67335059221E+03  0.46999998093E+01 0.  1.
       -5    1    3    3    0  502  0.36971597615E+03 -0.15243588059E+03 -0.52721086693E+03  0.66174012189E+03  0.46999998093E+01 0. -1.
</event>
<event>
 5   0  0.6801147E-04  0.8003598E+03  0.7818609E-02  0.9559496E-01
       -2   -1    0    0    0  501  0.00000000000E+00  0.00000000000E+00  0.30815710691E+03  0.30815710692E+03  0.25500000920E-02 0.  1.
        2   -1    0    0  501    0  0.00000000000E+00  0.00000000000E+00 -0.51968283017E+03  0.51968283018E+03  0.25500000920E-02 0. -1.
    10030    2    1    2    0    0  0.00000000000E+00  0.00000000000E+00 -0.21152572327E+03  0.82783993709E+03  0.80035981274E+03 0.  0.
        4    1    3    3  502    0 -0.38763224788E+03 -0.69105644738E+02 -0.17968700905E+03  0.43280871509E+03  0.12699999809E+01 0. -1.
       -4    1    3    3    0  502  0.38763224788E+03  0.69105644738E+02 -0.31838714212E+02  0.39503122200E+03  0.12699999809E+01 0.  1.
</event>
<event>
 5   0  0.4104786E-04  0.7960340E+03  0.7818609E-02  0.9565776E-01
       -1   -1    0    0    0  501  0.00000000000E+00  0.00000000000E+00  0.23930178651E+03  0.23930178656E+03  0.50400001928E-02 0. -1.
        1   -1    0    0  501    0  0.00000000000E+00  0.00000000000E+00 -0.66199891840E+03  0.66199891841E+03  0.50400001928E-02 0.  1.
    10030    2    1    2    0    0  0.00000000000E+00  0.00000000000E+00 -0.42269713189E+03  0.90130070498E+03  0.79603397885E+03 0.  0.
        2    1    3    3  502    0 -0.22928646752E+03 -0.11437742725E+03  0.13349775738E+03  0.28892236204E+03  0.25500000920E-02 0. -1.
       -2    1    3    3    0  502  0.22928646752E+03  0.11437742725E+03 -0.55619488926E+03  0.61237834294E+03  0.25500000920E-02 0.  1.
</event>
<event>
 5   0  0.2736375E-04  0.8002983E+03  0.7818609E-02  0.9559585E-01
        4   -1    0    0  501    0  0.00000000000E+00  0.00000000000E+00  0.10514225622E+04  0.10514233292E+04  0.12699999809E+01 0.  1.
       -4   -1    0    0    0  501  0.00000000000E+00  0.00000000000E+00 -0.15228481406E+03  0.15229010964E+03  0.12699999809E+01 0. -1.
    10030    2    1    2    0    0  0.00000000000E+00  0.00000000000E+00  0.89913774810E+03  0.12037134388E+04  0.80029828984E+03 0.  0.
        2    1    3    3  502    0 -0.17375020961E+03  0.34503776525E+03  0.29268851643E+03  0.48467180901E+03  0.25500000920E-02 0.  1.
       -2    1    3    3    0  502  0.17375020961E+03 -0.34503776525E+03  0.60644923167E+03  0.71904162980E+03  0.25500000920E-02 0. -1.
</event>
<event>
 5   0  0.4086111E-04  0.7998495E+03  0.7818609E-02  0.9560235E-01
        1   -1    0    0  501    0  0.00000000000E+00  0.00000000000E+00  0.78593931194E+03  0.78593931196E+03  0.50400001928E-02 0. -1.
       -1   -1    0    0    0  501  0.00000000000E+00  0.00000000000E+00 -0.20350147108E+03  0.20350147114E+03  0.50400001928E-02 0.  1.
    10030    2    1    2    0    0  0.00000000000E+00  0.00000000000E+00  0.58243784086E+03  0.98944078310E+03  0.79984950134E+03 0.  0.
        3    1    3    3  502    0  0.22878980802E+03 -0.25548003394E+03  0.36723560411E+02  0.34491079149E+03  0.10100000352E+00 0.  1.
       -3    1    3    3    0  502 -0.22878980802E+03  0.25548003394E+03  0.54571428045E+03  0.64452999161E+03  0.10100000352E+00 0. -1.
</event>
<event>
 5   0  0.4104786E-04  0.7999762E+03  0.7818609E-02  0.9560052E-01
       -1   -1    0    0    0  501  0.00000000000E+00  0.00000000000E+00  0.11786204469E+03  0.11786204480E+03  0.50400001928E-02 0.  1.
        1   -1    0    0  501    0  0.00000000000E+00  0.00000000000E+00 -0.13574386588E+04  0.13574386588E+04  0.50400001928E-02 0. -1.
    10030    2    1    2    0    0  0.00000000000E+00  0.00000000000E+00 -0.12395766141E+04  0.14753007036E+04  0.79997623953E+03 0.  0.
        2    1    3    3  502    0  0.14597694196E+03 -0.22972840300E+02 -0.13052518656E+04  0.13135902907E+04  0.25500000920E-02 0. -1.
       -2    1    3    3    0  502 -0.14597694196E+03  0.22972840300E+02  0.65675251552E+02  0.16171041292E+03  0.25500000920E-02 0.  1.
</event>
<event>
 5   0  0.4087283E-04  0.7998335E+03  0.7818609E-02  0.9560258E-01
       -1   -1    0    0    0  501  0.00000000000E+00  0.00000000000E+00  0.18537207028E+03  0.18537207035E+03  0.50400001928E-02 0. -1.
        1   -1    0    0  501    0  0.00000000000E+00  0.00000000000E+00 -0.86276976286E+03  0.86276976287E+03  0.50400001928E-02 0.  1.
    10030    2    1    2    0    0  0.00000000000E+00  0.00000000000E+00 -0.67739769258E+03  0.10481418332E+04  0.79983352558E+03 0.  0.
        1    1    3    3  502    0  0.26413295672E+03 -0.22281112011E+03 -0.60249474967E+03  0.69455808791E+03  0.50400001928E-02 0.  1.
       -1    1    3    3    0  502 -0.26413295672E+03  0.22281112011E+03 -0.74902942903E+02  0.35358374532E+03  0.50400001928E-02 0. -1.
</event>
<event>
 5   0  0.4086111E-04  0.8001204E+03  0.7818609E-02  0.9559843E-01
        1   -1    0    0  501    0  0.00000000000E+00  0.00000000000E+00  0.22814078302E+03  0.22814078307E+03  0.50400001928E-02 0. -1.
       -1   -1    0    0    0  501  0.00000000000E+00  0.00000000000E+00 -0.70153250607E+03  0.70153250608E+03  0.50400001928E-02 0.  1.
    10030    2    1    2    0    0  0.00000000000E+00  0.00000000000E+00 -0.47339172305E+03  0.92967328916E+03  0.80012042914E+03 0.  0.
        3    1    3    3  502    0  0.55537874965E+02  0.30440358158E+03 -0.53133321536E+03  0.61486664569E+03  0.10100000352E+00 0.  1.
       -3    1    3    3    0  502 -0.55537874965E+02 -0.30440358158E+03  0.57941492314E+02  0.31480664347E+03  0.10100000352E+00 0. -1.
</event>
<event>
 5   0  0.4392552E-04  0.7999667E+03  0.7818609E-02  0.9560065E-01
       -1   -1    0    0    0  501  0.00000000000E+00  0.00000000000E+00  0.39083266777E+03  0.39083266780E+03  0.50400001928E-02 0. -1.
        1   -1    0    0  501    0  0.00000000000E+00  0.00000000000E+00 -0.40934830022E+03  0.40934830025E+03  0.50400001928E-02 0.  1.
    10030    2    1    2    0    0  0.00000000000E+00  0.00000000000E+00 -0.18515632445E+02  0.80018096805E+03  0.79996671992E+03 0.  0.
        5    1    3    3  502    0 -0.25306835068E+03 -0.58975812039E+02  0.29486779055E+03  0.39305322848E+03  0.46999998093E+01 0. -1.
       -5    1    3    3    0  502  0.25306835068E+03  0.58975812039E+02 -0.31338342299E+03  0.40712773957E+03  0.46999998093E+01 0.  1.
</event>
<event>
 5   0  0.4392552E-04  0.7997659E+03  0.7818609E-02  0.9560356E-01
       -1   -1    0    0    0  501  0.00000000000E+00  0.00000000000E+00  0.12345543014E+03  0.12345543025E+03  0.50400001928E-02 0.  1.
        1   -1    0    0  501    0  0.00000000000E+00  0.00000000000E+00 -0.12952559428E+04  0.12952559428E+04  0.50400001928E-02 0. -1.
    10030    2    1    2    0    0  0.00000000000E+00  0.00000000000E+00 -0.11718005126E+04  0.14187113730E+04  0.79976591486E+03 0.  0.
        5    1    3    3  502    0  0.39840234930E+00 -0.95954260908E+02 -0.12744804285E+04  0.12780961746E+04  0.46999998093E+01 0. -1.
       -5    1    3    3    0  502 -0.39840234930E+00  0.95954260908E+02  0.10267991586E+03  0.14061519843E+03  0.46999998093E+01 0.  1.
</event>
<event>
 5   0  0.6801147E-04  0.7994033E+03  0.7818609E-02  0.9560881E-01
       -2   -1    0    0    0  501  0.00000000000E+00  0.00000000000E+00  0.59699178936E+03  0.59699178937E+03  0.25500000920E-02 0. -1.
        2   -1    0    0  501    0  0.00000000000E+00  0.00000000000E+00 -0.26761069791E+03  0.26761069792E+03  0.25500000920E-02 0.  1.
    10030    2    1    2    0    0  0.00000000000E+00  0.00000000000E+00  0.32938109145E+03  0.86460248729E+03  0.79940325094E+03 0.  0.
        4    1    3    3  502    0  0.32655618592E+03 -0.23008526866E+03  0.15011542427E+03  0.42674866950E+03  0.12699999809E+01 0.  1.
       -4    1    3    3    0  502 -0.32655618592E+03  0.23008526866E+03  0.17926566719E+03  0.43785381779E+03  0.12699999809E+01 0. -1.
</event>
<event>
 5   0  0.4169155E-04  0.8000099E+03  0.7818609E-02  0.9560003E-01
       -1   -1    0    0    0  501  0.00000000000E+00  0.00000000000E+00  0.35114365212E+03  0.35114365216E+03  0.50400001928E-02 0. -1.
        1   -1    0    0  501    0  0.00000000000E+00  0.00000000000E+00 -0.45566524514E+03  0.45566524517E+03  0.50400001928E-02 0.  1.
    10030    2    1    2    0    0  0.00000000000E+00  0.00000000000E+00 -0.10452159302E+03  0.80680889733E+03  0.80000989581E+03 0.  0.
        4    1    3    3  502    0  0.28023297483E+03  0.25264624519E+03 -0.18621166593E+03  0.42075770084E+03  0.12699999809E+01 0. -1.
       -4    1    3    3    0  502 -0.28023297483E+03 -0.25264624519E+03  0.81690072910E+02  0.38605119648E+03  0.12699999809E+01 0.  1.
</event>
<event>
 5   0  0.6970013E-04  0.7997503E+03  0.7818609E-02  0.9560379E-01
       -2   -1    0    0    0  501  0.00000000000E+00  0.00000000000E+00  0.34673474899E+03  0.34673474900E+03  0.25500000920E-02 0. -1.
        2   -1    0    0  501    0  0.00000000000E+00  0.00000000000E+00 -0.46115986607E+03  0.46115986608E+03  0.25500000920E-02 0.  1.
    10030    2    1    2    0    0  0.00000000000E+00  0.00000000000E+00 -0.11442511708E+03  0.80789461508E+03  0.79975033708E+03 0.  0.
        3    1    3    3  502    0  0.36866055452E+03  0.12482424107E+03 -0.14984393448E+03  0.41706703360E+03  0.10100000352E+00 0.  1.
       -3    1    3    3    0  502 -0.36866055452E+03 -0.12482424107E+03  0.35418817398E+02  0.39082758148E+03  0.10100000352E+00 0. -1.
</event>
<event>
 5   0  0.6593118E-04  0.8005450E+03  0.7818609E-02  0.9559229E-01
       -2   -1    0    0    0  501  0.00000000000E+00  0.00000000000E+00  0.11621315344E+03  0.11621315346E+03  0.25500000920E-02 0.  1.
        2   -1    0    0  501    0  0.00000000000E+00  0.00000000000E+00 -0.13786571179E+04  0.13786571179E+04  0.25500000920E-02 0. -1.
    10030    2    1    2    0    0  0.00000000000E+00  0.00000000000E+00 -0.12624439645E+04  0.14948702714E+04  0.80054504234E+03 0.  0.
        1    1    3    3  502    0 -0.80207613003E+02  0.15209798915E+03  0.43731985230E+02  0.17742476165E+03  0.50400001928E-02 0.  1.
       -1    1    3    3    0  502  0.80207613003E+02 -0.15209798915E+03 -0.13061759497E+04  0.13174455098E+04  0.50400001928E-02 0. -1.
</event>
<event>
 5   0  0.4104786E-04  0.8003675E+03  0.7818609E-02  0.9559485E-01
        1   -1    0    0  501    0  0.00000000000E+00  0.00000000000E+00  0.10826324990E+04  0.10826324990E+04  0.50400001928E-02 0. -1.
       -1   -1    0    0    0  501  0.00000000000E+00  0.00000000000E+00 -0.14792372178E+03  0.14792372186E+03  0.50400001928E-02 0.  1.
    10030    2    1    2    0    0  0.00000000000E+00  0.00000000000E+00  0.93470877720E+03  0.12305562209E+04  0.80036748717E+03 0.  0.
        2    1    3    3  502    0  0.30262178439E+03  0.87688943436E+02  0.88003365802E+02  0.32712977178E+03  0.25500000920E-02 0.  1.
       -2    1    3    3    0  502 -0.30262178439E+03 -0.87688943436E+02  0.84670541140E+03  0.90342644908E+03  0.25500000920E-02 0. -1.
</event>
<event>
 5   0  0.6593118E-04  0.7998327E+03  0.7818609E-02  0.9560259E-01
        2   -1    0    0  501    0  0.00000000000E+00  0.00000000000E+00  0.42971447238E+03  0.42971447239E+03  0.25500000920E-02 0.  1.
       -2   -1    0    0    0  501  0.00000000000E+00  0.00000000000E+00 -0.37218453226E+03  0.37218453227E+03  0.25500000920E-02 0. -1.
    10030    2    1    2    0    0  0.00000000000E+00  0.00000000000E+00  0.57529940128E+02  0.80189900466E+03  0.79983268229E+03 0.  0.
        1    1    3    3  502    0 -0.37128586692E+03 -0.14397754195E+03  0.65607044637E+02  0.40359263112E+03  0.50400001928E-02 0.  1.
       -1    1    3    3    0  502  0.37128586692E+03  0.14397754195E+03 -0.80771045088E+01  0.39830637354E+03  0.50400001928E-02 0. -1.
</event>
<event>
 5   0  0.6593118E-04  0.8001661E+03  0.7818609E-02  0.9559777E-01
       -2   -1    0    0    0  501  0.00000000000E+00  0.00000000000E+00  0.11255029362E+03  0.11255029365E+03  0.25500000920E-02 0. -1.
        2   -1    0    0  501    0  0.00000000000E+00  0.00000000000E+00 -0.14221770868E+04  0.14221770868E+04  0.25500000920E-02 0.  1.
    10030    2    1    2    0    0  0.00000000000E+00  0.00000000000E+00 -0.13096267932E+04  0.15347273804E+04  0.80016610454E+03 0.  0.
        1    1    3    3  502    0 -0.59635621480E+01 -0.14618295118E+03  0.59401537872E+02  0.15790364789E+03  0.50400001928E-02 0. -1.
       -1    1    3    3    0  502  0.59635621480E+01  0.14618295118E+03 -0.13690283310E+04  0.13768237325E+04  0.50400001928E-02 0.  1.
</event>
<event>
 5   0  0.4104786E-04  0.7998413E+03  0.7818609E-02  0.9560247E-01
        1   -1    0    0  501    0  0.00000000000E+00  0.00000000000E+00  0.11945178648E+04  0.11945178648E+04  0.50400001928E-02 0.  1.
       -1   -1    0    0    0  501  0.00000000000E+00  0.00000000000E+00 -0.13389212048E+03  0.13389212057E+03  0.50400001928E-02 0. -1.
    10030    2    1    2    0    0  0.00000000000E+00  0.00000000000E+00  0.10606257444E+04  0.13284099854E+04  0.79984130911E+03 0.  0.
        2    1    3    3  502    0  0.30684035318E+03  0.12125856338E+03  0.90568478478E+03  0.96390848680E+03  0.25500000920E-02 0.  1.
       -2    1    3    3    0  502 -0.30684035318E+03 -0.12125856338E+03  0.15494095958E+03  0.36450149862E+03  0.25500000920E-02 0. -1.
</event>
<event>
 5   0  0.6593118E-04  0.7991361E+03  0.7818609E-02  0.9561268E-01
       -2   -1    0    0    0  501  0.00000000000E+00  0.00000000000E+00  0.33359088512E+03  0.33359088513E+03  0.25500000920E-02 0.  1.
        2   -1    0    0  501    0  0.00000000000E+00  0.00000000000E+00 -0.47859413957E+03  0.47859413958E+03  0.25500000920E-02 0. -1.
    10030    2    1    2    0    0  0.00000000000E+00  0.00000000000E+00 -0.14500325445E+03  0.81218502470E+03  0.79913614019E+03 0.  0.
        1    1    3    3  502    0 -0.31176272451E+03 -0.17761180275E+03  0.10618935314E+03  0.37418996194E+03  0.50400001928E-02 0.  1.
       -1    1    3    3    0  502  0.31176272451E+03  0.17761180275E+03 -0.25119260759E+03  0.43799506276E+03  0.50400001928E-02 0. -1.
</event>
<event>
 5   0  0.4169155E-04  0.8005983E+03  0.7818609E-02  0.9559151E-01
        1   -1    0    0  501    0  0.00000000000E+00  0.00000000000E+00  0.83466395929E+03  0.83466395930E+03  0.50400001928E-02 0. -1.
       -1   -1    0    0    0  501  0.00000000000E+00  0.00000000000E+00 -0.19198076117E+03  0.19198076123E+03  0.50400001928E-02 0.  1.
    10030    2    1    2    0    0  0.00000000000E+00  0.00000000000E+00  0.64268319812E+03  0.10266447205E+04  0.80059833191E+03 0.  0.
        4    1    3    3  502    0  0.13844678485E+03 -0.37371773965E+03  0.36941418312E+03  0.54341596660E+03  0.12699999809E+01 0. -1.
       -4    1    3    3    0  502 -0.13844678485E+03  0.37371773965E+03  0.27326901500E+03  0.48322875393E+03  0.12699999809E+01 0.  1.
</event>
<event>
 5   0  0.2736375E-04  0.7986871E+03  0.7818609E-02  0.9561919E-01
       -4   -1    0    0    0  501  0.00000000000E+00  0.00000000000E+00  0.24885997523E+03  0.24886321579E+03  0.12699999809E+01 0.  1.
        4   -1    0    0  501    0  0.00000000000E+00  0.00000000000E+00 -0.64081529785E+03  0.64081655632E+03  0.12699999809E+01 0. -1.
    10030    2    1    2    0    0  0.00000000000E+00  0.00000000000E+00 -0.39195532261E+03  0.88967977211E+03  0.79868712396E+03 0.  0.
        4    1    3    3  502    0  0.11528185837E+03 -0.68381271711E+02 -0.61500963774E+03  0.62944767265E+03  0.12699999809E+01 0. -1.
       -4    1    3    3    0  502 -0.11528185837E+03  0.68381271711E+02  0.22305431513E+03  0.26023209946E+03  0.12699999809E+01 0.  1.
</event>
<event>
 5   0  0.4169155E-04  0.7999463E+03  0.7818609E-02  0.9560095E-01
       -1   -1    0    0    0  501  0.00000000000E+00  0.00000000000E+00  0.51642919654E+03  0.51642919656E+03  0.50400001928E-02 0. -1.
        1   -1    0    0  501    0  0.00000000000E+00  0.00000000000E+00 -0.30977822654E+03  0.30977822658E+03  0.50400001928E-02 0.  1.
    10030    2    1    2    0    0  0.00000000000E+00  0.00000000000E+00  0.20665096999E+03  0.82620742315E+03  0.79994629986E+03 0.  0.
        4    1    3    3  502    0  0.18131634308E+03 -0.33475661441E+03  0.22998624183E+03  0.44478409537E+03  0.12699999809E+01 0. -1.
       -4    1    3    3    0  502 -0.18131634308E+03  0.33475661441E+03 -0.23335271837E+02  0.38142332778E+03  0.12699999809E+01 0.  1.
</event>
<event>
 5   0  0.6593118E-04  0.8008627E+03  0.7818609E-02  0.9558769E-01
       -2   -1    0    0    0  501  0.00000000000E+00  0.00000000000E+00  0.16265302192E+03  0.16265302194E+03  0.25500000920E-02 0.  1.
        2   -1    0    0  501    0  0.00000000000E+00  0.00000000000E+00 -0.98581172967E+03  0.98581172968E+03  0.25500000920E-02 0. -1.
    10030    2    1    2    0    0  0.00000000000E+00  0.00000000000E+00 -0.82315870776E+03  0.11484647516E+04  0.80086267708E+03 0.  0.
        1    1    3    3  502    0  0.71628870062E+00  0.31331519181E+03 -0.53994464828E+02  0.31793446612E+03  0.50400001928E-02 0.  1.
       -1    1    3    3    0  502 -0.71628870062E+00 -0.31331519181E+03 -0.76916424293E+03  0.83053028549E+03  0.50400001928E-02 0. -1.
</event>
<event>
 5   0  0.4087283E-04  0.7985406E+03  0.7818609E-02  0.9562132E-01
       -1   -1    0    0    0  501  0.00000000000E+00  0.00000000000E+00  0.18986091067E+03  0.18986091074E+03  0.50400001928E-02 0. -1.
        1   -1    0    0  501    0  0.00000000000E+00  0.00000000000E+00 -0.83965025074E+03  0.83965025075E+03  0.50400001928E-02 0.  1.
    10030    2    1    2    0    0  0.00000000000E+00  0.00000000000E+00 -0.64978934007E+03  0.10295111615E+04  0.79854057202E+03 0.  0.
        1    1    3    3  502    0 -0.12859768910E+03  0.27949034798E+03  0.32026770999E+01  0.30767267902E+03  0.50400001928E-02 0. -1.
       -1    1    3    3    0  502  0.12859768910E+03 -0.27949034798E+03 -0.65299201717E+03  0.72183848246E+03  0.50400001928E-02 0.  1.
</event>
<event>
 5   0  0.4104786E-04  0.7989036E+03  0.7818609E-02  0.9561606E-01
        1   -1    0    0  501    0  0.00000000000E+00  0.00000000000E+00  0.66878857762E+03  0.66878857763E+03  0.50400001928E-02 0.  1.
       -1   -1    0    0    0  501  0.00000000000E+00  0.00000000000E+00 -0.23858320446E+03  0.23858320451E+03  0.50400001928E-02 0. -1.
    10030    2    1    2    0    0  0.00000000000E+00  0.00000000000E+00  0.43020537316E+03  0.90737178215E+03  0.79890355359E+03 0.  0.
        2    1    3    3  502    0 -0.66617239104E+00  0.33508768277E+03  0.46205794261E+03  0.57077293319E+03  0.25500000920E-02 0.  1.
       -2    1    3    3    0  502  0.66617239104E+00 -0.33508768277E+03 -0.31852569456E+02  0.33659884895E+03  0.25500000920E-02 0. -1.
</event>
<event>
 5   0  0.7133039E-04  0.8003292E+03  0.7818609E-02  0.9559541E-01
        2   -1    0    0  501    0  0.00000000000E+00  0.00000000000E+00  0.84152989088E+03  0.84152989088E+03  0.25500000920E-02 0.  1.
       -2   -1    0    0    0  501  0.00000000000E+00  0.00000000000E+00 -0.19028640246E+03  0.19028640248E+03  0.25500000920E-02 0. -1.
    10030    2    1    2    0    0  0.00000000000E+00  0.00000000000E+00  0.65124348842E+03  0.10318162934E+04  0.80032917105E+03 0.  0.
        2    1    3    3  502    0  0.35455146423E+03 -0.71673691889E+02  0.10498523317E+03  0.37665071098E+03  0.25500000920E-02 0. -1.
       -2    1    3    3    0  502 -0.35455146423E+03  0.71673691889E+02  0.54625825525E+03  0.65516558237E+03  0.25500000920E-02 0.  1.
</event>
<event>
 5   0  0.7133039E-04  0.8004761E+03  0.7818609E-02  0.9559328E-01
       -2   -1    0    0    0  501  0.00000000000E+00  0.00000000000E+00  0.14913023996E+03  0.14913023998E+03  0.25500000920E-02 0.  1.
        2   -1    0    0  501    0  0.00000000000E+00  0.00000000000E+00 -0.10741651371E+04  0.10741651371E+04  0.25500000920E-02 0. -1.
    10030    2    1    2    0    0  0.00000000000E+00  0.00000000000E+00 -0.92503489711E+03  0.12232953770E+04  0.80047611997E+03 0.  0.
        2    1    3    3  502    0 -0.25111770866E+02  0.21299179752E+03 -0.97894018352E+03  0.10021576671E+04  0.25500000920E-02 0. -1.
       -2    1    3    3    0  502  0.25111770866E+02 -0.21299179752E+03  0.53905286408E+02  0.22113770993E+03  0.25500000920E-02 0.  1.
</event>
<event>
 5   0  0.6672462E-04  0.8009781E+03  0.7818609E-02  0.9558602E-01
       -2   -1    0    0    0  501  0.00000000000E+00  0.00000000000E+00  0.94072882520E+03  0.94072882520E+03  0.25500000920E-02 0.  1.
        2   -1    0    0  501    0  0.00000000000E+00  0.00000000000E+00 -0.17049705754E+03  0.17049705756E+03  0.25500000920E-02 0. -1.
    10030    2    1    2    0    0  0.00000000000E+00  0.00000000000E+00  0.77023176765E+03  0.11112258828E+04  0.80097814366E+03 0.  0.
        5    1    3    3  502    0  0.23716365287E+02 -0.28476968017E+03  0.77434505742E+03  0.82540208061E+03  0.46999998093E+01 0.  1.
       -5    1    3    3    0  502 -0.23716365287E+02  0.28476968017E+03 -0.41132897675E+01  0.28582380215E+03  0.46999998093E+01 0. -1.
</event>
<event>
 5   0  0.6593118E-04  0.8001303E+03  0.7818609E-02  0.9559829E-01
       -2   -1    0    0    0  501  0.00000000000E+00  0.00000000000E+00  0.11031084219E+03  0.11031084222E+03  0.25500000920E-02 0. -1.
        2   -1    0    0  501    0  0.00000000000E+00  0.00000000000E+00 -0.14509190988E+04  0.14509190988E+04  0.25500000920E-02 0.  1.
    10030    2    1    2    0    0  0.00000000000E+00  0.00000000000E+00 -0.13406082566E+04  0.15612299410E+04  0.80013025880E+03 0.  0.
        1    1    3    3  502    0 -0.92352823403E+02  0.35214677214E+03 -0.99396975155E+03  0.10585425169E+04  0.50400001928E-02 0.  1.
       -1    1    3    3    0  502  0.92352823403E+02 -0.35214677214E+03 -0.34663850504E+03  0.50268742407E+03  0.50400001928E-02 0. -1.
</event>
<event>
 5   0  0.4087283E-04  0.8000086E+03  0.7818609E-02  0.9560005E-01
        1   -1    0    0  501    0  0.00000000000E+00  0.00000000000E+00  0.12198739425E+04  0.12198739425E+04  0.50400001928E-02 0. -1.
       -1   -1    0    0    0  501  0.00000000000E+00  0.00000000000E+00 -0.13116391236E+03  0.13116391246E+03  0.50400001928E-02 0.  1.
    10030    2    1    2    0    0  0.00000000000E+00  0.00000000000E+00  0.10887100301E+04  0.13510378550E+04  0.80000859736E+03 0.  0.
        1    1    3    3  502    0 -0.35463924642E+03  0.15807620771E+03  0.70674460232E+03  0.80637771266E+03  0.50400001928E-02 0. -1.
       -1    1    3    3    0  502  0.35463924642E+03 -0.15807620771E+03  0.38196542781E+03  0.54466014230E+03  0.50400001928E-02 0.  1.
</event>
<event>
 5   0  0.6801147E-04  0.8000518E+03  0.7818609E-02  0.9559942E-01
       -2   -1    0    0    0  501  0.00000000000E+00  0.00000000000E+00  0.92380788856E+03  0.92380788856E+03  0.25500000920E-02 0. -1.
        2   -1    0    0  501    0  0.00000000000E+00  0.00000000000E+00 -0.17321863266E+03  0.17321863268E+03  0.25500000920E-02 0.  1.
    10030    2    1    2    0    0  0.00000000000E+00  0.00000000000E+00  0.75058925590E+03  0.10970265212E+04  0.80005184659E+03 0.  0.
        4    1    3    3  502    0  0.14184160534E+03 -0.28943146581E+01  0.88815008615E+03  0.89941069956E+03  0.12699999809E+01 0. -1.
       -4    1    3    3    0  502 -0.14184160534E+03  0.28943146581E+01 -0.13756083024E+03  0.19761582168E+03  0.12699999809E+01 0.  1.
</event>
<event>
 5   0  0.6672462E-04  0.7999912E+03  0.7818609E-02  0.9560030E-01
       -2   -1    0    0    0  501  0.00000000000E+00  0.00000000000E+00  0.64244544784E+03  0.64244544785E+03  0.25500000920E-02 0. -1.
        2   -1    0    0  501    0  0.00000000000E+00  0.00000000000E+00 -0.24904292585E+03  0.24904292586E+03  0.25500000920E-02 0.  1.
    10030    2    1    2    0    0  0.00000000000E+00  0.00000000000E+00  0.39340252199E+03  0.89148837371E+03  0.79999123505E+03 0.  0.
        5    1    3    3  502    0 -0.31715056231E+03  0.41213172247E+02 -0.70960290748E+02  0.32762853600E+03  0.46999998093E+01 0.  1.
       -5    1    3    3    0  502  0.31715056231E+03 -0.41213172247E+02  0.46436281274E+03  0.56385983772E+03  0.46999998093E+01 0. -1.
</event>
<event>
 5   0  0.6593118E-04  0.8005122E+03  0.7818609E-02  0.9559276E-01
       -2   -1    0    0    0  501  0.00000000000E+00  0.00000000000E+00  0.23135120868E+03  0.23135120870E+03  0.25500000920E-02 0.  1.
        2   -1    0    0  501    0  0.00000000000E+00  0.00000000000E+00 -0.69247504124E+03  0.69247504124E+03  0.25500000920E-02 0. -1.
    10030    2    1    2    0    0  0.00000000000E+00  0.00000000000E+00 -0.46112383255E+03  0.92382624994E+03  0.80051218050E+03 0.  0.
        1    1    3    3  502    0  0.34627749057E+03  0.16769442204E+02 -0.46141577899E+03  0.57714282097E+03  0.50400001928E-02 0. -1.
       -1    1    3    3    0  502 -0.34627749057E+03 -0.16769442204E+02  0.29194643548E+00  0.34668342897E+03  0.50400001928E-02 0.  1.
</event>
<event>
 5   0  0.4087283E-04  0.8007976E+03  0.7818609E-02  0.9558863E-01
       -1   -1    0    0    0  501  0.00000000000E+00  0.00000000000E+00  0.13118693184E+03  0.13118693193E+03  0.50400001928E-02 0.  1.
        1   -1    0    0  501    0  0.00000000000E+00  0.00000000000E+00 -0.12220668875E+04  0.12220668875E+04  0.50400001928E-02 0. -1.
    10030    2    1    2    0    0  0.00000000000E+00  0.00000000000E+00 -0.10908799557E+04  0.13532538195E+04  0.80079761624E+03 0.  0.
        1    1    3    3  502    0  0.13742316076E+03 -0.30218742269E+03 -0.92375042817E+03  0.98158912846E+03  0.50400001928E-02 0. -1.
       -1    1    3    3    0  502 -0.13742316076E+03  0.30218742269E+03 -0.16712952750E+03  0.37166469099E+03  0.50400001928E-02 0.  1.
</event>
<event>
 5   0  0.2736375E-04  0.7998428E+03  0.7818609E-02  0.9560245E-01
        4   -1    0    0  501    0  0.00000000000E+00  0.00000000000E+00  0.42013042947E+03  0.42013234899E+03  0.12699999809E+01 0. -1.
       -4   -1    0    0    0  501  0.00000000000E+00  0.00000000000E+00 -0.38068061024E+03  0.38068272868E+03  0.12699999809E+01 0.  1.
    10030    2    1    2    0    0  0.00000000000E+00  0.00000000000E+00  0.39449819227E+02  0.80081507767E+03  0.79984279730E+03 0.  0.
        2    1    3    3  502    0  0.32177759381E+03  0.23207543782E+03  0.70157723762E+02  0.40289196434E+03  0.25500000920E-02 0.  1.
       -2    1    3    3    0  502 -0.32177759381E+03 -0.23207543782E+03 -0.30707904535E+02  0.39792311333E+03  0.25500000920E-02 0. -1.
</event>
<event>
 5   0  0.4104786E-04  0.7999575E+03  0.7818609E-02  0.9560079E-01
        1   -1    0    0  501    0  0.00000000000E+00  0.00000000000E+00  0.61543912545E+03  0.61543912547E+03  0.50400001928E-02 0. -1.
       -1   -1    0    0    0  501  0.00000000000E+00  0.00000000000E+00 -0.25994935964E+03  0.25994935969E+03  0.50400001928E-02 0.  1.
    10030    2    1    2    0    0  0.00000000000E+00  0.00000000000E+00  0.35548976581E+03  0.87538848516E+03  0.79995751534E+03 0.  0.
        2    1    3    3  502    0  0.11468231409E+03 -0.28019483424E+03 -0.10828647412E+03  0.32153870496E+03  0.25500000920E-02 0.  1.
       -2    1    3    3    0  502 -0.11468231409E+03  0.28019483424E+03  0.46377623993E+03  0.55384978020E+03  0.25500000920E-02 0. -1.
</event>
<event>
 5   0  0.7133039E-04  0.7997791E+03  0.7818609E-02  0.9560337E-01
        2   -1    0    0  501    0  0.00000000000E+00  0.00000000000E+00  0.86319630187E+03  0.86319630187E+03  0.25500000920E-02 0.  1.
       -2   -1    0    0    0  501  0.00000000000E+00  0.00000000000E+00 -0.18525525570E+03  0.18525525572E+03  0.25500000920E-02 0. -1.
    10030    2    1    2    0    0  0.00000000000E+00  0.00000000000E+00  0.67794104617E+03  0.10484515576E+04  0.79977909858E+03 0.  0.
        2    1    3    3  502    0 -0.12548947792E+03 -0.14193049592E+03 -0.12269111900E+03  0.22570995864E+03  0.25500000920E-02 0. -1.
       -2    1    3    3    0  502  0.12548947792E+03  0.14193049592E+03  0.80063216517E+03  0.82274159895E+03  0.25500000920E-02 0.  1.
</event>
<event>
 5   0  0.6801147E-04  0.7998659E+03  0.7818609E-02  0.9560211E-01
        2   -1    0    0  501    0  0.00000000000E+00  0.00000000000E+00  0.14256552540E+04  0.14256552540E+04  0.25500000920E-02 0.  1.
       -2   -1    0    0    0  501  0.00000000000E+00  0.00000000000E+00 -0.11219148499E+03  0.11219148502E+03  0.25500000920E-02 0. -1.
    10030    2    1    2    0    0  0.00000000000E+00  0.00000000000E+00  0.13134637690E+04  0.15378467391E+04  0.79986593892E+03 0.  0.
        4    1    3    3  502    0  0.33802835169E+03 -0.77487013814E+02  0.10397040890E+04  0.10960171575E+04  0.12699999809E+01 0.  1.
       -4    1    3    3    0  502 -0.33802835169E+03  0.77487013814E+02  0.27375968001E+03  0.44182958157E+03  0.12699999809E+01 0. -1.
</event>
<event>
 5   0  0.6672462E-04  0.7999526E+03  0.7818609E-02  0.9560086E-01
        2   -1    0    0  501    0  0.00000000000E+00  0.00000000000E+00  0.50621655188E+03  0.50621655189E+03  0.25500000920E-02 0.  1.
       -2   -1    0    0    0  501  0.00000000000E+00  0.00000000000E+00 -0.31603280441E+03  0.31603280442E+03  0.25500000920E-02 0. -1.
    10030    2    1    2    0    0  0.00000000000E+00  0.00000000000E+00  0.19018374747E+03  0.82224935631E+03  0.79995258994E+03 0.  0.
        5    1    3    3  502    0 -0.33952172685E+03  0.66468691430E+02 -0.11116468359E+03  0.36341817074E+03  0.46999998093E+01 0. -1.
       -5    1    3    3    0  502  0.33952172685E+03 -0.66468691430E+02  0.30134843107E+03  0.45883118557E+03  0.46999998093E+01 0.  1.
</event>
<event>
 5   0  0.4169155E-04  0.8005796E+03  0.7818609E-02  0.9559179E-01
        1   -1    0    0  501    0  0.00000000000E+00  0.00000000000E+00  0.84474083551E+03  0.84474083553E+03  0.50400001928E-02 0. -1.
       -1   -1    0    0    0  501  0.00000000000E+00  0.00000000000E+00 -0.18968175485E+03  0.18968175492E+03  0.50400001928E-02 0.  1.
    10030    2    1    2    0    0  0.00000000000E+00  0.00000000000E+00  0.65505908066E+03  0.10344225904E+04  0.80057960033E+03 0.  0.
        4    1    3    3  502    0 -0.11320315419E+03 -0.26571843720E+03 -0.30566672481E+02  0.29044306904E+03  0.12699999809E+01 0.  1.
       -4    1    3    3    0  502  0.11320315419E+03  0.26571843720E+03  0.68562575315E+03  0.74397952140E+03  0.12699999809E+01 0. -1.
</event>
<event>
 5   0  0.4169155E-04  0.8001269E+03  0.7818609E-02  0.9559833E-01
        1   -1    0    0  501    0  0.00000000000E+00  0.00000000000E+00  0.47743753087E+03  0.47743753090E+03  0.50400001928E-02 0. -1.
       -1   -1    0    0    0  501  0.00000000000E+00  0.00000000000E+00 -0.33522874208E+03  0.33522874211E+03  0.50400001928E-02 0.  1.
    10030    2    1    2    0    0  0.00000000000E+00  0.00000000000E+00  0.14220878879E+03  0.81266627301E+03  0.80012694722E+03 0.  0.
        4    1    3    3  502    0 -0.19008393441E+03  0.30594437679E+03 -0.10573715802E+03  0.37538756412E+03  0.12699999809E+01 0. -1.
       -4    1    3    3    0  502  0.19008393441E+03 -0.30594437679E+03  0.24794594682E+03  0.43727870889E+03  0.12699999809E+01 0.  1.
</event>
<event>
 5   0  0.7133039E-04  0.7998776E+03  0.7818609E-02  0.9560194E-01
       -2   -1    0    0    0  501  0.00000000000E+00  0.00000000000E+00  0.19677462978E+03  0.19677462980E+03  0.25500000920E-02 0.  1.
        2   -1    0    0  501    0  0.00000000000E+00  0.00000000000E+00 -0.81286425004E+03  0.81286425004E+03  0.25500000920E-02 0. -1.
    10030    2    1    2    0    0  0.00000000000E+00  0.00000000000E+00 -0.61608962026E+03  0.10096388798E+04  0.79987764534E+03 0.  0.
        2    1    3    3  502    0 -0.46826985878E+02 -0.29701134452E+03  0.24819960219E+02  0.30170272755E+03  0.25500000920E-02 0.  1.
       -2    1    3    3    0  502  0.46826985878E+02  0.29701134452E+03 -0.64090958048E+03  0.70793615230E+03  0.25500000920E-02 0. -1.
</event>
<event>
 5   0  0.6593118E-04  0.8005037E+03  0.7818609E-02  0.9559288E-01
       -2   -1    0    0    0  501  0.00000000000E+00  0.00000000000E+00  0.15328093936E+03  0.15328093938E+03  0.25500000920E-02 0. -1.
        2   -1    0    0  501    0  0.00000000000E+00  0.00000000000E+00 -0.10451498877E+04  0.10451498877E+04  0.25500000920E-02 0.  1.
    10030    2    1    2    0    0  0.00000000000E+00  0.00000000000E+00 -0.89186894837E+03  0.11984308271E+04  0.80050373284E+03 0.  0.
        1    1    3    3  502    0  0.13015993048E+02 -0.15262233516E+03  0.10766429592E+03  0.18722872083E+03  0.50400001928E-02 0. -1.
       -1    1    3    3    0  502 -0.13015993048E+02  0.15262233516E+03 -0.99953324429E+03  0.10112021063E+04  0.50400001928E-02 0.  1.
</event>
<event>
 5   0  0.6593118E-04  0.8001989E+03  0.7818609E-02  0.9559729E-01
        2   -1    0    0  501    0  0.00000000000E+00  0.00000000000E+00  0.30284696184E+03  0.30284696185E+03  0.25500000920E-02 0.  1.
       -2   -1    0    0    0  501  0.00000000000E+00  0.00000000000E+00 -0.52858234257E+03  0.52858234258E+03  0.25500000920E-02 0. -1.
    10030    2    1    2    0    0  0.00000000000E+00  0.00000000000E+00 -0.22573538073E+03  0.83142930443E+03  0.80019886663E+03 0.  0.
        1    1    3    3  502    0  0.21032948093E+02 -0.26389507018E+03 -0.42457024298E+03  0.50034276673E+03  0.50400001928E-02 0. -1.
       -1    1    3    3    0  502 -0.21032948093E+02  0.26389507018E+03  0.19883486226E+03  0.33108653770E+03  0.50400001928E-02 0.  1.
</event>
<event>
 5   0  0.2736375E-04  0.7996195E+03  0.7818609E-02  0.9560568E-01
        4   -1    0    0  501    0  0.00000000000E+00  0.00000000000E+00  0.59785744787E+03  0.59785879676E+03  0.12699999809E+01 0. -1.
       -4   -1    0    0    0  501  0.00000000000E+00  0.00000000000E+00 -0.26736464008E+03  0.26736765635E+03  0.12699999809E+01 0.  1.
    10030    2    1    2    0    0  0.00000000000E+00  0.00000000000E+00  0.33049280779E+03  0.86522645312E+03  0.79961948399E+03 0.  0.
        3    1    3    3  502    0  0.86857206784E+02  0.29456626054E+03  0.44224716575E+03  0.53841993094E+03  0.10100000352E+00 0.  1.
       -3    1    3    3    0  502 -0.86857206784E+02 -0.29456626054E+03 -0.11175435796E+03  0.32680652218E+03  0.10100000352E+00 0. -1.
</event>
<event>
 5   0  0.6672462E-04  0.7998992E+03  0.7818609E-02  0.9560163E-01
        2   -1    0    0  501    0  0.00000000000E+00  0.00000000000E+00  0.15958452089E+03  0.15958452091E+03  0.25500000920E-02 0. -1.
       -2   -1    0    0    0  501  0.00000000000E+00  0.00000000000E+00 -0.10023508788E+04  0.10023508788E+04  0.25500000920E-02 0.  1.
    10030    2    1    2    0    0  0.00000000000E+00  0.00000000000E+00 -0.84276635786E+03  0.11619353997E+04  0.79989920555E+03 0.  0.
        5    1    3    3  502    0  0.66629314708E+02  0.44266530479E+02  0.14780452663E+03  0.16812869889E+03  0.46999998093E+01 0. -1.
       -5    1    3    3    0  502 -0.66629314708E+02 -0.44266530479E+02 -0.99057088449E+03  0.99380670077E+03  0.46999998093E+01 0.  1.
</event>
<event>
 5   0  0.4169155E-04  0.8000865E+03  0.7818609E-02  0.9559892E-01
        1   -1    0    0  501    0  0.00000000000E+00  0.00000000000E+00  0.16545177035E+03  0.16545177043E+03  0.50400001928E-02 0. -1.
       -1   -1    0    0    0  501  0.00000000000E+00  0.00000000000E+00 -0.96725822672E+03  0.96725822674E+03  0.50400001928E-02 0.  1.
    10030    2    1    2    0    0  0.00000000000E+00  0.00000000000E+00 -0.80180645637E+03  0.11327099972E+04  0.80008646046E+03 0.  0.
        4    1    3    3  502    0  0.18151614792E+03  0.77790351684E+02  0.91628994906E+02  0.21770837462E+03  0.12699999809E+01 0. -1.
       -4    1    3    3    0  502 -0.18151614792E+03 -0.77790351684E+02 -0.89343545127E+03  0.91500162255E+03  0.12699999809E+01 0.  1.
</event>
<event>
 5   0  0.4087283E-04  0.8006665E+03  0.7818609E-02  0.9559053E-01
        1   -1    0    0  501    0  0.00000000000E+00  0.00000000000E+00  0.81436891903E+03  0.81436891905E+03  0.50400001928E-02 0. -1.
       -1   -1    0    0    0  501  0.00000000000E+00  0.00000000000E+00 -0.19679866751E+03  0.19679866758E+03  0.50400001928E-02 0.  1.
    10030    2    1    2    0    0  0.00000000000E+00  0.00000000000E+00  0.61757025152E+03  0.10111675866E+04  0.80066651777E+03 0.  0.
        1    1    3    3  502    0  0.28564541302E+03  0.21453191957E+03  0.53698192625E+03  0.64495490977E+03  0.50400001928E-02 0. -1.
       -1    1    3    3    0  502 -0.28564541302E+03 -0.21453191957E+03  0.80588325274E+02  0.36621267686E+03  0.50400001928E-02 0.  1.
</event>
<event>
 5   0  0.4087283E-04  0.8000116E+03  0.7818609E-02  0.9560000E-01
        1   -1    0    0  501    0  0.00000000000E+00  0.00000000000E+00  0.17370753959E+04  0.17370753959E+04  0.50400001928E-02 0.  1.
       -1   -1    0    0    0  501  0.00000000000E+00  0.00000000000E+00 -0.92111516323E+02  0.92111516461E+02  0.50400001928E-02 0. -1.
    10030    2    1    2    0    0  0.00000000000E+00  0.00000000000E+00  0.16449638795E+04  0.18291869123E+04  0.80001162195E+03 0.  0.
        1    1    3    3  502    0  0.15332366497E+03  0.25424301380E+03  0.14353913755E+04  0.14657748999E+04  0.50400001928E-02 0.  1.
       -1    1    3    3    0  502 -0.15332366497E+03 -0.25424301380E+03  0.20957250405E+03  0.36341201244E+03  0.50400001928E-02 0. -1.
</event>
<event>
 5   0  0.2736375E-04  0.7996871E+03  0.7818609E-02  0.9560470E-01
        4   -1    0    0  501    0  0.00000000000E+00  0.00000000000E+00  0.93853258097E+03  0.93853344023E+03  0.12699999809E+01 0. -1.
       -4   -1    0    0    0  501  0.00000000000E+00  0.00000000000E+00 -0.17034225625E+03  0.17034699047E+03  0.12699999809E+01 0.  1.
    10030    2    1    2    0    0  0.00000000000E+00  0.00000000000E+00  0.76819032472E+03  0.11088804307E+04  0.79968708544E+03 0.  0.
        3    1    3    3  502    0 -0.15612518094E+03  0.20671025684E+03  0.80644266184E+03  0.84702655179E+03  0.10100000352E+00 0. -1.
       -3    1    3    3    0  502  0.15612518094E+03 -0.20671025684E+03 -0.38252337123E+02  0.26185387891E+03  0.10100000352E+00 0.  1.
</event>
<event>
 5   0  0.2736375E-04  0.8005097E+03  0.7818609E-02  0.9559280E-01
        3   -1    0    0  501    0  0.00000000000E+00  0.00000000000E+00  0.99707473365E+03  0.99707473876E+03  0.10100000352E+00 0.  1.
       -3   -1    0    0    0  501  0.00000000000E+00  0.00000000000E+00 -0.16067392441E+03  0.16067395615E+03  0.10100000352E+00 0. -1.
    10030    2    1    2    0    0  0.00000000000E+00  0.00000000000E+00  0.83640080924E+03  0.11577486949E+04  0.80050966695E+03 0.  0.
        1    1    3    3  502    0  0.33763401432E+03 -0.13828988719E+03  0.65621138624E+03  0.75082235181E+03  0.50400001928E-02 0.  1.
       -1    1    3    3    0  502 -0.33763401432E+03  0.13828988719E+03  0.18018942300E+03  0.40692634310E+03  0.50400001928E-02 0. -1.
</event>
<event>
 5   0  0.4087283E-04  0.8002575E+03  0.7818609E-02  0.9559644E-01
       -1   -1    0    0    0  501  0.00000000000E+00  0.00000000000E+00  0.22754979731E+03  0.22754979736E+03  0.50400001928E-02 0.  1.
        1   -1    0    0  501    0  0.00000000000E+00  0.00000000000E+00 -0.70359547711E+03  0.70359547713E+03  0.50400001928E-02 0. -1.
    10030    2    1    2    0    0  0.00000000000E+00  0.00000000000E+00 -0.47604567980E+03  0.93114527449E+03  0.80025747916E+03 0.  0.
        1    1    3    3  502    0  0.82982729367E+02  0.13228487774E+03 -0.66667573862E+03  0.68472035367E+03  0.50400001928E-02 0. -1.
       -1    1    3    3    0  502 -0.82982729367E+02 -0.13228487774E+03  0.19063005881E+03  0.24642492082E+03  0.50400001928E-02 0.  1.
</event>
<event>
 5   0  0.6593118E-04  0.8004300E+03  0.7818609E-02  0.9559395E-01
       -2   -1    0    0    0  501  0.00000000000E+00  0.00000000000E+00  0.23027885995E+03  0.23027885996E+03  0.25500000920E-02 0.  1.
        2   -1    0    0  501    0  0.00000000000E+00  0.00000000000E+00 -0.69555681031E+03  0.69555681032E+03  0.25500000920E-02 0. -1.
    10030    2    1    2    0    0  0.00000000000E+00  0.00000000000E+00 -0.46527795036E+03  0.92583567028E+03  0.80042995775E+03 0.  0.
        1    1    3    3  502    0  0.20346657699E+03  0.33264922217E+03 -0.12842360156E+03  0.41054448532E+03  0.50400001928E-02 0.  1.
       -1    1    3    3    0  502 -0.20346657699E+03 -0.33264922217E+03 -0.33685434880E+03  0.51529118496E+03  0.50400001928E-02 0. -1.
</event>
<event>
 5   0  0.4087283E-04  0.8005949E+03  0.7818609E-02  0.9559156E-01
        1   -1    0    0  501    0  0.00000000000E+00  0.00000000000E+00  0.62881265885E+03  0.62881265887E+03  0.50400001928E-02 0.  1.
       -1   -1    0    0    0  501  0.00000000000E+00  0.00000000000E+00 -0.25482639742E+03  0.25482639747E+03  0.50400001928E-02 0. -1.
    10030    2    1    2    0    0  0.00000000000E+00  0.00000000000E+00  0.37398626143E+03  0.88363905634E+03  0.80059494013E+03 0.  0.
        1    1    3    3  502    0  0.52585108779E+01 -0.12045862900E+03  0.60829368814E+03  0.62012832890E+03  0.50400001928E-02 0.  1.
       -1    1    3    3    0  502 -0.52585108779E+01  0.12045862900E+03 -0.23430742672E+03  0.26351072744E+03  0.50400001928E-02 0. -1.
</event>
<event>
 5   0  0.6801147E-04  0.8004681E+03  0.7818609E-02  0.9559340E-01
       -2   -1    0    0    0  501  0.00000000000E+00  0.00000000000E+00  0.73625077433E+02  0.73625077477E+02  0.25500000920E-02 0. -1.
        2   -1    0    0  501    0  0.00000000000E+00  0.00000000000E+00 -0.21757162605E+04  0.21757162605E+04  0.25500000920E-02 0.  1.
    10030    2    1    2    0    0  0.00000000000E+00  0.00000000000E+00 -0.21020911830E+04  0.22493413380E+04  0.80046805858E+03 0.  0.
        4    1    3    3  502    0 -0.27198368951E+03  0.15093967795E+03 -0.17587485582E+04  0.17860447972E+04  0.12699999809E+01 0.  1.
       -4    1    3    3    0  502  0.27198368951E+03 -0.15093967795E+03 -0.34334262484E+03  0.46329654075E+03  0.12699999809E+01 0. -1.
</event>
<event>
 5   0  0.6970013E-04  0.8006451E+03  0.7818609E-02  0.9559084E-01
        2   -1    0    0  501    0  0.00000000000E+00  0.00000000000E+00  0.81825436342E+03  0.81825436342E+03  0.25500000920E-02 0. -1.
       -2   -1    0    0    0  501  0.00000000000E+00  0.00000000000E+00 -0.19585368051E+03  0.19585368052E+03  0.25500000920E-02 0.  1.
    10030    2    1    2    0    0  0.00000000000E+00  0.00000000000E+00  0.62240068291E+03  0.10141080439E+04  0.80064506163E+03 0.  0.
        3    1    3    3  502    0 -0.31525484329E+03  0.19759014008E+03  0.12405568967E+03  0.39219549209E+03  0.10100000352E+00 0.  1.
       -3    1    3    3    0  502  0.31525484329E+03 -0.19759014008E+03  0.49834499324E+03  0.62191255186E+03  0.10100000352E+00 0. -1.
</event>
<event>
 5   0  0.7133039E-04  0.8000535E+03  0.7818609E-02  0.9559940E-01
        2   -1    0    0  501    0  0.00000000000E+00  0.00000000000E+00  0.84799327369E+03  0.84799327369E+03  0.25500000920E-02 0.  1.
       -2   -1    0    0    0  501  0.00000000000E+00  0.00000000000E+00 -0.18870598747E+03  0.18870598748E+03  0.25500000920E-02 0. -1.
    10030    2    1    2    0    0  0.00000000000E+00  0.00000000000E+00  0.65928728622E+03  0.10366992612E+04  0.80005351843E+03 0.  0.
        2    1    3    3  502    0  0.12744816863E+03 -0.32488067828E+03  0.76281858954E+02  0.35722459716E+03  0.25500000920E-02 0. -1.
       -2    1    3    3    0  502 -0.12744816863E+03  0.32488067828E+03  0.58300542726E+03  0.67947466401E+03  0.25500000920E-02 0.  1.
</event>
<event>
 5   0  0.4392552E-04  0.8003876E+03  0.7818609E-02  0.9559456E-01
       -1   -1    0    0    0  501  0.00000000000E+00  0.00000000000E+00  0.13005596659E+03  0.13005596668E+03  0.50400001928E-02 0.  1.
        1   -1    0    0  501    0  0.00000000000E+00  0.00000000000E+00 -0.12314319215E+04  0.12314319215E+04  0.50400001928E-02 0. -1.
    10030    2    1    2    0    0  0.00000000000E+00  0.00000000000E+00 -0.11013759549E+04  0.13614878882E+04  0.80038757838E+03 0.  0.
        5    1    3    3  502    0  0.45051555051E+02  0.40036090934E+01 -0.12270231035E+04  0.12278654071E+04  0.46999998093E+01 0. -1.
       -5    1    3    3    0  502 -0.45051555051E+02 -0.40036090934E+01  0.12564714859E+03  0.13362248106E+03  0.46999998093E+01 0.  1.
</event>
<event>
 5   0  0.4087283E-04  0.8000265E+03  0.7818609E-02  0.9559979E-01
       -1   -1    0    0    0  501  0.00000000000E+00  0.00000000000E+00  0.12790932962E+03  0.12790932972E+03  0.50400001928E-02 0. -1.
        1   -1    0    0  501    0  0.00000000000E+00  0.00000000000E+00 -0.12509690306E+04  0.12509690306E+04  0.50400001928E-02 0.  1.
    10030    2    1    2    0    0  0.00000000000E+00  0.00000000000E+00 -0.11230597009E+04  0.13788783603E+04  0.80002652494E+03 0.  0.
        1    1    3    3  502    0  0.34713617680E+03 -0.19485522595E+03 -0.49392560631E+03  0.63437732377E+03  0.50400001928E-02 0. -1.
       -1    1    3    3    0  502 -0.34713617680E+03  0.19485522595E+03 -0.62913409464E+03  0.74450103653E+03  0.50400001928E-02 0.  1.
</event>
<event>
 5   0  0.6801147E-04  0.8000169E+03  0.7818609E-02  0.9559993E-01
        2   -1    0    0  501    0  0.00000000000E+00  0.00000000000E+00  0.21748575334E+03  0.21748575335E+03  0.25500000920E-02 0.  1.
       -2   -1    0    0    0  501  0.00000000000E+00  0.00000000000E+00 -0.73571138493E+03  0.73571138493E+03  0.25500000920E-02 0. -1.
    10030    2    1    2    0    0  0.00000000000E+00  0.00000000000E+00 -0.51822563159E+03  0.95319713829E+03  0.80001686182E+03 0.  0.
        4    1    3    3  502    0 -0.23403716633E+03  0.31640176308E+03 -0.17384424107E+03  0.43024051873E+03  0.12699999809E+01 0.  1.
       -4    1    3    3    0  502  0.23403716633E+03 -0.31640176308E+03 -0.34438139052E+03  0.52295661956E+03  0.12699999809E+01 0. -1.
</event>
<event>
 5   0  0.6801147E-04  0.7998876E+03  0.7818609E-02  0.9560180E-01
        2   -1    0    0  501    0  0.00000000000E+00  0.00000000000E+00  0.40573028174E+03  0.40573028175E+03  0.25500000920E-02 0. -1.
       -2   -1    0    0    0  501  0.00000000000E+00  0.00000000000E+00 -0.39423982395E+03  0.39423982396E+03  0.25500000920E-02 0.  1.
    10030    2    1    2    0    0  0.00000000000E+00  0.00000000000E+00  0.11490457796E+02  0.79997010571E+03  0.79988757923E+03 0.  0.
        4    1    3    3  502    0 -0.18022330343E+03  0.10414361976E+03 -0.33579709058E+03  0.39507927253E+03  0.12699999809E+01 0.  1.
       -4    1    3    3    0  502  0.18022330343E+03 -0.10414361976E+03  0.34728754838E+03  0.40489083318E+03  0.12699999809E+01 0. -1.
</event>
<event>
 5   0  0.6672462E-04  0.7999481E+03  0.7818609E-02  0.9560092E-01
       -2   -1    0    0    0  501  0.00000000000E+00  0.00000000000E+00  0.28638833327E+03  0.28638833328E+03  0.25500000920E-02 0. -1.
        2   -1    0    0  501    0  0.00000000000E+00  0.00000000000E+00 -0.55860945164E+03  0.55860945164E+03  0.25500000920E-02 0.  1.
    10030    2    1    2    0    0  0.00000000000E+00  0.00000000000E+00 -0.27222111837E+03  0.84499778492E+03  0.79994807284E+03 0.  0.
        5    1    3    3  502    0 -0.95820655605E+01  0.32811989493E+03  0.10523542888E+03  0.34474783091E+03  0.46999998093E+01 0. -1.
       -5    1    3    3    0  502  0.95820655605E+01 -0.32811989493E+03 -0.37745654724E+03  0.50024995401E+03  0.46999998093E+01 0.  1.
</event>
<event>
 5   0  0.6970013E-04  0.7999051E+03  0.7818609E-02  0.9560155E-01
        2   -1    0    0  501    0  0.00000000000E+00  0.00000000000E+00  0.70895143392E+03  0.70895143392E+03  0.25500000920E-02 0. -1.
       -2   -1    0    0    0  501  0.00000000000E+00  0.00000000000E+00 -0.22563185218E+03  0.22563185220E+03  0.25500000920E-02 0.  1.
    10030    2    1    2    0    0  0.00000000000E+00  0.00000000000E+00  0.48331958174E+03  0.93458328612E+03  0.79990505724E+03 0.  0.
        3    1    3    3  502    0 -0.11022321528E+03  0.69673637373E+02  0.68341783925E+03  0.69574673994E+03  0.10100000352E+00 0. -1.
       -3    1    3    3    0  502  0.11022321528E+03 -0.69673637373E+02 -0.20009825751E+03  0.23883654618E+03  0.10100000352E+00 0.  1.
</event>
<event>
 5   0  0.2736375E-04  0.7999685E+03  0.7818609E-02  0.9560063E-01
        3   -1    0    0  501    0  0.00000000000E+00  0.00000000000E+00  0.48999820916E+03  0.48999821957E+03  0.10100000352E+00 0.  1.
       -3   -1    0    0    0  501  0.00000000000E+00  0.00000000000E+00 -0.32650607823E+03  0.32650609385E+03  0.10100000352E+00 0. -1.
    10030    2    1    2    0    0  0.00000000000E+00  0.00000000000E+00  0.16349213093E+03  0.81650431342E+03  0.79996850998E+03 0.  0.
        5    1    3    3  502    0  0.21796516877E+03 -0.15493114742E+03  0.38530392370E+03  0.46903483757E+03  0.46999998093E+01 0.  1.
       -5    1    3    3    0  502 -0.21796516877E+03  0.15493114742E+03 -0.22181179277E+03  0.34746947585E+03  0.46999998093E+01 0. -1.
</event>
<event>
 5   0  0.6801147E-04  0.8004852E+03  0.7818609E-02  0.9559315E-01
        2   -1    0    0  501    0  0.00000000000E+00  0.00000000000E+00  0.73550534718E+03  0.73550534719E+03  0.25500000920E-02 0.  1.
       -2   -1    0    0    0  501  0.00000000000E+00  0.00000000000E+00 -0.21780143598E+03  0.21780143600E+03  0.25500000920E-02 0. -1.
    10030    2    1    2    0    0  0.00000000000E+00  0.00000000000E+00  0.51770391120E+03  0.95330678318E+03  0.80048515488E+03 0.  0.
        4    1    3    3  502    0  0.25872844493E+03 -0.30536248091E+03  0.25597031038E+03  0.47508848192E+03  0.12699999809E+01 0.  1.
       -4    1    3    3    0  502 -0.25872844493E+03  0.30536248091E+03  0.26173360082E+03  0.47821830126E+03  0.12699999809E+01 0. -1.
</event>
<event>
 5   0  0.2736375E-04  0.8000664E+03  0.7818609E-02  0.9559921E-01
       -3   -1    0    0    0  501  0.00000000000E+00  0.00000000000E+00  0.77316773475E+03  0.77316774135E+03  0.10100000352E+00 0. -1.
        3   -1    0    0  501    0  0.00000000000E+00  0.00000000000E+00 -0.20697519850E+03  0.20697522314E+03  0.10100000352E+00 0.  1.
    10030    2    1    2    0    0  0.00000000000E+00  0.00000000000E+00  0.56619253625E+03  0.98014296449E+03  0.80006639895E+03 0.  0.
        3    1    3    3  502    0  0.12700042375E+03 -0.28375190346E+03  0.59151971988E+03  0.66823636504E+03  0.10100000352E+00 0. -1.
       -3    1    3    3    0  502 -0.12700042375E+03  0.28375190346E+03 -0.25327183636E+02  0.31190659945E+03  0.10100000352E+00 0.  1.
</event>
<event>
 5   0  0.4392552E-04  0.8017250E+03  0.7818609E-02  0.9557524E-01
       -1   -1    0    0    0  501  0.00000000000E+00  0.00000000000E+00  0.12419605505E+03  0.12419605515E+03  0.50400001928E-02 0. -1.
        1   -1    0    0  501    0  0.00000000000E+00  0.00000000000E+00 -0.12938475190E+04  0.12938475190E+04  0.50400001928E-02 0.  1.
    10030    2    1    2    0    0  0.00000000000E+00  0.00000000000E+00 -0.11696514639E+04  0.14180435741E+04  0.80172503460E+03 0.  0.
        5    1    3    3  502    0  0.11382709059E+02 -0.28519181476E+03 -0.10826083087E+04  0.11196101006E+04  0.46999998093E+01 0.  1.
       -5    1    3    3    0  502 -0.11382709059E+02  0.28519181476E+03 -0.87043155231E+02  0.29843347356E+03  0.46999998093E+01 0. -1.
</event>
<event>
 5   0  0.4104786E-04  0.8001313E+03  0.7818609E-02  0.9559827E-01
        1   -1    0    0  501    0  0.00000000000E+00  0.00000000000E+00  0.15253253120E+04  0.15253253120E+04  0.50400001928E-02 0.  1.
       -1   -1    0    0    0  501  0.00000000000E+00  0.00000000000E+00 -0.10493010335E+03  0.10493010347E+03  0.50400001928E-02 0. -1.
    10030    2    1    2    0    0  0.00000000000E+00  0.00000000000E+00  0.14203952087E+04  0.16302554155E+04  0.80013134605E+03 0.  0.
        2    1    3    3  502    0 -0.26106704049E+02 -0.16719659774E+03  0.14488140144E+04  0.14586631930E+04  0.25500000920E-02 0.  1.
       -2    1    3    3    0  502  0.26106704049E+02  0.16719659774E+03 -0.28418805729E+02  0.17159222249E+03  0.25500000920E-02 0. -1.
</event>
<event>
 5   0  0.2736375E-04  0.7999002E+03  0.7818609E-02  0.9560162E-01
        3   -1    0    0  501    0  0.00000000000E+00  0.00000000000E+00  0.14682511004E+04  0.14682511039E+04  0.10100000352E+00 0.  1.
       -3   -1    0    0    0  501  0.00000000000E+00  0.00000000000E+00 -0.10894596411E+03  0.10894601093E+03  0.10100000352E+00 0. -1.
    10030    2    1    2    0    0  0.00000000000E+00  0.00000000000E+00  0.13593051363E+04  0.15771971148E+04  0.79990017214E+03 0.  0.
        4    1    3    3  502    0 -0.15102735141E+02  0.85000742665E+02  0.14496558322E+04  0.14522247978E+04  0.12699999809E+01 0.  1.
       -4    1    3    3    0  502  0.15102735141E+02 -0.85000742665E+02 -0.90350695867E+02  0.12497231696E+03  0.12699999809E+01 0. -1.
</event>
<event>
 5   0  0.6801147E-04  0.8000577E+03  0.7818609E-02  0.9559934E-01
        2   -1    0    0  501    0  0.00000000000E+00  0.00000000000E+00  0.37090694762E+03  0.37090694763E+03  0.25500000920E-02 0. -1.
       -2   -1    0    0    0  501  0.00000000000E+00  0.00000000000E+00 -0.43143725065E+03  0.43143725066E+03  0.25500000920E-02 0.  1.
    10030    2    1    2    0    0  0.00000000000E+00  0.00000000000E+00 -0.60530303036E+02  0.80234419829E+03  0.80005768226E+03 0.  0.
        4    1    3    3  502    0 -0.57932585732E+02 -0.84182017772E+02  0.35759417781E+03  0.37191128715E+03  0.12699999809E+01 0. -1.
       -4    1    3    3    0  502  0.57932585732E+02  0.84182017772E+02 -0.41812448085E+03  0.43043291114E+03  0.12699999809E+01 0.  1.
</event>
<event>
 5   0  0.6970013E-04  0.8000650E+03  0.7818609E-02  0.9559923E-01
        2   -1    0    0  501    0  0.00000000000E+00  0.00000000000E+00  0.15819271091E+04  0.15819271091E+04  0.25500000920E-02 0.  1.
       -2   -1    0    0    0  501  0.00000000000E+00  0.00000000000E+00 -0.10115890713E+03  0.10115890716E+03  0.25500000920E-02 0. -1.
    10030    2    1    2    0    0  0.00000000000E+00  0.00000000000E+00  0.14807682020E+04  0.16830860163E+04  0.80006504121E+03 0.  0.
        3    1    3    3  502    0 -0.71569336473E+02 -0.32192092181E+03  0.12167228200E+04  0.12606227353E+04  0.10100000352E+00 0.  1.
       -3    1    3    3    0  502  0.71569336473E+02  0.32192092181E+03  0.26404538195E+03  0.42246328095E+03  0.10100000352E+00 0. -1.
</event>
<event>
 5   0  0.4392552E-04  0.8001611E+03  0.7818609E-02  0.9559784E-01
        1   -1    0    0  501    0  0.00000000000E+00  0.00000000000E+00  0.58400426412E+03  0.58400426414E+03  0.50400001928E-02 0. -1.
       -1   -1    0    0    0  501  0.00000000000E+00  0.00000000000E+00 -0.27408097694E+03  0.27408097698E+03  0.50400001928E-02 0.  1.
    10030    2    1    2    0    0  0.00000000000E+00  0.00000000000E+00  0.30992328719E+03  0.85808524113E+03  0.80016113196E+03 0.  0.
        5    1    3    3  502    0 -0.17549499783E+02  0.26100728541E+03  0.47954289460E+03  0.54627489942E+03  0.46999998093E+01 0.  1.
       -5    1    3    3    0  502  0.17549499783E+02 -0.26100728541E+03 -0.16961960741E+03  0.31181034171E+03  0.46999998093E+01 0. -1.
</event>
<event>
 5   0  0.7133039E-04  0.7997466E+03  0.7818609E-02  0.9560384E-01
        2   -1    0    0  501    0  0.00000000000E+00  0.00000000000E+00  0.41433881677E+03  0.41433881678E+03  0.25500000920E-02 0. -1.
       -2   -1    0    0    0  501  0.00000000000E+00  0.00000000000E+00 -0.38591276589E+03  0.38591276590E+03  0.25500000920E-02 0.  1.
    10030    2    1    2    0    0  0.00000000000E+00  0.00000000000E+00  0.28426050876E+02  0.80025158267E+03  0.79974655686E+03 0.  0.
        2    1    3    3  502    0  0.39889359254E+02  0.38443413043E+03 -0.88408439546E+02  0.39648053396E+03  0.25500000920E-02 0.  1.
       -2    1    3    3    0  502 -0.39889359254E+02 -0.38443413043E+03  0.11683449042E+03  0.40377104871E+03  0.25500000920E-02 0. -1.
</event>
<event>
 5   0  0.2736375E-04  0.8001360E+03  0.7818609E-02  0.9559820E-01
       -3   -1    0    0    0  501  0.00000000000E+00  0.00000000000E+00  0.24013964091E+03  0.24013966215E+03  0.10100000352E+00 0. -1.
        3   -1    0    0  501    0  0.00000000000E+00  0.00000000000E+00 -0.66650546249E+03  0.66650547014E+03  0.10100000352E+00 0.  1.
    10030    2    1    2    0    0  0.00000000000E+00  0.00000000000E+00 -0.42636582158E+03  0.90664513230E+03  0.80013597726E+03 0.  0.
        3    1    3    3  502    0 -0.20194733780E+03  0.70762190075E+02  0.16984370342E+03  0.27319756328E+03  0.10100000352E+00 0. -1.
       -3    1    3    3    0  502  0.20194733780E+03 -0.70762190075E+02 -0.59620952500E+03  0.63344756901E+03  0.10100000352E+00 0.  1.
</event>
<event>
 5   0  0.6801147E-04  0.8000410E+03  0.7818609E-02  0.9559958E-01
        2   -1    0    0  501    0  0.00000000000E+00  0.00000000000E+00  0.82442443735E+03  0.82442443735E+03  0.25500000920E-02 0.  1.
       -2   -1    0    0    0  501  0.00000000000E+00  0.00000000000E+00 -0.19409466438E+03  0.19409466440E+03  0.25500000920E-02 0. -1.
    10030    2    1    2    0    0  0.00000000000E+00  0.00000000000E+00  0.63032977296E+03  0.10185191018E+04  0.80004096017E+03 0.  0.
        4    1    3    3  502    0  0.10052738630E+03 -0.16452646375E+03 -0.13103244026E+03  0.23312191224E+03  0.12699999809E+01 0. -1.
       -4    1    3    3    0  502 -0.10052738630E+03  0.16452646375E+03  0.76136221322E+03  0.78539718951E+03  0.12699999809E+01 0.  1.
</event>
<event>
 5   0  0.4087283E-04  0.8003612E+03  0.7818609E-02  0.9559494E-01
        1   -1    0    0  501    0  0.00000000000E+00  0.00000000000E+00  0.75830407878E+03  0.75830407880E+03  0.50400001928E-02 0.  1.
       -1   -1    0    0    0  501  0.00000000000E+00  0.00000000000E+00 -0.21118774122E+03  0.21118774128E+03  0.50400001928E-02 0. -1.
    10030    2    1    2    0    0  0.00000000000E+00  0.00000000000E+00  0.54711633756E+03  0.96949182008E+03  0.80036123243E+03 0.  0.
        1    1    3    3  502    0 -0.17250075721E+03  0.10047719949E+02 -0.16367061315E+03  0.23800323012E+03  0.50400001928E-02 0. -1.
       -1    1    3    3    0  502  0.17250075721E+03 -0.10047719949E+02  0.71078695071E+03  0.73148858996E+03  0.50400001928E-02 0.  1.
</event>
<event>
 5   0  0.7133039E-04  0.7999131E+03  0.7818609E-02  0.9560143E-01
        2   -1    0    0  501    0  0.00000000000E+00  0.00000000000E+00  0.43309091564E+03  0.43309091565E+03  0.25500000920E-02 0. -1.
       -2   -1    0    0    0  501  0.00000000000E+00  0.00000000000E+00 -0.36935714944E+03  0.36935714945E+03  0.25500000920E-02 0.  1.
    10030    2    1    2    0    0  0.00000000000E+00  0.00000000000E+00  0.63733766197E+02  0.80244806510E+03  0.79991306042E+03 0.  0.
        2    1    3    3  502    0  0.19886037516E+02 -0.33342581125E+03  0.25255724516E+03  0.41875217991E+03  0.25500000920E-02 0. -1.
       -2    1    3    3    0  502 -0.19886037516E+02  0.33342581125E+03 -0.18882347896E+03  0.38369588519E+03  0.25500000920E-02 0.  1.
</event>
<event>
 5   0  0.4392552E-04  0.8001006E+03  0.7818609E-02  0.9559872E-01
        1   -1    0    0  501    0  0.00000000000E+00  0.00000000000E+00  0.12332997188E+04  0.12332997188E+04  0.50400001928E-02 0. -1.
       -1   -1    0    0    0  501  0.00000000000E+00  0.00000000000E+00 -0.12976589069E+03  0.12976589078E+03  0.50400001928E-02 0.  1.
    10030    2    1    2    0    0  0.00000000000E+00  0.00000000000E+00  0.11035338281E+04  0.13630656096E+04  0.80010058508E+03 0.  0.
        5    1    3    3  502    0 -0.34169193876E+03 -0.17956295241E+02  0.19873415196E+03  0.39571853976E+03  0.46999998093E+01 0.  1.
       -5    1    3    3    0  502  0.34169193876E+03  0.17956295241E+02  0.90479967611E+03  0.96734706980E+03  0.46999998093E+01 0. -1.
</event>
<event>
 5   0  0.2736375E-04  0.8000018E+03  0.7818609E-02  0.9560015E-01
        3   -1    0    0  501    0  0.00000000000E+00  0.00000000000E+00  0.21657292838E+03  0.21657295194E+03  0.10100000352E+00 0. -1.
       -3   -1    0    0    0  501  0.00000000000E+00  0.00000000000E+00 -0.73878440761E+03  0.73878441451E+03  0.10100000352E+00 0.  1.
    10030    2    1    2    0    0  0.00000000000E+00  0.00000000000E+00 -0.52221147922E+03  0.95535736645E+03  0.80000179287E+03 0.  0.
        4    1    3    3  502    0 -0.25102935732E+03  0.16993039111E+03 -0.57275841656E+03  0.64803232381E+03  0.12699999809E+01 0. -1.
       -4    1    3    3    0  502  0.25102935732E+03 -0.16993039111E+03  0.50546937340E+02  0.30732504264E+03  0.12699999809E+01 0.  1.
</event>
<event>
 5   0  0.4087283E-04  0.7970064E+03  0.7818609E-02  0.9564360E-01
       -1   -1    0    0    0  501  0.00000000000E+00  0.00000000000E+00  0.23788131921E+03  0.23788131926E+03  0.50400001928E-02 0.  1.
        1   -1    0    0  501    0  0.00000000000E+00  0.00000000000E+00 -0.66757999416E+03  0.66757999418E+03  0.50400001928E-02 0. -1.
    10030    2    1    2    0    0  0.00000000000E+00  0.00000000000E+00 -0.42969867495E+03  0.90546131344E+03  0.79700642337E+03 0.  0.
        1    1    3    3  502    0 -0.20881772639E+03  0.22264693565E+03  0.76191334645E+02  0.31461344585E+03  0.50400001928E-02 0.  1.
       -1    1    3    3    0  502  0.20881772639E+03 -0.22264693565E+03 -0.50589000959E+03  0.59084786759E+03  0.50400001928E-02 0. -1.
</event>
<event>
 5   0  0.6672462E-04  0.8005037E+03  0.7818609E-02  0.9559288E-01
        2   -1    0    0  501    0  0.00000000000E+00  0.00000000000E+00  0.23538938048E+03  0.23538938049E+03  0.25500000920E-02 0.  1.
       -2   -1    0    0    0  501  0.00000000000E+00  0.00000000000E+00 -0.68058109626E+03  0.68058109627E+03  0.25500000920E-02 0. -1.
    10030    2    1    2    0    0  0.00000000000E+00  0.00000000000E+00 -0.44519171578E+03  0.91597047676E+03  0.80050374796E+03 0.  0.
        5    1    3    3  502    0 -0.29906947838E+02 -0.12031557354E+03 -0.65802370294E+03  0.66961746273E+03  0.46999998093E+01 0. -1.
       -5    1    3    3    0  502  0.29906947838E+02  0.12031557354E+03  0.21283198716E+03  0.24635301403E+03  0.46999998093E+01 0.  1.
</event>
<event>
 5   0  0.4392552E-04  0.7999202E+03  0.7818609E-02  0.9560133E-01
       -1   -1    0    0    0  501  0.00000000000E+00  0.00000000000E+00  0.72531745176E+03  0.72531745178E+03  0.50400001928E-02 0. -1.
        1   -1    0    0  501    0  0.00000000000E+00  0.00000000000E+00 -0.22054907768E+03  0.22054907774E+03  0.50400001928E-02 0.  1.
    10030    2    1    2    0    0  0.00000000000E+00  0.00000000000E+00  0.50476837408E+03  0.94586652951E+03  0.79992023363E+03 0.  0.
        5    1    3    3  502    0  0.36267004632E+03  0.92715832652E+01  0.45141033803E+03  0.57914498015E+03  0.46999998093E+01 0. -1.
       -5    1    3    3    0  502 -0.36267004632E+03 -0.92715832652E+01  0.53358036049E+02  0.36672154936E+03  0.46999998093E+01 0.  1.
</event>
<event>
 5   0  0.6970013E-04  0.8003492E+03  0.7818609E-02  0.9559512E-01
        2   -1    0    0  501    0  0.00000000000E+00  0.00000000000E+00  0.25040038039E+03  0.25040038040E+03  0.25500000920E-02 0. -1.
       -2   -1    0    0    0  501  0.00000000000E+00  0.00000000000E+00 -0.63953458268E+03  0.63953458269E+03  0.25500000920E-02 0.  1.
    10030    2    1    2    0    0  0.00000000000E+00  0.00000000000E+00 -0.38913420229E+03  0.88993496309E+03  0.80034918075E+03 0.  0.
        3    1    3    3  502    0 -0.20729138485E+02  0.39855925091E+03 -0.16194897755E+03  0.43070483536E+03  0.10100000352E+00 0.  1.
       -3    1    3    3    0  502  0.20729138485E+02 -0.39855925091E+03 -0.22718522475E+03  0.45923012773E+03  0.10100000352E+00 0. -1.
</event>
<event>
 5   0  0.4087283E-04  0.8001287E+03  0.7818609E-02  0.9559831E-01
        1   -1    0    0  501    0  0.00000000000E+00  0.00000000000E+00  0.40290937382E+03  0.40290937385E+03  0.50400001928E-02 0. -1.
       -1   -1    0    0    0  501  0.00000000000E+00  0.00000000000E+00 -0.39723943343E+03  0.39723943347E+03  0.50400001928E-02 0.  1.
    10030    2    1    2    0    0  0.00000000000E+00  0.00000000000E+00  0.56699403868E+01  0.80014880732E+03  0.80012871816E+03 0.  0.
        1    1    3    3  502    0 -0.20574282785E+03 -0.15328586863E+03 -0.30413335747E+03  0.39789919312E+03  0.50400001928E-02 0.  1.
       -1    1    3    3    0  502  0.20574282785E+03  0.15328586863E+03  0.30980329786E+03  0.40224961420E+03  0.50400001928E-02 0. -1.
</event>
<event>
 5   0  0.4086111E-04  0.8000061E+03  0.7818609E-02  0.9560008E-01
       -1   -1    0    0    0  501  0.00000000000E+00  0.00000000000E+00  0.18266606466E+03  0.18266606473E+03  0.50400001928E-02 0. -1.
        1   -1    0    0  501    0  0.00000000000E+00  0.00000000000E+00 -0.87592862697E+03  0.87592862699E+03  0.50400001928E-02 0.  1.
    10030    2    1    2    0    0  0.00000000000E+00  0.00000000000E+00 -0.69326256231E+03  0.10585946917E+04  0.80000608813E+03 0.  0.
        3    1    3    3  502    0  0.27208501347E+03 -0.22180333250E+03 -0.92875800693E+02  0.36311554280E+03  0.10100000352E+00 0.  1.
       -3    1    3    3    0  502 -0.27208501347E+03  0.22180333250E+03 -0.60038676161E+03  0.69547914892E+03  0.10100000352E+00 0. -1.
</event>
<event>
 5   0  0.6970013E-04  0.8001977E+03  0.7818609E-02  0.9559731E-01
       -2   -1    0    0    0  501  0.00000000000E+00  0.00000000000E+00  0.28688101237E+03  0.28688101238E+03  0.25500000920E-02 0. -1.
        2   -1    0    0  501    0  0.00000000000E+00  0.00000000000E+00 -0.55799818733E+03  0.55799818734E+03  0.25500000920E-02 0.  1.
    10030    2    1    2    0    0  0.00000000000E+00  0.00000000000E+00 -0.27111717496E+03  0.84487919972E+03  0.80019768780E+03 0.  0.
        3    1    3    3  502    0  0.58792740955E+02  0.16443540215E+03  0.24451890916E+03  0.30047478265E+03  0.10100000352E+00 0. -1.
       -3    1    3    3    0  502 -0.58792740955E+02 -0.16443540215E+03 -0.51563608413E+03  0.54440441707E+03  0.10100000352E+00 0.  1.
</event>
<event>
 5   0  0.6672462E-04  0.8005471E+03  0.7818609E-02  0.9559226E-01
        2   -1    0    0  501    0  0.00000000000E+00  0.00000000000E+00  0.17491006216E+04  0.17491006216E+04  0.25500000920E-02 0.  1.
       -2   -1    0    0    0  501  0.00000000000E+00  0.00000000000E+00 -0.91600735765E+02  0.91600735801E+02  0.25500000920E-02 0. -1.
    10030    2    1    2    0    0  0.00000000000E+00  0.00000000000E+00  0.16574998859E+04  0.18407013574E+04  0.80054707270E+03 0.  0.
        5    1    3    3  502    0  0.22413862574E+03  0.33965572492E+02  0.70310438511E+02  0.23739720181E+03  0.46999998093E+01 0. -1.
       -5    1    3    3    0  502 -0.22413862574E+03 -0.33965572492E+02  0.15871894474E+04  0.16033041556E+04  0.46999998093E+01 0.  1.
</event>
<event>
 5   0  0.6672462E-04  0.7995434E+03  0.7818609E-02  0.9560678E-01
       -2   -1    0    0    0  501  0.00000000000E+00  0.00000000000E+00  0.40710096328E+03  0.40710096329E+03  0.25500000920E-02 0.  1.
        2   -1    0    0  501    0  0.00000000000E+00  0.00000000000E+00 -0.39257441469E+03  0.39257441470E+03  0.25500000920E-02 0. -1.
    10030    2    1    2    0    0  0.00000000000E+00  0.00000000000E+00  0.14526548587E+02  0.79967537798E+03  0.79954342568E+03 0.  0.
        5    1    3    3  502    0  0.14091357602E+03 -0.22685280494E+03  0.30476236193E+03  0.40524192560E+03  0.46999998093E+01 0.  1.
       -5    1    3    3    0  502 -0.14091357602E+03  0.22685280494E+03 -0.29023581335E+03  0.39443345239E+03  0.46999998093E+01 0. -1.
</event>
<event>
 5   0  0.4169155E-04  0.7988847E+03  0.7818609E-02  0.9561633E-01
       -1   -1    0    0    0  501  0.00000000000E+00  0.00000000000E+00  0.44686094692E+03  0.44686094695E+03  0.50400001928E-02 0. -1.
        1   -1    0    0  501    0  0.00000000000E+00  0.00000000000E+00 -0.35705553422E+03  0.35705553425E+03  0.50400001928E-02 0.  1.
    10030    2    1    2    0    0  0.00000000000E+00  0.00000000000E+00  0.89805412701E+02  0.80391648120E+03  0.79888465788E+03 0.  0.
        4    1    3    3  502    0 -0.27504471426E+02 -0.29410407939E+03 -0.22567534421E+03  0.37173199936E+03  0.12699999809E+01 0.  1.
       -4    1    3    3    0  502  0.27504471426E+02  0.29410407939E+03  0.31548075691E+03  0.43218448184E+03  0.12699999809E+01 0. -1.
</event>
<event>
 5   0  0.4392552E-04  0.8000535E+03  0.7818609E-02  0.9559940E-01
        1   -1    0    0  501    0  0.00000000000E+00  0.00000000000E+00  0.14192831563E+04  0.14192831563E+04  0.50400001928E-02 0.  1.
       -1   -1    0    0    0  501  0.00000000000E+00  0.00000000000E+00 -0.11274804088E+03  0.11274804099E+03  0.50400001928E-02 0. -1.
    10030    2    1    2    0    0  0.00000000000E+00  0.00000000000E+00  0.13065351154E+04  0.15320311973E+04  0.80005348674E+03 0.  0.
        5    1    3    3  502    0  0.34498680484E+03 -0.12771107187E+03  0.95405668676E+03  0.10225322806E+04  0.46999998093E+01 0.  1.
       -5    1    3    3    0  502 -0.34498680484E+03  0.12771107187E+03  0.35247842862E+03  0.50949891662E+03  0.46999998093E+01 0. -1.
</event>
<event>
 5   0  0.4104786E-04  0.7960150E+03  0.7818609E-02  0.9565803E-01
       -1   -1    0    0    0  501  0.00000000000E+00  0.00000000000E+00  0.62819403722E+03  0.62819403725E+03  0.50400001928E-02 0. -1.
        1   -1    0    0  501    0  0.00000000000E+00  0.00000000000E+00 -0.25216728988E+03  0.25216728993E+03  0.50400001928E-02 0.  1.
    10030    2    1    2    0    0  0.00000000000E+00  0.00000000000E+00  0.37602674735E+03  0.88036132717E+03  0.79601504487E+03 0.  0.
        2    1    3    3  502    0  0.19334020548E+03 -0.30672986906E+03  0.64661652882E+01  0.36263681409E+03  0.25500000920E-02 0. -1.
       -2    1    3    3    0  502 -0.19334020548E+03  0.30672986906E+03  0.36956058206E+03  0.51772451309E+03  0.25500000920E-02 0.  1.
</event>
<event>
 5   0  0.4087283E-04  0.7992403E+03  0.7818609E-02  0.9561117E-01
       -1   -1    0    0    0  501  0.00000000000E+00  0.00000000000E+00  0.59128542430E+03  0.59128542432E+03  0.50400001928E-02 0. -1.
        1   -1    0    0  501    0  0.00000000000E+00  0.00000000000E+00 -0.27008321874E+03  0.27008321879E+03  0.50400001928E-02 0.  1.
    10030    2    1    2    0    0  0.00000000000E+00  0.00000000000E+00  0.32120220556E+03  0.86136864311E+03  0.79924031585E+03 0.  0.
        1    1    3    3  502    0  0.15900935766E+03 -0.23493771387E+03  0.46393411606E+03  0.54379644104E+03  0.50400001928E-02 0. -1.
       -1    1    3    3    0  502 -0.15900935766E+03  0.23493771387E+03 -0.14273191050E+03  0.31757220207E+03  0.50400001928E-02 0.  1.
</event>
<event>
 5   0  0.2736375E-04  0.8004422E+03  0.7818609E-02  0.9559377E-01
       -3   -1    0    0    0  501  0.00000000000E+00  0.00000000000E+00  0.61692218155E+03  0.61692218982E+03  0.10100000352E+00 0.  1.
        3   -1    0    0  501    0  0.00000000000E+00  0.00000000000E+00 -0.25963878609E+03  0.25963880574E+03  0.10100000352E+00 0. -1.
    10030    2    1    2    0    0  0.00000000000E+00  0.00000000000E+00  0.35728339546E+03  0.87656099555E+03  0.80044222418E+03 0.  0.
        1    1    3    3  502    0  0.25650711112E+03 -0.14149898661E+03 -0.11997847875E+03  0.31656389032E+03  0.50400001928E-02 0. -1.
       -1    1    3    3    0  502 -0.25650711112E+03  0.14149898661E+03  0.47726187421E+03  0.55999710523E+03  0.50400001928E-02 0.  1.
</event>
<event>
 5   0  0.4169155E-04  0.8003163E+03  0.7818609E-02  0.9559559E-01
       -1   -1    0    0    0  501  0.00000000000E+00  0.00000000000E+00  0.16530737179E+03  0.16530737187E+03  0.50400001928E-02 0.  1.
        1   -1    0    0  501    0  0.00000000000E+00  0.00000000000E+00 -0.96865937470E+03  0.96865937471E+03  0.50400001928E-02 0. -1.
    10030    2    1    2    0    0  0.00000000000E+00  0.00000000000E+00 -0.80335200290E+03  0.11339667466E+04  0.80031627610E+03 0.  0.
        4    1    3    3  502    0 -0.79606430169E+02 -0.29976029294E+03 -0.75993419852E+03  0.82078926402E+03  0.12699999809E+01 0. -1.
       -4    1    3    3    0  502  0.79606430169E+02  0.29976029294E+03 -0.43417804382E+02  0.31317748256E+03  0.12699999809E+01 0.  1.
</event>
<event>
 5   0  0.6970013E-04  0.7995908E+03  0.7818609E-02  0.9560610E-01
       -2   -1    0    0    0  501  0.00000000000E+00  0.00000000000E+00  0.12973838640E+03  0.12973838642E+03  0.25500000920E-02 0. -1.
        2   -1    0    0  501    0  0.00000000000E+00  0.00000000000E+00 -0.12319897726E+04  0.12319897726E+04  0.25500000920E-02 0.  1.
    10030    2    1    2    0    0  0.00000000000E+00  0.00000000000E+00 -0.11022513862E+04  0.13617281591E+04  0.79959080829E+03 0.  0.
        3    1    3    3  502    0 -0.13244539189E+02  0.16657751603E+03 -0.11696634387E+04  0.11815396975E+04  0.10100000352E+00 0.  1.
       -3    1    3    3    0  502  0.13244539189E+02 -0.16657751603E+03  0.67412052478E+02  0.18018846157E+03  0.10100000352E+00 0. -1.
</event>
<event>
 5   0  0.6672462E-04  0.8000127E+03  0.7818609E-02  0.9559999E-01
       -2   -1    0    0    0  501  0.00000000000E+00  0.00000000000E+00  0.25197186882E+03  0.25197186883E+03  0.25500000920E-02 0. -1.
        2   -1    0    0  501    0  0.00000000000E+00  0.00000000000E+00 -0.63501164188E+03  0.63501164188E+03  0.25500000920E-02 0.  1.
    10030    2    1    2    0    0  0.00000000000E+00  0.00000000000E+00 -0.38303977306E+03  0.88698351071E+03  0.80001267523E+03 0.  0.
        5    1    3    3  502    0 -0.37002291500E+02 -0.36026189173E+03 -0.32830169856E+01  0.36220252402E+03  0.46999998093E+01 0. -1.
       -5    1    3    3    0  502  0.37002291500E+02  0.36026189173E+03 -0.37975675607E+03  0.52478098669E+03  0.46999998093E+01 0.  1.
</event>
<event>
 5   0  0.6672462E-04  0.8002766E+03  0.7818609E-02  0.9559617E-01
        2   -1    0    0  501    0  0.00000000000E+00  0.00000000000E+00  0.44357145598E+03  0.44357145598E+03  0.25500000920E-02 0.  1.
       -2   -1    0    0    0  501  0.00000000000E+00  0.00000000000E+00 -0.36095794657E+03  0.36095794658E+03  0.25500000920E-02 0. -1.
    10030    2    1    2    0    0  0.00000000000E+00  0.00000000000E+00  0.82613509401E+02  0.80452940257E+03  0.80027655698E+03 0.  0.
        5    1    3    3  502    0 -0.25350102765E+03 -0.21881355421E+03 -0.17882356798E+03  0.37966050755E+03  0.46999998093E+01 0. -1.
       -5    1    3    3    0  502  0.25350102765E+03  0.21881355421E+03  0.26143707738E+03  0.42486889502E+03  0.46999998093E+01 0.  1.
</event>
<event>
 5   0  0.4087283E-04  0.7997890E+03  0.7818609E-02  0.9560323E-01
        1   -1    0    0  501    0  0.00000000000E+00  0.00000000000E+00  0.62885356152E+03  0.62885356154E+03  0.50400001928E-02 0. -1.
       -1   -1    0    0    0  501  0.00000000000E+00  0.00000000000E+00 -0.25429705826E+03  0.25429705831E+03  0.50400001928E-02 0.  1.
    10030    2    1    2    0    0  0.00000000000E+00  0.00000000000E+00  0.37455650326E+03  0.88315061984E+03  0.79978899917E+03 0.  0.
        1    1    3    3  502    0  0.36537604675E+03 -0.14900341988E+03  0.11559737225E+03  0.41117444859E+03  0.50400001928E-02 0. -1.
       -1    1    3    3    0  502 -0.36537604675E+03  0.14900341988E+03  0.25895913101E+03  0.47197617126E+03  0.50400001928E-02 0.  1.
</event>
<event>
 5   0  0.6593118E-04  0.8001026E+03  0.7818609E-02  0.9559869E-01
        2   -1    0    0  501    0  0.00000000000E+00  0.00000000000E+00  0.23114008464E+04  0.23114008464E+04  0.25500000920E-02 0. -1.
       -2   -1    0    0    0  501  0.00000000000E+00  0.00000000000E+00 -0.69239845148E+02  0.69239845195E+02  0.25500000920E-02 0.  1.
    10030    2    1    2    0    0  0.00000000000E+00  0.00000000000E+00  0.22421610013E+04  0.23806406916E+04  0.80010258527E+03 0.  0.
        1    1    3    3  502    0 -0.11961253800E+02 -0.19675159838E+03  0.21568802238E+04  0.21658685471E+04  0.50400001928E-02 0. -1.
       -1    1    3    3    0  502  0.11961253800E+02  0.19675159838E+03  0.85280777422E+02  0.21477214456E+03  0.50400001928E-02 0.  1.
</event>
<event>
 5   0  0.6593118E-04  0.7987335E+03  0.7818609E-02  0.9561852E-01
       -2   -1    0    0    0  501  0.00000000000E+00  0.00000000000E+00  0.13745171894E+03  0.13745171896E+03  0.25500000920E-02 0. -1.
        2   -1    0    0  501    0  0.00000000000E+00  0.00000000000E+00 -0.11603624237E+04  0.11603624237E+04  0.25500000920E-02 0.  1.
    10030    2    1    2    0    0  0.00000000000E+00  0.00000000000E+00 -0.10229107048E+04  0.12978141427E+04  0.79873352189E+03 0.  0.
        1    1    3    3  502    0  0.34546781224E+02 -0.38489395530E+03 -0.34770104383E+03  0.51983925672E+03  0.50400001928E-02 0. -1.
       -1    1    3    3    0  502 -0.34546781224E+02  0.38489395530E+03 -0.67520966097E+03  0.77797488598E+03  0.50400001928E-02 0.  1.
</event>
<event>
 5   0  0.4087283E-04  0.7998962E+03  0.7818609E-02  0.9560167E-01
        1   -1    0    0  501    0  0.00000000000E+00  0.00000000000E+00  0.49625774617E+03  0.49625774619E+03  0.50400001928E-02 0. -1.
       -1   -1    0    0    0  501  0.00000000000E+00  0.00000000000E+00 -0.32232941807E+03  0.32232941811E+03  0.50400001928E-02 0.  1.
    10030    2    1    2    0    0  0.00000000000E+00  0.00000000000E+00  0.17392832810E+03  0.81858716430E+03  0.79989616966E+03 0.  0.
        1    1    3    3  502    0 -0.19321475216E+03 -0.33689417796E+03 -0.10813392671E+02  0.38851841280E+03  0.50400001928E-02 0.  1.
       -1    1    3    3    0  502  0.19321475216E+03  0.33689417796E+03  0.18474172077E+03  0.43006875150E+03  0.50400001928E-02 0. -1.
</event>
<event>
 5   0  0.6801147E-04  0.8003914E+03  0.7818609E-02  0.9559451E-01
        2   -1    0    0  501    0  0.00000000000E+00  0.00000000000E+00  0.21539033342E+04  0.21539033342E+04  0.25500000920E-02 0.  1.
       -2   -1    0    0    0  501  0.00000000000E+00  0.00000000000E+00 -0.74356453917E+02  0.74356453961E+02  0.25500000920E-02 0. -1.
    10030    2    1    2    0    0  0.00000000000E+00  0.00000000000E+00  0.20795468803E+04  0.22282597881E+04  0.80039143938E+03 0.  0.
        4    1    3    3  502    0 -0.30400830927E+03  0.18077912670E+03  0.51854861196E+03  0.62769134184E+03  0.12699999809E+01 0. -1.
       -4    1    3    3    0  502  0.30400830927E+03 -0.18077912670E+03  0.15609982683E+04  0.16005684463E+04  0.12699999809E+01 0.  1.
</event>
<event>
 5   0  0.4104786E-04  0.8001419E+03  0.7818609E-02  0.9559812E-01
       -1   -1    0    0    0  501  0.00000000000E+00  0.00000000000E+00  0.75918257541E+02  0.75918257709E+02  0.50400001928E-02 0. -1.
        1   -1    0    0  501    0  0.00000000000E+00  0.00000000000E+00 -0.21082776266E+04  0.21082776266E+04  0.50400001928E-02 0.  1.
    10030    2    1    2    0    0  0.00000000000E+00  0.00000000000E+00 -0.20323593690E+04  0.21841958843E+04  0.80014189745E+03 0.  0.
        2    1    3    3  502    0  0.97343375200E+02 -0.12854079982E+03 -0.20156534912E+04  0.20220923486E+04  0.25500000920E-02 0.  1.
       -2    1    3    3    0  502 -0.97343375200E+02  0.12854079982E+03 -0.16705877867E+02  0.16210353566E+03  0.25500000920E-02 0. -1.
</event>
<event>
 5   0  0.7133039E-04  0.8000228E+03  0.7818609E-02  0.9559984E-01
       -2   -1    0    0    0  501  0.00000000000E+00  0.00000000000E+00  0.14613149243E+03  0.14613149246E+03  0.25500000920E-02 0. -1.
        2   -1    0    0  501    0  0.00000000000E+00  0.00000000000E+00 -0.10949667443E+04  0.10949667443E+04  0.25500000920E-02 0.  1.
    10030    2    1    2    0    0  0.00000000000E+00  0.00000000000E+00 -0.94883525191E+03  0.12410982368E+04  0.80002281100E+03 0.  0.
        2    1    3    3  502    0  0.79850758989E+02  0.39113835126E+03 -0.51377893096E+03  0.65064133241E+03  0.25500000920E-02 0. -1.
       -2    1    3    3    0  502 -0.79850758989E+02 -0.39113835126E+03 -0.43505632095E+03  0.59045690439E+03  0.25500000920E-02 0.  1.
</event>
<event>
 5   0  0.4087283E-04  0.7999324E+03  0.7818609E-02  0.9560115E-01
        1   -1    0    0  501    0  0.00000000000E+00  0.00000000000E+00  0.11743702595E+04  0.11743702595E+04  0.50400001928E-02 0. -1.
       -1   -1    0    0    0  501  0.00000000000E+00  0.00000000000E+00 -0.13622020326E+03  0.13622020335E+03  0.50400001928E-02 0.  1.
    10030    2    1    2    0    0  0.00000000000E+00  0.00000000000E+00  0.10381500562E+04  0.13105904628E+04  0.79993238592E+03 0.  0.
        1    1    3    3  502    0 -0.50532743139E+01  0.35412984086E+03  0.21458603793E+03  0.41410221862E+03  0.50400001928E-02 0.  1.
       -1    1    3    3    0  502  0.50532743139E+01 -0.35412984086E+03  0.82356401830E+03  0.89648824422E+03  0.50400001928E-02 0. -1.
</event>
<event>
 5   0  0.7133039E-04  0.7989471E+03  0.7818609E-02  0.9561542E-01
       -2   -1    0    0    0  501  0.00000000000E+00  0.00000000000E+00  0.33752788115E+03  0.33752788116E+03  0.25500000920E-02 0. -1.
        2   -1    0    0  501    0  0.00000000000E+00  0.00000000000E+00 -0.47278790632E+03  0.47278790633E+03  0.25500000920E-02 0.  1.
    10030    2    1    2    0    0  0.00000000000E+00  0.00000000000E+00 -0.13526002517E+03  0.81031578749E+03  0.79894705772E+03 0.  0.
        2    1    3    3  502    0  0.35794241277E+03  0.18620795822E+02 -0.24651894811E+03  0.43501850154E+03  0.25500000920E-02 0.  1.
       -2    1    3    3    0  502 -0.35794241277E+03 -0.18620795822E+02  0.11125892294E+03  0.37529728595E+03  0.25500000920E-02 0. -1.
</event>
<event>
 5   0  0.6672462E-04  0.8004607E+03  0.7818609E-02  0.9559350E-01
       -2   -1    0    0    0  501  0.00000000000E+00  0.00000000000E+00  0.95363012006E+02  0.95363012040E+02  0.25500000920E-02 0. -1.
        2   -1    0    0  501    0  0.00000000000E+00  0.00000000000E+00 -0.16797324559E+04  0.16797324559E+04  0.25500000920E-02 0.  1.
    10030    2    1    2    0    0  0.00000000000E+00  0.00000000000E+00 -0.15843694439E+04  0.17750954680E+04  0.80046073331E+03 0.  0.
        5    1    3    3  502    0  0.17459300288E+03  0.33816456678E+03 -0.51766628540E+03  0.64252506871E+03  0.46999998093E+01 0. -1.
       -5    1    3    3    0  502 -0.17459300288E+03 -0.33816456678E+03 -0.10667031585E+04  0.11325703993E+04  0.46999998093E+01 0.  1.
</event>
<event>
 5   0  0.6672462E-04  0.7995599E+03  0.7818609E-02  0.9560654E-01
       -2   -1    0    0    0  501  0.00000000000E+00  0.00000000000E+00  0.61594580928E+02  0.61594580980E+02  0.25500000920E-02 0.  1.
        2   -1    0    0  501    0  0.00000000000E+00  0.00000000000E+00 -0.25947740130E+04  0.25947740130E+04  0.25500000920E-02 0. -1.
    10030    2    1    2    0    0  0.00000000000E+00  0.00000000000E+00 -0.25331794321E+04  0.26563685940E+04  0.79955992397E+03 0.  0.
        5    1    3    3  502    0  0.16257210507E+03 -0.35904805907E+03 -0.10447979199E+04  0.11166781011E+04  0.46999998093E+01 0.  1.
       -5    1    3    3    0  502 -0.16257210507E+03  0.35904805907E+03 -0.14883815121E+04  0.15396904928E+04  0.46999998093E+01 0. -1.
</event>
<event>
 5   0  0.6672462E-04  0.7994982E+03  0.7818609E-02  0.9560744E-01
       -2   -1    0    0    0  501  0.00000000000E+00  0.00000000000E+00  0.19268182636E+03  0.19268182637E+03  0.25500000920E-02 0.  1.
        2   -1    0    0  501    0  0.00000000000E+00  0.00000000000E+00 -0.82934309121E+03  0.82934309121E+03  0.25500000920E-02 0. -1.
    10030    2    1    2    0    0  0.00000000000E+00  0.00000000000E+00 -0.63666126485E+03  0.10220249176E+04  0.79949819637E+03 0.  0.
        5    1    3    3  502    0 -0.17154824053E+02 -0.12265157785E+03 -0.80416369343E+03  0.81365781098E+03  0.46999998093E+01 0. -1.
       -5    1    3    3    0  502  0.17154824053E+02  0.12265157785E+03  0.16750242858E+03  0.20836710661E+03  0.46999998093E+01 0.  1.
</event>
<event>
 5   0  0.4087283E-04  0.7991347E+03  0.7818609E-02  0.9561271E-01
       -1   -1    0    0    0  501  0.00000000000E+00  0.00000000000E+00  0.44211430946E+03  0.44211430949E+03  0.50400001928E-02 0. -1.
        1   -1    0    0  501    0  0.00000000000E+00  0.00000000000E+00 -0.36111486279E+03  0.36111486282E+03  0.50400001928E-02 0.  1.
    10030    2    1    2    0    0  0.00000000000E+00  0.00000000000E+00  0.80999446673E+02  0.80322917231E+03  0.79913465254E+03 0.  0.
        1    1    3    3  502    0 -0.14022767909E+03  0.37262234129E+03  0.65206403855E+01  0.39818805857E+03  0.50400001928E-02 0.  1.
       -1    1    3    3    0  502  0.14022767909E+03 -0.37262234129E+03  0.74478806288E+02  0.40504111374E+03  0.50400001928E-02 0. -1.
</event>
<event>
 5   0  0.4087283E-04  0.7991430E+03  0.7818609E-02  0.9561258E-01
       -1   -1    0    0    0  501  0.00000000000E+00  0.00000000000E+00  0.30229686033E+03  0.30229686038E+03  0.50400001928E-02 0. -1.
        1   -1    0    0  501    0  0.00000000000E+00  0.00000000000E+00 -0.52814772278E+03  0.52814772280E+03  0.50400001928E-02 0.  1.
    10030    2    1    2    0    0  0.00000000000E+00  0.00000000000E+00 -0.22585086244E+03  0.83044458318E+03  0.79914303705E+03 0.  0.
        1    1    3    3  502    0  0.92255553126E+02 -0.48882614778E+02  0.28787165209E+03  0.30621999479E+03  0.50400001928E-02 0. -1.
       -1    1    3    3    0  502 -0.92255553126E+02  0.48882614778E+02 -0.51372251453E+03  0.52422458839E+03  0.50400001928E-02 0.  1.
</event>
<event>
 5   0  0.4086111E-04  0.7999753E+03  0.7818609E-02  0.9560053E-01
        1   -1    0    0  501    0  0.00000000000E+00  0.00000000000E+00  0.37639938319E+03  0.37639938322E+03  0.50400001928E-02 0.  1.
       -1   -1    0    0    0  501  0.00000000000E+00  0.00000000000E+00 -0.42505412418E+03  0.42505412421E+03  0.50400001928E-02 0. -1.
    10030    2    1    2    0    0  0.00000000000E+00  0.00000000000E+00 -0.48654740993E+02  0.80145350743E+03  0.79997527509E+03 0.  0.
        3    1    3    3  502    0 -0.33632112228E+03 -0.21401731078E+03 -0.57171992037E+02  0.40272068916E+03  0.10100000352E+00 0. -1.
       -3    1    3    3    0  502  0.33632112228E+03  0.21401731078E+03  0.85172510442E+01  0.39873281827E+03  0.10100000352E+00 0.  1.
</event>
<event>
 5   0  0.6593118E-04  0.7997974E+03  0.7818609E-02  0.9560310E-01
       -2   -1    0    0    0  501  0.00000000000E+00  0.00000000000E+00  0.10771178167E+03  0.10771178170E+03  0.25500000920E-02 0. -1.
        2   -1    0    0  501    0  0.00000000000E+00  0.00000000000E+00 -0.14846933983E+04  0.14846933983E+04  0.25500000920E-02 0.  1.
    10030    2    1    2    0    0  0.00000000000E+00  0.00000000000E+00 -0.13769816166E+04  0.15924051800E+04  0.79979740233E+03 0.  0.
        1    1    3    3  502    0 -0.88311037655E+02 -0.29764532576E+03 -0.18666371468E+03  0.36226360806E+03  0.50400001928E-02 0. -1.
       -1    1    3    3    0  502  0.88311037655E+02  0.29764532576E+03 -0.11903179019E+04  0.12301415719E+04  0.50400001928E-02 0.  1.
</event>
<event>
 5   0  0.4086111E-04  0.8002629E+03  0.7818609E-02  0.9559637E-01
       -1   -1    0    0    0  501  0.00000000000E+00  0.00000000000E+00  0.13218025030E+03  0.13218025040E+03  0.50400001928E-02 0. -1.
        1   -1    0    0  501    0  0.00000000000E+00  0.00000000000E+00 -0.12112638978E+04  0.12112638978E+04  0.50400001928E-02 0.  1.
    10030    2    1    2    0    0  0.00000000000E+00  0.00000000000E+00 -0.10790836475E+04  0.13434441482E+04  0.80026286999E+03 0.  0.
        3    1    3    3  502    0  0.39720674457E+02 -0.17133276096E+03  0.63811896355E+02  0.18709520377E+03  0.10100000352E+00 0. -1.
       -3    1    3    3    0  502 -0.39720674457E+02  0.17133276096E+03 -0.11428955439E+04  0.11563489445E+04  0.10100000352E+00 0.  1.
</event>
<event>
 5   0  0.6593118E-04  0.7995629E+03  0.7818609E-02  0.9560650E-01
        2   -1    0    0  501    0  0.00000000000E+00  0.00000000000E+00  0.66052085130E+03  0.66052085131E+03  0.25500000920E-02 0.  1.
       -2   -1    0    0    0  501  0.00000000000E+00  0.00000000000E+00 -0.24196847061E+03  0.24196847062E+03  0.25500000920E-02 0. -1.
    10030    2    1    2    0    0  0.00000000000E+00  0.00000000000E+00  0.41855238069E+03  0.90248932193E+03  0.79956293112E+03 0.  0.
        1    1    3    3  502    0  0.19226533215E+03  0.71038011340E+02 -0.17814714535E+03  0.27156723371E+03  0.50400001928E-02 0. -1.
       -1    1    3    3    0  502 -0.19226533215E+03 -0.71038011340E+02  0.59669952604E+03  0.63092208822E+03  0.50400001928E-02 0.  1.
</event>
<event>
 5   0  0.6970013E-04  0.7998078E+03  0.7818609E-02  0.9560295E-01
       -2   -1    0    0    0  501  0.00000000000E+00  0.00000000000E+00  0.66232472846E+02  0.66232472895E+02  0.25500000920E-02 0. -1.
        2   -1    0    0  501    0  0.00000000000E+00  0.00000000000E+00 -0.24145728361E+04  0.24145728361E+04  0.25500000920E-02 0.  1.
    10030    2    1    2    0    0  0.00000000000E+00  0.00000000000E+00 -0.23483403632E+04  0.24808053090E+04  0.79980780157E+03 0.  0.
        3    1    3    3  502    0  0.26965931772E+03  0.23952358961E+03 -0.17099337018E+04  0.17475585748E+04  0.10100000352E+00 0.  1.
       -3    1    3    3    0  502 -0.26965931772E+03 -0.23952358961E+03 -0.63840666142E+03  0.73324673416E+03  0.10100000352E+00 0. -1.
</event>
<event>
 5   0  0.7133039E-04  0.8000431E+03  0.7818609E-02  0.9559955E-01
       -2   -1    0    0    0  501  0.00000000000E+00  0.00000000000E+00  0.11465750404E+03  0.11465750407E+03  0.25500000920E-02 0. -1.
        2   -1    0    0  501    0  0.00000000000E+00  0.00000000000E+00 -0.13956106592E+04  0.13956106592E+04  0.25500000920E-02 0.  1.
    10030    2    1    2    0    0  0.00000000000E+00  0.00000000000E+00 -0.12809531552E+04  0.15102681633E+04  0.80004308590E+03 0.  0.
        2    1    3    3  502    0 -0.49921860785E+02 -0.39664365148E+03 -0.61385643071E+03  0.73255586543E+03  0.25500000920E-02 0. -1.
       -2    1    3    3    0  502  0.49921860785E+02  0.39664365148E+03 -0.66709672446E+03  0.77771229785E+03  0.25500000920E-02 0.  1.
</event>
<event>
 5   0  0.4104786E-04  0.8001583E+03  0.7818609E-02  0.9559788E-01
        1   -1    0    0  501    0  0.00000000000E+00  0.00000000000E+00  0.56303238146E+03  0.56303238148E+03  0.50400001928E-02 0. -1.
       -1   -1    0    0    0  501  0.00000000000E+00  0.00000000000E+00 -0.28428795704E+03  0.28428795708E+03  0.50400001928E-02 0.  1.
    10030    2    1    2    0    0  0.00000000000E+00  0.00000000000E+00  0.27874442442E+03  0.84732033857E+03  0.80015829809E+03 0.  0.
        2    1    3    3  502    0  0.24087035034E+03  0.90658473025E+02  0.46373643875E+03  0.53036682498E+03  0.25500000920E-02 0. -1.
       -2    1    3    3    0  502 -0.24087035034E+03 -0.90658473025E+02 -0.18499201433E+03  0.31695351359E+03  0.25500000920E-02 0.  1.
</event>
<event>
 5   0  0.6672462E-04  0.8005845E+03  0.7818609E-02  0.9559171E-01
        2   -1    0    0  501    0  0.00000000000E+00  0.00000000000E+00  0.30485121541E+03  0.30485121542E+03  0.25500000920E-02 0. -1.
       -2   -1    0    0    0  501  0.00000000000E+00  0.00000000000E+00 -0.52561342299E+03  0.52561342299E+03  0.25500000920E-02 0.  1.
    10030    2    1    2    0    0  0.00000000000E+00  0.00000000000E+00 -0.22076220758E+03  0.83046463841E+03  0.80058451356E+03 0.  0.
        5    1    3    3  502    0  0.22929914069E+03  0.31525280017E+03 -0.16165131778E+02  0.39018691088E+03  0.46999998093E+01 0.  1.
       -5    1    3    3    0  502 -0.22929914069E+03 -0.31525280017E+03 -0.20459707580E+03  0.44027772753E+03  0.46999998093E+01 0. -1.
</event>
<event>
 5   0  0.4392552E-04  0.7997578E+03  0.7818609E-02  0.9560368E-01
       -1   -1    0    0    0  501  0.00000000000E+00  0.00000000000E+00  0.43304892740E+03  0.43304892743E+03  0.50400001928E-02 0.  1.
        1   -1    0    0  501    0  0.00000000000E+00  0.00000000000E+00 -0.36924955979E+03  0.36924955982E+03  0.50400001928E-02 0. -1.
    10030    2    1    2    0    0  0.00000000000E+00  0.00000000000E+00  0.63799367611E+02  0.80229848725E+03  0.79975777792E+03 0.  0.
        5    1    3    3  502    0 -0.27040744175E+03  0.23103371941E+03 -0.15139440298E+03  0.38657356262E+03  0.46999998093E+01 0. -1.
       -5    1    3    3    0  502  0.27040744175E+03 -0.23103371941E+03  0.21519377060E+03  0.41572492464E+03  0.46999998093E+01 0.  1.
</event>
<event>
 5   0  0.6672462E-04  0.8011971E+03  0.7818609E-02  0.9558286E-01
        2   -1    0    0  501    0  0.00000000000E+00  0.00000000000E+00  0.12237849506E+04  0.12237849506E+04  0.25500000920E-02 0. -1.
       -2   -1    0    0    0  501  0.00000000000E+00  0.00000000000E+00 -0.13113348638E+03  0.13113348641E+03  0.25500000920E-02 0.  1.
    10030    2    1    2    0    0  0.00000000000E+00  0.00000000000E+00  0.10926514642E+04  0.13549184370E+04  0.80119707232E+03 0.  0.
        5    1    3    3  502    0 -0.28015359188E+03 -0.15212927992E+03  0.13615478371E+03  0.34668367135E+03  0.46999998093E+01 0.  1.
       -5    1    3    3    0  502  0.28015359188E+03  0.15212927992E+03  0.95649668053E+03  0.10082347657E+04  0.46999998093E+01 0. -1.
</event>
<event>
 5   0  0.6593118E-04  0.8013865E+03  0.7818609E-02  0.9558012E-01
       -2   -1    0    0    0  501  0.00000000000E+00  0.00000000000E+00  0.24088042482E+03  0.24088042484E+03  0.25500000920E-02 0. -1.
        2   -1    0    0  501    0  0.00000000000E+00  0.00000000000E+00 -0.66653438301E+03  0.66653438301E+03  0.25500000920E-02 0.  1.
    10030    2    1    2    0    0  0.00000000000E+00  0.00000000000E+00 -0.42565395819E+03  0.90741480785E+03  0.80138651186E+03 0.  0.
        1    1    3    3  502    0  0.62729166387E+02 -0.17008495281E+03  0.19179027243E+03  0.26390784019E+03  0.50400001928E-02 0. -1.
       -1    1    3    3    0  502 -0.62729166387E+02  0.17008495281E+03 -0.61744423061E+03  0.64350696766E+03  0.50400001928E-02 0.  1.
</event>
<event>
 5   0  0.6801147E-04  0.8003897E+03  0.7818609E-02  0.9559453E-01
       -2   -1    0    0    0  501  0.00000000000E+00  0.00000000000E+00  0.22347147658E+03  0.22347147659E+03  0.25500000920E-02 0. -1.
        2   -1    0    0  501    0  0.00000000000E+00  0.00000000000E+00 -0.71667277508E+03  0.71667277509E+03  0.25500000920E-02 0.  1.
    10030    2    1    2    0    0  0.00000000000E+00  0.00000000000E+00 -0.49320129850E+03  0.94014425168E+03  0.80038971328E+03 0.  0.
        4    1    3    3  502    0  0.13313081451E+03  0.26007688410E+03 -0.56783075950E+03  0.63858999659E+03  0.12699999809E+01 0.  1.
       -4    1    3    3    0  502 -0.13313081451E+03 -0.26007688410E+03  0.74629460998E+02  0.30155425509E+03  0.12699999809E+01 0. -1.
</event>
<event>
 5   0  0.4104786E-04  0.7997709E+03  0.7818609E-02  0.9560349E-01
       -1   -1    0    0    0  501  0.00000000000E+00  0.00000000000E+00  0.44608134764E+03  0.44608134767E+03  0.50400001928E-02 0.  1.
        1   -1    0    0  501    0  0.00000000000E+00  0.00000000000E+00 -0.35847358046E+03  0.35847358050E+03  0.50400001928E-02 0. -1.
    10030    2    1    2    0    0  0.00000000000E+00  0.00000000000E+00  0.87607767183E+02  0.80455492817E+03  0.79977091193E+03 0.  0.
        2    1    3    3  502    0 -0.14738417944E+03  0.36629335675E+03  0.10755057619E+03  0.40921882409E+03  0.25500000920E-02 0. -1.
       -2    1    3    3    0  502  0.14738417944E+03 -0.36629335675E+03 -0.19942809007E+02  0.39533610407E+03  0.25500000920E-02 0.  1.
</event>
<event>
 5   0  0.4104786E-04  0.7999608E+03  0.7818609E-02  0.9560074E-01
        1   -1    0    0  501    0  0.00000000000E+00  0.00000000000E+00  0.23730132589E+03  0.23730132594E+03  0.50400001928E-02 0. -1.
       -1   -1    0    0    0  501  0.00000000000E+00  0.00000000000E+00 -0.67418213585E+03  0.67418213586E+03  0.50400001928E-02 0.  1.
    10030    2    1    2    0    0  0.00000000000E+00  0.00000000000E+00 -0.43688080996E+03  0.91148346180E+03  0.79996078593E+03 0.  0.
        2    1    3    3  502    0  0.26918474979E+01 -0.39265962678E+03 -0.13169928350E+03  0.41416606552E+03  0.25500000920E-02 0.  1.
       -2    1    3    3    0  502 -0.26918474979E+01  0.39265962678E+03 -0.30518152646E+03  0.49731739629E+03  0.25500000920E-02 0. -1.
</event>
<event>
 5   0  0.6672462E-04  0.8001734E+03  0.7818609E-02  0.9559766E-01
       -2   -1    0    0    0  501  0.00000000000E+00  0.00000000000E+00  0.48827330894E+03  0.48827330894E+03  0.25500000920E-02 0. -1.
        2   -1    0    0  501    0  0.00000000000E+00  0.00000000000E+00 -0.32782736917E+03  0.32782736918E+03  0.25500000920E-02 0.  1.
    10030    2    1    2    0    0  0.00000000000E+00  0.00000000000E+00  0.16044593977E+03  0.81610067813E+03  0.80017336700E+03 0.  0.
        5    1    3    3  502    0 -0.11148293569E+03 -0.30126134166E+03  0.32342359734E+03  0.45586374526E+03  0.46999998093E+01 0. -1.
       -5    1    3    3    0  502  0.11148293569E+03  0.30126134166E+03 -0.16297765758E+03  0.36023693286E+03  0.46999998093E+01 0.  1.
</event>
<event>
 5   0  0.6970013E-04  0.8001179E+03  0.7818609E-02  0.9559847E-01
       -2   -1    0    0    0  501  0.00000000000E+00  0.00000000000E+00  0.35079550168E+03  0.35079550169E+03  0.25500000920E-02 0. -1.
        2   -1    0    0  501    0  0.00000000000E+00  0.00000000000E+00 -0.45624058324E+03  0.45624058324E+03  0.25500000920E-02 0.  1.
    10030    2    1    2    0    0  0.00000000000E+00  0.00000000000E+00 -0.10544508155E+03  0.80703608493E+03  0.80011785204E+03 0.  0.
        3    1    3    3  502    0 -0.23554036652E+03 -0.54410610483E+02  0.26879270180E+03  0.36150975857E+03  0.10100000352E+00 0. -1.
       -3    1    3    3    0  502  0.23554036652E+03  0.54410610483E+02 -0.37423778335E+03  0.44552632637E+03  0.10100000352E+00 0.  1.
</event>
<event>
 5   0  0.4104786E-04  0.8003152E+03  0.7818609E-02  0.9559561E-01
        1   -1    0    0  501    0  0.00000000000E+00  0.00000000000E+00  0.29851973957E+03  0.29851973961E+03  0.50400001928E-02 0.  1.
       -1   -1    0    0    0  501  0.00000000000E+00  0.00000000000E+00 -0.53640045463E+03  0.53640045466E+03  0.50400001928E-02 0. -1.
    10030    2    1    2    0    0  0.00000000000E+00  0.00000000000E+00 -0.23788071507E+03  0.83492019427E+03  0.80031524801E+03 0.  0.
        2    1    3    3  502    0  0.23148542472E+03  0.45244777464E+02 -0.45617220308E+03  0.51354227734E+03  0.25500000920E-02 0. -1.
       -2    1    3    3    0  502 -0.23148542472E+03 -0.45244777464E+02  0.21829148801E+03  0.32137791693E+03  0.25500000920E-02 0.  1.
</event>
<event>
 5   0  0.6801147E-04  0.7995253E+03  0.7818609E-02  0.9560704E-01
        2   -1    0    0  501    0  0.00000000000E+00  0.00000000000E+00  0.84085546095E+03  0.84085546096E+03  0.25500000920E-02 0.  1.
       -2   -1    0    0    0  501  0.00000000000E+00  0.00000000000E+00 -0.19005667048E+03  0.19005667050E+03  0.25500000920E-02 0. -1.
    10030    2    1    2    0    0  0.00000000000E+00  0.00000000000E+00  0.65079879047E+03  0.10309121315E+04  0.79952533237E+03 0.  0.
        4    1    3    3  502    0  0.11011254656E+03  0.36680538731E+03  0.47319027213E+03  0.60875414710E+03  0.12699999809E+01 0.  1.
       -4    1    3    3    0  502 -0.11011254656E+03 -0.36680538731E+03  0.17760851835E+03  0.42215798436E+03  0.12699999809E+01 0. -1.
</event>
<event>
 5   0  0.4104786E-04  0.7999395E+03  0.7818609E-02  0.9560105E-01
       -1   -1    0    0    0  501  0.00000000000E+00  0.00000000000E+00  0.13964638123E+03  0.13964638132E+03  0.50400001928E-02 0.  1.
        1   -1    0    0  501    0  0.00000000000E+00  0.00000000000E+00 -0.11455778279E+04  0.11455778279E+04  0.50400001928E-02 0. -1.
    10030    2    1    2    0    0  0.00000000000E+00  0.00000000000E+00 -0.10059314467E+04  0.12852242092E+04  0.79993949309E+03 0.  0.
        2    1    3    3  502    0  0.25038213298E+03 -0.20855646531E+03 -0.87558698500E+03  0.93425883996E+03  0.25500000920E-02 0. -1.
       -2    1    3    3    0  502 -0.25038213298E+03  0.20855646531E+03 -0.13034446169E+03  0.35096536929E+03  0.25500000920E-02 0.  1.
</event>
<event>
 5   0  0.2736375E-04  0.8000044E+03  0.7818609E-02  0.9560011E-01
        3   -1    0    0  501    0  0.00000000000E+00  0.00000000000E+00  0.50162807643E+03  0.50162808660E+03  0.10100000352E+00 0. -1.
       -3   -1    0    0    0  501  0.00000000000E+00  0.00000000000E+00 -0.31896493665E+03  0.31896495264E+03  0.10100000352E+00 0.  1.
    10030    2    1    2    0    0  0.00000000000E+00  0.00000000000E+00  0.18266313978E+03  0.82059303924E+03  0.80000444587E+03 0.  0.
        3    1    3    3  502    0  0.12611703710E+03  0.25682547530E+03  0.37805528665E+03  0.47412091472E+03  0.10100000352E+00 0. -1.
       -3    1    3    3    0  502 -0.12611703710E+03 -0.25682547530E+03 -0.19539214687E+03  0.34647212452E+03  0.10100000352E+00 0.  1.
</event>
<event>
 5   0  0.4086111E-04  0.7999660E+03  0.7818609E-02  0.9560066E-01
       -1   -1    0    0    0  501  0.00000000000E+00  0.00000000000E+00  0.41227248643E+03  0.41227248646E+03  0.50400001928E-02 0.  1.
        1   -1    0    0  501    0  0.00000000000E+00  0.00000000000E+00 -0.38805989915E+03  0.38805989918E+03  0.50400001928E-02 0. -1.
    10030    2    1    2    0    0  0.00000000000E+00  0.00000000000E+00  0.24212587279E+02  0.80033238564E+03  0.79996604810E+03 0.  0.
        3    1    3    3  502    0 -0.10866856239E+03 -0.21743077925E+03 -0.30568899287E+03  0.39055187975E+03  0.10100000352E+00 0. -1.
       -3    1    3    3    0  502  0.10866856239E+03  0.21743077925E+03  0.32990158015E+03  0.40978050588E+03  0.10100000352E+00 0.  1.
</event>
<event>
 5   0  0.6593118E-04  0.7996831E+03  0.7818609E-02  0.9560476E-01
        2   -1    0    0  501    0  0.00000000000E+00  0.00000000000E+00  0.40102574788E+03  0.40102574789E+03  0.25500000920E-02 0. -1.
       -2   -1    0    0    0  501  0.00000000000E+00  0.00000000000E+00 -0.39866088211E+03  0.39866088212E+03  0.25500000920E-02 0.  1.
    10030    2    1    2    0    0  0.00000000000E+00  0.00000000000E+00  0.23648657709E+01  0.79968663000E+03  0.79968313326E+03 0.  0.
        1    1    3    3  502    0  0.29507115744E+03 -0.17662640968E+02 -0.26806643996E+03  0.39904708130E+03  0.50400001928E-02 0.  1.
       -1    1    3    3    0  502 -0.29507115744E+03  0.17662640968E+02  0.27043130573E+03  0.40063954870E+03  0.50400001928E-02 0. -1.
</event>
<event>
 5   0  0.4104786E-04  0.7994405E+03  0.7818609E-02  0.9560827E-01
        1   -1    0    0  501    0  0.00000000000E+00  0.00000000000E+00  0.12263367184E+04  0.12263367185E+04  0.50400001928E-02 0.  1.
       -1   -1    0    0    0  501  0.00000000000E+00  0.00000000000E+00 -0.13028744799E+03  0.13028744809E+03  0.50400001928E-02 0. -1.
    10030    2    1    2    0    0  0.00000000000E+00  0.00000000000E+00  0.10960492705E+04  0.13566241665E+04  0.79944050811E+03 0.  0.
        2    1    3    3  502    0 -0.18699728411E+03 -0.34863475839E+03  0.45110267290E+03  0.60000650041E+03  0.25500000920E-02 0.  1.
       -2    1    3    3    0  502  0.18699728411E+03  0.34863475839E+03  0.64494659755E+03  0.75661766614E+03  0.25500000920E-02 0. -1.
</event>
<event>
 5   0  0.6593118E-04  0.8003645E+03  0.7818609E-02  0.9559490E-01
       -2   -1    0    0    0  501  0.00000000000E+00  0.00000000000E+00  0.19162142680E+03  0.19162142682E+03  0.25500000920E-02 0. -1.
        2   -1    0    0  501    0  0.00000000000E+00  0.00000000000E+00 -0.83574067702E+03  0.83574067703E+03  0.25500000920E-02 0.  1.
    10030    2    1    2    0    0  0.00000000000E+00  0.00000000000E+00 -0.64411925022E+03  0.10273621038E+04  0.80036446942E+03 0.  0.
        1    1    3    3  502    0  0.15375600661E+03 -0.28038821223E+03 -0.13223837782E+02  0.32005207239E+03  0.50400001928E-02 0. -1.
       -1    1    3    3    0  502 -0.15375600661E+03  0.28038821223E+03 -0.63089541244E+03  0.70731003145E+03  0.50400001928E-02 0.  1.
</event>
<event>
 5   0  0.6970013E-04  0.7998417E+03  0.7818609E-02  0.9560246E-01
        2   -1    0    0  501    0  0.00000000000E+00  0.00000000000E+00  0.25177402412E+03  0.25177402413E+03  0.25500000920E-02 0.  1.
       -2   -1    0    0    0  501  0.00000000000E+00  0.00000000000E+00 -0.63523899274E+03  0.63523899275E+03  0.25500000920E-02 0. -1.
    10030    2    1    2    0    0  0.00000000000E+00  0.00000000000E+00 -0.38346496862E+03  0.88701301688E+03  0.79984167805E+03 0.  0.
        3    1    3    3  502    0 -0.24008668539E+03  0.19496093668E+03  0.89445780074E+02  0.32195021526E+03  0.10100000352E+00 0.  1.
       -3    1    3    3    0  502  0.24008668539E+03 -0.19496093668E+03 -0.47291074870E+03  0.56506280161E+03  0.10100000352E+00 0. -1.
</event>
<event>
 5   0  0.4087283E-04  0.8017293E+03  0.7818609E-02  0.9557517E-01
       -1   -1    0    0    0  501  0.00000000000E+00  0.00000000000E+00  0.48376280765E+03  0.48376280767E+03  0.50400001928E-02 0. -1.
        1   -1    0    0  501    0  0.00000000000E+00  0.00000000000E+00 -0.33217205399E+03  0.33217205403E+03  0.50400001928E-02 0.  1.
    10030    2    1    2    0    0  0.00000000000E+00  0.00000000000E+00  0.15159075366E+03  0.81593486170E+03  0.80172934457E+03 0.  0.
        1    1    3    3  502    0 -0.32722334926E+03 -0.11237566974E+03  0.28184022639E+03  0.44624805287E+03  0.50400001928E-02 0. -1.
       -1    1    3    3    0  502  0.32722334926E+03  0.11237566974E+03 -0.13024947273E+03  0.36968680883E+03  0.50400001928E-02 0.  1.
</event>
<event>
 5   0  0.4087283E-04  0.7995982E+03  0.7818609E-02  0.9560599E-01
       -1   -1    0    0    0  501  0.00000000000E+00  0.00000000000E+00  0.11731426718E+03  0.11731426729E+03  0.50400001928E-02 0. -1.
        1   -1    0    0  501    0  0.00000000000E+00  0.00000000000E+00 -0.13624884286E+04  0.13624884286E+04  0.50400001928E-02 0.  1.
    10030    2    1    2    0    0  0.00000000000E+00  0.00000000000E+00 -0.12451741614E+04  0.14798026958E+04  0.79959822816E+03 0.  0.
        1    1    3    3  502    0  0.14462970396E+03 -0.35750407178E+03 -0.81767765852E+03  0.90405954774E+03  0.50400001928E-02 0.  1.
       -1    1    3    3    0  502 -0.14462970396E+03  0.35750407178E+03 -0.42749650286E+03  0.57574314811E+03  0.50400001928E-02 0. -1.
</event>
<event>
 5   0  0.6593118E-04  0.8001333E+03  0.7818609E-02  0.9559824E-01
        2   -1    0    0  501    0  0.00000000000E+00  0.00000000000E+00  0.95373661036E+03  0.95373661037E+03  0.25500000920E-02 0.  1.
       -2   -1    0    0    0  501  0.00000000000E+00  0.00000000000E+00 -0.16781712351E+03  0.16781712352E+03  0.25500000920E-02 0. -1.
    10030    2    1    2    0    0  0.00000000000E+00  0.00000000000E+00  0.78591948686E+03  0.11215537339E+04  0.80013332525E+03 0.  0.
        1    1    3    3  502    0  0.14679699387E+03  0.14970390039E+03 -0.84635748310E+02  0.22610578303E+03  0.50400001928E-02 0. -1.
       -1    1    3    3    0  502 -0.14679699387E+03 -0.14970390039E+03  0.87055523517E+03  0.89544795086E+03  0.50400001928E-02 0.  1.
</event>
<event>
 5   0  0.2736375E-04  0.7994645E+03  0.7818609E-02  0.9560793E-01
        4   -1    0    0  501    0  0.00000000000E+00  0.00000000000E+00  0.66531555025E+02  0.66543675237E+02  0.12699999809E+01 0.  1.
       -4   -1    0    0    0  501  0.00000000000E+00  0.00000000000E+00 -0.24014241820E+04  0.24014245178E+04  0.12699999809E+01 0. -1.
    10030    2    1    2    0    0  0.00000000000E+00  0.00000000000E+00 -0.23348926269E+04  0.24679681930E+04  0.79946445977E+03 0.  0.
        3    1    3    3  502    0 -0.17687787307E+03 -0.57990521319E+01 -0.60987553379E+02  0.18718681272E+03  0.10100000352E+00 0.  1.
       -3    1    3    3    0  502  0.17687787307E+03  0.57990521319E+01 -0.22739050736E+04  0.22807813803E+04  0.10100000352E+00 0. -1.
</event>
<event>
 5   0  0.4087283E-04  0.8000085E+03  0.7818609E-02  0.9560005E-01
        1   -1    0    0  501    0  0.00000000000E+00  0.00000000000E+00  0.65415192104E+03  0.65415192105E+03  0.50400001928E-02 0.  1.
       -1   -1    0    0    0  501  0.00000000000E+00  0.00000000000E+00 -0.24459672062E+03  0.24459672067E+03  0.50400001928E-02 0. -1.
    10030    2    1    2    0    0  0.00000000000E+00  0.00000000000E+00  0.40955520041E+03  0.89874864173E+03  0.80000853672E+03 0.  0.
        1    1    3    3  502    0 -0.87569991784E+02  0.17693069685E+03  0.59561033481E+03  0.62747481695E+03  0.50400001928E-02 0.  1.
       -1    1    3    3    0  502  0.87569991784E+02 -0.17693069685E+03 -0.18605513440E+03  0.27127382478E+03  0.50400001928E-02 0. -1.
</event>
<event>
 5   0  0.6970013E-04  0.7965023E+03  0.7818609E-02  0.9565094E-01
        2   -1    0    0  501    0  0.00000000000E+00  0.00000000000E+00  0.10354235278E+04  0.10354235278E+04  0.25500000920E-02 0.  1.
       -2   -1    0    0    0  501  0.00000000000E+00  0.00000000000E+00 -0.15317786856E+03  0.15317786859E+03  0.25500000920E-02 0. -1.
    10030    2    1    2    0    0  0.00000000000E+00  0.00000000000E+00  0.88224565919E+03  0.11886013963E+04  0.79650227635E+03 0.  0.
        3    1    3    3  502    0 -0.10806166574E+03 -0.23575959518E+02 -0.12979874116E+03  0.17053114929E+03  0.10100000352E+00 0. -1.
       -3    1    3    3    0  502  0.10806166574E+03  0.23575959518E+02  0.10120444003E+04  0.10180702471E+04  0.10100000352E+00 0.  1.
</event>
<event>
 5   0  0.4169155E-04  0.7992030E+03  0.7818609E-02  0.9561171E-01
       -1   -1    0    0    0  501  0.00000000000E+00  0.00000000000E+00  0.53270173198E+03  0.53270173200E+03  0.50400001928E-02 0.  1.
        1   -1    0    0  501    0  0.00000000000E+00  0.00000000000E+00 -0.29975753967E+03  0.29975753971E+03  0.50400001928E-02 0. -1.
    10030    2    1    2    0    0  0.00000000000E+00  0.00000000000E+00  0.23294419231E+03  0.83245927172E+03  0.79920300446E+03 0.  0.
        4    1    3    3  502    0 -0.25060503762E+03  0.30805463090E+03  0.70132577703E+02  0.40326260905E+03  0.12699999809E+01 0.  1.
       -4    1    3    3    0  502  0.25060503762E+03 -0.30805463090E+03  0.16281161461E+03  0.42919666267E+03  0.12699999809E+01 0. -1.
</event>
<event>
 5   0  0.4169155E-04  0.7996587E+03  0.7818609E-02  0.9560511E-01
       -1   -1    0    0    0  501  0.00000000000E+00  0.00000000000E+00  0.81325049359E+03  0.81325049361E+03  0.50400001928E-02 0. -1.
        1   -1    0    0  501    0  0.00000000000E+00  0.00000000000E+00 -0.19657349446E+03  0.19657349453E+03  0.50400001928E-02 0.  1.
    10030    2    1    2    0    0  0.00000000000E+00  0.00000000000E+00  0.61667699913E+03  0.10098239881E+04  0.79965865578E+03 0.  0.
        4    1    3    3  502    0 -0.76834843249E+01 -0.17912671417E+03  0.75963761428E+03  0.78051030332E+03  0.12699999809E+01 0. -1.
       -4    1    3    3    0  502  0.76834843249E+01  0.17912671417E+03 -0.14296061515E+03  0.22931368482E+03  0.12699999809E+01 0.  1.
</event>
<event>
 5   0  0.4169155E-04  0.8001228E+03  0.7818609E-02  0.9559839E-01
        1   -1    0    0  501    0  0.00000000000E+00  0.00000000000E+00  0.67819051626E+03  0.67819051628E+03  0.50400001928E-02 0. -1.
       -1   -1    0    0    0  501  0.00000000000E+00  0.00000000000E+00 -0.23599435012E+03  0.23599435017E+03  0.50400001928E-02 0.  1.
    10030    2    1    2    0    0  0.00000000000E+00  0.00000000000E+00  0.44219616615E+03  0.91418486645E+03  0.80012281601E+03 0.  0.
        4    1    3    3  502    0  0.58416385595E+02  0.61570299857E+02  0.66778349686E+03  0.67315658469E+03  0.12699999809E+01 0. -1.
       -4    1    3    3    0  502 -0.58416385595E+02 -0.61570299857E+02 -0.22558733071E+03  0.24102828176E+03  0.12699999809E+01 0.  1.
</event>
<event>
 5   0  0.7133039E-04  0.8004978E+03  0.7818609E-02  0.9559297E-01
        2   -1    0    0  501    0  0.00000000000E+00  0.00000000000E+00  0.65183120491E+03  0.65183120491E+03  0.25500000920E-02 0. -1.
       -2   -1    0    0    0  501  0.00000000000E+00  0.00000000000E+00 -0.24576791258E+03  0.24576791259E+03  0.25500000920E-02 0.  1.
    10030    2    1    2    0    0  0.00000000000E+00  0.00000000000E+00  0.40606329233E+03  0.89759911750E+03  0.80049783158E+03 0.  0.
        2    1    3    3  502    0  0.45021948935E+02 -0.38560165767E+03  0.93835221185E+02  0.39940037935E+03  0.25500000920E-02 0. -1.
       -2    1    3    3    0  502 -0.45021948935E+02  0.38560165767E+03  0.31222807115E+03  0.49819873816E+03  0.25500000920E-02 0.  1.
</event>
<event>
 5   0  0.6801147E-04  0.7998588E+03  0.7818609E-02  0.9560222E-01
        2   -1    0    0  501    0  0.00000000000E+00  0.00000000000E+00  0.79531224591E+03  0.79531224591E+03  0.25500000920E-02 0. -1.
       -2   -1    0    0    0  501  0.00000000000E+00  0.00000000000E+00 -0.20110781942E+03  0.20110781943E+03  0.25500000920E-02 0.  1.
    10030    2    1    2    0    0  0.00000000000E+00  0.00000000000E+00  0.59420442649E+03  0.99642006534E+03  0.79985876638E+03 0.  0.
        4    1    3    3  502    0 -0.18349483197E+03  0.13956727373E+03 -0.10999635569E+03  0.25544116431E+03  0.12699999809E+01 0.  1.
       -4    1    3    3    0  502  0.18349483197E+03 -0.13956727373E+03  0.70420078218E+03  0.74097890104E+03  0.12699999809E+01 0. -1.
</event>
<event>
 5   0  0.6970013E-04  0.8014223E+03  0.7818609E-02  0.9557961E-01
       -2   -1    0    0    0  501  0.00000000000E+00  0.00000000000E+00  0.19060271806E+03  0.19060271808E+03  0.25500000920E-02 0.  1.
        2   -1    0    0  501    0  0.00000000000E+00  0.00000000000E+00 -0.84242987062E+03  0.84242987063E+03  0.25500000920E-02 0. -1.
    10030    2    1    2    0    0  0.00000000000E+00  0.00000000000E+00 -0.65182715256E+03  0.10330325887E+04  0.80142229350E+03 0.  0.
        3    1    3    3  502    0  0.33924256614E+03  0.11710805183E+03 -0.96162017905E+02  0.37154671089E+03  0.10100000352E+00 0.  1.
       -3    1    3    3    0  502 -0.33924256614E+03 -0.11710805183E+03 -0.55566513465E+03  0.66148587782E+03  0.10100000352E+00 0. -1.
</event>
<event>
 5   0  0.4086111E-04  0.7999342E+03  0.7818609E-02  0.9560112E-01
        1   -1    0    0  501    0  0.00000000000E+00  0.00000000000E+00  0.78126957038E+03  0.78126957040E+03  0.50400001928E-02 0.  1.
       -1   -1    0    0    0  501  0.00000000000E+00  0.00000000000E+00 -0.20476118487E+03  0.20476118493E+03  0.50400001928E-02 0. -1.
    10030    2    1    2    0    0  0.00000000000E+00  0.00000000000E+00  0.57650838551E+03  0.98603075533E+03  0.79993420473E+03 0.  0.
        3    1    3    3  502    0 -0.78661122601E+02  0.35679408578E+03  0.87655246683E+02  0.37573001521E+03  0.10100000352E+00 0. -1.
       -3    1    3    3    0  502  0.78661122601E+02 -0.35679408578E+03  0.48885313882E+03  0.61030074012E+03  0.10100000352E+00 0.  1.
</event>
<event>
 5   0  0.6970013E-04  0.8000772E+03  0.7818609E-02  0.9559905E-01
       -2   -1    0    0    0  501  0.00000000000E+00  0.00000000000E+00  0.17503799026E+04  0.17503799026E+04  0.25500000920E-02 0. -1.
        2   -1    0    0  501    0  0.00000000000E+00  0.00000000000E+00 -0.91426372338E+02  0.91426372374E+02  0.25500000920E-02 0.  1.
    10030    2    1    2    0    0  0.00000000000E+00  0.00000000000E+00  0.16589535302E+04  0.18418062749E+04  0.80007720812E+03 0.  0.
        3    1    3    3  502    0 -0.29256233429E+03  0.27280314069E+03  0.82009712872E+03  0.91245470230E+03  0.10100000352E+00 0. -1.
       -3    1    3    3    0  502  0.29256233429E+03 -0.27280314069E+03  0.83885640150E+03  0.92935157263E+03  0.10100000352E+00 0.  1.
</event>
<event>
 5   0  0.2736375E-04  0.8001013E+03  0.7818609E-02  0.9559870E-01
        3   -1    0    0  501    0  0.00000000000E+00  0.00000000000E+00  0.46532147441E+03  0.46532148538E+03  0.10100000352E+00 0. -1.
       -3   -1    0    0    0  501  0.00000000000E+00  0.00000000000E+00 -0.34393538362E+03  0.34393539845E+03  0.10100000352E+00 0.  1.
    10030    2    1    2    0    0  0.00000000000E+00  0.00000000000E+00  0.12138609080E+03  0.80925688382E+03  0.80010131919E+03 0.  0.
        1    1    3    3  502    0 -0.36823152049E+03  0.15618215436E+03  0.53314903642E+02  0.40352174291E+03  0.50400001928E-02 0.  1.
       -1    1    3    3    0  502  0.36823152049E+03 -0.15618215436E+03  0.68071187157E+02  0.40573514091E+03  0.50400001928E-02 0. -1.
</event>
<event>
 5   0  0.7133039E-04  0.7999707E+03  0.7818609E-02  0.9560060E-01
       -2   -1    0    0    0  501  0.00000000000E+00  0.00000000000E+00  0.28476997832E+03  0.28476997833E+03  0.25500000920E-02 0.  1.
        2   -1    0    0  501    0  0.00000000000E+00  0.00000000000E+00 -0.56181584246E+03  0.56181584246E+03  0.25500000920E-02 0. -1.
    10030    2    1    2    0    0  0.00000000000E+00  0.00000000000E+00 -0.27704586414E+03  0.84658582079E+03  0.79997071267E+03 0.  0.
        2    1    3    3  502    0 -0.39606181025E+03  0.32406317201E+02 -0.90337790436E+02  0.40752428556E+03  0.25500000920E-02 0.  1.
       -2    1    3    3    0  502  0.39606181025E+03 -0.32406317201E+02 -0.18670807370E+03  0.43906153524E+03  0.25500000920E-02 0. -1.
</event>
<event>
 5   0  0.4086111E-04  0.7997701E+03  0.7818609E-02  0.9560350E-01
        1   -1    0    0  501    0  0.00000000000E+00  0.00000000000E+00  0.13410896788E+04  0.13410896788E+04  0.50400001928E-02 0.  1.
       -1   -1    0    0    0  501  0.00000000000E+00  0.00000000000E+00 -0.11923741249E+03  0.11923741260E+03  0.50400001928E-02 0. -1.
    10030    2    1    2    0    0  0.00000000000E+00  0.00000000000E+00  0.12218522663E+04  0.14603270914E+04  0.79977012522E+03 0.  0.
        3    1    3    3  502    0 -0.22949704791E+03  0.32745518896E+03  0.61731881040E+03  0.73551228382E+03  0.10100000352E+00 0. -1.
       -3    1    3    3    0  502  0.22949704791E+03 -0.32745518896E+03  0.60453345589E+03  0.72481480756E+03  0.10100000352E+00 0.  1.
</event>
<event>
 5   0  0.6672462E-04  0.8004651E+03  0.7818609E-02  0.9559344E-01
        2   -1    0    0  501    0  0.00000000000E+00  0.00000000000E+00  0.13969187366E+04  0.13969187366E+04  0.25500000920E-02 0.  1.
       -2   -1    0    0    0  501  0.00000000000E+00  0.00000000000E+00 -0.11467102790E+03  0.11467102793E+03  0.25500000920E-02 0. -1.
    10030    2    1    2    0    0  0.00000000000E+00  0.00000000000E+00  0.12822477087E+04  0.15115897645E+04  0.80046513337E+03 0.  0.
        5    1    3    3  502    0 -0.56406458486E+02  0.31605466458E+03  0.10923334287E+04  0.11385458485E+04  0.46999998093E+01 0.  1.
       -5    1    3    3    0  502  0.56406458486E+02 -0.31605466458E+03  0.18991427997E+03  0.37304391604E+03  0.46999998093E+01 0. -1.
</event>
<event>
 5   0  0.4392552E-04  0.7991080E+03  0.7818609E-02  0.9561309E-01
       -1   -1    0    0    0  501  0.00000000000E+00  0.00000000000E+00  0.14759763020E+03  0.14759763028E+03  0.50400001928E-02 0. -1.
        1   -1    0    0  501    0  0.00000000000E+00  0.00000000000E+00 -0.10816122401E+04  0.10816122401E+04  0.50400001928E-02 0.  1.
    10030    2    1    2    0    0  0.00000000000E+00  0.00000000000E+00 -0.93401460994E+03  0.12292098704E+04  0.79910801146E+03 0.  0.
        5    1    3    3  502    0  0.35262225977E+03 -0.15724892616E+03 -0.62501576637E+03  0.73466759904E+03  0.46999998093E+01 0.  1.
       -5    1    3    3    0  502 -0.35262225977E+03  0.15724892616E+03 -0.30899884357E+03  0.49454227139E+03  0.46999998093E+01 0. -1.
</event>
<event>
 5   0  0.6672462E-04  0.7998979E+03  0.7818609E-02  0.9560165E-01
        2   -1    0    0  501    0  0.00000000000E+00  0.00000000000E+00  0.89841603879E+03  0.89841603879E+03  0.25500000920E-02 0.  1.
       -2   -1    0    0    0  501  0.00000000000E+00  0.00000000000E+00 -0.17804576422E+03  0.17804576424E+03  0.25500000920E-02 0. -1.
    10030    2    1    2    0    0  0.00000000000E+00  0.00000000000E+00  0.72037027456E+03  0.10764618030E+04  0.79989791906E+03 0.  0.
        5    1    3    3  502    0  0.27170577416E+03  0.27374531089E+03  0.50245669327E+03  0.63343929587E+03  0.46999998093E+01 0.  1.
       -5    1    3    3    0  502 -0.27170577416E+03 -0.27374531089E+03  0.21791358130E+03  0.44302250716E+03  0.46999998093E+01 0. -1.
</event>
<event>
 5   0  0.6593118E-04  0.7999716E+03  0.7818609E-02  0.9560058E-01
       -2   -1    0    0    0  501  0.00000000000E+00  0.00000000000E+00  0.10840083640E+03  0.10840083643E+03  0.25500000920E-02 0. -1.
        2   -1    0    0  501    0  0.00000000000E+00  0.00000000000E+00 -0.14758984567E+04  0.14758984567E+04  0.25500000920E-02 0.  1.
    10030    2    1    2    0    0  0.00000000000E+00  0.00000000000E+00 -0.13674976203E+04  0.15842992932E+04  0.79997156745E+03 0.  0.
        1    1    3    3  502    0  0.35901547032E+03 -0.85925158269E+02 -0.98872045765E+03  0.10553877885E+04  0.50400001928E-02 0.  1.
       -1    1    3    3    0  502 -0.35901547032E+03  0.85925158269E+02 -0.37877716267E+03  0.52891150464E+03  0.50400001928E-02 0. -1.
</event>
<event>
 5   0  0.6801147E-04  0.8000337E+03  0.7818609E-02  0.9559968E-01
       -2   -1    0    0    0  501  0.00000000000E+00  0.00000000000E+00  0.15024141552E+03  0.15024141555E+03  0.25500000920E-02 0. -1.
        2   -1    0    0  501    0  0.00000000000E+00  0.00000000000E+00 -0.10650423550E+04  0.10650423550E+04  0.25500000920E-02 0.  1.
    10030    2    1    2    0    0  0.00000000000E+00  0.00000000000E+00 -0.91480093945E+03  0.12152837705E+04  0.80003367684E+03 0.  0.
        4    1    3    3  502    0 -0.87787036456E+02  0.13958873989E+03 -0.10110075324E+04  0.10243678165E+04  0.12699999809E+01 0.  1.
       -4    1    3    3    0  502  0.87787036456E+02 -0.13958873989E+03  0.96206592932E+02  0.19091595401E+03  0.12699999809E+01 0. -1.
</event>
<event>
 5   0  0.4086111E-04  0.8000913E+03  0.7818609E-02  0.9559885E-01
        1   -1    0    0  501    0  0.00000000000E+00  0.00000000000E+00  0.60937102044E+03  0.60937102046E+03  0.50400001928E-02 0. -1.
       -1   -1    0    0    0  501  0.00000000000E+00  0.00000000000E+00 -0.26262576308E+03  0.26262576313E+03  0.50400001928E-02 0.  1.
    10030    2    1    2    0    0  0.00000000000E+00  0.00000000000E+00  0.34674525736E+03  0.87199678359E+03  0.80009131797E+03 0.  0.
        3    1    3    3  502    0 -0.13979480428E+03  0.69947259800E+02  0.57470784700E+03  0.59558737903E+03  0.10100000352E+00 0. -1.
       -3    1    3    3    0  502  0.13979480428E+03 -0.69947259800E+02 -0.22796258963E+03  0.27640940456E+03  0.10100000352E+00 0.  1.
</event>
<event>
 5   0  0.4169155E-04  0.8002413E+03  0.7818609E-02  0.9559668E-01
        1   -1    0    0  501    0  0.00000000000E+00  0.00000000000E+00  0.41391885258E+03  0.41391885261E+03  0.50400001928E-02 0. -1.
       -1   -1    0    0    0  501  0.00000000000E+00  0.00000000000E+00 -0.38678245485E+03  0.38678245488E+03  0.50400001928E-02 0.  1.
    10030    2    1    2    0    0  0.00000000000E+00  0.00000000000E+00  0.27136397730E+02  0.80070130749E+03  0.80024133843E+03 0.  0.
        4    1    3    3  502    0  0.27557406619E+03 -0.14661606634E+03 -0.23689068107E+03  0.39186240511E+03  0.12699999809E+01 0.  1.
       -4    1    3    3    0  502 -0.27557406619E+03  0.14661606634E+03  0.26402707880E+03  0.40883890238E+03  0.12699999809E+01 0. -1.
</event>
<event>
 5   0  0.6593118E-04  0.7996366E+03  0.7818609E-02  0.9560543E-01
       -2   -1    0    0    0  501  0.00000000000E+00  0.00000000000E+00  0.22498942135E+03  0.22498942137E+03  0.25500000920E-02 0. -1.
        2   -1    0    0  501    0  0.00000000000E+00  0.00000000000E+00 -0.71049862876E+03  0.71049862877E+03  0.25500000920E-02 0.  1.
    10030    2    1    2    0    0  0.00000000000E+00  0.00000000000E+00 -0.48550920741E+03  0.93548805013E+03  0.79963660588E+03 0.  0.
        1    1    3    3  502    0 -0.10518167497E+03 -0.22375447537E+03 -0.61034155296E+03  0.65851807970E+03  0.50400001928E-02 0.  1.
       -1    1    3    3    0  502  0.10518167497E+03  0.22375447537E+03  0.12483234555E+03  0.27696997043E+03  0.50400001928E-02 0. -1.
</event>
<event>
 5   0  0.4169155E-04  0.7996116E+03  0.7818609E-02  0.9560579E-01
        1   -1    0    0  501    0  0.00000000000E+00  0.00000000000E+00  0.61406405950E+03  0.61406405952E+03  0.50400001928E-02 0.  1.
       -1   -1    0    0    0  501  0.00000000000E+00  0.00000000000E+00 -0.26030619595E+03  0.26030619600E+03  0.50400001928E-02 0. -1.
    10030    2    1    2    0    0  0.00000000000E+00  0.00000000000E+00  0.35375786354E+03  0.87437025552E+03  0.79961160429E+03 0.  0.
        4    1    3    3  502    0  0.17895918619E+03  0.87861215378E+02  0.55582945998E+03  0.59050316254E+03  0.12699999809E+01 0.  1.
       -4    1    3    3    0  502 -0.17895918619E+03 -0.87861215378E+02 -0.20207159644E+03  0.28386709298E+03  0.12699999809E+01 0. -1.
</event>
<event>
 5   0  0.6801147E-04  0.8000386E+03  0.7818609E-02  0.9559961E-01
        2   -1    0    0  501    0  0.00000000000E+00  0.00000000000E+00  0.60485711534E+03  0.60485711535E+03  0.25500000920E-02 0. -1.
       -2   -1    0    0    0  501  0.00000000000E+00  0.00000000000E+00 -0.26455084136E+03  0.26455084138E+03  0.25500000920E-02 0.  1.
    10030    2    1    2    0    0  0.00000000000E+00  0.00000000000E+00  0.34030627398E+03  0.86940795672E+03  0.80003864601E+03 0.  0.
        4    1    3    3  502    0 -0.27315357638E+03  0.26158714387E+03  0.31173045685E+03  0.49012059817E+03  0.12699999809E+01 0. -1.
       -4    1    3    3    0  502  0.27315357638E+03 -0.26158714387E+03  0.28575817134E+02  0.37928735855E+03  0.12699999809E+01 0.  1.
</event>
<event>
 5   0  0.6672462E-04  0.8006556E+03  0.7818609E-02  0.9559069E-01
        2   -1    0    0  501    0  0.00000000000E+00  0.00000000000E+00  0.80785614553E+03  0.80785614553E+03  0.25500000920E-02 0.  1.
       -2   -1    0    0    0  501  0.00000000000E+00  0.00000000000E+00 -0.19837981081E+03  0.19837981083E+03  0.25500000920E-02 0. -1.
    10030    2    1    2    0    0  0.00000000000E+00  0.00000000000E+00  0.60947633472E+03  0.10062359564E+04  0.80065560467E+03 0.  0.
        5    1    3    3  502    0  0.12870063055E+02  0.13073186789E+03 -0.17048488641E+03  0.21527574480E+03  0.46999998093E+01 0. -1.
       -5    1    3    3    0  502 -0.12870063055E+02 -0.13073186789E+03  0.77996122113E+03  0.79096021156E+03  0.46999998093E+01 0.  1.
</event>
<event>
 5   0  0.6672462E-04  0.8001738E+03  0.7818609E-02  0.9559766E-01
        2   -1    0    0  501    0  0.00000000000E+00  0.00000000000E+00  0.10820211552E+04  0.10820211552E+04  0.25500000920E-02 0. -1.
       -2   -1    0    0    0  501  0.00000000000E+00  0.00000000000E+00 -0.14793568923E+03  0.14793568925E+03  0.25500000920E-02 0.  1.
    10030    2    1    2    0    0  0.00000000000E+00  0.00000000000E+00  0.93408546593E+03  0.12299568444E+04  0.80017384453E+03 0.  0.
        5    1    3    3  502    0  0.29485022710E+02  0.76895998265E+02 -0.13472258006E+03  0.15797032851E+03  0.46999998093E+01 0.  1.
       -5    1    3    3    0  502 -0.29485022710E+02 -0.76895998265E+02  0.10688080460E+04  0.10719865159E+04  0.46999998093E+01 0. -1.
</event>
<event>
 5   0  0.4104786E-04  0.7998585E+03  0.7818609E-02  0.9560222E-01
        1   -1    0    0  501    0  0.00000000000E+00  0.00000000000E+00  0.50524808798E+03  0.50524808801E+03  0.50400001928E-02 0. -1.
       -1   -1    0    0    0  501  0.00000000000E+00  0.00000000000E+00 -0.31656410680E+03  0.31656410684E+03  0.50400001928E-02 0.  1.
    10030    2    1    2    0    0  0.00000000000E+00  0.00000000000E+00  0.18868398118E+03  0.82181219484E+03  0.79985851176E+03 0.  0.
        2    1    3    3  502    0 -0.10007910532E+03 -0.15064943803E+03 -0.27214465127E+03  0.32676259229E+03  0.25500000920E-02 0.  1.
       -2    1    3    3    0  502  0.10007910532E+03  0.15064943803E+03  0.46082863245E+03  0.49504960256E+03  0.25500000920E-02 0. -1.
</event>
<event>
 5   0  0.4104786E-04  0.8000572E+03  0.7818609E-02  0.9559934E-01
       -1   -1    0    0    0  501  0.00000000000E+00  0.00000000000E+00  0.43266257465E+03  0.43266257468E+03  0.50400001928E-02 0.  1.
        1   -1    0    0  501    0  0.00000000000E+00  0.00000000000E+00 -0.36985605962E+03  0.36985605965E+03  0.50400001928E-02 0. -1.
    10030    2    1    2    0    0  0.00000000000E+00  0.00000000000E+00  0.62806515029E+02  0.80251863433E+03  0.80005718553E+03 0.  0.
        2    1    3    3  502    0  0.14115977607E+03  0.14685217200E+03  0.37674612834E+03  0.42828645557E+03  0.25500000920E-02 0.  1.
       -2    1    3    3    0  502 -0.14115977607E+03 -0.14685217200E+03 -0.31393961331E+03  0.37423217875E+03  0.25500000920E-02 0. -1.
</event>
<event>
 5   0  0.2736375E-04  0.8002249E+03  0.7818609E-02  0.9559692E-01
       -3   -1    0    0    0  501  0.00000000000E+00  0.00000000000E+00  0.26658825132E+03  0.26658827045E+03  0.10100000352E+00 0. -1.
        3   -1    0    0  501    0  0.00000000000E+00  0.00000000000E+00 -0.60051391438E+03  0.60051392288E+03  0.10100000352E+00 0.  1.
    10030    2    1    2    0    0  0.00000000000E+00  0.00000000000E+00 -0.33392566307E+03  0.86710219333E+03  0.80022488415E+03 0.  0.
        4    1    3    3  502    0 -0.13793218857E+02 -0.34947189538E+03 -0.37754292877E+03  0.51464661128E+03  0.12699999809E+01 0.  1.
       -4    1    3    3    0  502  0.13793218857E+02  0.34947189538E+03  0.43617265698E+02  0.35245558204E+03  0.12699999809E+01 0. -1.
</event>
<event>
 5   0  0.4087283E-04  0.7996822E+03  0.7818609E-02  0.9560477E-01
       -1   -1    0    0    0  501  0.00000000000E+00  0.00000000000E+00  0.72341172964E+02  0.72341173139E+02  0.50400001928E-02 0. -1.
        1   -1    0    0  501    0  0.00000000000E+00  0.00000000000E+00 -0.22099850204E+04  0.22099850204E+04  0.50400001928E-02 0.  1.
    10030    2    1    2    0    0  0.00000000000E+00  0.00000000000E+00 -0.21376438475E+04  0.22823261936E+04  0.79968220892E+03 0.  0.
        1    1    3    3  502    0  0.28926352060E+03  0.22021161813E+03 -0.59376015964E+03  0.69621668201E+03  0.50400001928E-02 0. -1.
       -1    1    3    3    0  502 -0.28926352060E+03 -0.22021161813E+03 -0.15438836878E+04  0.15861095116E+04  0.50400001928E-02 0.  1.
</event>
<event>
 5   0  0.6672462E-04  0.7996817E+03  0.7818609E-02  0.9560478E-01
        2   -1    0    0  501    0  0.00000000000E+00  0.00000000000E+00  0.91832486968E+03  0.91832486968E+03  0.25500000920E-02 0.  1.
       -2   -1    0    0    0  501  0.00000000000E+00  0.00000000000E+00 -0.17409168351E+03  0.17409168352E+03  0.25500000920E-02 0. -1.
    10030    2    1    2    0    0  0.00000000000E+00  0.00000000000E+00  0.74423318618E+03  0.10924165532E+04  0.79968174314E+03 0.  0.
        5    1    3    3  502    0 -0.20222052393E+03  0.12107685285E+03  0.81328951457E+03  0.84676718707E+03  0.46999998093E+01 0.  1.
       -5    1    3    3    0  502  0.20222052393E+03 -0.12107685285E+03 -0.69056328395E+02  0.24564936614E+03  0.46999998093E+01 0. -1.
</event>
<event>
 5   0  0.6801147E-04  0.7992483E+03  0.7818609E-02  0.9561106E-01
        2   -1    0    0  501    0  0.00000000000E+00  0.00000000000E+00  0.24467302183E+03  0.24467302185E+03  0.25500000920E-02 0.  1.
       -2   -1    0    0    0  501  0.00000000000E+00  0.00000000000E+00 -0.65270559108E+03  0.65270559109E+03  0.25500000920E-02 0. -1.
    10030    2    1    2    0    0  0.00000000000E+00  0.00000000000E+00 -0.40803256925E+03  0.89737861293E+03  0.79924827018E+03 0.  0.
        4    1    3    3  502    0  0.11286778486E+03 -0.74442228059E+02  0.21820964752E+03  0.25670575636E+03  0.12699999809E+01 0.  1.
       -4    1    3    3    0  502 -0.11286778486E+03  0.74442228059E+02 -0.62624221677E+03  0.64067285657E+03  0.12699999809E+01 0. -1.
</event>
<event>
 5   0  0.6593118E-04  0.8005001E+03  0.7818609E-02  0.9559294E-01
        2   -1    0    0  501    0  0.00000000000E+00  0.00000000000E+00  0.20240044297E+03  0.20240044299E+03  0.25500000920E-02 0. -1.
       -2   -1    0    0    0  501  0.00000000000E+00  0.00000000000E+00 -0.79150071375E+03  0.79150071376E+03  0.25500000920E-02 0.  1.
    10030    2    1    2    0    0  0.00000000000E+00  0.00000000000E+00 -0.58910027078E+03  0.99390115674E+03  0.80050008141E+03 0.  0.
        1    1    3    3  502    0  0.17208565352E+03 -0.55070130460E+02 -0.73798383261E+03  0.75978044765E+03  0.50400001928E-02 0.  1.
       -1    1    3    3    0  502 -0.17208565352E+03  0.55070130460E+02  0.14888356183E+03  0.23412070909E+03  0.50400001928E-02 0. -1.
</event>
<event>
 5   0  0.6593118E-04  0.8002759E+03  0.7818609E-02  0.9559618E-01
       -2   -1    0    0    0  501  0.00000000000E+00  0.00000000000E+00  0.18194273269E+03  0.18194273271E+03  0.25500000920E-02 0.  1.
        2   -1    0    0  501    0  0.00000000000E+00  0.00000000000E+00 -0.88000420447E+03  0.88000420447E+03  0.25500000920E-02 0. -1.
    10030    2    1    2    0    0  0.00000000000E+00  0.00000000000E+00 -0.69806147177E+03  0.10619469372E+04  0.80027587682E+03 0.  0.
        1    1    3    3  502    0  0.13931288750E+03  0.30264783348E+03 -0.54972785108E+02  0.33767706298E+03  0.50400001928E-02 0.  1.
       -1    1    3    3    0  502 -0.13931288750E+03 -0.30264783348E+03 -0.64308868666E+03  0.72426987420E+03  0.50400001928E-02 0. -1.
</event>
<event>
 5   0  0.4104786E-04  0.7997331E+03  0.7818609E-02  0.9560404E-01
       -1   -1    0    0    0  501  0.00000000000E+00  0.00000000000E+00  0.23640598260E+03  0.23640598266E+03  0.50400001928E-02 0. -1.
        1   -1    0    0  501    0  0.00000000000E+00  0.00000000000E+00 -0.67635025940E+03  0.67635025942E+03  0.50400001928E-02 0.  1.
    10030    2    1    2    0    0  0.00000000000E+00  0.00000000000E+00 -0.43994427679E+03  0.91275624207E+03  0.79973307469E+03 0.  0.
        2    1    3    3  502    0  0.52577145454E+02  0.91846052168E+02 -0.66007612190E+03  0.66850620060E+03  0.25500000920E-02 0.  1.
       -2    1    3    3    0  502 -0.52577145454E+02 -0.91846052168E+02  0.22013184511E+03  0.24425004147E+03  0.25500000920E-02 0. -1.
</event>
<event>
 5   0  0.4392552E-04  0.7999407E+03  0.7818609E-02  0.9560103E-01
       -1   -1    0    0    0  501  0.00000000000E+00  0.00000000000E+00  0.62595932239E+03  0.62595932241E+03  0.50400001928E-02 0. -1.
        1   -1    0    0  501    0  0.00000000000E+00  0.00000000000E+00 -0.25556979770E+03  0.25556979775E+03  0.50400001928E-02 0.  1.
    10030    2    1    2    0    0  0.00000000000E+00  0.00000000000E+00  0.37038952469E+03  0.88152912016E+03  0.79994074136E+03 0.  0.
        5    1    3    3  502    0 -0.18198123140E+03 -0.31903470867E+03  0.35962286652E+03  0.51405350893E+03  0.46999998093E+01 0. -1.
       -5    1    3    3    0  502  0.18198123140E+03  0.31903470867E+03  0.10766658174E+02  0.36747561123E+03  0.46999998093E+01 0.  1.
</event>
<event>
 5   0  0.6672462E-04  0.8000017E+03  0.7818609E-02  0.9560015E-01
        2   -1    0    0  501    0  0.00000000000E+00  0.00000000000E+00  0.12499898684E+04  0.12499898684E+04  0.25500000920E-02 0.  1.
       -2   -1    0    0    0  501  0.00000000000E+00  0.00000000000E+00 -0.12800157800E+03  0.12800157802E+03  0.25500000920E-02 0. -1.
    10030    2    1    2    0    0  0.00000000000E+00  0.00000000000E+00  0.11219882904E+04  0.13779914464E+04  0.80000168912E+03 0.  0.
        5    1    3    3  502    0  0.18863320243E+03  0.19806796098E+03  0.10636684209E+04  0.10982832066E+04  0.46999998093E+01 0.  1.
       -5    1    3    3    0  502 -0.18863320243E+03 -0.19806796098E+03  0.58319869419E+02  0.27970823977E+03  0.46999998093E+01 0. -1.
</event>
<event>
 5   0  0.4169155E-04  0.8000379E+03  0.7818609E-02  0.9559962E-01
        1   -1    0    0  501    0  0.00000000000E+00  0.00000000000E+00  0.60060089766E+03  0.60060089768E+03  0.50400001928E-02 0.  1.
       -1   -1    0    0    0  501  0.00000000000E+00  0.00000000000E+00 -0.26642507911E+03  0.26642507916E+03  0.50400001928E-02 0. -1.
    10030    2    1    2    0    0  0.00000000000E+00  0.00000000000E+00  0.33417581854E+03  0.86702597684E+03  0.80003785337E+03 0.  0.
        4    1    3    3  502    0  0.87249036989E+02 -0.10648352615E+02  0.59000384928E+03  0.59651650181E+03  0.12699999809E+01 0.  1.
       -4    1    3    3    0  502 -0.87249036989E+02  0.10648352615E+02 -0.25582803074E+03  0.27050947503E+03  0.12699999809E+01 0. -1.
</event>
<event>
 5   0  0.7133039E-04  0.8003450E+03  0.7818609E-02  0.9559518E-01
       -2   -1    0    0    0  501  0.00000000000E+00  0.00000000000E+00  0.16093970280E+03  0.16093970282E+03  0.25500000920E-02 0.  1.
        2   -1    0    0  501    0  0.00000000000E+00  0.00000000000E+00 -0.99501880919E+03  0.99501880919E+03  0.25500000920E-02 0. -1.
    10030    2    1    2    0    0  0.00000000000E+00  0.00000000000E+00 -0.83407910639E+03  0.11559585120E+04  0.80034500421E+03 0.  0.
        2    1    3    3  502    0 -0.11880459907E+03 -0.22700932792E+03  0.26935470842E+02  0.25763013667E+03  0.25500000920E-02 0.  1.
       -2    1    3    3    0  502  0.11880459907E+03  0.22700932792E+03 -0.86101457724E+03  0.89832837534E+03  0.25500000920E-02 0. -1.
</event>
<event>
 5   0  0.4087283E-04  0.7971471E+03  0.7818609E-02  0.9564156E-01
       -1   -1    0    0    0  501  0.00000000000E+00  0.00000000000E+00  0.22604110773E+03  0.22604110779E+03  0.50400001928E-02 0. -1.
        1   -1    0    0  501    0  0.00000000000E+00  0.00000000000E+00 -0.70279632390E+03  0.70279632391E+03  0.50400001928E-02 0.  1.
    10030    2    1    2    0    0  0.00000000000E+00  0.00000000000E+00 -0.47675521616E+03  0.92883743170E+03  0.79714706196E+03 0.  0.
        1    1    3    3  502    0 -0.10738505761E+03 -0.35919756837E+02 -0.68366028866E+03  0.69297414804E+03  0.50400001928E-02 0.  1.
       -1    1    3    3    0  502  0.10738505761E+03  0.35919756837E+02  0.20690507250E+03  0.23586328366E+03  0.50400001928E-02 0. -1.
</event>
<event>
 5   0  0.6970013E-04  0.8000709E+03  0.7818609E-02  0.9559914E-01
       -2   -1    0    0    0  501  0.00000000000E+00  0.00000000000E+00  0.75229785773E+03  0.75229785773E+03  0.25500000920E-02 0.  1.
        2   -1    0    0  501    0  0.00000000000E+00  0.00000000000E+00 -0.21271941610E+03  0.21271941611E+03  0.25500000920E-02 0. -1.
    10030    2    1    2    0    0  0.00000000000E+00  0.00000000000E+00  0.53957844163E+03  0.96501727385E+03  0.80007089945E+03 0.  0.
        3    1    3    3  502    0 -0.18927651557E+03 -0.97081271881E+02 -0.13884609573E+03  0.25402484366E+03  0.10100000352E+00 0. -1.
       -3    1    3    3    0  502  0.18927651557E+03  0.97081271881E+02  0.67842453736E+03  0.71099243019E+03  0.10100000352E+00 0.  1.
</event>
<event>
 5   0  0.6672462E-04  0.7997725E+03  0.7818609E-02  0.9560347E-01
       -2   -1    0    0    0  501  0.00000000000E+00  0.00000000000E+00  0.31967613055E+03  0.31967613056E+03  0.25500000920E-02 0. -1.
        2   -1    0    0  501    0  0.00000000000E+00  0.00000000000E+00 -0.50022188076E+03  0.50022188076E+03  0.25500000920E-02 0.  1.
    10030    2    1    2    0    0  0.00000000000E+00  0.00000000000E+00 -0.18054575020E+03  0.81989801133E+03  0.79977245580E+03 0.  0.
        5    1    3    3  502    0  0.34971977985E+03 -0.12503138256E+02  0.10805505617E+03  0.36627617728E+03  0.46999998093E+01 0. -1.
       -5    1    3    3    0  502 -0.34971977985E+03  0.12503138256E+02 -0.28860080637E+03  0.45362183404E+03  0.46999998093E+01 0.  1.
</event>
<event>
 5   0  0.4087283E-04  0.7998586E+03  0.7818609E-02  0.9560222E-01
       -1   -1    0    0    0  501  0.00000000000E+00  0.00000000000E+00  0.12992506804E+03  0.12992506814E+03  0.50400001928E-02 0. -1.
        1   -1    0    0  501    0  0.00000000000E+00  0.00000000000E+00 -0.12310437978E+04  0.12310437978E+04  0.50400001928E-02 0.  1.
    10030    2    1    2    0    0  0.00000000000E+00  0.00000000000E+00 -0.11011187298E+04  0.13609688660E+04  0.79985861067E+03 0.  0.
        1    1    3    3  502    0 -0.10848944409E+03 -0.16143477237E+03 -0.11451453641E+04  0.11615459742E+04  0.50400001928E-02 0.  1.
       -1    1    3    3    0  502  0.10848944409E+03  0.16143477237E+03  0.44026634326E+02  0.19942289178E+03  0.50400001928E-02 0. -1.
</event>
<event>
 5   0  0.4169155E-04  0.8000181E+03  0.7818609E-02  0.9559991E-01
        1   -1    0    0  501    0  0.00000000000E+00  0.00000000000E+00  0.16039950989E+03  0.16039950997E+03  0.50400001928E-02 0. -1.
       -1   -1    0    0    0  501  0.00000000000E+00  0.00000000000E+00 -0.99755447768E+03  0.99755447769E+03  0.50400001928E-02 0.  1.
    10030    2    1    2    0    0  0.00000000000E+00  0.00000000000E+00 -0.83715496779E+03  0.11579539877E+04  0.80001812319E+03 0.  0.
        4    1    3    3  502    0  0.20270917397E+02  0.87870654442E+02 -0.98264675540E+03  0.98677678367E+03  0.12699999809E+01 0.  1.
       -4    1    3    3    0  502 -0.20270917397E+02 -0.87870654442E+02  0.14549178761E+03  0.17117720399E+03  0.12699999809E+01 0. -1.
</event>
<event>
 5   0  0.4392552E-04  0.7999700E+03  0.7818609E-02  0.9560060E-01
       -1   -1    0    0    0  501  0.00000000000E+00  0.00000000000E+00  0.30439832886E+03  0.30439832890E+03  0.50400001928E-02 0.  1.
        1   -1    0    0  501    0  0.00000000000E+00  0.00000000000E+00 -0.52558770000E+03  0.52558770003E+03  0.50400001928E-02 0. -1.
    10030    2    1    2    0    0  0.00000000000E+00  0.00000000000E+00 -0.22118937114E+03  0.82998602893E+03  0.79997004338E+03 0.  0.
        5    1    3    3  502    0 -0.31477527058E+03  0.22599448797E+03 -0.21335094212E+03  0.44237732092E+03  0.46999998093E+01 0. -1.
       -5    1    3    3    0  502  0.31477527058E+03 -0.22599448797E+03 -0.78384290168E+01  0.38760870801E+03  0.46999998093E+01 0.  1.
</event>
<event>
 5   0  0.4392552E-04  0.8009283E+03  0.7818609E-02  0.9558674E-01
        1   -1    0    0  501    0  0.00000000000E+00  0.00000000000E+00  0.40520449290E+03  0.40520449293E+03  0.50400001928E-02 0.  1.
       -1   -1    0    0    0  501  0.00000000000E+00  0.00000000000E+00 -0.39577929878E+03  0.39577929881E+03  0.50400001928E-02 0. -1.
    10030    2    1    2    0    0  0.00000000000E+00  0.00000000000E+00  0.94251941171E+01  0.80098379175E+03  0.80092833659E+03 0.  0.
        5    1    3    3  502    0  0.10156255447E+03 -0.17500589836E+03  0.35029034365E+03  0.40455831691E+03  0.46999998093E+01 0.  1.
       -5    1    3    3    0  502 -0.10156255447E+03  0.17500589836E+03 -0.34086514953E+03  0.39642547483E+03  0.46999998093E+01 0. -1.
</event>
<event>
 5   0  0.6672462E-04  0.8000291E+03  0.7818609E-02  0.9559975E-01
       -2   -1    0    0    0  501  0.00000000000E+00  0.00000000000E+00  0.33562170365E+03  0.33562170366E+03  0.25500000920E-02 0. -1.
        2   -1    0    0  501    0  0.00000000000E+00  0.00000000000E+00 -0.47676186735E+03  0.47676186736E+03  0.25500000920E-02 0.  1.
    10030    2    1    2    0    0  0.00000000000E+00  0.00000000000E+00 -0.14114016371E+03  0.81238357102E+03  0.80002907487E+03 0.  0.
        5    1    3    3  502    0  0.29485695405E+03 -0.13502719004E+03 -0.30831503634E+03  0.44749661120E+03  0.46999998093E+01 0.  1.
       -5    1    3    3    0  502 -0.29485695405E+03  0.13502719004E+03  0.16717487264E+03  0.36488695981E+03  0.46999998093E+01 0. -1.
</event>
<event>
 5   0  0.6672462E-04  0.7999732E+03  0.7818609E-02  0.9560056E-01
       -2   -1    0    0    0  501  0.00000000000E+00  0.00000000000E+00  0.40754549037E+03  0.40754549038E+03  0.25500000920E-02 0.  1.
        2   -1    0    0  501    0  0.00000000000E+00  0.00000000000E+00 -0.39256792572E+03  0.39256792573E+03  0.25500000920E-02 0. -1.
    10030    2    1    2    0    0  0.00000000000E+00  0.00000000000E+00  0.14977564654E+02  0.80011341610E+03  0.79997321904E+03 0.  0.
        5    1    3    3  502    0 -0.16218124037E+03 -0.36544179209E+03 -0.33177242087E+01  0.39985441779E+03  0.46999998093E+01 0.  1.
       -5    1    3    3    0  502  0.16218124037E+03  0.36544179209E+03  0.18295288863E+02  0.40025899831E+03  0.46999998093E+01 0. -1.
</event>
<event>
 5   0  0.6970013E-04  0.7997114E+03  0.7818609E-02  0.9560435E-01
       -2   -1    0    0    0  501  0.00000000000E+00  0.00000000000E+00  0.70419577672E+03  0.70419577673E+03  0.25500000920E-02 0.  1.
        2   -1    0    0  501    0  0.00000000000E+00  0.00000000000E+00 -0.22704562220E+03  0.22704562222E+03  0.25500000920E-02 0. -1.
    10030    2    1    2    0    0  0.00000000000E+00  0.00000000000E+00  0.47715015452E+03  0.93124139894E+03  0.79971136865E+03 0.  0.
        3    1    3    3  502    0  0.96510264239E+01  0.18728102317E+03 -0.17266197745E+03  0.25491075421E+03  0.10100000352E+00 0. -1.
       -3    1    3    3    0  502 -0.96510264239E+01 -0.18728102317E+03  0.64981213197E+03  0.67633064474E+03  0.10100000352E+00 0.  1.
</event>
<event>
 5   0  0.6672462E-04  0.8000695E+03  0.7818609E-02  0.9559917E-01
       -2   -1    0    0    0  501  0.00000000000E+00  0.00000000000E+00  0.36312019801E+03  0.36312019802E+03  0.25500000920E-02 0. -1.
        2   -1    0    0  501    0  0.00000000000E+00  0.00000000000E+00 -0.44070200190E+03  0.44070200191E+03  0.25500000920E-02 0.  1.
    10030    2    1    2    0    0  0.00000000000E+00  0.00000000000E+00 -0.77581803892E+02  0.80382219992E+03  0.80006949248E+03 0.  0.
        5    1    3    3  502    0  0.13891306857E+03  0.31832068606E+03 -0.23816769184E+03  0.42115417513E+03  0.46999998093E+01 0.  1.
       -5    1    3    3    0  502 -0.13891306857E+03 -0.31832068606E+03  0.16058588795E+03  0.38266802479E+03  0.46999998093E+01 0. -1.
</event>
<event>
 5   0  0.4104786E-04  0.7996777E+03  0.7818609E-02  0.9560484E-01
       -1   -1    0    0    0  501  0.00000000000E+00  0.00000000000E+00  0.44608684215E+03  0.44608684218E+03  0.50400001928E-02 0. -1.
        1   -1    0    0  501    0  0.00000000000E+00  0.00000000000E+00 -0.35838562307E+03  0.35838562310E+03  0.50400001928E-02 0.  1.
    10030    2    1    2    0    0  0.00000000000E+00  0.00000000000E+00  0.87701219089E+02  0.80447246528E+03  0.79967771231E+03 0.  0.
        2    1    3    3  502    0 -0.18141243280E+03 -0.20039329104E+03  0.34024090686E+03  0.43454783002E+03  0.25500000920E-02 0. -1.
       -2    1    3    3    0  502  0.18141243280E+03  0.20039329104E+03 -0.25253968777E+03  0.36992463526E+03  0.25500000920E-02 0.  1.
</event>
<event>
 5   0  0.6970013E-04  0.7990474E+03  0.7818609E-02  0.9561397E-01
       -2   -1    0    0    0  501  0.00000000000E+00  0.00000000000E+00  0.69263530433E+02  0.69263530480E+02  0.25500000920E-02 0.  1.
        2   -1    0    0  501    0  0.00000000000E+00  0.00000000000E+00 -0.23045201770E+04  0.23045201770E+04  0.25500000920E-02 0. -1.
    10030    2    1    2    0    0  0.00000000000E+00  0.00000000000E+00 -0.22352566465E+04  0.23737837074E+04  0.79904744156E+03 0.  0.
        3    1    3    3  502    0  0.25145403972E+03  0.70343906241E+02 -0.20159687591E+04  0.20328077743E+04  0.10100000352E+00 0. -1.
       -3    1    3    3    0  502 -0.25145403972E+03 -0.70343906241E+02 -0.21928788744E+03  0.34097593319E+03  0.10100000352E+00 0.  1.
</event>
<event>
 5   0  0.6801147E-04  0.7999734E+03  0.7818609E-02  0.9560056E-01
        2   -1    0    0  501    0  0.00000000000E+00  0.00000000000E+00  0.32469054077E+03  0.32469054078E+03  0.25500000920E-02 0.  1.
       -2   -1    0    0    0  501  0.00000000000E+00  0.00000000000E+00 -0.49274417845E+03  0.49274417846E+03  0.25500000920E-02 0. -1.
    10030    2    1    2    0    0  0.00000000000E+00  0.00000000000E+00 -0.16805363768E+03  0.81743471924E+03  0.79997343399E+03 0.  0.
        4    1    3    3  502    0 -0.19496087917E+03 -0.11734223338E+03 -0.42015802882E+03  0.47782143759E+03  0.12699999809E+01 0. -1.
       -4    1    3    3    0  502  0.19496087917E+03  0.11734223338E+03  0.25210439114E+03  0.33961328165E+03  0.12699999809E+01 0.  1.
</event>
<event>
 5   0  0.6970013E-04  0.7997375E+03  0.7818609E-02  0.9560397E-01
        2   -1    0    0  501    0  0.00000000000E+00  0.00000000000E+00  0.95939827854E+03  0.95939827854E+03  0.25500000920E-02 0.  1.
       -2   -1    0    0    0  501  0.00000000000E+00  0.00000000000E+00 -0.16666179199E+03  0.16666179200E+03  0.25500000920E-02 0. -1.
    10030    2    1    2    0    0  0.00000000000E+00  0.00000000000E+00  0.79273648655E+03  0.11260600705E+04  0.79973754780E+03 0.  0.
        3    1    3    3  502    0  0.53711635011E+02 -0.25122174265E+03  0.82782929852E+03  0.86677486201E+03  0.10100000352E+00 0.  1.
       -3    1    3    3    0  502 -0.53711635011E+02  0.25122174265E+03 -0.35092811966E+02  0.25928520854E+03  0.10100000352E+00 0. -1.
</event>
<event>
 5   0  0.2736375E-04  0.8000359E+03  0.7818609E-02  0.9559965E-01
        4   -1    0    0  501    0  0.00000000000E+00  0.00000000000E+00  0.57205775580E+03  0.57205916554E+03  0.12699999809E+01 0.  1.
       -4   -1    0    0    0  501  0.00000000000E+00  0.00000000000E+00 -0.27971396236E+03  0.27971684547E+03  0.12699999809E+01 0. -1.
    10030    2    1    2    0    0  0.00000000000E+00  0.00000000000E+00  0.29234379344E+03  0.85177601101E+03  0.80003592379E+03 0.  0.
        3    1    3    3  502    0 -0.16343102663E+03  0.17732593980E+03 -0.19362398821E+03  0.30926436653E+03  0.10100000352E+00 0. -1.
       -3    1    3    3    0  502  0.16343102663E+03 -0.17732593980E+03  0.48596778165E+03  0.54251164448E+03  0.10100000352E+00 0.  1.
</event>
<event>
 5   0  0.7133039E-04  0.8000226E+03  0.7818609E-02  0.9559984E-01
       -2   -1    0    0    0  501  0.00000000000E+00  0.00000000000E+00  0.22175550721E+03  0.22175550722E+03  0.25500000920E-02 0. -1.
        2   -1    0    0  501    0  0.00000000000E+00  0.00000000000E+00 -0.72155617191E+03  0.72155617191E+03  0.25500000920E-02 0.  1.
    10030    2    1    2    0    0  0.00000000000E+00  0.00000000000E+00 -0.49980066470E+03  0.94331167914E+03  0.80002263691E+03 0.  0.
        2    1    3    3  502    0 -0.50051919987E+02 -0.11216979338E+03 -0.69876951741E+03  0.70948297774E+03  0.25500000920E-02 0.  1.
       -2    1    3    3    0  502  0.50051919987E+02  0.11216979338E+03  0.19896885271E+03  0.23382870140E+03  0.25500000920E-02 0. -1.
</event>
<event>
 5   0  0.4104786E-04  0.7998030E+03  0.7818609E-02  0.9560302E-01
        1   -1    0    0  501    0  0.00000000000E+00  0.00000000000E+00  0.33683819403E+03  0.33683819407E+03  0.50400001928E-02 0.  1.
       -1   -1    0    0    0  501  0.00000000000E+00  0.00000000000E+00 -0.47477163976E+03  0.47477163979E+03  0.50400001928E-02 0. -1.
    10030    2    1    2    0    0  0.00000000000E+00  0.00000000000E+00 -0.13793344573E+03  0.81160983386E+03  0.79980303010E+03 0.  0.
        2    1    3    3  502    0  0.35252631569E+03 -0.70508852057E+02 -0.24669477314E+03  0.43600987669E+03  0.25500000920E-02 0. -1.
       -2    1    3    3    0  502 -0.35252631569E+03  0.70508852057E+02  0.10876132741E+03  0.37559995716E+03  0.25500000920E-02 0.  1.
</event>
<event>
 5   0  0.4104786E-04  0.8007606E+03  0.7818609E-02  0.9558917E-01
       -1   -1    0    0    0  501  0.00000000000E+00  0.00000000000E+00  0.12916771689E+03  0.12916771698E+03  0.50400001928E-02 0. -1.
        1   -1    0    0  501    0  0.00000000000E+00  0.00000000000E+00 -0.12410561129E+04  0.12410561129E+04  0.50400001928E-02 0.  1.
    10030    2    1    2    0    0  0.00000000000E+00  0.00000000000E+00 -0.11118883961E+04  0.13702238299E+04  0.80076060021E+03 0.  0.
        2    1    3    3  502    0  0.32753815110E+03 -0.15571270555E+03 -0.26566942354E+03  0.44956415528E+03  0.25500000920E-02 0. -1.
       -2    1    3    3    0  502 -0.32753815110E+03  0.15571270555E+03 -0.84621897251E+03  0.92065967466E+03  0.25500000920E-02 0.  1.
</event>
<event>
 5   0  0.6801147E-04  0.8001093E+03  0.7818609E-02  0.9559859E-01
        2   -1    0    0  501    0  0.00000000000E+00  0.00000000000E+00  0.10897532126E+04  0.10897532126E+04  0.25500000920E-02 0. -1.
       -2   -1    0    0    0  501  0.00000000000E+00  0.00000000000E+00 -0.14686235139E+03  0.14686235141E+03  0.25500000920E-02 0.  1.
    10030    2    1    2    0    0  0.00000000000E+00  0.00000000000E+00  0.94289086125E+03  0.12366155640E+04  0.80010929067E+03 0.  0.
        4    1    3    3  502    0  0.25592204955E+03 -0.20970890751E+03  0.81900086059E+03  0.88331078556E+03  0.12699999809E+01 0. -1.
       -4    1    3    3    0  502 -0.25592204955E+03  0.20970890751E+03  0.12389000065E+03  0.35330477848E+03  0.12699999809E+01 0.  1.
</event>
<event>
 5   0  0.4086111E-04  0.8001304E+03  0.7818609E-02  0.9559828E-01
        1   -1    0    0  501    0  0.00000000000E+00  0.00000000000E+00  0.22129981208E+03  0.22129981213E+03  0.50400001928E-02 0.  1.
       -1   -1    0    0    0  501  0.00000000000E+00  0.00000000000E+00 -0.72323672677E+03  0.72323672678E+03  0.50400001928E-02 0. -1.
    10030    2    1    2    0    0  0.00000000000E+00  0.00000000000E+00 -0.50193691469E+03  0.94453653892E+03  0.80013036877E+03 0.  0.
        3    1    3    3  502    0 -0.31140658953E+02  0.84218478736E+02  0.20925104075E+03  0.22770265931E+03  0.10100000352E+00 0.  1.
       -3    1    3    3    0  502  0.31140658953E+02 -0.84218478736E+02 -0.71118795544E+03  0.71683387961E+03  0.10100000352E+00 0. -1.
</event>
<event>
 5   0  0.2736375E-04  0.7993809E+03  0.7818609E-02  0.9560914E-01
        4   -1    0    0  501    0  0.00000000000E+00  0.00000000000E+00  0.19843056108E+03  0.19843462518E+03  0.12699999809E+01 0.  1.
       -4   -1    0    0    0  501  0.00000000000E+00  0.00000000000E+00 -0.80506716230E+03  0.80506816402E+03  0.12699999809E+01 0. -1.
    10030    2    1    2    0    0  0.00000000000E+00  0.00000000000E+00 -0.60663660122E+03  0.10035027892E+04  0.79938093672E+03 0.  0.
        4    1    3    3  502    0 -0.17690785947E+03  0.24568901646E+03 -0.63089337310E+03  0.69977678203E+03  0.12699999809E+01 0. -1.
       -4    1    3    3    0  502  0.17690785947E+03 -0.24568901646E+03  0.24256771879E+02  0.30372600717E+03  0.12699999809E+01 0.  1.
</event>
<event>
 5   0  0.6593118E-04  0.8014103E+03  0.7818609E-02  0.9557978E-01
       -2   -1    0    0    0  501  0.00000000000E+00  0.00000000000E+00  0.56264785782E+03  0.56264785783E+03  0.25500000920E-02 0.  1.
        2   -1    0    0  501    0  0.00000000000E+00  0.00000000000E+00 -0.28537323011E+03  0.28537323012E+03  0.25500000920E-02 0. -1.
    10030    2    1    2    0    0  0.00000000000E+00  0.00000000000E+00  0.27727462771E+03  0.84802108794E+03  0.80141034834E+03 0.  0.
        1    1    3    3  502    0  0.16128966889E+03  0.56027697114E+02 -0.24495319923E+03  0.29858923285E+03  0.50400001928E-02 0. -1.
       -1    1    3    3    0  502 -0.16128966889E+03 -0.56027697114E+02  0.52222782695E+03  0.54943185510E+03  0.50400001928E-02 0.  1.
</event>
<event>
 5   0  0.6970013E-04  0.8005929E+03  0.7818609E-02  0.9559159E-01
        2   -1    0    0  501    0  0.00000000000E+00  0.00000000000E+00  0.77536092042E+03  0.77536092042E+03  0.25500000920E-02 0.  1.
       -2   -1    0    0    0  501  0.00000000000E+00  0.00000000000E+00 -0.20666151412E+03  0.20666151413E+03  0.25500000920E-02 0. -1.
    10030    2    1    2    0    0  0.00000000000E+00  0.00000000000E+00  0.56869940630E+03  0.98202243456E+03  0.80059293480E+03 0.  0.
        3    1    3    3  502    0 -0.11017179272E+02 -0.28570530039E+03  0.62799647532E+03  0.69002063746E+03  0.10100000352E+00 0.  1.
       -3    1    3    3    0  502  0.11017179272E+02  0.28570530039E+03 -0.59297069014E+02  0.29200179710E+03  0.10100000352E+00 0. -1.
</event>
<event>
 5   0  0.6801147E-04  0.8002161E+03  0.7818609E-02  0.9559704E-01
        2   -1    0    0  501    0  0.00000000000E+00  0.00000000000E+00  0.22087700059E+04  0.22087700059E+04  0.25500000920E-02 0.  1.
       -2   -1    0    0    0  501  0.00000000000E+00  0.00000000000E+00 -0.72477637752E+02  0.72477637797E+02  0.25500000920E-02 0. -1.
    10030    2    1    2    0    0  0.00000000000E+00  0.00000000000E+00  0.21362923681E+04  0.22812476437E+04  0.80021605186E+03 0.  0.
        4    1    3    3  502    0  0.11686979794E+03  0.17445002841E+03  0.97229595566E+02  0.23140131641E+03  0.12699999809E+01 0. -1.
       -4    1    3    3    0  502 -0.11686979794E+03 -0.17445002841E+03  0.20390627725E+04  0.20498463273E+04  0.12699999809E+01 0.  1.
</event>
<event>
 5   0  0.4087283E-04  0.8005969E+03  0.7818609E-02  0.9559153E-01
       -1   -1    0    0    0  501  0.00000000000E+00  0.00000000000E+00  0.11267755859E+04  0.11267755859E+04  0.50400001928E-02 0. -1.
        1   -1    0    0  501    0  0.00000000000E+00  0.00000000000E+00 -0.14221009762E+03  0.14221009771E+03  0.50400001928E-02 0.  1.
    10030    2    1    2    0    0  0.00000000000E+00  0.00000000000E+00  0.98456548825E+03  0.12689856836E+04  0.80059694261E+03 0.  0.
        1    1    3    3  502    0 -0.38277195261E+03  0.57451888594E+02  0.65411138650E+03  0.76005052015E+03  0.50400001928E-02 0. -1.
       -1    1    3    3    0  502  0.38277195261E+03 -0.57451888594E+02  0.33045410175E+03  0.50893516345E+03  0.50400001928E-02 0.  1.
</event>
<event>
 5   0  0.6801147E-04  0.7997901E+03  0.7818609E-02  0.9560321E-01
        2   -1    0    0  501    0  0.00000000000E+00  0.00000000000E+00  0.10726470025E+04  0.10726470025E+04  0.25500000920E-02 0. -1.
       -2   -1    0    0    0  501  0.00000000000E+00  0.00000000000E+00 -0.14908543856E+03  0.14908543858E+03  0.25500000920E-02 0.  1.
    10030    2    1    2    0    0  0.00000000000E+00  0.00000000000E+00  0.92356156396E+03  0.12217324411E+04  0.79979009448E+03 0.  0.
        4    1    3    3  502    0  0.15765906183E+02 -0.31687492232E+03  0.83362995624E+03  0.89196345051E+03  0.12699999809E+01 0. -1.
       -4    1    3    3    0  502 -0.15765906183E+02  0.31687492232E+03  0.89931607720E+02  0.32976899060E+03  0.12699999809E+01 0.  1.
</event>
<event>
 5   0  0.4087283E-04  0.7998446E+03  0.7818609E-02  0.9560242E-01
       -1   -1    0    0    0  501  0.00000000000E+00  0.00000000000E+00  0.17053636325E+03  0.17053636333E+03  0.50400001928E-02 0. -1.
        1   -1    0    0  501    0  0.00000000000E+00  0.00000000000E+00 -0.93785187958E+03  0.93785187960E+03  0.50400001928E-02 0.  1.
    10030    2    1    2    0    0  0.00000000000E+00  0.00000000000E+00 -0.76731551633E+03  0.11083882429E+04  0.79984460707E+03 0.  0.
        1    1    3    3  502    0  0.88404568863E+01  0.13797068462E+03 -0.90368284654E+03  0.91419732588E+03  0.50400001928E-02 0.  1.
       -1    1    3    3    0  502 -0.88404568863E+01 -0.13797068462E+03  0.13636733020E+03  0.19419091705E+03  0.50400001928E-02 0. -1.
</event>
<event>
 5   0  0.6970013E-04  0.8008630E+03  0.7818609E-02  0.9558769E-01
        2   -1    0    0  501    0  0.00000000000E+00  0.00000000000E+00  0.22529874361E+03  0.22529874362E+03  0.25500000920E-02 0. -1.
       -2   -1    0    0    0  501  0.00000000000E+00  0.00000000000E+00 -0.71170126549E+03  0.71170126550E+03  0.25500000920E-02 0.  1.
    10030    2    1    2    0    0  0.00000000000E+00  0.00000000000E+00 -0.48640252188E+03  0.93700000912E+03  0.80086303685E+03 0.  0.
        3    1    3    3  502    0  0.36103657243E+03 -0.76867273948E+02 -0.61610230146E+02  0.37423497311E+03  0.10100000352E+00 0. -1.
       -3    1    3    3    0  502 -0.36103657243E+03  0.76867273948E+02 -0.42479229173E+03  0.56276503601E+03  0.10100000352E+00 0.  1.
</event>
<event>
 5   0  0.6970013E-04  0.7998667E+03  0.7818609E-02  0.9560210E-01
       -2   -1    0    0    0  501  0.00000000000E+00  0.00000000000E+00  0.15034039543E+03  0.15034039546E+03  0.25500000920E-02 0.  1.
        2   -1    0    0  501    0  0.00000000000E+00  0.00000000000E+00 -0.10638968479E+04  0.10638968479E+04  0.25500000920E-02 0. -1.
    10030    2    1    2    0    0  0.00000000000E+00  0.00000000000E+00 -0.91355645248E+03  0.12142372434E+04  0.79986667097E+03 0.  0.
        3    1    3    3  502    0  0.10185241966E+03  0.28652123025E+03 -0.85111576143E+03  0.90380660560E+03  0.10100000352E+00 0. -1.
       -3    1    3    3    0  502 -0.10185241966E+03 -0.28652123025E+03 -0.62440691057E+02  0.31043063778E+03  0.10100000352E+00 0.  1.
</event>
<event>
 5   0  0.4169155E-04  0.7997923E+03  0.7818609E-02  0.9560318E-01
       -1   -1    0    0    0  501  0.00000000000E+00  0.00000000000E+00  0.24861908493E+03  0.24861908498E+03  0.50400001928E-02 0.  1.
        1   -1    0    0  501    0  0.00000000000E+00  0.00000000000E+00 -0.64322064714E+03  0.64322064716E+03  0.50400001928E-02 0. -1.
    10030    2    1    2    0    0  0.00000000000E+00  0.00000000000E+00 -0.39460156221E+03  0.89183973214E+03  0.79979229486E+03 0.  0.
        4    1    3    3  502    0  0.32093776916E+03  0.18608367823E+03 -0.30830519247E+02  0.37226377852E+03  0.12699999809E+01 0.  1.
       -4    1    3    3    0  502 -0.32093776916E+03 -0.18608367823E+03 -0.36377104296E+03  0.51957595362E+03  0.12699999809E+01 0. -1.
</event>
<event>
 5   0  0.4087283E-04  0.7999552E+03  0.7818609E-02  0.9560082E-01
       -1   -1    0    0    0  501  0.00000000000E+00  0.00000000000E+00  0.14288308884E+03  0.14288308893E+03  0.50400001928E-02 0.  1.
        1   -1    0    0  501    0  0.00000000000E+00  0.00000000000E+00 -0.11196712404E+04  0.11196712404E+04  0.50400001928E-02 0. -1.
    10030    2    1    2    0    0  0.00000000000E+00  0.00000000000E+00 -0.97678815151E+03  0.12625543293E+04  0.79995521218E+03 0.  0.
        1    1    3    3  502    0  0.25515689631E+03  0.15145847680E+03 -0.91170715907E+03  0.95877768844E+03  0.50400001928E-02 0. -1.
       -1    1    3    3    0  502 -0.25515689631E+03 -0.15145847680E+03 -0.65080992444E+02  0.30377664086E+03  0.50400001928E-02 0.  1.
</event>
<event>
 5   0  0.6593118E-04  0.7998045E+03  0.7818609E-02  0.9560300E-01
        2   -1    0    0  501    0  0.00000000000E+00  0.00000000000E+00  0.92518616478E+03  0.92518616479E+03  0.25500000920E-02 0.  1.
       -2   -1    0    0    0  501  0.00000000000E+00  0.00000000000E+00 -0.17285367185E+03  0.17285367187E+03  0.25500000920E-02 0. -1.
    10030    2    1    2    0    0  0.00000000000E+00  0.00000000000E+00  0.75233249293E+03  0.10980398367E+04  0.79980454047E+03 0.  0.
        1    1    3    3  502    0 -0.24739409607E+03 -0.29496666045E+03  0.22758570781E+03  0.44721854162E+03  0.50400001928E-02 0. -1.
       -1    1    3    3    0  502  0.24739409607E+03  0.29496666045E+03  0.52474678512E+03  0.65082129503E+03  0.50400001928E-02 0.  1.
</event>
<event>
 5   0  0.4104786E-04  0.8003730E+03  0.7818609E-02  0.9559477E-01
       -1   -1    0    0    0  501  0.00000000000E+00  0.00000000000E+00  0.43816050599E+03  0.43816050602E+03  0.50400001928E-02 0.  1.
        1   -1    0    0  501    0  0.00000000000E+00  0.00000000000E+00 -0.36550357789E+03  0.36550357793E+03  0.50400001928E-02 0. -1.
    10030    2    1    2    0    0  0.00000000000E+00  0.00000000000E+00  0.72656928094E+02  0.80366408394E+03  0.80037299469E+03 0.  0.
        2    1    3    3  502    0  0.31731582473E+03 -0.10049977861E+03 -0.18675550611E+03  0.38166367026E+03  0.25500000920E-02 0. -1.
       -2    1    3    3    0  502 -0.31731582473E+03  0.10049977861E+03  0.25941243421E+03  0.42200041369E+03  0.25500000920E-02 0.  1.
</event>
<event>
 5   0  0.6672462E-04  0.7999524E+03  0.7818609E-02  0.9560086E-01
       -2   -1    0    0    0  501  0.00000000000E+00  0.00000000000E+00  0.36107082775E+03  0.36107082776E+03  0.25500000920E-02 0.  1.
        2   -1    0    0  501    0  0.00000000000E+00  0.00000000000E+00 -0.44307362354E+03  0.44307362355E+03  0.25500000920E-02 0. -1.
    10030    2    1    2    0    0  0.00000000000E+00  0.00000000000E+00 -0.82002795788E+02  0.80414445131E+03  0.79995239862E+03 0.  0.
        5    1    3    3  502    0  0.34687452238E+03 -0.19739337616E+03 -0.67075535002E+02  0.40473114115E+03  0.46999998093E+01 0.  1.
       -5    1    3    3    0  502 -0.34687452238E+03  0.19739337616E+03 -0.14927260786E+02  0.39941331016E+03  0.46999998093E+01 0. -1.
</event>
<event>
 5   0  0.4104786E-04  0.7995022E+03  0.7818609E-02  0.9560738E-01
       -1   -1    0    0    0  501  0.00000000000E+00  0.00000000000E+00  0.82955318290E+03  0.82955318292E+03  0.50400001928E-02 0.  1.
        1   -1    0    0  501    0  0.00000000000E+00  0.00000000000E+00 -0.19263497754E+03  0.19263497760E+03  0.50400001928E-02 0. -1.
    10030    2    1    2    0    0  0.00000000000E+00  0.00000000000E+00  0.63691820536E+03  0.10221881605E+04  0.79950224214E+03 0.  0.
        2    1    3    3  502    0 -0.82983887530E+02  0.68883693909E+02  0.81060154153E+03  0.81774454936E+03  0.25500000920E-02 0.  1.
       -2    1    3    3    0  502  0.82983887530E+02 -0.68883693909E+02 -0.17368333617E+03  0.20444361116E+03  0.25500000920E-02 0. -1.
</event>
<event>
 5   0  0.4392552E-04  0.7997318E+03  0.7818609E-02  0.9560405E-01
       -1   -1    0    0    0  501  0.00000000000E+00  0.00000000000E+00  0.73531611075E+03  0.73531611077E+03  0.50400001928E-02 0.  1.
        1   -1    0    0  501    0  0.00000000000E+00  0.00000000000E+00 -0.21744761942E+03  0.21744761948E+03  0.50400001928E-02 0. -1.
    10030    2    1    2    0    0  0.00000000000E+00  0.00000000000E+00  0.51786849133E+03  0.95276373024E+03  0.79973179964E+03 0.  0.
        5    1    3    3  502    0 -0.18786182955E+03 -0.31704834354E+02 -0.15986252231E+03  0.24874762222E+03  0.46999998093E+01 0. -1.
       -5    1    3    3    0  502  0.18786182955E+03  0.31704834354E+02  0.67773101363E+03  0.70401610803E+03  0.46999998093E+01 0.  1.
</event>
<event>
 5   0  0.4087283E-04  0.8000415E+03  0.7818609E-02  0.9559957E-01
        1   -1    0    0  501    0  0.00000000000E+00  0.00000000000E+00  0.31076568663E+03  0.31076568667E+03  0.50400001928E-02 0.  1.
       -1   -1    0    0    0  501  0.00000000000E+00  0.00000000000E+00 -0.51491082151E+03  0.51491082153E+03  0.50400001928E-02 0. -1.
    10030    2    1    2    0    0  0.00000000000E+00  0.00000000000E+00 -0.20414513488E+03  0.82567650821E+03  0.80004153649E+03 0.  0.
        1    1    3    3  502    0 -0.18860686196E+02 -0.39460075909E+03 -0.16694468541E+03  0.42887761957E+03  0.50400001928E-02 0. -1.
       -1    1    3    3    0  502  0.18860686196E+02  0.39460075909E+03 -0.37200449468E+02  0.39679888864E+03  0.50400001928E-02 0.  1.
</event>
<event>
 5   0  0.6672462E-04  0.7997875E+03  0.7818609E-02  0.9560325E-01
       -2   -1    0    0    0  501  0.00000000000E+00  0.00000000000E+00  0.87154898861E+03  0.87154898862E+03  0.25500000920E-02 0.  1.
        2   -1    0    0  501    0  0.00000000000E+00  0.00000000000E+00 -0.18348366967E+03  0.18348366968E+03  0.25500000920E-02 0. -1.
    10030    2    1    2    0    0  0.00000000000E+00  0.00000000000E+00  0.68806531895E+03  0.10550326583E+04  0.79978748861E+03 0.  0.
        5    1    3    3  502    0  0.39947191668E+03 -0.17335885173E+02  0.34906818693E+03  0.53080037138E+03  0.46999998093E+01 0.  1.
       -5    1    3    3    0  502 -0.39947191668E+03  0.17335885173E+02  0.33899713201E+03  0.52423228692E+03  0.46999998093E+01 0. -1.
</event>
<event>
 5   0  0.4104786E-04  0.8021525E+03  0.7818609E-02  0.9556907E-01
        1   -1    0    0  501    0  0.00000000000E+00  0.00000000000E+00  0.37018751313E+03  0.37018751317E+03  0.50400001928E-02 0.  1.
       -1   -1    0    0    0  501  0.00000000000E+00  0.00000000000E+00 -0.43454238271E+03  0.43454238274E+03  0.50400001928E-02 0. -1.
    10030    2    1    2    0    0  0.00000000000E+00  0.00000000000E+00 -0.64354869576E+02  0.80472989591E+03  0.80215251426E+03 0.  0.
        2    1    3    3  502    0  0.29250444386E+03  0.24677633206E+03 -0.15258288448E+03  0.41199386450E+03  0.25500000920E-02 0.  1.
       -2    1    3    3    0  502 -0.29250444386E+03 -0.24677633206E+03  0.88228014907E+02  0.39273603141E+03  0.25500000920E-02 0. -1.
</event>
<event>
 5   0  0.4086111E-04  0.7995740E+03  0.7818609E-02  0.9560634E-01
       -1   -1    0    0    0  501  0.00000000000E+00  0.00000000000E+00  0.15916684706E+03  0.15916684714E+03  0.50400001928E-02 0.  1.
        1   -1    0    0  501    0  0.00000000000E+00  0.00000000000E+00 -0.10041642712E+04  0.10041642713E+04  0.50400001928E-02 0. -1.
    10030    2    1    2    0    0  0.00000000000E+00  0.00000000000E+00 -0.84499742419E+03  0.11633311184E+04  0.79957403920E+03 0.  0.
        3    1    3    3  502    0 -0.17143682800E+03  0.66874568345E+02  0.93885323327E+02  0.20658474780E+03  0.10100000352E+00 0.  1.
       -3    1    3    3    0  502  0.17143682800E+03 -0.66874568345E+02 -0.93888274751E+03  0.95674637060E+03  0.10100000352E+00 0. -1.
</event>
<event>
 5   0  0.6970013E-04  0.7999820E+03  0.7818609E-02  0.9560043E-01
        2   -1    0    0  501    0  0.00000000000E+00  0.00000000000E+00  0.24212656300E+04  0.24212656301E+04  0.25500000920E-02 0.  1.
       -2   -1    0    0    0  501  0.00000000000E+00  0.00000000000E+00 -0.66078165037E+02  0.66078165086E+02  0.25500000920E-02 0. -1.
    10030    2    1    2    0    0  0.00000000000E+00  0.00000000000E+00  0.23551874650E+04  0.24873437951E+04  0.79998197471E+03 0.  0.
        3    1    3    3  502    0 -0.14039276883E+03 -0.37425657996E+03  0.12231484950E+04  0.12868062668E+04  0.10100000352E+00 0. -1.
       -3    1    3    3    0  502  0.14039276883E+03  0.37425657996E+03  0.11320389700E+04  0.12005375283E+04  0.10100000352E+00 0.  1.
</event>
<event>
 5   0  0.6672462E-04  0.7997928E+03  0.7818609E-02  0.9560317E-01
       -2   -1    0    0    0  501  0.00000000000E+00  0.00000000000E+00  0.20294149739E+03  0.20294149741E+03  0.25500000920E-02 0. -1.
        2   -1    0    0  501    0  0.00000000000E+00  0.00000000000E+00 -0.78799617675E+03  0.78799617676E+03  0.25500000920E-02 0.  1.
    10030    2    1    2    0    0  0.00000000000E+00  0.00000000000E+00 -0.58505467936E+03  0.99093767417E+03  0.79979278332E+03 0.  0.
        5    1    3    3  502    0 -0.71309906485E+02  0.38753669092E+03 -0.37679020171E+03  0.54521806250E+03  0.46999998093E+01 0. -1.
       -5    1    3    3    0  502  0.71309906485E+02 -0.38753669092E+03 -0.20826447765E+03  0.44571961167E+03  0.46999998093E+01 0.  1.
</event>
<event>
 5   0  0.6593118E-04  0.7999405E+03  0.7818609E-02  0.9560103E-01
        2   -1    0    0  501    0  0.00000000000E+00  0.00000000000E+00  0.13907794936E+03  0.13907794938E+03  0.25500000920E-02 0. -1.
       -2   -1    0    0    0  501  0.00000000000E+00  0.00000000000E+00 -0.11502628062E+04  0.11502628062E+04  0.25500000920E-02 0.  1.
    10030    2    1    2    0    0  0.00000000000E+00  0.00000000000E+00 -0.10111848568E+04  0.12893407556E+04  0.79994047859E+03 0.  0.
        1    1    3    3  502    0 -0.22145826617E+03  0.30601233737E+03 -0.71752291844E+03  0.81088004834E+03  0.50400001928E-02 0. -1.
       -1    1    3    3    0  502  0.22145826617E+03 -0.30601233737E+03 -0.29366193838E+03  0.47846070723E+03  0.50400001928E-02 0.  1.
</event>
<event>
 5   0  0.4169155E-04  0.7998316E+03  0.7818609E-02  0.9560261E-01
       -1   -1    0    0    0  501  0.00000000000E+00  0.00000000000E+00  0.67067147376E+03  0.67067147378E+03  0.50400001928E-02 0. -1.
        1   -1    0    0  501    0  0.00000000000E+00  0.00000000000E+00 -0.23846642282E+03  0.23846642287E+03  0.50400001928E-02 0.  1.
    10030    2    1    2    0    0  0.00000000000E+00  0.00000000000E+00  0.43220505094E+03  0.90913789665E+03  0.79983155043E+03 0.  0.
        4    1    3    3  502    0  0.22688463348E+03  0.32012494546E+03  0.30395990789E+03  0.49633643440E+03  0.12699999809E+01 0. -1.
       -4    1    3    3    0  502 -0.22688463348E+03 -0.32012494546E+03  0.12824514306E+03  0.41280146225E+03  0.12699999809E+01 0.  1.
</event>
<event>
 5   0  0.4086111E-04  0.8002758E+03  0.7818609E-02  0.9559618E-01
       -1   -1    0    0    0  501  0.00000000000E+00  0.00000000000E+00  0.10916891449E+03  0.10916891461E+03  0.50400001928E-02 0.  1.
        1   -1    0    0  501    0  0.00000000000E+00  0.00000000000E+00 -0.14666293730E+04  0.14666293730E+04  0.50400001928E-02 0. -1.
    10030    2    1    2    0    0  0.00000000000E+00  0.00000000000E+00 -0.13574604585E+04  0.15757982876E+04  0.80027579426E+03 0.  0.
        3    1    3    3  502    0  0.33053438331E+02 -0.19166717185E+03 -0.13672894645E+04  0.13810537008E+04  0.10100000352E+00 0. -1.
       -3    1    3    3    0  502 -0.33053438331E+02  0.19166717185E+03  0.98290059649E+01  0.19474458685E+03  0.10100000352E+00 0.  1.
</event>
<event>
 5   0  0.4087283E-04  0.8002348E+03  0.7818609E-02  0.9559677E-01
       -1   -1    0    0    0  501  0.00000000000E+00  0.00000000000E+00  0.23910672315E+03  0.23910672321E+03  0.50400001928E-02 0.  1.
        1   -1    0    0  501    0  0.00000000000E+00  0.00000000000E+00 -0.66955018841E+03  0.66955018843E+03  0.50400001928E-02 0. -1.
    10030    2    1    2    0    0  0.00000000000E+00  0.00000000000E+00 -0.43044346526E+03  0.90865691164E+03  0.80023484446E+03 0.  0.
        1    1    3    3  502    0 -0.24903520747E+03 -0.24689659393E+03 -0.43398367468E+03  0.55795904201E+03  0.50400001928E-02 0. -1.
       -1    1    3    3    0  502  0.24903520747E+03  0.24689659393E+03  0.35402094189E+01  0.35069786962E+03  0.50400001928E-02 0.  1.
</event>
<event>
 5   0  0.7133039E-04  0.7993702E+03  0.7818609E-02  0.9560929E-01
       -2   -1    0    0    0  501  0.00000000000E+00  0.00000000000E+00  0.16969690895E+03  0.16969690897E+03  0.25500000920E-02 0. -1.
        2   -1    0    0  501    0  0.00000000000E+00  0.00000000000E+00 -0.94137355579E+03  0.94137355579E+03  0.25500000920E-02 0.  1.
    10030    2    1    2    0    0  0.00000000000E+00  0.00000000000E+00 -0.77167664684E+03  0.11110704648E+04  0.79937020860E+03 0.  0.
        2    1    3    3  502    0 -0.24412709059E+03  0.12326240689E+03  0.19289448089E+02  0.27416006297E+03  0.25500000920E-02 0. -1.
       -2    1    3    3    0  502  0.24412709059E+03 -0.12326240689E+03 -0.79096609492E+03  0.83691040180E+03  0.25500000920E-02 0.  1.
</event>
<event>
 5   0  0.4087283E-04  0.7978873E+03  0.7818609E-02  0.9563080E-01
       -1   -1    0    0    0  501  0.00000000000E+00  0.00000000000E+00  0.11635224928E+04  0.11635224928E+04  0.50400001928E-02 0. -1.
        1   -1    0    0  501    0  0.00000000000E+00  0.00000000000E+00 -0.13678808818E+03  0.13678808827E+03  0.50400001928E-02 0.  1.
    10030    2    1    2    0    0  0.00000000000E+00  0.00000000000E+00  0.10267344046E+04  0.13003105811E+04  0.79788725373E+03 0.  0.
        1    1    3    3  502    0 -0.24695304606E+03  0.25250402694E+03  0.21105194585E+03  0.41144503211E+03  0.50400001928E-02 0.  1.
       -1    1    3    3    0  502  0.24695304606E+03 -0.25250402694E+03  0.81568245879E+03  0.88886554899E+03  0.50400001928E-02 0. -1.
</event>
<event>
 5   0  0.2736375E-04  0.8000447E+03  0.7818609E-02  0.9559952E-01
       -4   -1    0    0    0  501  0.00000000000E+00  0.00000000000E+00  0.75736837020E+03  0.75736943500E+03  0.12699999809E+01 0.  1.
        4   -1    0    0  501    0  0.00000000000E+00  0.00000000000E+00 -0.21127833341E+03  0.21128215038E+03  0.12699999809E+01 0. -1.
    10030    2    1    2    0    0  0.00000000000E+00  0.00000000000E+00  0.54609003679E+03  0.96865158538E+03  0.80004472723E+03 0.  0.
        2    1    3    3  502    0 -0.12507527005E+03  0.76325302352E+02  0.72371047022E+03  0.73839435241E+03  0.25500000920E-02 0.  1.
       -2    1    3    3    0  502  0.12507527005E+03 -0.76325302352E+02 -0.17762043343E+03  0.23025723297E+03  0.25500000920E-02 0. -1.
</event>
<event>
 5   0  0.4169155E-04  0.8000138E+03  0.7818609E-02  0.9559997E-01
        1   -1    0    0  501    0  0.00000000000E+00  0.00000000000E+00  0.76716345645E+03  0.76716345647E+03  0.50400001928E-02 0. -1.
       -1   -1    0    0    0  501  0.00000000000E+00  0.00000000000E+00 -0.20856768149E+03  0.20856768155E+03  0.50400001928E-02 0.  1.
    10030    2    1    2    0    0  0.00000000000E+00  0.00000000000E+00  0.55859577496E+03  0.97573113802E+03  0.80001375857E+03 0.  0.
        4    1    3    3  502    0  0.20658663122E+03 -0.21293174199E+03  0.60653044854E+03  0.67520275537E+03  0.12699999809E+01 0. -1.
       -4    1    3    3    0  502 -0.20658663122E+03  0.21293174199E+03 -0.47934673579E+02  0.30052838265E+03  0.12699999809E+01 0.  1.
</event>
<event>
 5   0  0.6593118E-04  0.7998720E+03  0.7818609E-02  0.9560202E-01
        2   -1    0    0  501    0  0.00000000000E+00  0.00000000000E+00  0.23711274656E+04  0.23711274656E+04  0.25500000920E-02 0.  1.
       -2   -1    0    0    0  501  0.00000000000E+00  0.00000000000E+00 -0.67456856944E+02  0.67456856992E+02  0.25500000920E-02 0. -1.
    10030    2    1    2    0    0  0.00000000000E+00  0.00000000000E+00  0.23036706086E+04  0.24385843226E+04  0.79987200552E+03 0.  0.
        1    1    3    3  502    0 -0.30527222894E+03  0.24256485361E+03  0.88051712611E+03  0.96298455407E+03  0.50400001928E-02 0. -1.
       -1    1    3    3    0  502  0.30527222894E+03 -0.24256485361E+03  0.14231534825E+04  0.14755997685E+04  0.50400001928E-02 0.  1.
</event>
<event>
 5   0  0.6970013E-04  0.7993472E+03  0.7818609E-02  0.9560963E-01
        2   -1    0    0  501    0  0.00000000000E+00  0.00000000000E+00  0.47230948197E+03  0.47230948198E+03  0.25500000920E-02 0. -1.
       -2   -1    0    0    0  501  0.00000000000E+00  0.00000000000E+00 -0.33820828016E+03  0.33820828017E+03  0.25500000920E-02 0.  1.
    10030    2    1    2    0    0  0.00000000000E+00  0.00000000000E+00  0.13410120181E+03  0.81051776214E+03  0.79934717765E+03 0.  0.
        3    1    3    3  502    0  0.29992654631E+03 -0.26201626325E+03  0.32957642970E+02  0.39961815752E+03  0.10100000352E+00 0. -1.
       -3    1    3    3    0  502 -0.29992654631E+03  0.26201626325E+03  0.10114355884E+03  0.41089960463E+03  0.10100000352E+00 0.  1.
</event>
<event>
 5   0  0.2736375E-04  0.7999226E+03  0.7818609E-02  0.9560129E-01
       -4   -1    0    0    0  501  0.00000000000E+00  0.00000000000E+00  0.28128912022E+03  0.28129198718E+03  0.12699999809E+01 0.  1.
        4   -1    0    0  501    0  0.00000000000E+00  0.00000000000E+00 -0.56869321716E+03  0.56869463523E+03  0.12699999809E+01 0. -1.
    10030    2    1    2    0    0  0.00000000000E+00  0.00000000000E+00 -0.28740409694E+03  0.84998662241E+03  0.79992258584E+03 0.  0.
        5    1    3    3  502    0  0.10939632575E+03 -0.24261805379E+02  0.26424073270E+03  0.28705652075E+03  0.46999998093E+01 0.  1.
       -5    1    3    3    0  502 -0.10939632575E+03  0.24261805379E+02 -0.55164482964E+03  0.56293010166E+03  0.46999998093E+01 0. -1.
</event>
<event>
 5   0  0.2736375E-04  0.8003290E+03  0.7818609E-02  0.9559541E-01
       -3   -1    0    0    0  501  0.00000000000E+00  0.00000000000E+00  0.71441095796E+03  0.71441096510E+03  0.10100000352E+00 0. -1.
        3   -1    0    0  501    0  0.00000000000E+00  0.00000000000E+00 -0.22414494297E+03  0.22414496572E+03  0.10100000352E+00 0.  1.
    10030    2    1    2    0    0  0.00000000000E+00  0.00000000000E+00  0.49026601499E+03  0.93855593083E+03  0.80032897600E+03 0.  0.
        2    1    3    3  502    0 -0.31751167671E+03  0.11607193526E+03  0.49622845004E+03  0.60044069952E+03  0.25500000920E-02 0. -1.
       -2    1    3    3    0  502  0.31751167671E+03 -0.11607193526E+03 -0.59624350464E+01  0.33811523131E+03  0.25500000920E-02 0.  1.
</event>
<event>
 5   0  0.4392552E-04  0.8019278E+03  0.7818609E-02  0.9557231E-01
       -1   -1    0    0    0  501  0.00000000000E+00  0.00000000000E+00  0.43013361705E+03  0.43013361708E+03  0.50400001928E-02 0.  1.
        1   -1    0    0  501    0  0.00000000000E+00  0.00000000000E+00 -0.37377234094E+03  0.37377234098E+03  0.50400001928E-02 0. -1.
    10030    2    1    2    0    0  0.00000000000E+00  0.00000000000E+00  0.56361276107E+02  0.80390595805E+03  0.80192779971E+03 0.  0.
        5    1    3    3  502    0  0.28228380729E+03  0.28232655202E+03  0.65116187308E+02  0.40454250417E+03  0.46999998093E+01 0.  1.
       -5    1    3    3    0  502 -0.28228380729E+03 -0.28232655202E+03 -0.87549112011E+01  0.39936345389E+03  0.46999998093E+01 0. -1.
</event>
<event>
 5   0  0.6672462E-04  0.8003815E+03  0.7818609E-02  0.9559465E-01
       -2   -1    0    0    0  501  0.00000000000E+00  0.00000000000E+00  0.63253257943E+03  0.63253257944E+03  0.25500000920E-02 0.  1.
        2   -1    0    0  501    0  0.00000000000E+00  0.00000000000E+00 -0.25319271121E+03  0.25319271122E+03  0.25500000920E-02 0. -1.
    10030    2    1    2    0    0  0.00000000000E+00  0.00000000000E+00  0.37933986822E+03  0.88572529066E+03  0.80038150585E+03 0.  0.
        5    1    3    3  502    0 -0.46477037876E+02  0.16545514200E+03 -0.21024288424E+03  0.27158733298E+03  0.46999998093E+01 0. -1.
       -5    1    3    3    0  502  0.46477037876E+02 -0.16545514200E+03  0.58958275246E+03  0.61413795768E+03  0.46999998093E+01 0.  1.
</event>
<event>
 5   0  0.6593118E-04  0.8000516E+03  0.7818609E-02  0.9559942E-01
        2   -1    0    0  501    0  0.00000000000E+00  0.00000000000E+00  0.14318584740E+03  0.14318584743E+03  0.25500000920E-02 0.  1.
       -2   -1    0    0    0  501  0.00000000000E+00  0.00000000000E+00 -0.11175730749E+04  0.11175730749E+04  0.25500000920E-02 0. -1.
    10030    2    1    2    0    0  0.00000000000E+00  0.00000000000E+00 -0.97438722754E+03  0.12607589224E+04  0.80005161780E+03 0.  0.
        1    1    3    3  502    0 -0.30617291249E+03  0.20156977850E+03 -0.23481976586E+03  0.43533039225E+03  0.50400001928E-02 0.  1.
       -1    1    3    3    0  502  0.30617291249E+03 -0.20156977850E+03 -0.73956746167E+03  0.82542853012E+03  0.50400001928E-02 0. -1.
</event>
<event>
 5   0  0.4392552E-04  0.7998868E+03  0.7818609E-02  0.9560181E-01
       -1   -1    0    0    0  501  0.00000000000E+00  0.00000000000E+00  0.59239498864E+03  0.59239498866E+03  0.50400001928E-02 0. -1.
        1   -1    0    0  501    0  0.00000000000E+00  0.00000000000E+00 -0.27001364663E+03  0.27001364668E+03  0.50400001928E-02 0.  1.
    10030    2    1    2    0    0  0.00000000000E+00  0.00000000000E+00  0.32238134201E+03  0.86240863534E+03  0.79988681989E+03 0.  0.
        5    1    3    3  502    0  0.30598020300E+03 -0.16404182726E+03 -0.52816019294E+02  0.35120539234E+03  0.46999998093E+01 0.  1.
       -5    1    3    3    0  502 -0.30598020300E+03  0.16404182726E+03  0.37519736131E+03  0.51120324300E+03  0.46999998093E+01 0. -1.
</event>
<event>
 5   0  0.4104786E-04  0.8004465E+03  0.7818609E-02  0.9559371E-01
        1   -1    0    0  501    0  0.00000000000E+00  0.00000000000E+00  0.45617048160E+03  0.45617048163E+03  0.50400001928E-02 0.  1.
       -1   -1    0    0    0  501  0.00000000000E+00  0.00000000000E+00 -0.35113770612E+03  0.35113770616E+03  0.50400001928E-02 0. -1.
    10030    2    1    2    0    0  0.00000000000E+00  0.00000000000E+00  0.10503277548E+03  0.80730818779E+03  0.80044651673E+03 0.  0.
        2    1    3    3  502    0 -0.13188775092E+03 -0.23777602961E+03  0.34871200466E+03  0.44218987019E+03  0.25500000920E-02 0.  1.
       -2    1    3    3    0  502  0.13188775092E+03  0.23777602961E+03 -0.24367922918E+03  0.36511831759E+03  0.25500000920E-02 0. -1.
</event>
<event>
 5   0  0.6801147E-04  0.7997667E+03  0.7818609E-02  0.9560355E-01
       -2   -1    0    0    0  501  0.00000000000E+00  0.00000000000E+00  0.29219924139E+03  0.29219924140E+03  0.25500000920E-02 0. -1.
        2   -1    0    0  501    0  0.00000000000E+00  0.00000000000E+00 -0.54725226937E+03  0.54725226938E+03  0.25500000920E-02 0.  1.
    10030    2    1    2    0    0  0.00000000000E+00  0.00000000000E+00 -0.25505302798E+03  0.83945151078E+03  0.79976671090E+03 0.  0.
        4    1    3    3  502    0 -0.34094623053E+03 -0.11803877434E+03 -0.30849886205E+03  0.47471111757E+03  0.12699999809E+01 0.  1.
       -4    1    3    3    0  502  0.34094623053E+03  0.11803877434E+03  0.53445834063E+02  0.36474039321E+03  0.12699999809E+01 0. -1.
</event>
<event>
 5   0  0.6593118E-04  0.7983981E+03  0.7818609E-02  0.9562339E-01
        2   -1    0    0  501    0  0.00000000000E+00  0.00000000000E+00  0.14055857033E+04  0.14055857033E+04  0.25500000920E-02 0. -1.
       -2   -1    0    0    0  501  0.00000000000E+00  0.00000000000E+00 -0.11337613004E+03  0.11337613007E+03  0.25500000920E-02 0.  1.
    10030    2    1    2    0    0  0.00000000000E+00  0.00000000000E+00  0.12922095733E+04  0.15189618334E+04  0.79839806488E+03 0.  0.
        1    1    3    3  502    0  0.24668637780E+03  0.19255264139E+03  0.11176406624E+04  0.11606254085E+04  0.50400001928E-02 0. -1.
       -1    1    3    3    0  502 -0.24668637780E+03 -0.19255264139E+03  0.17456891090E+03  0.35833642485E+03  0.50400001928E-02 0.  1.
</event>
<event>
 5   0  0.6672462E-04  0.8001334E+03  0.7818609E-02  0.9559824E-01
        2   -1    0    0  501    0  0.00000000000E+00  0.00000000000E+00  0.20013659776E+04  0.20013659776E+04  0.25500000920E-02 0. -1.
       -2   -1    0    0    0  501  0.00000000000E+00  0.00000000000E+00 -0.79972061012E+02  0.79972061053E+02  0.25500000920E-02 0.  1.
    10030    2    1    2    0    0  0.00000000000E+00  0.00000000000E+00  0.19213939166E+04  0.20813380387E+04  0.80013339416E+03 0.  0.
        5    1    3    3  502    0 -0.19057453937E+03  0.35133096710E+03  0.91723457660E+03  0.10005465816E+04  0.46999998093E+01 0.  1.
       -5    1    3    3    0  502  0.19057453937E+03 -0.35133096710E+03  0.10041593400E+04  0.10807914570E+04  0.46999998093E+01 0. -1.
</event>
<event>
 5   0  0.6672462E-04  0.7995107E+03  0.7818609E-02  0.9560726E-01
       -2   -1    0    0    0  501  0.00000000000E+00  0.00000000000E+00  0.14693614166E+03  0.14693614168E+03  0.25500000920E-02 0. -1.
        2   -1    0    0  501    0  0.00000000000E+00  0.00000000000E+00 -0.10875768641E+04  0.10875768641E+04  0.25500000920E-02 0.  1.
    10030    2    1    2    0    0  0.00000000000E+00  0.00000000000E+00 -0.94064072245E+03  0.12345130058E+04  0.79951072083E+03 0.  0.
        5    1    3    3  502    0  0.30468650837E+03  0.16361406137E+03 -0.77982703221E+03  0.85308599779E+03  0.46999998093E+01 0.  1.
       -5    1    3    3    0  502 -0.30468650837E+03 -0.16361406137E+03 -0.16081369024E+03  0.38142700800E+03  0.46999998093E+01 0. -1.
</event>
<event>
 5   0  0.6672462E-04  0.7999254E+03  0.7818609E-02  0.9560125E-01
       -2   -1    0    0    0  501  0.00000000000E+00  0.00000000000E+00  0.36625781182E+03  0.36625781183E+03  0.25500000920E-02 0.  1.
        2   -1    0    0  501    0  0.00000000000E+00  0.00000000000E+00 -0.43676930313E+03  0.43676930314E+03  0.25500000920E-02 0. -1.
    10030    2    1    2    0    0  0.00000000000E+00  0.00000000000E+00 -0.70511491308E+02  0.80302711497E+03  0.79992541963E+03 0.  0.
        5    1    3    3  502    0 -0.47722635320E+02  0.49556327745E+02 -0.43075646386E+03  0.43624133309E+03  0.46999998093E+01 0. -1.
       -5    1    3    3    0  502  0.47722635320E+02 -0.49556327745E+02  0.36024497255E+03  0.36678578188E+03  0.46999998093E+01 0.  1.
</event>
<event>
 5   0  0.4392552E-04  0.7999783E+03  0.7818609E-02  0.9560049E-01
        1   -1    0    0  501    0  0.00000000000E+00  0.00000000000E+00  0.88228064186E+03  0.88228064188E+03  0.50400001928E-02 0. -1.
       -1   -1    0    0    0  501  0.00000000000E+00  0.00000000000E+00 -0.18133835115E+03  0.18133835122E+03  0.50400001928E-02 0.  1.
    10030    2    1    2    0    0  0.00000000000E+00  0.00000000000E+00  0.70094229072E+03  0.10636189931E+04  0.79997829193E+03 0.  0.
        5    1    3    3  502    0  0.14289145935E+03  0.35747314565E+03  0.49467910320E+03  0.62684489641E+03  0.46999998093E+01 0. -1.
       -5    1    3    3    0  502 -0.14289145935E+03 -0.35747314565E+03  0.20626318752E+03  0.43677409669E+03  0.46999998093E+01 0.  1.
</event>
<event>
 5   0  0.6593118E-04  0.8002629E+03  0.7818609E-02  0.9559637E-01
       -2   -1    0    0    0  501  0.00000000000E+00  0.00000000000E+00  0.25511380411E+03  0.25511380412E+03  0.25500000920E-02 0.  1.
        2   -1    0    0  501    0  0.00000000000E+00  0.00000000000E+00 -0.62758332686E+03  0.62758332686E+03  0.25500000920E-02 0. -1.
    10030    2    1    2    0    0  0.00000000000E+00  0.00000000000E+00 -0.37246952275E+03  0.88269713098E+03  0.80026288160E+03 0.  0.
        1    1    3    3  502    0 -0.41980002353E+02 -0.37880875626E+03 -0.32063347495E+03  0.49806045788E+03  0.50400001928E-02 0.  1.
       -1    1    3    3    0  502  0.41980002353E+02  0.37880875626E+03 -0.51836047802E+02  0.38463667311E+03  0.50400001928E-02 0. -1.
</event>
<event>
 5   0  0.2736375E-04  0.7993465E+03  0.7818609E-02  0.9560964E-01
       -4   -1    0    0    0  501  0.00000000000E+00  0.00000000000E+00  0.38569863546E+03  0.38570072634E+03  0.12699999809E+01 0. -1.
        4   -1    0    0  501    0  0.00000000000E+00  0.00000000000E+00 -0.41414998835E+03  0.41415193559E+03  0.12699999809E+01 0.  1.
    10030    2    1    2    0    0  0.00000000000E+00  0.00000000000E+00 -0.28451352893E+02  0.79985266192E+03  0.79934648389E+03 0.  0.
        5    1    3    3  502    0  0.28278479435E+03  0.23522408549E+02 -0.29582183884E+03  0.40994291548E+03  0.46999998093E+01 0.  1.
       -5    1    3    3    0  502 -0.28278479435E+03 -0.23522408549E+02  0.26737048594E+03  0.38990974645E+03  0.46999998093E+01 0. -1.
</event>
<event>
 5   0  0.4104786E-04  0.8000536E+03  0.7818609E-02  0.9559940E-01
       -1   -1    0    0    0  501  0.00000000000E+00  0.00000000000E+00  0.63130050409E+03  0.63130050411E+03  0.50400001928E-02 0.  1.
        1   -1    0    0  501    0  0.00000000000E+00  0.00000000000E+00 -0.25347900944E+03  0.25347900949E+03  0.50400001928E-02 0. -1.
    10030    2    1    2    0    0  0.00000000000E+00  0.00000000000E+00  0.37782149465E+03  0.88477951360E+03  0.80005356437E+03 0.  0.
        2    1    3    3  502    0 -0.21501680654E+03 -0.33052762538E+03  0.11439006279E+03  0.41056768589E+03  0.25500000920E-02 0.  1.
       -2    1    3    3    0  502  0.21501680654E+03  0.33052762538E+03  0.26343143186E+03  0.47421182770E+03  0.25500000920E-02 0. -1.
</event>
<event>
 5   0  0.4086111E-04  0.8001767E+03  0.7818609E-02  0.9559761E-01
        1   -1    0    0  501    0  0.00000000000E+00  0.00000000000E+00  0.74233345805E+03  0.74233345806E+03  0.50400001928E-02 0.  1.
       -1   -1    0    0    0  501  0.00000000000E+00  0.00000000000E+00 -0.21563179333E+03  0.21563179339E+03  0.50400001928E-02 0. -1.
    10030    2    1    2    0    0  0.00000000000E+00  0.00000000000E+00  0.52670166472E+03  0.95796525145E+03  0.80017671758E+03 0.  0.
        3    1    3    3  502    0 -0.19379447304E+03 -0.27893528254E+03  0.51649255295E+03  0.61816321233E+03  0.10100000352E+00 0.  1.
       -3    1    3    3    0  502  0.19379447304E+03  0.27893528254E+03  0.10209111774E+02  0.33980203912E+03  0.10100000352E+00 0. -1.
</event>
<event>
 5   0  0.6593118E-04  0.8003488E+03  0.7818609E-02  0.9559512E-01
        2   -1    0    0  501    0  0.00000000000E+00  0.00000000000E+00  0.11107134006E+04  0.11107134006E+04  0.25500000920E-02 0.  1.
       -2   -1    0    0    0  501  0.00000000000E+00  0.00000000000E+00 -0.14417719744E+03  0.14417719747E+03  0.25500000920E-02 0. -1.
    10030    2    1    2    0    0  0.00000000000E+00  0.00000000000E+00  0.96653620316E+03  0.12548905981E+04  0.80034878716E+03 0.  0.
        1    1    3    3  502    0 -0.30874804783E+02  0.39421831843E+03  0.38689195254E+03  0.55321489416E+03  0.50400001928E-02 0. -1.
       -1    1    3    3    0  502  0.30874804783E+02 -0.39421831843E+03  0.57964425062E+03  0.70167570391E+03  0.50400001928E-02 0.  1.
</event>
<event>
 5   0  0.4169155E-04  0.8003457E+03  0.7818609E-02  0.9559517E-01
        1   -1    0    0  501    0  0.00000000000E+00  0.00000000000E+00  0.37948678946E+03  0.37948678950E+03  0.50400001928E-02 0.  1.
       -1   -1    0    0    0  501  0.00000000000E+00  0.00000000000E+00 -0.42198647179E+03  0.42198647182E+03  0.50400001928E-02 0. -1.
    10030    2    1    2    0    0  0.00000000000E+00  0.00000000000E+00 -0.42499682326E+02  0.80147326132E+03  0.80034565383E+03 0.  0.
        4    1    3    3  502    0 -0.17691667147E+03  0.48245283498E+02 -0.37743278910E+03  0.41962392593E+03  0.12699999809E+01 0. -1.
       -4    1    3    3    0  502  0.17691667147E+03 -0.48245283498E+02  0.33493310678E+03  0.38184933539E+03  0.12699999809E+01 0.  1.
</event>
<event>
 5   0  0.4169155E-04  0.7999388E+03  0.7818609E-02  0.9560106E-01
        1   -1    0    0  501    0  0.00000000000E+00  0.00000000000E+00  0.46542157488E+03  0.46542157491E+03  0.50400001928E-02 0. -1.
       -1   -1    0    0    0  501  0.00000000000E+00  0.00000000000E+00 -0.34372175158E+03  0.34372175162E+03  0.50400001928E-02 0.  1.
    10030    2    1    2    0    0  0.00000000000E+00  0.00000000000E+00  0.12169982330E+03  0.80914332653E+03  0.79993879508E+03 0.  0.
        4    1    3    3  502    0 -0.37896742964E+03 -0.12520979273E+03  0.87228736920E+02  0.40853919073E+03  0.12699999809E+01 0.  1.
       -4    1    3    3    0  502  0.37896742964E+03  0.12520979273E+03  0.34471086377E+02  0.40060413580E+03  0.12699999809E+01 0. -1.
</event>
<event>
 5   0  0.4086111E-04  0.8001688E+03  0.7818609E-02  0.9559773E-01
       -1   -1    0    0    0  501  0.00000000000E+00  0.00000000000E+00  0.15005122022E+03  0.15005122030E+03  0.50400001928E-02 0. -1.
        1   -1    0    0  501    0  0.00000000000E+00  0.00000000000E+00 -0.10667526937E+04  0.10667526938E+04  0.50400001928E-02 0.  1.
    10030    2    1    2    0    0  0.00000000000E+00  0.00000000000E+00 -0.91670147352E+03  0.12168039141E+04  0.80016884075E+03 0.  0.
        3    1    3    3  502    0 -0.47620734210E+02 -0.13888425137E+03  0.10760313820E+03  0.18203025890E+03  0.10100000352E+00 0. -1.
       -3    1    3    3    0  502  0.47620734210E+02  0.13888425137E+03 -0.10243046117E+04  0.10347736552E+04  0.10100000352E+00 0.  1.
</event>
<event>
 5   0  0.7133039E-04  0.7998398E+03  0.7818609E-02  0.9560249E-01
       -2   -1    0    0    0  501  0.00000000000E+00  0.00000000000E+00  0.85449310253E+02  0.85449310291E+02  0.25500000920E-02 0.  1.
        2   -1    0    0  501    0  0.00000000000E+00  0.00000000000E+00 -0.18717051550E+04  0.18717051550E+04  0.25500000920E-02 0. -1.
    10030    2    1    2    0    0  0.00000000000E+00  0.00000000000E+00 -0.17862558448E+04  0.19571544653E+04  0.79983977029E+03 0.  0.
        2    1    3    3  502    0  0.32467281864E+03 -0.15106427809E+03 -0.45744283569E+03  0.58093614383E+03  0.25500000920E-02 0.  1.
       -2    1    3    3    0  502 -0.32467281864E+03  0.15106427809E+03 -0.13288130091E+04  0.13762183215E+04  0.25500000920E-02 0. -1.
</event>
<event>
 5   0  0.6801147E-04  0.8002619E+03  0.7818609E-02  0.9559638E-01
        2   -1    0    0  501    0  0.00000000000E+00  0.00000000000E+00  0.64831968387E+03  0.64831968388E+03  0.25500000920E-02 0.  1.
       -2   -1    0    0    0  501  0.00000000000E+00  0.00000000000E+00 -0.24695344049E+03  0.24695344051E+03  0.25500000920E-02 0. -1.
    10030    2    1    2    0    0  0.00000000000E+00  0.00000000000E+00  0.40136624338E+03  0.89527312438E+03  0.80026189833E+03 0.  0.
        4    1    3    3  502    0  0.86155237245E+02 -0.24232994576E+02  0.63697618394E+03  0.64323419898E+03  0.12699999809E+01 0.  1.
       -4    1    3    3    0  502 -0.86155237245E+02  0.24232994576E+02 -0.23560994056E+03  0.25203892541E+03  0.12699999809E+01 0. -1.
</event>
<event>
 5   0  0.6672462E-04  0.8000027E+03  0.7818609E-02  0.9560013E-01
       -2   -1    0    0    0  501  0.00000000000E+00  0.00000000000E+00  0.96790799909E+02  0.96790799943E+02  0.25500000920E-02 0.  1.
        2   -1    0    0  501    0  0.00000000000E+00  0.00000000000E+00 -0.16530608109E+04  0.16530608109E+04  0.25500000920E-02 0. -1.
    10030    2    1    2    0    0  0.00000000000E+00  0.00000000000E+00 -0.15562700110E+04  0.17498516108E+04  0.80000269553E+03 0.  0.
        5    1    3    3  502    0 -0.25477699769E+03  0.20385031418E+03 -0.27214926168E+03  0.42491596790E+03  0.46999998093E+01 0.  1.
       -5    1    3    3    0  502  0.25477699769E+03 -0.20385031418E+03 -0.12841207493E+04  0.13249356429E+04  0.46999998093E+01 0. -1.
</event>
<event>
 5   0  0.6970013E-04  0.7998511E+03  0.7818609E-02  0.9560233E-01
        2   -1    0    0  501    0  0.00000000000E+00  0.00000000000E+00  0.31082687718E+03  0.31082687720E+03  0.25500000920E-02 0. -1.
       -2   -1    0    0    0  501  0.00000000000E+00  0.00000000000E+00 -0.51456441134E+03  0.51456441134E+03  0.25500000920E-02 0.  1.
    10030    2    1    2    0    0  0.00000000000E+00  0.00000000000E+00 -0.20373753415E+03  0.82539128854E+03  0.79985110888E+03 0.  0.
        3    1    3    3  502    0  0.19759159367E+03 -0.90990031303E+02  0.24443419533E+03  0.32721508176E+03  0.10100000352E+00 0. -1.
       -3    1    3    3    0  502 -0.19759159367E+03  0.90990031303E+02 -0.44817172949E+03  0.49817620677E+03  0.10100000352E+00 0.  1.
</event>
<event>
 5   0  0.6672462E-04  0.7990057E+03  0.7818609E-02  0.9561457E-01
       -2   -1    0    0    0  501  0.00000000000E+00  0.00000000000E+00  0.11178657433E+03  0.11178657436E+03  0.25500000920E-02 0. -1.
        2   -1    0    0  501    0  0.00000000000E+00  0.00000000000E+00 -0.14277431179E+04  0.14277431179E+04  0.25500000920E-02 0.  1.
    10030    2    1    2    0    0  0.00000000000E+00  0.00000000000E+00 -0.13159565436E+04  0.15395296923E+04  0.79900566255E+03 0.  0.
        5    1    3    3  502    0 -0.10632495414E+02  0.37989549253E+03 -0.42084173593E+03  0.56706568570E+03  0.46999998093E+01 0. -1.
       -5    1    3    3    0  502  0.10632495414E+02 -0.37989549253E+03 -0.89511480763E+03  0.97246400655E+03  0.46999998093E+01 0.  1.
</event>
<event>
 5   0  0.7133039E-04  0.8002061E+03  0.7818609E-02  0.9559719E-01
       -2   -1    0    0    0  501  0.00000000000E+00  0.00000000000E+00  0.11651178687E+03  0.11651178690E+03  0.25500000920E-02 0.  1.
        2   -1    0    0  501    0  0.00000000000E+00  0.00000000000E+00 -0.13739591907E+04  0.13739591907E+04  0.25500000920E-02 0. -1.
    10030    2    1    2    0    0  0.00000000000E+00  0.00000000000E+00 -0.12574474039E+04  0.14904709776E+04  0.80020607451E+03 0.  0.
        2    1    3    3  502    0 -0.72163704661E+02  0.26605546978E+03 -0.11688460149E+04  0.12009138686E+04  0.25500000920E-02 0. -1.
       -2    1    3    3    0  502  0.72163704661E+02 -0.26605546978E+03 -0.88601389019E+02  0.28955710907E+03  0.25500000920E-02 0.  1.
</event>
<event>
 5   0  0.4087283E-04  0.8019589E+03  0.7818609E-02  0.9557186E-01
       -1   -1    0    0    0  501  0.00000000000E+00  0.00000000000E+00  0.23641321168E+03  0.23641321173E+03  0.50400001928E-02 0. -1.
        1   -1    0    0  501    0  0.00000000000E+00  0.00000000000E+00 -0.68009959413E+03  0.68009959415E+03  0.50400001928E-02 0.  1.
    10030    2    1    2    0    0  0.00000000000E+00  0.00000000000E+00 -0.44368638245E+03  0.91651280588E+03  0.80195892499E+03 0.  0.
        1    1    3    3  502    0  0.18791995588E+03 -0.17900402207E+03 -0.57116472302E+03  0.62736392196E+03  0.50400001928E-02 0.  1.
       -1    1    3    3    0  502 -0.18791995588E+03  0.17900402207E+03  0.12747834057E+03  0.28914888392E+03  0.50400001928E-02 0. -1.
</event>
<event>
 5   0  0.4169155E-04  0.7999107E+03  0.7818609E-02  0.9560146E-01
       -1   -1    0    0    0  501  0.00000000000E+00  0.00000000000E+00  0.25194594681E+03  0.25194594686E+03  0.50400001928E-02 0. -1.
        1   -1    0    0  501    0  0.00000000000E+00  0.00000000000E+00 -0.63491502894E+03  0.63491502896E+03  0.50400001928E-02 0.  1.
    10030    2    1    2    0    0  0.00000000000E+00  0.00000000000E+00 -0.38296908213E+03  0.88686097583E+03  0.79991066537E+03 0.  0.
        4    1    3    3  502    0  0.18652483135E+03 -0.21246833893E+02  0.20006039547E+03  0.27435144504E+03  0.12699999809E+01 0. -1.
       -4    1    3    3    0  502 -0.18652483135E+03  0.21246833893E+02 -0.58302947760E+03  0.61250953079E+03  0.12699999809E+01 0.  1.
</event>
<event>
 5   0  0.6801147E-04  0.7996944E+03  0.7818609E-02  0.9560460E-01
       -2   -1    0    0    0  501  0.00000000000E+00  0.00000000000E+00  0.12560107098E+03  0.12560107101E+03  0.25500000920E-02 0. -1.
        2   -1    0    0  501    0  0.00000000000E+00  0.00000000000E+00 -0.12729015435E+04  0.12729015435E+04  0.25500000920E-02 0.  1.
    10030    2    1    2    0    0  0.00000000000E+00  0.00000000000E+00 -0.11473004725E+04  0.13985026145E+04  0.79969443448E+03 0.  0.
        4    1    3    3  502    0  0.39058159384E+02  0.36003224847E+03 -0.87005662140E+03  0.94241651996E+03  0.12699999809E+01 0.  1.
       -4    1    3    3    0  502 -0.39058159384E+02 -0.36003224847E+03 -0.27724385110E+03  0.45608609453E+03  0.12699999809E+01 0. -1.
</event>
<event>
 5   0  0.6801147E-04  0.8004086E+03  0.7818609E-02  0.9559426E-01
       -2   -1    0    0    0  501  0.00000000000E+00  0.00000000000E+00  0.20784214154E+03  0.20784214155E+03  0.25500000920E-02 0. -1.
        2   -1    0    0  501    0  0.00000000000E+00  0.00000000000E+00 -0.77060160335E+03  0.77060160336E+03  0.25500000920E-02 0.  1.
    10030    2    1    2    0    0  0.00000000000E+00  0.00000000000E+00 -0.56275946181E+03  0.97844374491E+03  0.80040861446E+03 0.  0.
        4    1    3    3  502    0  0.58478187523E+02  0.27765835815E+03  0.63614297824E+02  0.29079589759E+03  0.12699999809E+01 0. -1.
       -4    1    3    3    0  502 -0.58478187523E+02 -0.27765835815E+03 -0.62637375964E+03  0.68764784732E+03  0.12699999809E+01 0.  1.
</event>
<event>
 5   0  0.4104786E-04  0.8001749E+03  0.7818609E-02  0.9559764E-01
        1   -1    0    0  501    0  0.00000000000E+00  0.00000000000E+00  0.67691869938E+03  0.67691869939E+03  0.50400001928E-02 0. -1.
       -1   -1    0    0    0  501  0.00000000000E+00  0.00000000000E+00 -0.23646849905E+03  0.23646849910E+03  0.50400001928E-02 0.  1.
    10030    2    1    2    0    0  0.00000000000E+00  0.00000000000E+00  0.44045020033E+03  0.91338719850E+03  0.80017485302E+03 0.  0.
        2    1    3    3  502    0  0.21829695772E+03 -0.11165170598E+03  0.58110445462E+03  0.63071550827E+03  0.25500000920E-02 0. -1.
       -2    1    3    3    0  502 -0.21829695772E+03  0.11165170598E+03 -0.14065425429E+03  0.28267169022E+03  0.25500000920E-02 0.  1.
</event>
<event>
 5   0  0.2736375E-04  0.7999528E+03  0.7818609E-02  0.9560085E-01
        4   -1    0    0  501    0  0.00000000000E+00  0.00000000000E+00  0.10285253418E+04  0.10285261259E+04  0.12699999809E+01 0.  1.
       -4   -1    0    0    0  501  0.00000000000E+00  0.00000000000E+00 -0.15554072303E+03  0.15554590776E+03  0.12699999809E+01 0. -1.
    10030    2    1    2    0    0  0.00000000000E+00  0.00000000000E+00  0.87298461877E+03  0.11840720337E+04  0.79995277127E+03 0.  0.
        1    1    3    3  502    0  0.38361021598E+03 -0.63141238755E+02  0.57564075906E+03  0.69462644447E+03  0.50400001928E-02 0.  1.
       -1    1    3    3    0  502 -0.38361021598E+03  0.63141238755E+02  0.29734385972E+03  0.48944558919E+03  0.50400001928E-02 0. -1.
</event>
<event>
 5   0  0.7133039E-04  0.8002877E+03  0.7818609E-02  0.9559601E-01
       -2   -1    0    0    0  501  0.00000000000E+00  0.00000000000E+00  0.29059400686E+03  0.29059400687E+03  0.25500000920E-02 0. -1.
        2   -1    0    0  501    0  0.00000000000E+00  0.00000000000E+00 -0.55099243816E+03  0.55099243817E+03  0.25500000920E-02 0.  1.
    10030    2    1    2    0    0  0.00000000000E+00  0.00000000000E+00 -0.26039843130E+03  0.84158644504E+03  0.80028769918E+03 0.  0.
        2    1    3    3  502    0 -0.13466713393E+02 -0.25222288545E+03 -0.45656519751E+03  0.52177535003E+03  0.25500000920E-02 0.  1.
       -2    1    3    3    0  502  0.13466713393E+02  0.25222288545E+03  0.19616676622E+03  0.31981109501E+03  0.25500000920E-02 0. -1.
</event>
<event>
 5   0  0.6970013E-04  0.7997538E+03  0.7818609E-02  0.9560374E-01
       -2   -1    0    0    0  501  0.00000000000E+00  0.00000000000E+00  0.33576339865E+03  0.33576339866E+03  0.25500000920E-02 0.  1.
        2   -1    0    0  501    0  0.00000000000E+00  0.00000000000E+00 -0.47623274552E+03  0.47623274553E+03  0.25500000920E-02 0. -1.
    10030    2    1    2    0    0  0.00000000000E+00  0.00000000000E+00 -0.14046934687E+03  0.81199614419E+03  0.79975377509E+03 0.  0.
        3    1    3    3  502    0 -0.39720985873E+03 -0.35243150707E+02 -0.10041790157E+03  0.41121954805E+03  0.10100000352E+00 0. -1.
       -3    1    3    3    0  502  0.39720985873E+03  0.35243150707E+02 -0.40051445302E+02  0.40077659614E+03  0.10100000352E+00 0.  1.
</event>
<event>
 5   0  0.2736375E-04  0.7999090E+03  0.7818609E-02  0.9560149E-01
       -3   -1    0    0    0  501  0.00000000000E+00  0.00000000000E+00  0.94108709246E+03  0.94108709788E+03  0.10100000352E+00 0.  1.
        3   -1    0    0  501    0  0.00000000000E+00  0.00000000000E+00 -0.16997744459E+03  0.16997747460E+03  0.10100000352E+00 0. -1.
    10030    2    1    2    0    0  0.00000000000E+00  0.00000000000E+00  0.77110964787E+03  0.11110645725E+04  0.79990899181E+03 0.  0.
        1    1    3    3  502    0 -0.25367899144E+03  0.27985042868E+03  0.20289195012E+03  0.42875918250E+03  0.50400001928E-02 0.  1.
       -1    1    3    3    0  502  0.25367899144E+03 -0.27985042868E+03  0.56821769775E+03  0.68230538998E+03  0.50400001928E-02 0. -1.
</event>
<event>
 5   0  0.7133039E-04  0.8001419E+03  0.7818609E-02  0.9559812E-01
        2   -1    0    0  501    0  0.00000000000E+00  0.00000000000E+00  0.75663612245E+03  0.75663612246E+03  0.25500000920E-02 0.  1.
       -2   -1    0    0    0  501  0.00000000000E+00  0.00000000000E+00 -0.21153730313E+03  0.21153730314E+03  0.25500000920E-02 0. -1.
    10030    2    1    2    0    0  0.00000000000E+00  0.00000000000E+00  0.54509881932E+03  0.96817342560E+03  0.80014189942E+03 0.  0.
        2    1    3    3  502    0  0.19693032105E+03 -0.23886821825E+03 -0.34078573536E+02  0.31144971700E+03  0.25500000920E-02 0. -1.
       -2    1    3    3    0  502 -0.19693032105E+03  0.23886821825E+03  0.57917739286E+03  0.65672370860E+03  0.25500000920E-02 0.  1.
</event>
<event>
 5   0  0.6593118E-04  0.8001742E+03  0.7818609E-02  0.9559765E-01
       -2   -1    0    0    0  501  0.00000000000E+00  0.00000000000E+00  0.31998913741E+03  0.31998913743E+03  0.25500000920E-02 0. -1.
        2   -1    0    0  501    0  0.00000000000E+00  0.00000000000E+00 -0.50023475307E+03  0.50023475308E+03  0.25500000920E-02 0.  1.
    10030    2    1    2    0    0  0.00000000000E+00  0.00000000000E+00 -0.18024561566E+03  0.82022389050E+03  0.80017419890E+03 0.  0.
        1    1    3    3  502    0 -0.36015959062E+03 -0.13605707532E+03 -0.20167623781E+03  0.43462600403E+03  0.50400001928E-02 0.  1.
       -1    1    3    3    0  502  0.36015959062E+03  0.13605707532E+03  0.21430622157E+02  0.38559788647E+03  0.50400001928E-02 0. -1.
</event>
<event>
 5   0  0.4086111E-04  0.8001749E+03  0.7818609E-02  0.9559764E-01
       -1   -1    0    0    0  501  0.00000000000E+00  0.00000000000E+00  0.24615737696E+03  0.24615737701E+03  0.50400001928E-02 0.  1.
        1   -1    0    0  501    0  0.00000000000E+00  0.00000000000E+00 -0.65027497235E+03  0.65027497237E+03  0.50400001928E-02 0. -1.
    10030    2    1    2    0    0  0.00000000000E+00  0.00000000000E+00 -0.40411759539E+03  0.89643234938E+03  0.80017493469E+03 0.  0.
        3    1    3    3  502    0  0.83163635578E+01 -0.39016218217E+03 -0.10328023669E+03  0.40368615011E+03  0.10100000352E+00 0. -1.
       -3    1    3    3    0  502 -0.83163635578E+01  0.39016218217E+03 -0.30083735870E+03  0.49274619927E+03  0.10100000352E+00 0.  1.
</event>
<event>
 5   0  0.6672462E-04  0.8000201E+03  0.7818609E-02  0.9559988E-01
        2   -1    0    0  501    0  0.00000000000E+00  0.00000000000E+00  0.33310878508E+03  0.33310878509E+03  0.25500000920E-02 0. -1.
       -2   -1    0    0    0  501  0.00000000000E+00  0.00000000000E+00 -0.48034766655E+03  0.48034766656E+03  0.25500000920E-02 0.  1.
    10030    2    1    2    0    0  0.00000000000E+00  0.00000000000E+00 -0.14723888147E+03  0.81345645165E+03  0.80002006882E+03 0.  0.
        5    1    3    3  502    0 -0.28341430278E+02 -0.20986547344E+03 -0.41864002005E+03  0.46917833496E+03  0.46999998093E+01 0.  1.
       -5    1    3    3    0  502  0.28341430278E+02  0.20986547344E+03  0.27140113858E+03  0.34427811669E+03  0.46999998093E+01 0. -1.
</event>
<event>
 5   0  0.6801147E-04  0.7998405E+03  0.7818609E-02  0.9560248E-01
        2   -1    0    0  501    0  0.00000000000E+00  0.00000000000E+00  0.80487952518E+03  0.80487952518E+03  0.25500000920E-02 0. -1.
       -2   -1    0    0    0  501  0.00000000000E+00  0.00000000000E+00 -0.19870823111E+03  0.19870823113E+03  0.25500000920E-02 0.  1.
    10030    2    1    2    0    0  0.00000000000E+00  0.00000000000E+00  0.60617129407E+03  0.10035877563E+04  0.79984045088E+03 0.  0.
        4    1    3    3  502    0  0.38351730388E+03  0.57446458866E+02  0.18047450663E+03  0.42773622532E+03  0.12699999809E+01 0.  1.
       -4    1    3    3    0  502 -0.38351730388E+03 -0.57446458866E+02  0.42569678743E+03  0.57585153099E+03  0.12699999809E+01 0. -1.
</event>
<event>
 5   0  0.7133039E-04  0.8004474E+03  0.7818609E-02  0.9559370E-01
        2   -1    0    0  501    0  0.00000000000E+00  0.00000000000E+00  0.23928964711E+03  0.23928964713E+03  0.25500000920E-02 0.  1.
       -2   -1    0    0    0  501  0.00000000000E+00  0.00000000000E+00 -0.66939388210E+03  0.66939388210E+03  0.25500000920E-02 0. -1.
    10030    2    1    2    0    0  0.00000000000E+00  0.00000000000E+00 -0.43010423499E+03  0.90868352923E+03  0.80044743946E+03 0.  0.
        2    1    3    3  502    0 -0.19419856853E+03 -0.41661232426E+02  0.17939423704E+03  0.26763974779E+03  0.25500000920E-02 0.  1.
       -2    1    3    3    0  502  0.19419856853E+03  0.41661232426E+02 -0.60949847203E+03  0.64104378144E+03  0.25500000920E-02 0. -1.
</event>
<event>
 5   0  0.4086111E-04  0.8010548E+03  0.7818609E-02  0.9558492E-01
       -1   -1    0    0    0  501  0.00000000000E+00  0.00000000000E+00  0.28446297318E+03  0.28446297322E+03  0.50400001928E-02 0.  1.
        1   -1    0    0  501    0  0.00000000000E+00  0.00000000000E+00 -0.56394751904E+03  0.56394751907E+03  0.50400001928E-02 0. -1.
    10030    2    1    2    0    0  0.00000000000E+00  0.00000000000E+00 -0.27948454587E+03  0.84841049229E+03  0.80105477468E+03 0.  0.
        3    1    3    3  502    0  0.17338538462E+03 -0.14366222910E+03  0.21108100282E+03  0.30863656236E+03  0.10100000352E+00 0.  1.
       -3    1    3    3    0  502 -0.17338538462E+03  0.14366222910E+03 -0.49056554869E+03  0.53977392993E+03  0.10100000352E+00 0. -1.
</event>
<event>
 5   0  0.4392552E-04  0.7991822E+03  0.7818609E-02  0.9561202E-01
        1   -1    0    0  501    0  0.00000000000E+00  0.00000000000E+00  0.41061221520E+03  0.41061221524E+03  0.50400001928E-02 0.  1.
       -1   -1    0    0    0  501  0.00000000000E+00  0.00000000000E+00 -0.38886584463E+03  0.38886584466E+03  0.50400001928E-02 0. -1.
    10030    2    1    2    0    0  0.00000000000E+00  0.00000000000E+00  0.21746370578E+02  0.79947805989E+03  0.79918224681E+03 0.  0.
        5    1    3    3  502    0  0.31813829815E+03  0.21346136775E+03 -0.10262912891E+03  0.39665168645E+03  0.46999998093E+01 0.  1.
       -5    1    3    3    0  502 -0.31813829815E+03 -0.21346136775E+03  0.12437549949E+03  0.40282637344E+03  0.46999998093E+01 0. -1.
</event>
<event>
 5   0  0.6593118E-04  0.7992955E+03  0.7818609E-02  0.9561037E-01
        2   -1    0    0  501    0  0.00000000000E+00  0.00000000000E+00  0.83969599667E+03  0.83969599667E+03  0.25500000920E-02 0. -1.
       -2   -1    0    0    0  501  0.00000000000E+00  0.00000000000E+00 -0.19020971556E+03  0.19020971557E+03  0.25500000920E-02 0.  1.
    10030    2    1    2    0    0  0.00000000000E+00  0.00000000000E+00  0.64948628111E+03  0.10299057122E+04  0.79929553156E+03 0.  0.
        1    1    3    3  502    0  0.28866482776E+03  0.42659018973E+02  0.67660770899E+03  0.73684812992E+03  0.50400001928E-02 0. -1.
       -1    1    3    3    0  502 -0.28866482776E+03 -0.42659018973E+02 -0.27121427872E+02  0.29305758233E+03  0.50400001928E-02 0.  1.
</event>
<event>
 5   0  0.6672462E-04  0.7998909E+03  0.7818609E-02  0.9560175E-01
        2   -1    0    0  501    0  0.00000000000E+00  0.00000000000E+00  0.61238080526E+03  0.61238080527E+03  0.25500000920E-02 0.  1.
       -2   -1    0    0    0  501  0.00000000000E+00  0.00000000000E+00 -0.26120409286E+03  0.26120409287E+03  0.25500000920E-02 0. -1.
    10030    2    1    2    0    0  0.00000000000E+00  0.00000000000E+00  0.35117671240E+03  0.87358489814E+03  0.79989092440E+03 0.  0.
        5    1    3    3  502    0 -0.84253745057E+02  0.69307112992E+02  0.59578474712E+03  0.60570927380E+03  0.46999998093E+01 0.  1.
       -5    1    3    3    0  502  0.84253745057E+02 -0.69307112992E+02 -0.24460803472E+03  0.26787562434E+03  0.46999998093E+01 0. -1.
</event>
<event>
 5   0  0.6672462E-04  0.7996660E+03  0.7818609E-02  0.9560501E-01
        2   -1    0    0  501    0  0.00000000000E+00  0.00000000000E+00  0.50269145005E+03  0.50269145006E+03  0.25500000920E-02 0. -1.
       -2   -1    0    0    0  501  0.00000000000E+00  0.00000000000E+00 -0.31802097762E+03  0.31802097763E+03  0.25500000920E-02 0.  1.
    10030    2    1    2    0    0  0.00000000000E+00  0.00000000000E+00  0.18467047243E+03  0.82071242769E+03  0.79966599626E+03 0.  0.
        5    1    3    3  502    0 -0.21708748833E+03  0.96482705150E+02  0.42237053136E+03  0.48461824743E+03  0.46999998093E+01 0. -1.
       -5    1    3    3    0  502  0.21708748833E+03 -0.96482705150E+02 -0.23770005894E+03  0.33609418025E+03  0.46999998093E+01 0.  1.
</event>
<event>
 5   0  0.4169155E-04  0.8001356E+03  0.7818609E-02  0.9559821E-01
       -1   -1    0    0    0  501  0.00000000000E+00  0.00000000000E+00  0.35997992693E+03  0.35997992697E+03  0.50400001928E-02 0.  1.
        1   -1    0    0  501    0  0.00000000000E+00  0.00000000000E+00 -0.44461988994E+03  0.44461988997E+03  0.50400001928E-02 0. -1.
    10030    2    1    2    0    0  0.00000000000E+00  0.00000000000E+00 -0.84639963011E+02  0.80459981694E+03  0.80013557731E+03 0.  0.
        4    1    3    3  502    0 -0.74174601434E+02 -0.22983931283E+02 -0.43696662929E+03  0.44381480441E+03  0.12699999809E+01 0. -1.
       -4    1    3    3    0  502  0.74174601434E+02  0.22983931283E+02  0.35232666628E+03  0.36078501253E+03  0.12699999809E+01 0.  1.
</event>
<event>
 5   0  0.4169155E-04  0.8006228E+03  0.7818609E-02  0.9559116E-01
        1   -1    0    0  501    0  0.00000000000E+00  0.00000000000E+00  0.50937262691E+03  0.50937262693E+03  0.50400001928E-02 0. -1.
       -1   -1    0    0    0  501  0.00000000000E+00  0.00000000000E+00 -0.31460116098E+03  0.31460116102E+03  0.50400001928E-02 0.  1.
    10030    2    1    2    0    0  0.00000000000E+00  0.00000000000E+00  0.19477146593E+03  0.82397378796E+03  0.80062280713E+03 0.  0.
        4    1    3    3  502    0  0.35289009149E+03 -0.17157879826E+03  0.15848070006E+02  0.39271296758E+03  0.12699999809E+01 0.  1.
       -4    1    3    3    0  502 -0.35289009149E+03  0.17157879826E+03  0.17892339592E+03  0.43126082038E+03  0.12699999809E+01 0. -1.
</event>
<event>
 5   0  0.4104786E-04  0.7998920E+03  0.7818609E-02  0.9560173E-01
       -1   -1    0    0    0  501  0.00000000000E+00  0.00000000000E+00  0.36640975663E+03  0.36640975667E+03  0.50400001928E-02 0.  1.
        1   -1    0    0  501    0  0.00000000000E+00  0.00000000000E+00 -0.43655166759E+03  0.43655166762E+03  0.50400001928E-02 0. -1.
    10030    2    1    2    0    0  0.00000000000E+00  0.00000000000E+00 -0.70141910959E+02  0.80296142429E+03  0.79989196847E+03 0.  0.
        2    1    3    3  502    0 -0.12513891318E+03  0.34414905080E+03  0.12635181155E+03  0.38737978399E+03  0.25500000920E-02 0.  1.
       -2    1    3    3    0  502  0.12513891318E+03 -0.34414905080E+03 -0.19649372251E+03  0.41558164030E+03  0.25500000920E-02 0. -1.
</event>
<event>
 5   0  0.6593118E-04  0.7999031E+03  0.7818609E-02  0.9560157E-01
        2   -1    0    0  501    0  0.00000000000E+00  0.00000000000E+00  0.91714918477E+03  0.91714918478E+03  0.25500000920E-02 0.  1.
       -2   -1    0    0    0  501  0.00000000000E+00  0.00000000000E+00 -0.17441137382E+03  0.17441137384E+03  0.25500000920E-02 0. -1.
    10030    2    1    2    0    0  0.00000000000E+00  0.00000000000E+00  0.74273781095E+03  0.10915605586E+04  0.79990311745E+03 0.  0.
        1    1    3    3  502    0  0.26380475823E+03 -0.30214024385E+02 -0.36775412329E+02  0.26806392654E+03  0.50400001928E-02 0. -1.
       -1    1    3    3    0  502 -0.26380475823E+03  0.30214024385E+02  0.77951322328E+03  0.82349663207E+03  0.50400001928E-02 0.  1.
</event>
<event>
 5   0  0.6672462E-04  0.7997487E+03  0.7818609E-02  0.9560381E-01
        2   -1    0    0  501    0  0.00000000000E+00  0.00000000000E+00  0.50568963467E+03  0.50568963468E+03  0.25500000920E-02 0.  1.
       -2   -1    0    0    0  501  0.00000000000E+00  0.00000000000E+00 -0.31620085733E+03  0.31620085734E+03  0.25500000920E-02 0. -1.
    10030    2    1    2    0    0  0.00000000000E+00  0.00000000000E+00  0.18948877734E+03  0.82189049201E+03  0.79974870061E+03 0.  0.
        5    1    3    3  502    0 -0.30203105690E+03  0.21464912444E+03 -0.59683676238E+02  0.37534149406E+03  0.46999998093E+01 0. -1.
       -5    1    3    3    0  502  0.30203105690E+03 -0.21464912444E+03  0.24917245358E+03  0.44654899796E+03  0.46999998093E+01 0.  1.
</event>
<event>
 5   0  0.6970013E-04  0.7971206E+03  0.7818609E-02  0.9564194E-01
       -2   -1    0    0    0  501  0.00000000000E+00  0.00000000000E+00  0.96045926151E+02  0.96045926185E+02  0.25500000920E-02 0. -1.
        2   -1    0    0  501    0  0.00000000000E+00  0.00000000000E+00 -0.16538993689E+04  0.16538993689E+04  0.25500000920E-02 0.  1.
    10030    2    1    2    0    0  0.00000000000E+00  0.00000000000E+00 -0.15578534427E+04  0.17499452951E+04  0.79712055971E+03 0.  0.
        3    1    3    3  502    0  0.23127015365E+03 -0.41011700379E+02 -0.14858187305E+04  0.15042689765E+04  0.10100000352E+00 0.  1.
       -3    1    3    3    0  502 -0.23127015365E+03  0.41011700379E+02 -0.72034712216E+02  0.24567631856E+03  0.10100000352E+00 0. -1.
</event>
<event>
 5   0  0.4169155E-04  0.7997662E+03  0.7818609E-02  0.9560356E-01
       -1   -1    0    0    0  501  0.00000000000E+00  0.00000000000E+00  0.49697928061E+03  0.49697928064E+03  0.50400001928E-02 0.  1.
        1   -1    0    0  501    0  0.00000000000E+00  0.00000000000E+00 -0.32175683094E+03  0.32175683098E+03  0.50400001928E-02 0. -1.
    10030    2    1    2    0    0  0.00000000000E+00  0.00000000000E+00  0.17522244967E+03  0.81873611161E+03  0.79976616182E+03 0.  0.
        4    1    3    3  502    0 -0.17578734747E+03  0.16070338961E+03 -0.24122122837E+03  0.33899272099E+03  0.12699999809E+01 0. -1.
       -4    1    3    3    0  502  0.17578734747E+03 -0.16070338961E+03  0.41644367805E+03  0.47974339063E+03  0.12699999809E+01 0.  1.
</event>
<event>
 5   0  0.6593118E-04  0.8000133E+03  0.7818609E-02  0.9559998E-01
       -2   -1    0    0    0  501  0.00000000000E+00  0.00000000000E+00  0.45845738455E+03  0.45845738456E+03  0.25500000920E-02 0. -1.
        2   -1    0    0  501    0  0.00000000000E+00  0.00000000000E+00 -0.34900801935E+03  0.34900801936E+03  0.25500000920E-02 0.  1.
    10030    2    1    2    0    0  0.00000000000E+00  0.00000000000E+00  0.10944936520E+03  0.80746540392E+03  0.80001325925E+03 0.  0.
        1    1    3    3  502    0  0.22924582013E+03 -0.59389283317E+02  0.38010093935E+03  0.44783641783E+03  0.50400001928E-02 0. -1.
       -1    1    3    3    0  502 -0.22924582013E+03  0.59389283317E+02 -0.27065157415E+03  0.35962898609E+03  0.50400001928E-02 0.  1.
</event>
<event>
 5   0  0.4169155E-04  0.8001753E+03  0.7818609E-02  0.9559763E-01
       -1   -1    0    0    0  501  0.00000000000E+00  0.00000000000E+00  0.12110886467E+03  0.12110886477E+03  0.50400001928E-02 0. -1.
        1   -1    0    0  501    0  0.00000000000E+00  0.00000000000E+00 -0.13217046286E+04  0.13217046286E+04  0.50400001928E-02 0.  1.
    10030    2    1    2    0    0  0.00000000000E+00  0.00000000000E+00 -0.12005957639E+04  0.14428134933E+04  0.80017534847E+03 0.  0.
        4    1    3    3  502    0 -0.34716771788E+03 -0.59946921668E+02 -0.25841975780E+03  0.43692269554E+03  0.12699999809E+01 0.  1.
       -4    1    3    3    0  502  0.34716771788E+03  0.59946921668E+02 -0.94217600610E+03  0.10058907978E+04  0.12699999809E+01 0. -1.
</event>
<event>
 5   0  0.6970013E-04  0.8000623E+03  0.7818609E-02  0.9559927E-01
        2   -1    0    0  501    0  0.00000000000E+00  0.00000000000E+00  0.12616315289E+04  0.12616315289E+04  0.25500000920E-02 0. -1.
       -2   -1    0    0    0  501  0.00000000000E+00  0.00000000000E+00 -0.12683966295E+03  0.12683966298E+03  0.25500000920E-02 0.  1.
    10030    2    1    2    0    0  0.00000000000E+00  0.00000000000E+00  0.11347918660E+04  0.13884711919E+04  0.80006229237E+03 0.  0.
        3    1    3    3  502    0 -0.96433403609E+02  0.19128434556E+03 -0.18909644099E+02  0.21505042904E+03  0.10100000352E+00 0.  1.
       -3    1    3    3    0  502  0.96433403609E+02 -0.19128434556E+03  0.11537015101E+04  0.11734207629E+04  0.10100000352E+00 0. -1.
</event>
<event>
 5   0  0.6801147E-04  0.8000187E+03  0.7818609E-02  0.9559990E-01
        2   -1    0    0  501    0  0.00000000000E+00  0.00000000000E+00  0.26750311827E+03  0.26750311828E+03  0.25500000920E-02 0. -1.
       -2   -1    0    0    0  501  0.00000000000E+00  0.00000000000E+00 -0.59815176440E+03  0.59815176440E+03  0.25500000920E-02 0.  1.
    10030    2    1    2    0    0  0.00000000000E+00  0.00000000000E+00 -0.33064864613E+03  0.86565488269E+03  0.80001865524E+03 0.  0.
        4    1    3    3  502    0 -0.38962643422E+03 -0.71878850681E+02 -0.10575764519E+03  0.41007513926E+03  0.12699999809E+01 0. -1.
       -4    1    3    3    0  502  0.38962643422E+03  0.71878850681E+02 -0.22489100093E+03  0.45557974343E+03  0.12699999809E+01 0.  1.
</event>
<event>
 5   0  0.4087283E-04  0.7999641E+03  0.7818609E-02  0.9560069E-01
       -1   -1    0    0    0  501  0.00000000000E+00  0.00000000000E+00  0.50278530609E+03  0.50278530612E+03  0.50400001928E-02 0. -1.
        1   -1    0    0  501    0  0.00000000000E+00  0.00000000000E+00 -0.31819874767E+03  0.31819874771E+03  0.50400001928E-02 0.  1.
    10030    2    1    2    0    0  0.00000000000E+00  0.00000000000E+00  0.18458655842E+03  0.82098405383E+03  0.79996413613E+03 0.  0.
        1    1    3    3  502    0  0.95035761896E+02  0.36060074528E+03  0.24073467240E+03  0.44386695761E+03  0.50400001928E-02 0. -1.
       -1    1    3    3    0  502 -0.95035761896E+02 -0.36060074528E+03 -0.56148113982E+02  0.37711709622E+03  0.50400001928E-02 0.  1.
</event>
<event>
 5   0  0.6593118E-04  0.8001148E+03  0.7818609E-02  0.9559851E-01
        2   -1    0    0  501    0  0.00000000000E+00  0.00000000000E+00  0.26124610692E+04  0.26124610692E+04  0.25500000920E-02 0. -1.
       -2   -1    0    0    0  501  0.00000000000E+00  0.00000000000E+00 -0.61262515489E+02  0.61262515542E+02  0.25500000920E-02 0.  1.
    10030    2    1    2    0    0  0.00000000000E+00  0.00000000000E+00  0.25511985538E+04  0.26737235848E+04  0.80011483374E+03 0.  0.
        1    1    3    3  502    0 -0.33981826684E+03 -0.96043196007E+01  0.19803460507E+04  0.20093131110E+04  0.50400001928E-02 0. -1.
       -1    1    3    3    0  502  0.33981826684E+03  0.96043196007E+01  0.57085250309E+03  0.66441047384E+03  0.50400001928E-02 0.  1.
</event>
<event>
 5   0  0.4086111E-04  0.7998619E+03  0.7818609E-02  0.9560217E-01
        1   -1    0    0  501    0  0.00000000000E+00  0.00000000000E+00  0.12259213348E+04  0.12259213348E+04  0.50400001928E-02 0.  1.
       -1   -1    0    0    0  501  0.00000000000E+00  0.00000000000E+00 -0.13046902326E+03  0.13046902336E+03  0.50400001928E-02 0. -1.
    10030    2    1    2    0    0  0.00000000000E+00  0.00000000000E+00  0.10954523115E+04  0.13563903582E+04  0.79986188612E+03 0.  0.
        3    1    3    3  502    0 -0.19744346414E+03  0.20909095630E+03  0.10190244658E+04  0.10588266249E+04  0.10100000352E+00 0.  1.
       -3    1    3    3    0  502  0.19744346414E+03 -0.20909095630E+03  0.76427845734E+02  0.29756373324E+03  0.10100000352E+00 0. -1.
</event>
<event>
 5   0  0.4392552E-04  0.8002686E+03  0.7818609E-02  0.9559628E-01
        1   -1    0    0  501    0  0.00000000000E+00  0.00000000000E+00  0.64797835273E+03  0.64797835275E+03  0.50400001928E-02 0.  1.
       -1   -1    0    0    0  501  0.00000000000E+00  0.00000000000E+00 -0.24708768933E+03  0.24708768938E+03  0.50400001928E-02 0. -1.
    10030    2    1    2    0    0  0.00000000000E+00  0.00000000000E+00  0.40089066340E+03  0.89506604213E+03  0.80026863975E+03 0.  0.
        5    1    3    3  502    0 -0.19882143056E+03  0.30465776677E+03  0.38672489609E+03  0.53096567813E+03  0.46999998093E+01 0. -1.
       -5    1    3    3    0  502  0.19882143056E+03 -0.30465776677E+03  0.14165767312E+02  0.36410036399E+03  0.46999998093E+01 0.  1.
</event>
<event>
 5   0  0.4169155E-04  0.8000020E+03  0.7818609E-02  0.9560014E-01
        1   -1    0    0  501    0  0.00000000000E+00  0.00000000000E+00  0.48528730644E+03  0.48528730647E+03  0.50400001928E-02 0.  1.
       -1   -1    0    0    0  501  0.00000000000E+00  0.00000000000E+00 -0.32970327537E+03  0.32970327540E+03  0.50400001928E-02 0. -1.
    10030    2    1    2    0    0  0.00000000000E+00  0.00000000000E+00  0.15558403108E+03  0.81499058187E+03  0.80000203613E+03 0.  0.
        4    1    3    3  502    0 -0.21000923037E+03  0.11114659089E+03  0.40559980500E+03  0.47007473472E+03  0.12699999809E+01 0.  1.
       -4    1    3    3    0  502  0.21000923037E+03 -0.11114659089E+03 -0.25001577392E+03  0.34491584715E+03  0.12699999809E+01 0. -1.
</event>
<event>
 5   0  0.4086111E-04  0.8003448E+03  0.7818609E-02  0.9559518E-01
        1   -1    0    0  501    0  0.00000000000E+00  0.00000000000E+00  0.66004586166E+03  0.66004586168E+03  0.50400001928E-02 0.  1.
       -1   -1    0    0    0  501  0.00000000000E+00  0.00000000000E+00 -0.24261637245E+03  0.24261637250E+03  0.50400001928E-02 0. -1.
    10030    2    1    2    0    0  0.00000000000E+00  0.00000000000E+00  0.41742948920E+03  0.90266223418E+03  0.80034475731E+03 0.  0.
        3    1    3    3  502    0  0.11131319599E+03  0.11809966890E+03  0.62126403119E+03  0.64211149036E+03  0.10100000352E+00 0.  1.
       -3    1    3    3    0  502 -0.11131319599E+03 -0.11809966890E+03 -0.20383454199E+03  0.26055074382E+03  0.10100000352E+00 0. -1.
</event>
<event>
 5   0  0.4086111E-04  0.8004783E+03  0.7818609E-02  0.9559325E-01
        1   -1    0    0  501    0  0.00000000000E+00  0.00000000000E+00  0.69716366950E+03  0.69716366952E+03  0.50400001928E-02 0.  1.
       -1   -1    0    0    0  501  0.00000000000E+00  0.00000000000E+00 -0.22977585055E+03  0.22977585061E+03  0.50400001928E-02 0. -1.
    10030    2    1    2    0    0  0.00000000000E+00  0.00000000000E+00  0.46738781895E+03  0.92693952012E+03  0.80047829494E+03 0.  0.
        3    1    3    3  502    0 -0.35514509732E+03  0.18407005546E+03  0.24929616565E+03  0.47133683696E+03  0.10100000352E+00 0.  1.
       -3    1    3    3    0  502  0.35514509732E+03 -0.18407005546E+03  0.21809165329E+03  0.45560268316E+03  0.10100000352E+00 0. -1.
</event>
<event>
 5   0  0.4169155E-04  0.8000651E+03  0.7818609E-02  0.9559923E-01
       -1   -1    0    0    0  501  0.00000000000E+00  0.00000000000E+00  0.18828056043E+03  0.18828056050E+03  0.50400001928E-02 0.  1.
        1   -1    0    0  501    0  0.00000000000E+00  0.00000000000E+00 -0.84993392505E+03  0.84993392506E+03  0.50400001928E-02 0. -1.
    10030    2    1    2    0    0  0.00000000000E+00  0.00000000000E+00 -0.66165336462E+03  0.10382144856E+04  0.80006508680E+03 0.  0.
        4    1    3    3  502    0 -0.96296615544E+02  0.15117812090E+03  0.13325154922E+03  0.22335051080E+03  0.12699999809E+01 0.  1.
       -4    1    3    3    0  502  0.96296615544E+02 -0.15117812090E+03 -0.79490491384E+03  0.81486397476E+03  0.12699999809E+01 0. -1.
</event>
<event>
 5   0  0.4086111E-04  0.8001090E+03  0.7818609E-02  0.9559859E-01
        1   -1    0    0  501    0  0.00000000000E+00  0.00000000000E+00  0.17585713713E+03  0.17585713720E+03  0.50400001928E-02 0. -1.
       -1   -1    0    0    0  501  0.00000000000E+00  0.00000000000E+00 -0.91007732165E+03  0.91007732166E+03  0.50400001928E-02 0.  1.
    10030    2    1    2    0    0  0.00000000000E+00  0.00000000000E+00 -0.73422018452E+03  0.10859344589E+04  0.80010897357E+03 0.  0.
        3    1    3    3  502    0  0.91807696261E+02  0.38100538393E+03 -0.25810959228E+03  0.46926999425E+03  0.10100000352E+00 0. -1.
       -3    1    3    3    0  502 -0.91807696261E+02 -0.38100538393E+03 -0.47611059224E+03  0.61666446461E+03  0.10100000352E+00 0.  1.
</event>
<event>
 5   0  0.4087283E-04  0.7941349E+03  0.7818609E-02  0.9568546E-01
       -1   -1    0    0    0  501  0.00000000000E+00  0.00000000000E+00  0.18847879941E+03  0.18847879948E+03  0.50400001928E-02 0.  1.
        1   -1    0    0  501    0  0.00000000000E+00  0.00000000000E+00 -0.83650028607E+03  0.83650028609E+03  0.50400001928E-02 0. -1.
    10030    2    1    2    0    0  0.00000000000E+00  0.00000000000E+00 -0.64802148666E+03  0.10249790856E+04  0.79413492473E+03 0.  0.
        1    1    3    3  502    0  0.12674386128E+03 -0.15443633977E+03 -0.76690234082E+03  0.79249844782E+03  0.50400001928E-02 0. -1.
       -1    1    3    3    0  502 -0.12674386128E+03  0.15443633977E+03  0.11888085416E+03  0.23248063774E+03  0.50400001928E-02 0.  1.
</event>
<event>
 5   0  0.4086111E-04  0.8004763E+03  0.7818609E-02  0.9559328E-01
       -1   -1    0    0    0  501  0.00000000000E+00  0.00000000000E+00  0.10824983931E+04  0.10824983931E+04  0.50400001928E-02 0.  1.
        1   -1    0    0  501    0  0.00000000000E+00  0.00000000000E+00 -0.14798226171E+03  0.14798226180E+03  0.50400001928E-02 0. -1.
    10030    2    1    2    0    0  0.00000000000E+00  0.00000000000E+00  0.93451613137E+03  0.12304806549E+04  0.80047625966E+03 0.  0.
        3    1    3    3  502    0 -0.19220521125E+03 -0.31456775729E+03  0.70685612442E+03  0.79720844701E+03  0.10100000352E+00 0.  1.
       -3    1    3    3    0  502  0.19220521125E+03  0.31456775729E+03  0.22766000695E+03  0.43327220788E+03  0.10100000352E+00 0. -1.
</event>
<event>
 5   0  0.6970013E-04  0.8002767E+03  0.7818609E-02  0.9559617E-01
        2   -1    0    0  501    0  0.00000000000E+00  0.00000000000E+00  0.10712012603E+04  0.10712012603E+04  0.25500000920E-02 0. -1.
       -2   -1    0    0    0  501  0.00000000000E+00  0.00000000000E+00 -0.14946837196E+03  0.14946837198E+03  0.25500000920E-02 0.  1.
    10030    2    1    2    0    0  0.00000000000E+00  0.00000000000E+00  0.92173288831E+03  0.12206696323E+04  0.80027672321E+03 0.  0.
        3    1    3    3  502    0  0.15733327757E+03  0.24888658583E+02 -0.99022879023E+02  0.18755998062E+03  0.10100000352E+00 0.  1.
       -3    1    3    3    0  502 -0.15733327757E+03 -0.24888658583E+02  0.10207557673E+04  0.10331096516E+04  0.10100000352E+00 0. -1.
</event>
<event>
 5   0  0.7133039E-04  0.8000671E+03  0.7818609E-02  0.9559920E-01
       -2   -1    0    0    0  501  0.00000000000E+00  0.00000000000E+00  0.58152372915E+03  0.58152372915E+03  0.25500000920E-02 0. -1.
        2   -1    0    0  501    0  0.00000000000E+00  0.00000000000E+00 -0.27518541945E+03  0.27518541946E+03  0.25500000920E-02 0.  1.
    10030    2    1    2    0    0  0.00000000000E+00  0.00000000000E+00  0.30633830970E+03  0.85670914861E+03  0.80006712551E+03 0.  0.
        2    1    3    3  502    0  0.77702778058E+02  0.37208379829E+03  0.28666608599E+03  0.47608982296E+03  0.25500000920E-02 0.  1.
       -2    1    3    3    0  502 -0.77702778058E+02 -0.37208379829E+03  0.19672223715E+02  0.38061932565E+03  0.25500000920E-02 0. -1.
</event>
<event>
 5   0  0.4392552E-04  0.7997167E+03  0.7818609E-02  0.9560427E-01
       -1   -1    0    0    0  501  0.00000000000E+00  0.00000000000E+00  0.12154362073E+03  0.12154362083E+03  0.50400001928E-02 0. -1.
        1   -1    0    0  501    0  0.00000000000E+00  0.00000000000E+00 -0.13154675696E+04  0.13154675697E+04  0.50400001928E-02 0.  1.
    10030    2    1    2    0    0  0.00000000000E+00  0.00000000000E+00 -0.11939239489E+04  0.14370111905E+04  0.79971667845E+03 0.  0.
        5    1    3    3  502    0 -0.32183953267E+03  0.18207771036E+03 -0.87025406278E+03  0.94556713203E+03  0.46999998093E+01 0. -1.
       -5    1    3    3    0  502  0.32183953267E+03 -0.18207771036E+03 -0.32366988613E+03  0.49144405845E+03  0.46999998093E+01 0.  1.
</event>
<event>
 5   0  0.6970013E-04  0.7997514E+03  0.7818609E-02  0.9560377E-01
       -2   -1    0    0    0  501  0.00000000000E+00  0.00000000000E+00  0.16302141980E+03  0.16302141982E+03  0.25500000920E-02 0. -1.
        2   -1    0    0  501    0  0.00000000000E+00  0.00000000000E+00 -0.98085611270E+03  0.98085611270E+03  0.25500000920E-02 0.  1.
    10030    2    1    2    0    0  0.00000000000E+00  0.00000000000E+00 -0.81783469290E+03  0.11438775325E+04  0.79975135166E+03 0.  0.
        3    1    3    3  502    0 -0.12016340751E+03 -0.31056948273E+03 -0.92283319673E+02  0.34555588462E+03  0.10100000352E+00 0. -1.
       -3    1    3    3    0  502  0.12016340751E+03  0.31056948273E+03 -0.72555137323E+03  0.79832164790E+03  0.10100000352E+00 0.  1.
</event>
<event>
 5   0  0.6593118E-04  0.7998769E+03  0.7818609E-02  0.9560195E-01
        2   -1    0    0  501    0  0.00000000000E+00  0.00000000000E+00  0.12003645261E+04  0.12003645261E+04  0.25500000920E-02 0. -1.
       -2   -1    0    0    0  501  0.00000000000E+00  0.00000000000E+00 -0.13325181976E+03  0.13325181978E+03  0.25500000920E-02 0.  1.
    10030    2    1    2    0    0  0.00000000000E+00  0.00000000000E+00  0.10671127063E+04  0.13336163459E+04  0.79987688425E+03 0.  0.
        1    1    3    3  502    0 -0.34361953400E+03  0.15537898816E+03  0.75558446887E+03  0.84446723070E+03  0.50400001928E-02 0. -1.
       -1    1    3    3    0  502  0.34361953400E+03 -0.15537898816E+03  0.31152823744E+03  0.48914911515E+03  0.50400001928E-02 0.  1.
</event>
<event>
 5   0  0.6801147E-04  0.8016069E+03  0.7818609E-02  0.9557694E-01
        2   -1    0    0  501    0  0.00000000000E+00  0.00000000000E+00  0.66883088009E+03  0.66883088010E+03  0.25500000920E-02 0.  1.
       -2   -1    0    0    0  501  0.00000000000E+00  0.00000000000E+00 -0.24018540672E+03  0.24018540674E+03  0.25500000920E-02 0. -1.
    10030    2    1    2    0    0  0.00000000000E+00  0.00000000000E+00  0.42864547337E+03  0.90901628683E+03  0.80160692854E+03 0.  0.
        4    1    3    3  502    0 -0.23029714370E+03 -0.73011532924E+02 -0.14833216952E+03  0.28349868386E+03  0.12699999809E+01 0. -1.
       -4    1    3    3    0  502  0.23029714370E+03  0.73011532924E+02  0.57697764289E+03  0.62551760297E+03  0.12699999809E+01 0.  1.
</event>
<event>
 5   0  0.7133039E-04  0.8000749E+03  0.7818609E-02  0.9559909E-01
        2   -1    0    0  501    0  0.00000000000E+00  0.00000000000E+00  0.10572000166E+04  0.10572000166E+04  0.25500000920E-02 0. -1.
       -2   -1    0    0    0  501  0.00000000000E+00  0.00000000000E+00 -0.15137150382E+03  0.15137150384E+03  0.25500000920E-02 0.  1.
    10030    2    1    2    0    0  0.00000000000E+00  0.00000000000E+00  0.90582851275E+03  0.12085715204E+04  0.80007488739E+03 0.  0.
        2    1    3    3  502    0  0.25601892173E+03  0.22118242233E+03  0.13047642910E+03  0.36261749929E+03  0.25500000920E-02 0.  1.
       -2    1    3    3    0  502 -0.25601892173E+03 -0.22118242233E+03  0.77535208365E+03  0.84595402113E+03  0.25500000920E-02 0. -1.
</event>
<event>
 5   0  0.4392552E-04  0.8001928E+03  0.7818609E-02  0.9559738E-01
        1   -1    0    0  501    0  0.00000000000E+00  0.00000000000E+00  0.41441433378E+03  0.41441433381E+03  0.50400001928E-02 0.  1.
       -1   -1    0    0    0  501  0.00000000000E+00  0.00000000000E+00 -0.38627316073E+03  0.38627316076E+03  0.50400001928E-02 0. -1.
    10030    2    1    2    0    0  0.00000000000E+00  0.00000000000E+00  0.28141173057E+02  0.80068749457E+03  0.80019281323E+03 0.  0.
        5    1    3    3  502    0 -0.14827680965E+03 -0.36687448705E+03  0.73031907434E+02  0.40241601736E+03  0.46999998093E+01 0.  1.
       -5    1    3    3    0  502  0.14827680965E+03  0.36687448705E+03 -0.44890734377E+02  0.39827147721E+03  0.46999998093E+01 0. -1.
</event>
<event>
 5   0  0.7133039E-04  0.8001828E+03  0.7818609E-02  0.9559753E-01
       -2   -1    0    0    0  501  0.00000000000E+00  0.00000000000E+00  0.22709552750E+03  0.22709552751E+03  0.25500000920E-02 0. -1.
        2   -1    0    0  501    0  0.00000000000E+00  0.00000000000E+00 -0.70487130760E+03  0.70487130761E+03  0.25500000920E-02 0.  1.
    10030    2    1    2    0    0  0.00000000000E+00  0.00000000000E+00 -0.47777578010E+03  0.93196683512E+03  0.80018278268E+03 0.  0.
        2    1    3    3  502    0  0.93681735408E+02 -0.28985117242E+03  0.63221635387E+02  0.31110600266E+03  0.25500000920E-02 0. -1.
       -2    1    3    3    0  502 -0.93681735408E+02  0.28985117242E+03 -0.54099741549E+03  0.62086083246E+03  0.25500000920E-02 0.  1.
</event>
<event>
 5   0  0.4392552E-04  0.7999150E+03  0.7818609E-02  0.9560140E-01
       -1   -1    0    0    0  501  0.00000000000E+00  0.00000000000E+00  0.64975326525E+02  0.64975326721E+02  0.50400001928E-02 0.  1.
        1   -1    0    0  501    0  0.00000000000E+00  0.00000000000E+00 -0.24619499115E+04  0.24619499115E+04  0.50400001928E-02 0. -1.
    10030    2    1    2    0    0  0.00000000000E+00  0.00000000000E+00 -0.23969745850E+04  0.25269252382E+04  0.79991499459E+03 0.  0.
        5    1    3    3  502    0  0.15690922740E+03 -0.25363213957E+03 -0.35678247666E+03  0.46504364689E+03  0.46999998093E+01 0.  1.
       -5    1    3    3    0  502 -0.15690922740E+03  0.25363213957E+03 -0.20401921083E+04  0.20618815913E+04  0.46999998093E+01 0. -1.
</event>
<event>
 5   0  0.4104786E-04  0.7998407E+03  0.7818609E-02  0.9560248E-01
        1   -1    0    0  501    0  0.00000000000E+00  0.00000000000E+00  0.76719808742E+03  0.76719808744E+03  0.50400001928E-02 0. -1.
       -1   -1    0    0    0  501  0.00000000000E+00  0.00000000000E+00 -0.20846805456E+03  0.20846805462E+03  0.50400001928E-02 0.  1.
    10030    2    1    2    0    0  0.00000000000E+00  0.00000000000E+00  0.55873003286E+03  0.97566614206E+03  0.79984071611E+03 0.  0.
        2    1    3    3  502    0 -0.10188212454E+03  0.37771881426E+03  0.38057983721E+03  0.54579527521E+03  0.25500000920E-02 0.  1.
       -2    1    3    3    0  502  0.10188212454E+03 -0.37771881426E+03  0.17815019565E+03  0.42987086685E+03  0.25500000920E-02 0. -1.
</event>
<event>
 5   0  0.4104786E-04  0.7998636E+03  0.7818609E-02  0.9560215E-01
        1   -1    0    0  501    0  0.00000000000E+00  0.00000000000E+00  0.33892578806E+03  0.33892578810E+03  0.50400001928E-02 0. -1.
       -1   -1    0    0    0  501  0.00000000000E+00  0.00000000000E+00 -0.47191879562E+03  0.47191879564E+03  0.50400001928E-02 0.  1.
    10030    2    1    2    0    0  0.00000000000E+00  0.00000000000E+00 -0.13299300755E+03  0.81084458374E+03  0.79986361270E+03 0.  0.
        2    1    3    3  502    0  0.10324471211E+03 -0.20810524449E+03 -0.39650864747E+03  0.45955018321E+03  0.25500000920E-02 0.  1.
       -2    1    3    3    0  502 -0.10324471211E+03  0.20810524449E+03  0.26351563991E+03  0.35129440053E+03  0.25500000920E-02 0. -1.
</event>
<event>
 5   0  0.4104786E-04  0.7997983E+03  0.7818609E-02  0.9560309E-01
       -1   -1    0    0    0  501  0.00000000000E+00  0.00000000000E+00  0.18256006441E+03  0.18256006448E+03  0.50400001928E-02 0.  1.
        1   -1    0    0  501    0  0.00000000000E+00  0.00000000000E+00 -0.87598204809E+03  0.87598204810E+03  0.50400001928E-02 0. -1.
    10030    2    1    2    0    0  0.00000000000E+00  0.00000000000E+00 -0.69342198367E+03  0.10585421126E+04  0.79979832249E+03 0.  0.
        2    1    3    3  502    0 -0.17908481040E+03 -0.22104632463E+03  0.25255711098E+02  0.28560584359E+03  0.25500000920E-02 0.  1.
       -2    1    3    3    0  502  0.17908481040E+03  0.22104632463E+03 -0.71867769477E+03  0.77293626899E+03  0.25500000920E-02 0. -1.
</event>
<event>
 5   0  0.6593118E-04  0.7976260E+03  0.7818609E-02  0.9563460E-01
        2   -1    0    0  501    0  0.00000000000E+00  0.00000000000E+00  0.15339443547E+04  0.15339443547E+04  0.25500000920E-02 0.  1.
       -2   -1    0    0    0  501  0.00000000000E+00  0.00000000000E+00 -0.10368811300E+03  0.10368811303E+03  0.25500000920E-02 0. -1.
    10030    2    1    2    0    0  0.00000000000E+00  0.00000000000E+00  0.14302562417E+04  0.16376324677E+04  0.79762596651E+03 0.  0.
        1    1    3    3  502    0  0.90947100776E+02 -0.20540089012E+03  0.13916998740E+04  0.14097125381E+04  0.50400001928E-02 0.  1.
       -1    1    3    3    0  502 -0.90947100776E+02  0.20540089012E+03  0.38556367701E+02  0.22791992962E+03  0.50400001928E-02 0. -1.
</event>
<event>
 5   0  0.6801147E-04  0.7995748E+03  0.7818609E-02  0.9560633E-01
        2   -1    0    0  501    0  0.00000000000E+00  0.00000000000E+00  0.13516256240E+04  0.13516256240E+04  0.25500000920E-02 0.  1.
       -2   -1    0    0    0  501  0.00000000000E+00  0.00000000000E+00 -0.11825016558E+03  0.11825016561E+03  0.25500000920E-02 0. -1.
    10030    2    1    2    0    0  0.00000000000E+00  0.00000000000E+00  0.12333754584E+04  0.14698757896E+04  0.79957477165E+03 0.  0.
        4    1    3    3  502    0 -0.22690036880E+01 -0.22127805057E+03  0.12287666979E+04  0.12485344748E+04  0.12699999809E+01 0.  1.
       -4    1    3    3    0  502  0.22690036880E+01  0.22127805057E+03  0.46087604670E+01  0.22134131475E+03  0.12699999809E+01 0. -1.
</event>
<event>
 5   0  0.4086111E-04  0.8000036E+03  0.7818609E-02  0.9560012E-01
       -1   -1    0    0    0  501  0.00000000000E+00  0.00000000000E+00  0.27107576941E+03  0.27107576946E+03  0.50400001928E-02 0. -1.
        1   -1    0    0  501    0  0.00000000000E+00  0.00000000000E+00 -0.59024620823E+03  0.59024620825E+03  0.50400001928E-02 0.  1.
    10030    2    1    2    0    0  0.00000000000E+00  0.00000000000E+00 -0.31917043882E+03  0.86132197770E+03  0.80000361266E+03 0.  0.
        3    1    3    3  502    0  0.22815536703E+03  0.19786956478E+03 -0.44197533354E+03  0.53530313079E+03  0.10100000352E+00 0.  1.
       -3    1    3    3    0  502 -0.22815536703E+03 -0.19786956478E+03  0.12280489473E+03  0.32601884691E+03  0.10100000352E+00 0. -1.
</event>
<event>
 5   0  0.6970013E-04  0.8001900E+03  0.7818609E-02  0.9559742E-01
        2   -1    0    0  501    0  0.00000000000E+00  0.00000000000E+00  0.54735644714E+03  0.54735644715E+03  0.25500000920E-02 0. -1.
       -2   -1    0    0    0  501  0.00000000000E+00  0.00000000000E+00 -0.29245291636E+03  0.29245291637E+03  0.25500000920E-02 0.  1.
    10030    2    1    2    0    0  0.00000000000E+00  0.00000000000E+00  0.25490353078E+03  0.83980936352E+03  0.80018995061E+03 0.  0.
        3    1    3    3  502    0  0.47699554322E+02  0.13955481889E+03 -0.26288391174E+03  0.30142786236E+03  0.10100000352E+00 0.  1.
       -3    1    3    3    0  502 -0.47699554322E+02 -0.13955481889E+03  0.51778744252E+03  0.53838150116E+03  0.10100000352E+00 0. -1.
</event>
<event>
 5   0  0.4086111E-04  0.7999847E+03  0.7818609E-02  0.9560039E-01
       -1   -1    0    0    0  501  0.00000000000E+00  0.00000000000E+00  0.19144071210E+03  0.19144071216E+03  0.50400001928E-02 0. -1.
        1   -1    0    0  501    0  0.00000000000E+00  0.00000000000E+00 -0.83573590003E+03  0.83573590004E+03  0.50400001928E-02 0.  1.
    10030    2    1    2    0    0  0.00000000000E+00  0.00000000000E+00 -0.64429518793E+03  0.10271766122E+04  0.79998468952E+03 0.  0.
        3    1    3    3  502    0  0.26773622810E+03  0.21319126937E+03 -0.56324397058E+02  0.34685105316E+03  0.10100000352E+00 0. -1.
       -3    1    3    3    0  502 -0.26773622810E+03 -0.21319126937E+03 -0.58797079087E+03  0.68032555905E+03  0.10100000352E+00 0.  1.
</event>
<event>
 5   0  0.4104786E-04  0.8001572E+03  0.7818609E-02  0.9559790E-01
        1   -1    0    0  501    0  0.00000000000E+00  0.00000000000E+00  0.31920816834E+03  0.31920816838E+03  0.50400001928E-02 0.  1.
       -1   -1    0    0    0  501  0.00000000000E+00  0.00000000000E+00 -0.50143730900E+03  0.50143730903E+03  0.50400001928E-02 0. -1.
    10030    2    1    2    0    0  0.00000000000E+00  0.00000000000E+00 -0.18222914066E+03  0.82064547741E+03  0.80015719699E+03 0.  0.
        2    1    3    3  502    0  0.33411039169E+03 -0.18925075469E+03 -0.20631741055E+03  0.43590420495E+03  0.25500000920E-02 0. -1.
       -2    1    3    3    0  502 -0.33411039169E+03  0.18925075469E+03  0.24088269894E+02  0.38474127247E+03  0.25500000920E-02 0.  1.
</event>
<event>
 5   0  0.7133039E-04  0.8000512E+03  0.7818609E-02  0.9559943E-01
        2   -1    0    0  501    0  0.00000000000E+00  0.00000000000E+00  0.24678930946E+04  0.24678930946E+04  0.25500000920E-02 0. -1.
       -2   -1    0    0    0  501  0.00000000000E+00  0.00000000000E+00 -0.64840921959E+02  0.64840922009E+02  0.25500000920E-02 0.  1.
    10030    2    1    2    0    0  0.00000000000E+00  0.00000000000E+00  0.24030521727E+04  0.25327340166E+04  0.80005115741E+03 0.  0.
        2    1    3    3  502    0  0.38116505568E+03 -0.69311449503E+02  0.15169810869E+04  0.15656699827E+04  0.25500000920E-02 0. -1.
       -2    1    3    3    0  502 -0.38116505568E+03  0.69311449503E+02  0.88607108580E+03  0.96706403397E+03  0.25500000920E-02 0.  1.
</event>
<event>
 5   0  0.4392552E-04  0.8000440E+03  0.7818609E-02  0.9559953E-01
       -1   -1    0    0    0  501  0.00000000000E+00  0.00000000000E+00  0.19626975338E+03  0.19626975345E+03  0.50400001928E-02 0. -1.
        1   -1    0    0  501    0  0.00000000000E+00  0.00000000000E+00 -0.81529433377E+03  0.81529433378E+03  0.50400001928E-02 0.  1.
    10030    2    1    2    0    0  0.00000000000E+00  0.00000000000E+00 -0.61902458038E+03  0.10115640872E+04  0.80004404345E+03 0.  0.
        5    1    3    3  502    0 -0.35569575027E+03 -0.24931676407E+02 -0.53869231208E+03  0.64602829066E+03  0.46999998093E+01 0.  1.
       -5    1    3    3    0  502  0.35569575027E+03  0.24931676407E+02 -0.80332268307E+02  0.36553579657E+03  0.46999998093E+01 0. -1.
</event>
<event>
 5   0  0.4169155E-04  0.8000021E+03  0.7818609E-02  0.9560014E-01
       -1   -1    0    0    0  501  0.00000000000E+00  0.00000000000E+00  0.12547006874E+03  0.12547006884E+03  0.50400001928E-02 0. -1.
        1   -1    0    0  501    0  0.00000000000E+00  0.00000000000E+00 -0.12752111940E+04  0.12752111941E+04  0.50400001928E-02 0.  1.
    10030    2    1    2    0    0  0.00000000000E+00  0.00000000000E+00 -0.11497411253E+04  0.14006812629E+04  0.80000209063E+03 0.  0.
        4    1    3    3  502    0  0.75865364664E+02 -0.14016564563E+03  0.67471421988E+02  0.17307792307E+03  0.12699999809E+01 0. -1.
       -4    1    3    3    0  502 -0.75865364664E+02  0.14016564563E+03 -0.12172125473E+04  0.12276033398E+04  0.12699999809E+01 0.  1.
</event>
<event>
 5   0  0.6801147E-04  0.8003601E+03  0.7818609E-02  0.9559496E-01
       -2   -1    0    0    0  501  0.00000000000E+00  0.00000000000E+00  0.43828651787E+03  0.43828651788E+03  0.25500000920E-02 0.  1.
        2   -1    0    0  501    0  0.00000000000E+00  0.00000000000E+00 -0.36538667513E+03  0.36538667514E+03  0.25500000920E-02 0. -1.
    10030    2    1    2    0    0  0.00000000000E+00  0.00000000000E+00  0.72899842739E+02  0.80367319302E+03  0.80036005279E+03 0.  0.
        4    1    3    3  502    0  0.99059600876E+02 -0.38761703138E+03  0.45580034362E+02  0.40266477369E+03  0.12699999809E+01 0. -1.
       -4    1    3    3    0  502 -0.99059600876E+02  0.38761703138E+03  0.27319808378E+02  0.40100841933E+03  0.12699999809E+01 0.  1.
</event>
<event>
 5   0  0.4087283E-04  0.7999319E+03  0.7818609E-02  0.9560116E-01
       -1   -1    0    0    0  501  0.00000000000E+00  0.00000000000E+00  0.11030520572E+03  0.11030520584E+03  0.50400001928E-02 0. -1.
        1   -1    0    0  501    0  0.00000000000E+00  0.00000000000E+00 -0.14502739030E+04  0.14502739030E+04  0.50400001928E-02 0.  1.
    10030    2    1    2    0    0  0.00000000000E+00  0.00000000000E+00 -0.13399686972E+04  0.15605791088E+04  0.79993190039E+03 0.  0.
        1    1    3    3  502    0 -0.85775909056E+02 -0.39062752736E+03 -0.66015418849E+03  0.77184902948E+03  0.50400001928E-02 0. -1.
       -1    1    3    3    0  502  0.85775909056E+02  0.39062752736E+03 -0.67981450876E+03  0.78873007933E+03  0.50400001928E-02 0.  1.
</event>
<event>
 5   0  0.6801147E-04  0.8006367E+03  0.7818609E-02  0.9559096E-01
       -2   -1    0    0    0  501  0.00000000000E+00  0.00000000000E+00  0.73188886315E+03  0.73188886315E+03  0.25500000920E-02 0.  1.
        2   -1    0    0  501    0  0.00000000000E+00  0.00000000000E+00 -0.21896056433E+03  0.21896056435E+03  0.25500000920E-02 0. -1.
    10030    2    1    2    0    0  0.00000000000E+00  0.00000000000E+00  0.51292829881E+03  0.95084942750E+03  0.80063674288E+03 0.  0.
        4    1    3    3  502    0  0.26837663760E+03  0.18226177795E+03  0.53500468805E+03  0.62568123229E+03  0.12699999809E+01 0. -1.
       -4    1    3    3    0  502 -0.26837663760E+03 -0.18226177795E+03 -0.22076389233E+02  0.32516819520E+03  0.12699999809E+01 0.  1.
</event>
<event>
 5   0  0.6672462E-04  0.8000996E+03  0.7818609E-02  0.9559873E-01
       -2   -1    0    0    0  501  0.00000000000E+00  0.00000000000E+00  0.21170496791E+03  0.21170496792E+03  0.25500000920E-02 0.  1.
        2   -1    0    0  501    0  0.00000000000E+00  0.00000000000E+00 -0.75595696753E+03  0.75595696753E+03  0.25500000920E-02 0. -1.
    10030    2    1    2    0    0  0.00000000000E+00  0.00000000000E+00 -0.54425199962E+03  0.96766193545E+03  0.80009960770E+03 0.  0.
        5    1    3    3  502    0 -0.36682625012E+03 -0.19276843841E+02 -0.80575310575E+02  0.37609515440E+03  0.46999998093E+01 0.  1.
       -5    1    3    3    0  502  0.36682625012E+03  0.19276843841E+02 -0.46367668905E+03  0.59156678106E+03  0.46999998093E+01 0. -1.
</event>
<event>
 5   0  0.4169155E-04  0.8008013E+03  0.7818609E-02  0.9558858E-01
        1   -1    0    0  501    0  0.00000000000E+00  0.00000000000E+00  0.65370682400E+03  0.65370682402E+03  0.50400001928E-02 0. -1.
       -1   -1    0    0    0  501  0.00000000000E+00  0.00000000000E+00 -0.24524860461E+03  0.24524860466E+03  0.50400001928E-02 0.  1.
    10030    2    1    2    0    0  0.00000000000E+00  0.00000000000E+00  0.40845821939E+03  0.89895542868E+03  0.80080131478E+03 0.  0.
        4    1    3    3  502    0 -0.23063635791E+03 -0.97662576833E+00  0.57164571429E+03  0.61642073209E+03  0.12699999809E+01 0. -1.
       -4    1    3    3    0  502  0.23063635791E+03  0.97662576833E+00 -0.16318749489E+03  0.28253469659E+03  0.12699999809E+01 0.  1.
</event>
<event>
 5   0  0.6672462E-04  0.7998698E+03  0.7818609E-02  0.9560206E-01
        2   -1    0    0  501    0  0.00000000000E+00  0.00000000000E+00  0.11383508449E+04  0.11383508449E+04  0.25500000920E-02 0.  1.
       -2   -1    0    0    0  501  0.00000000000E+00  0.00000000000E+00 -0.14050847625E+03  0.14050847627E+03  0.25500000920E-02 0. -1.
    10030    2    1    2    0    0  0.00000000000E+00  0.00000000000E+00  0.99784236864E+03  0.12788593212E+04  0.79986984608E+03 0.  0.
        5    1    3    3  502    0  0.27232538014E+03  0.17076394202E+03  0.11853160955E+03  0.34262701152E+03  0.46999998093E+01 0. -1.
       -5    1    3    3    0  502 -0.27232538014E+03 -0.17076394202E+03  0.87931075909E+03  0.93623230964E+03  0.46999998093E+01 0.  1.
</event>
<event>
 5   0  0.2736375E-04  0.8002140E+03  0.7818609E-02  0.9559707E-01
       -4   -1    0    0    0  501  0.00000000000E+00  0.00000000000E+00  0.41058026014E+03  0.41058222431E+03  0.12699999809E+01 0. -1.
        4   -1    0    0  501    0  0.00000000000E+00  0.00000000000E+00 -0.38989698459E+03  0.38989905295E+03  0.12699999809E+01 0.  1.
    10030    2    1    2    0    0  0.00000000000E+00  0.00000000000E+00  0.20683275556E+02  0.80048127726E+03  0.80021401972E+03 0.  0.
        4    1    3    3  502    0 -0.30827725995E+03 -0.90135106922E+02 -0.22832723340E+03  0.39407378105E+03  0.12699999809E+01 0.  1.
       -4    1    3    3    0  502  0.30827725995E+03  0.90135106922E+02  0.24901050895E+03  0.40640749621E+03  0.12699999809E+01 0. -1.
</event>
<event>
 5   0  0.7133039E-04  0.7985697E+03  0.7818609E-02  0.9562090E-01
        2   -1    0    0  501    0  0.00000000000E+00  0.00000000000E+00  0.98755309773E+02  0.98755309806E+02  0.25500000920E-02 0.  1.
       -2   -1    0    0    0  501  0.00000000000E+00  0.00000000000E+00 -0.16143780329E+04  0.16143780329E+04  0.25500000920E-02 0. -1.
    10030    2    1    2    0    0  0.00000000000E+00  0.00000000000E+00 -0.15156227231E+04  0.17131333427E+04  0.79856972836E+03 0.  0.
        2    1    3    3  502    0  0.23801777954E+03  0.31951747188E+03 -0.81393849152E+03  0.90622279060E+03  0.25500000920E-02 0.  1.
       -2    1    3    3    0  502 -0.23801777954E+03 -0.31951747188E+03 -0.70168423163E+03  0.80691055213E+03  0.25500000920E-02 0. -1.
</event>
<event>
 5   0  0.4086111E-04  0.7993744E+03  0.7818609E-02  0.9560923E-01
       -1   -1    0    0    0  501  0.00000000000E+00  0.00000000000E+00  0.59800739088E+03  0.59800739091E+03  0.50400001928E-02 0.  1.
        1   -1    0    0  501    0  0.00000000000E+00  0.00000000000E+00 -0.26713695556E+03  0.26713695561E+03  0.50400001928E-02 0. -1.
    10030    2    1    2    0    0  0.00000000000E+00  0.00000000000E+00  0.33087043532E+03  0.86514434652E+03  0.79937444001E+03 0.  0.
        3    1    3    3  502    0 -0.69417035761E+02 -0.34487644311E+03  0.37075819467E+03  0.51109699176E+03  0.10100000352E+00 0. -1.
       -3    1    3    3    0  502  0.69417035761E+02  0.34487644311E+03 -0.39887759347E+02  0.35404735476E+03  0.10100000352E+00 0.  1.
</event>
</LesHouchesEvents>
