<LesHouchesEvents version="3.0">
<header>
<!--
#*********************************************************************
#                                                                    *
#                        MadGraph5_aMC@NLO                           *
#                                                                    *
#                           Going Beyond                             *
#                                                                    *
#                   http://madgraph.hep.uiuc.edu                     *
#                   http://madgraph.phys.ucl.ac.be                   *
#                   http://amcatnlo.cern.ch                          *
#                                                                    *
#                     The MadGraph5_aMC@NLO team                     *
#                                                                    *
#....................................................................*
#                                                                    *
# This file contains all the information necessary to reproduce      *
# the events generated:                                              *
#                                                                    *
# 1. software version                                                *
# 2. proc_card          : code generation info including model       *
# 3. param_card         : model primary parameters in the LH format  *
# 4. run_card           : running parameters (collider and cuts)     *
# 5. pythia_card        : present only if pythia has been run        *
# 6. pgs_card           : present only if pgs has been run           *
# 7. delphes_cards      : present only if delphes has been run       *
#                                                                    *
#                                                                    *
#*********************************************************************
-->
<MGVersion>
#5.2.2.3
</MGVersion>
<MG5ProcCard>
#************************************************************
#*                     MadGraph5_aMC@NLO                    *
#*                                                          *
#*                *                       *                 *
#*                  *        * *        *                   *
#*                    * * * * 5 * * * *                     *
#*                  *        * *        *                   *
#*                *                       *                 *
#*                                                          *
#*                                                          *
#*         VERSION 2.2.3                 2015-02-10         *
#*                                                          *
#*    The MadGraph5_aMC@NLO Development Team - Find us at   *
#*    https://server06.fynu.ucl.ac.be/projects/madgraph     *
#*                                                          *
#************************************************************
#*                                                          *
#*               Command File for MadGraph5_aMC@NLO         *
#*                                                          *
#*     run as ./bin/mg5_aMC  filename                       *
#*                                                          *
#************************************************************
set group_subprocesses Auto
set ignore_six_quark_processes False
set loop_optimized_output True
set gauge unitary
set complex_mass_scheme False
import model sm
define p = g u c d s u~ c~ d~ s~
define j = g u c d s u~ c~ d~ s~
define l+ = e+ mu+
define l- = e- mu-
define vl = ve vm vt
define vl~ = ve~ vm~ vt~
import model Zprime_UFO
generate p p > zph, zph > j j
add process p p > zph, zph > b b~
output Dijet_signal
</MG5ProcCard>
<MGProcCard>
#*********************************************************************
#                        MadGraph/MadEvent                           *
#                   http://madgraph.hep.uiuc.edu                     *
#                                                                    *
#                          proc_card.dat                             *
#*********************************************************************
#                                                                    *
#            This Files is generated by MADGRAPH 5                   *
#                                                                    *
# WARNING: This Files is generated for MADEVENT (compatibility issue)*
#          This files is NOT a valid MG4 proc_card.dat               *
#          Running this in MG4 will NEVER reproduce the result of MG5*
#                                                                    *
#*********************************************************************
#*********************************************************************
# Process(es) requested : mg2 input                                  *
#*********************************************************************
# Begin PROCESS # This is TAG. Do not modify this line
p p > zph , zph > j j           #Process
# Be carefull the coupling are here in MG5 convention
          
end_coup           # End the couplings input

done               # this tells MG there are no more procs
# End PROCESS  # This is TAG. Do not modify this line
#*********************************************************************
# Model information                                                  *
#*********************************************************************
# Begin MODEL  # This is TAG. Do not modify this line
Zprime_UFO
# End   MODEL  # This is TAG. Do not modify this line
#*********************************************************************
# Start multiparticle definitions                                    *
#*********************************************************************
# Begin MULTIPARTICLES # This is TAG. Do not modify this line

# End  MULTIPARTICLES # This is TAG. Do not modify this line
</MGProcCard>
<MGRunCard>
#*********************************************************************
#                       MadGraph5_aMC@NLO                            *
#                                                                    *
#                     run_card.dat MadEvent                          *
#                                                                    *
#  This file is used to set the parameters of the run.               *
#                                                                    *
#  Some notation/conventions:                                        *
#                                                                    *
#   Lines starting with a '# ' are info or comments                  *
#                                                                    *
#   mind the format:   value    = variable     ! comment             *
#*********************************************************************
#
#*******************                                                 
# Running parameters
#*******************                                                 
#                                                                    
#*********************************************************************
# Tag name for the run (one word)                                    *
#*********************************************************************
  tag_1     = run_tag ! name of the run 
#*********************************************************************
# Run to generate the grid pack                                      *
#*********************************************************************
  .false.     = gridpack  !True = setting up the grid pack
#*********************************************************************
# Number of events and rnd seed                                      *
# Warning: Do not generate more than 1M events in a single run       *
# If you want to run Pythia, avoid more than 50k events in a run.    *
#*********************************************************************
  2000 = nevents ! Number of unweighted events requested 
 2136 = iseed   ! rnd seed (0=assigned automatically=default))
#*********************************************************************
# Collider type and energy                                           *
# lpp: 0=No PDF, 1=proton, -1=antiproton, 2=photon from proton,      *
#                                         3=photon from electron     *
#*********************************************************************
        1     = lpp1    ! beam 1 type 
        1     = lpp2    ! beam 2 type
     4000     = ebeam1  ! beam 1 total energy in GeV
     4000     = ebeam2  ! beam 2 total energy in GeV
#*********************************************************************
# Beam polarization from -100 (left-handed) to 100 (right-handed)    *
#*********************************************************************
        0     = polbeam1 ! beam polarization for beam 1
        0     = polbeam2 ! beam polarization for beam 2
#*********************************************************************
# PDF CHOICE: this automatically fixes also alpha_s and its evol.    *
#*********************************************************************
 'nn23lo1'    = pdlabel     ! PDF set                                     
 230000    = lhaid     ! if pdlabel=lhapdf, this is the lhapdf number
#*********************************************************************
# Renormalization and factorization scales                           *
#*********************************************************************
 F        = fixed_ren_scale  ! if .true. use fixed ren scale
 F        = fixed_fac_scale  ! if .true. use fixed fac scale
 91.1880  = scale            ! fixed ren scale
 91.1880  = dsqrt_q2fact1    ! fixed fact scale for pdf1
 91.1880  = dsqrt_q2fact2    ! fixed fact scale for pdf2
 1        = scalefact        ! scale factor for event-by-event scales
#*********************************************************************
# Matching - Warning! ickkw > 1 is still beta
#*********************************************************************
 0        = ickkw            ! 0 no matching, 1 MLM, 2 CKKW matching
 1        = highestmult      ! for ickkw=2, highest mult group
 1        = ktscheme         ! for ickkw=1, 1 Durham kT, 2 Pythia pTE
 1        = alpsfact         ! scale factor for QCD emission vx
 F        = chcluster        ! cluster only according to channel diag
 T        = pdfwgt           ! for ickkw=1, perform pdf reweighting
 5        = asrwgtflavor     ! highest quark flavor for a_s reweight
 T        = clusinfo         ! include clustering tag in output
 3.0      = lhe_version       ! Change the way clustering information pass to shower.        
#*********************************************************************
#**********************************************************
#
#**********************************************************
# Automatic ptj and mjj cuts if xqcut > 0
# (turn off for VBF and single top processes)
#**********************************************************
   T  = auto_ptj_mjj  ! Automatic setting of ptj and mjj
#**********************************************************
#                                                                    
#**********************************
# BW cutoff (M+/-bwcutoff*Gamma)
#**********************************
  15  = bwcutoff      ! (M+/-bwcutoff*Gamma)
#**********************************************************
# Apply pt/E/eta/dr/mij cuts on decay products or not
# (note that etmiss/ptll/ptheavy/ht/sorted cuts always apply)
#**********************************************************
   T  = cut_decays    ! Cut decay products 
#*************************************************************
# Number of helicities to sum per event (0 = all helicities)
# 0 gives more stable result, but longer run time (needed for
# long decay chains e.g.).
# Use >=2 if most helicities contribute, e.g. pure QCD.
#*************************************************************
   0  = nhel          ! Number of helicities used per event
#*******************                                                 
# Standard Cuts
#*******************                                                 
#                                                                    
#*********************************************************************
# Minimum and maximum pt's (for max, -1 means no cut)                *
#*********************************************************************
 20  = ptj       ! minimum pt for the jets 
  0  = ptb       ! minimum pt for the b 
 10  = pta       ! minimum pt for the photons 
 10  = ptl       ! minimum pt for the charged leptons 
  0  = misset    ! minimum missing Et (sum of neutrino's momenta)
  0  = ptheavy   ! minimum pt for one heavy final state
 1.0 = ptonium   ! minimum pt for the quarkonium states
 -1  = ptjmax    ! maximum pt for the jets
 -1  = ptbmax    ! maximum pt for the b
 -1  = ptamax    ! maximum pt for the photons
 -1  = ptlmax    ! maximum pt for the charged leptons
 -1  = missetmax ! maximum missing Et (sum of neutrino's momenta)
#*********************************************************************
# Minimum and maximum E's (in the center of mass frame)              *
#*********************************************************************
  0  = ej     ! minimum E for the jets 
  0  = eb     ! minimum E for the b 
  0  = ea     ! minimum E for the photons 
  0  = el     ! minimum E for the charged leptons 
 -1   = ejmax ! maximum E for the jets
 -1   = ebmax ! maximum E for the b
 -1   = eamax ! maximum E for the photons
 -1   = elmax ! maximum E for the charged leptons
#*********************************************************************
# Maximum and minimum absolute rapidity (for max, -1 means no cut)   *
#*********************************************************************
   5  = etaj    ! max rap for the jets 
  -1  = etab    ! max rap for the b
 2.5  = etaa    ! max rap for the photons 
 2.5  = etal    ! max rap for the charged leptons 
 0.6  = etaonium ! max rap for the quarkonium states
   0  = etajmin ! min rap for the jets
   0  = etabmin ! min rap for the b
   0  = etaamin ! min rap for the photons
   0  = etalmin ! main rap for the charged leptons
#*********************************************************************
# Minimum and maximum DeltaR distance                                *
#*********************************************************************
 0.4 = drjj    ! min distance between jets 
 0   = drbb    ! min distance between b's 
 0.4 = drll    ! min distance between leptons 
 0.4 = draa    ! min distance between gammas 
 0   = drbj    ! min distance between b and jet 
 0.4 = draj    ! min distance between gamma and jet 
 0.4 = drjl    ! min distance between jet and lepton 
 0   = drab    ! min distance between gamma and b 
 0   = drbl    ! min distance between b and lepton 
 0.4 = dral    ! min distance between gamma and lepton 
 -1  = drjjmax ! max distance between jets
 -1  = drbbmax ! max distance between b's
 -1  = drllmax ! max distance between leptons
 -1  = draamax ! max distance between gammas
 -1  = drbjmax ! max distance between b and jet
 -1  = drajmax ! max distance between gamma and jet
 -1  = drjlmax ! max distance between jet and lepton
 -1  = drabmax ! max distance between gamma and b
 -1  = drblmax ! max distance between b and lepton
 -1  = dralmax ! maxdistance between gamma and lepton
#*********************************************************************
# Minimum and maximum invariant mass for pairs                       *
# WARNING: for four lepton final state mmll cut require to have      *
#          different lepton masses for each flavor!                  *           
#*********************************************************************
 0   = mmjj    ! min invariant mass of a jet pair 
 0   = mmbb    ! min invariant mass of a b pair 
 0   = mmaa    ! min invariant mass of gamma gamma pair
 0   = mmll    ! min invariant mass of l+l- (same flavour) lepton pair
 -1  = mmjjmax ! max invariant mass of a jet pair
 -1  = mmbbmax ! max invariant mass of a b pair
 -1  = mmaamax ! max invariant mass of gamma gamma pair
 -1  = mmllmax ! max invariant mass of l+l- (same flavour) lepton pair
#*********************************************************************
# Minimum and maximum invariant mass for all letpons                 *
#*********************************************************************
 0   = mmnl    ! min invariant mass for all letpons (l+- and vl) 
 -1  = mmnlmax ! max invariant mass for all letpons (l+- and vl) 
#*********************************************************************
# Minimum and maximum pt for 4-momenta sum of leptons                *
#*********************************************************************
 0   = ptllmin  ! Minimum pt for 4-momenta sum of leptons(l and vl)
 -1  = ptllmax  ! Maximum pt for 4-momenta sum of leptons(l and vl)
#*********************************************************************
# Inclusive cuts                                                     *
#*********************************************************************
 0  = xptj ! minimum pt for at least one jet  
 0  = xptb ! minimum pt for at least one b 
 0  = xpta ! minimum pt for at least one photon 
 0  = xptl ! minimum pt for at least one charged lepton 
#*********************************************************************
# Control the pt's of the jets sorted by pt                          *
#*********************************************************************
 0   = ptj1min ! minimum pt for the leading jet in pt
 0   = ptj2min ! minimum pt for the second jet in pt
 0   = ptj3min ! minimum pt for the third jet in pt
 0   = ptj4min ! minimum pt for the fourth jet in pt
 -1  = ptj1max ! maximum pt for the leading jet in pt 
 -1  = ptj2max ! maximum pt for the second jet in pt
 -1  = ptj3max ! maximum pt for the third jet in pt
 -1  = ptj4max ! maximum pt for the fourth jet in pt
 0   = cutuse  ! reject event if fails any (0) / all (1) jet pt cuts
#*********************************************************************
# Control the pt's of leptons sorted by pt                           *
#*********************************************************************
 0   = ptl1min ! minimum pt for the leading lepton in pt
 0   = ptl2min ! minimum pt for the second lepton in pt
 0   = ptl3min ! minimum pt for the third lepton in pt
 0   = ptl4min ! minimum pt for the fourth lepton in pt
 -1  = ptl1max ! maximum pt for the leading lepton in pt 
 -1  = ptl2max ! maximum pt for the second lepton in pt
 -1  = ptl3max ! maximum pt for the third lepton in pt
 -1  = ptl4max ! maximum pt for the fourth lepton in pt
#*********************************************************************
# Control the Ht(k)=Sum of k leading jets                            *
#*********************************************************************
 0   = htjmin ! minimum jet HT=Sum(jet pt)
 -1  = htjmax ! maximum jet HT=Sum(jet pt)
 0   = ihtmin  !inclusive Ht for all partons (including b)
 -1  = ihtmax  !inclusive Ht for all partons (including b)
 0   = ht2min ! minimum Ht for the two leading jets
 0   = ht3min ! minimum Ht for the three leading jets
 0   = ht4min ! minimum Ht for the four leading jets
 -1  = ht2max ! maximum Ht for the two leading jets
 -1  = ht3max ! maximum Ht for the three leading jets
 -1  = ht4max ! maximum Ht for the four leading jets
#***********************************************************************
# Photon-isolation cuts, according to hep-ph/9801442                   *
# When ptgmin=0, all the other parameters are ignored                  *
# When ptgmin>0, pta and draj are not going to be used                 *
#***********************************************************************
   0 = ptgmin ! Min photon transverse momentum
 0.4 = R0gamma ! Radius of isolation code
 1.0 = xn ! n parameter of eq.(3.4) in hep-ph/9801442
 1.0 = epsgamma ! epsilon_gamma parameter of eq.(3.4) in hep-ph/9801442
 .true. = isoEM ! isolate photons from EM energy (photons and leptons)
#*********************************************************************
# WBF cuts                                                           *
#*********************************************************************
 0   = xetamin ! minimum rapidity for two jets in the WBF case  
 0   = deltaeta ! minimum rapidity for two jets in the WBF case 
#*********************************************************************
# KT DURHAM CUT                                                      *
#*********************************************************************
 -1    =  ktdurham        
 0.4  =  dparameter 
#*********************************************************************
# maximal pdg code for quark to be considered as a light jet         *
# (otherwise b cuts are applied)                                     *
#*********************************************************************
 4 = maxjetflavor    ! Maximum jet pdg code
#*********************************************************************
# Jet measure cuts                                                   *
#*********************************************************************
 0   = xqcut   ! minimum kt jet measure between partons
#*********************************************************************
#
#*********************************************************************
# Store info for systematics studies                                 *
# WARNING: If use_syst is T, matched Pythia output is                *
#          meaningful ONLY if plotted taking matchscale              *
#          reweighting into account!                                 *
#*********************************************************************
   F  = use_syst      ! Enable systematics studies
#
#**************************************
# Parameter of the systematics study
#  will be used by SysCalc (if installed)
#**************************************                                  
#
0.5 1 2 = sys_scalefact  # factorization/renormalization scale factor
0.5 1 2 = sys_alpsfact  # \alpha_s emission scale factors
30 50 = sys_matchscale # variation of merging scale
# PDF sets and number of members (0 or none for all members).
CT10nlo.LHgrid = sys_pdf # matching scales
# MSTW2008nlo68cl.LHgrid 1  = sys_pdf
</MGRunCard>
<slha>
######################################################################
## PARAM_CARD AUTOMATICALY GENERATED BY MG5 FOLLOWING UFO MODEL   ####
######################################################################
##                                                                  ##
##  Width set on Auto will be computed following the information    ##
##        present in the decay.py files of the model.               ##
##        See  arXiv:1402.1178 for more details.                    ##
##                                                                  ##
######################################################################

###################################
## INFORMATION FOR CKMBLOCK
###################################
Block ckmblock 
    1 2.277360e-01 # cabi 

###################################
## INFORMATION FOR FRBLOCK
###################################
Block frblock 
    1 1.200000e+00 # gz 

###################################
## INFORMATION FOR MASS
###################################
Block mass 
    1 5.040000e-03 # MD 
    2 2.550000e-03 # MU 
    3 1.010000e-01 # MS 
    4 1.270000e+00 # MC 
    5 4.700000e+00 # MB 
    6 1.720000e+02 # MT 
   11 5.110000e-04 # Me 
   13 1.056600e-01 # MM 
   15 1.777000e+00 # MTA 
   23 9.118760e+01 # MZ 
   25 1.200000e+02 # MH 
  10030 7.000000e+02 # MZph 
  10031 3.000000e+02 # MZpl 
## Dependent parameters, given by model restrictions.
## Those values should be edited following the 
## analytical expression. MG5 ignores those values 
## but they are important for interfacing the output of MG5
## to external program such as Pythia.
  12 0.000000 # ve : 0.0 
  14 0.000000 # vm : 0.0 
  16 0.000000 # vt : 0.0 
  21 0.000000 # g : 0.0 
  22 0.000000 # a : 0.0 
  24 79.824360 # w+ : cmath.sqrt(MZ__exp__2/2. + cmath.sqrt(MZ__exp__4/4. - (aEW*cmath.pi*MZ__exp__2)/(Gf*sqrt__2))) 

###################################
## INFORMATION FOR SMINPUTS
###################################
Block sminputs 
    1 1.279000e+02 # aEWM1 
    2 1.166370e-05 # Gf 
    3 1.184000e-01 # aS 

###################################
## INFORMATION FOR YUKAWA
###################################
Block yukawa 
    1 5.040000e-03 # ymdo 
    2 2.550000e-03 # ymup 
    3 1.010000e-01 # yms 
    4 1.270000e+00 # ymc 
    5 4.700000e+00 # ymb 
    6 1.720000e+02 # ymt 
   11 5.110000e-04 # yme 
   13 1.056600e-01 # ymm 
   15 1.777000e+00 # ymtau 

###################################
## INFORMATION FOR DECAY
###################################
DECAY   6 1.508336e+00 # WT 
DECAY  23 2.495200e+00 # WZ 
DECAY  24 2.085000e+00 # WW 
DECAY  25 5.753088e-03 # WH 
## Dependent parameters, given by model restrictions.
## Those values should be edited following the 
## analytical expression. MG5 ignores those values 
## but they are important for interfacing the output of MG5
## to external program such as Pythia.
DECAY  1 0.000000 # d : 0.0 
DECAY  2 0.000000 # u : 0.0 
DECAY  3 0.000000 # s : 0.0 
DECAY  4 0.000000 # c : 0.0 
DECAY  5 0.000000 # b : 0.0 
DECAY  11 0.000000 # e- : 0.0 
DECAY  12 0.000000 # ve : 0.0 
DECAY  13 0.000000 # mu- : 0.0 
DECAY  14 0.000000 # vm : 0.0 
DECAY  15 0.000000 # ta- : 0.0 
DECAY  16 0.000000 # vt : 0.0 
DECAY  21 0.000000 # g : 0.0 
DECAY  22 0.000000 # a : 0.0 
DECAY  10030 0.308725 # zph : (gz__exp__2*MZph*(5 + cmath.sqrt(1 - (4*MT__exp__2)/MZph__exp__2)))/(144.*cmath.pi) 
DECAY  10031 0.132629 # zpl : (5*gz__exp__2*MZpl)/(144.*cmath.pi) 
#===========================================================
# QUANTUM NUMBERS OF NEW STATE(S) (NON SM PDG CODE)
#===========================================================

Block QNUMBERS 10030  # zph 
        1 0  # 3 times electric charge
        2 3  # number of spin states (2S+1)
        3 1  # colour rep (1: singlet, 3: triplet, 8: octet)
        4 0  # Particle/Antiparticle distinction (0=own anti)
Block QNUMBERS 10031  # zpl 
        1 0  # 3 times electric charge
        2 3  # number of spin states (2S+1)
        3 1  # colour rep (1: singlet, 3: triplet, 8: octet)
        4 0  # Particle/Antiparticle distinction (0=own anti)
</slha>
## END BANNER##
<MGGenerationInfo>
#  Number of Events        :         4130
#  Integrated weight (pb)  :  0.14277E+02
#  Max wgt                 :  0.45268E-02
#  Average wgt             :  0.34569E-02
</MGGenerationInfo>
</header>
<init>
     2212     2212  0.40000000000E+04  0.40000000000E+04 0 0  247000  247000 2   1
  0.14265228242E+02  0.28253684878E-01  0.45268370000E-02   0
</init>
<event>
 5   0  0.4526837E-02  0.6904270E+03  0.7818609E-02  0.9733745E-01
        2   -1    0    0  501    0  0.00000000000E+00  0.00000000000E+00  0.98767885894E+03  0.98767885895E+03  0.25500000920E-02 0. -1.
       -2   -1    0    0    0  501  0.00000000000E+00  0.00000000000E+00 -0.12065900794E+03  0.12065900796E+03  0.25500000920E-02 0.  1.
    10030    2    1    2    0    0  0.00000000000E+00  0.00000000000E+00  0.86701985100E+03  0.11083378669E+04  0.69042697310E+03 0.  0.
        1    1    3    3  502    0 -0.33739142502E+03  0.68204720757E+02  0.47560087957E+03  0.58709543882E+03  0.50400001928E-02 0.  1.
       -1    1    3    3    0  502  0.33739142502E+03 -0.68204720757E+02  0.39141897143E+03  0.52124242809E+03  0.50400001928E-02 0. -1.
</event>
<event>
 5   0  0.1784625E-02  0.7057594E+03  0.7818609E-02  0.9707433E-01
        3   -1    0    0  501    0  0.00000000000E+00  0.00000000000E+00  0.58714776535E+03  0.58714777403E+03  0.10100000352E+00 0. -1.
       -3   -1    0    0    0  501  0.00000000000E+00  0.00000000000E+00 -0.21208300725E+03  0.21208303130E+03  0.10100000352E+00 0.  1.
    10030    2    1    2    0    0  0.00000000000E+00  0.00000000000E+00  0.37506475810E+03  0.79923080533E+03  0.70575938351E+03 0.  0.
        3    1    3    3  502    0 -0.16333814791E-01 -0.14066913912E+03  0.55402402881E+03  0.57160339543E+03  0.10100000352E+00 0. -1.
       -3    1    3    3    0  502  0.16333814791E-01  0.14066913912E+03 -0.17895927071E+03  0.22762740990E+03  0.10100000352E+00 0.  1.
</event>
<event>
 5   0  0.4526837E-02  0.7161750E+03  0.7818609E-02  0.9689964E-01
        2   -1    0    0  501    0  0.00000000000E+00  0.00000000000E+00  0.48237299757E+03  0.48237299758E+03  0.25500000920E-02 0.  1.
       -2   -1    0    0    0  501  0.00000000000E+00  0.00000000000E+00 -0.26582468007E+03  0.26582468009E+03  0.25500000920E-02 0. -1.
    10030    2    1    2    0    0  0.00000000000E+00  0.00000000000E+00  0.21654831750E+03  0.74819767767E+03  0.71617497237E+03 0.  0.
        1    1    3    3  502    0 -0.11612589987E+02 -0.35395290444E+03  0.52902992543E+02  0.35807294990E+03  0.50400001928E-02 0.  1.
       -1    1    3    3    0  502  0.11612589987E+02  0.35395290444E+03  0.16364532496E+03  0.39012472776E+03  0.50400001928E-02 0. -1.
</event>
<event>
 5   0  0.4299912E-02  0.6712006E+03  0.7818609E-02  0.9767791E-01
        2   -1    0    0  501    0  0.00000000000E+00  0.00000000000E+00  0.13102337395E+03  0.13102337397E+03  0.25500000920E-02 0. -1.
       -2   -1    0    0    0  501  0.00000000000E+00  0.00000000000E+00 -0.85959900387E+03  0.85959900387E+03  0.25500000920E-02 0.  1.
    10030    2    1    2    0    0  0.00000000000E+00  0.00000000000E+00 -0.72857562992E+03  0.99062237785E+03  0.67120060114E+03 0.  0.
        3    1    3    3  502    0 -0.30955657004E+03  0.12502148999E+02 -0.55470689057E+03  0.63535920426E+03  0.10100000352E+00 0.  1.
       -3    1    3    3    0  502  0.30955657004E+03 -0.12502148999E+02 -0.17386873935E+03  0.35526317359E+03  0.10100000352E+00 0. -1.
</event>
<event>
 5   0  0.4526837E-02  0.6964516E+03  0.7818609E-02  0.9723320E-01
       -2   -1    0    0    0  501  0.00000000000E+00  0.00000000000E+00  0.48083281062E+03  0.48083281062E+03  0.25500000920E-02 0. -1.
        2   -1    0    0  501    0  0.00000000000E+00  0.00000000000E+00 -0.25218996637E+03  0.25218996638E+03  0.25500000920E-02 0.  1.
    10030    2    1    2    0    0  0.00000000000E+00  0.00000000000E+00  0.22864284425E+03  0.73302277700E+03  0.69645160735E+03 0.  0.
        1    1    3    3  502    0 -0.22040040638E+03 -0.14792797008E+03 -0.12290755063E+03  0.29251545171E+03  0.50400001928E-02 0.  1.
       -1    1    3    3    0  502  0.22040040638E+03  0.14792797008E+03  0.35155039489E+03  0.44050732529E+03  0.50400001928E-02 0. -1.
</event>
<event>
 5   0  0.4299912E-02  0.7040844E+03  0.7818609E-02  0.9710273E-01
        2   -1    0    0  501    0  0.00000000000E+00  0.00000000000E+00  0.69391619212E+03  0.69391619212E+03  0.25500000920E-02 0.  1.
       -2   -1    0    0    0  501  0.00000000000E+00  0.00000000000E+00 -0.17860038612E+03  0.17860038613E+03  0.25500000920E-02 0. -1.
    10030    2    1    2    0    0  0.00000000000E+00  0.00000000000E+00  0.51531580600E+03  0.87251657826E+03  0.70408436953E+03 0.  0.
        3    1    3    3  502    0  0.15558650524E+03  0.31562595031E+03  0.27046383772E+03  0.44382158447E+03  0.10100000352E+00 0.  1.
       -3    1    3    3    0  502 -0.15558650524E+03 -0.31562595031E+03  0.24485196829E+03  0.42869499379E+03  0.10100000352E+00 0. -1.
</event>
<event>
 5   0  0.2751729E-02  0.5788713E+03  0.7818609E-02  0.9950238E-01
       -1   -1    0    0    0  501  0.00000000000E+00  0.00000000000E+00  0.33149476055E+03  0.33149476059E+03  0.50400001928E-02 0. -1.
        1   -1    0    0  501    0  0.00000000000E+00  0.00000000000E+00 -0.25271290077E+03  0.25271290082E+03  0.50400001928E-02 0.  1.
    10030    2    1    2    0    0  0.00000000000E+00  0.00000000000E+00  0.78781859783E+02  0.58420766141E+03  0.57887132441E+03 0.  0.
        1    1    3    3  502    0 -0.40069923979E+02 -0.62115972144E+02  0.32180808746E+03  0.33018848857E+03  0.50400001928E-02 0. -1.
       -1    1    3    3    0  502  0.40069923979E+02  0.62115972144E+02 -0.24302622768E+03  0.25401917284E+03  0.50400001928E-02 0.  1.
</event>
<event>
 5   0  0.2758681E-02  0.6725364E+03  0.7818609E-02  0.9765387E-01
        1   -1    0    0  501    0  0.00000000000E+00  0.00000000000E+00  0.57127617839E+03  0.57127617842E+03  0.50400001928E-02 0.  1.
       -1   -1    0    0    0  501  0.00000000000E+00  0.00000000000E+00 -0.19793629264E+03  0.19793629271E+03  0.50400001928E-02 0. -1.
    10030    2    1    2    0    0  0.00000000000E+00  0.00000000000E+00  0.37333988575E+03  0.76921247113E+03  0.67253635994E+03 0.  0.
        3    1    3    3  502    0  0.19548141921E+03 -0.12969101721E+03 -0.88884532630E+02  0.25086493486E+03  0.10100000352E+00 0.  1.
       -3    1    3    3    0  502 -0.19548141921E+03  0.12969101721E+03  0.46222441838E+03  0.51834753626E+03  0.10100000352E+00 0. -1.
</event>
<event>
 5   0  0.4526837E-02  0.7090799E+03  0.7818609E-02  0.9701829E-01
       -2   -1    0    0    0  501  0.00000000000E+00  0.00000000000E+00  0.57925156524E+03  0.57925156525E+03  0.25500000920E-02 0.  1.
        2   -1    0    0  501    0  0.00000000000E+00  0.00000000000E+00 -0.21700168645E+03  0.21700168647E+03  0.25500000920E-02 0. -1.
    10030    2    1    2    0    0  0.00000000000E+00  0.00000000000E+00  0.36224987879E+03  0.79625325172E+03  0.70907987292E+03 0.  0.
        1    1    3    3  502    0  0.26257192589E+03 -0.17291642452E+03 -0.28947425486E+01  0.31440815145E+03  0.50400001928E-02 0. -1.
       -1    1    3    3    0  502 -0.26257192589E+03  0.17291642452E+03  0.36514462134E+03  0.48184510027E+03  0.50400001928E-02 0.  1.
</event>
<event>
 5   0  0.1784625E-02  0.6352572E+03  0.7818609E-02  0.9834843E-01
        4   -1    0    0  501    0  0.00000000000E+00  0.00000000000E+00  0.46082779795E+03  0.46082954795E+03  0.12699999809E+01 0. -1.
       -4   -1    0    0    0  501  0.00000000000E+00  0.00000000000E+00 -0.21892358628E+03  0.21892726996E+03  0.12699999809E+01 0.  1.
    10030    2    1    2    0    0  0.00000000000E+00  0.00000000000E+00  0.24190421167E+03  0.67975681791E+03  0.63525717932E+03 0.  0.
        1    1    3    3  502    0  0.91199138622E+02 -0.28262807414E+03  0.40155779801E+00  0.29697823566E+03  0.50400001928E-02 0. -1.
       -1    1    3    3    0  502 -0.91199138622E+02  0.28262807414E+03  0.24150265387E+03  0.38277858225E+03  0.50400001928E-02 0.  1.
</event>
<event>
 5   0  0.4526837E-02  0.7159279E+03  0.7818609E-02  0.9690374E-01
        2   -1    0    0  501    0  0.00000000000E+00  0.00000000000E+00  0.21127085114E+04  0.21127085114E+04  0.25500000920E-02 0. -1.
       -2   -1    0    0    0  501  0.00000000000E+00  0.00000000000E+00 -0.60651151445E+02  0.60651151498E+02  0.25500000920E-02 0.  1.
    10030    2    1    2    0    0  0.00000000000E+00  0.00000000000E+00  0.20520573600E+04  0.21733596629E+04  0.71592794036E+03 0.  0.
        1    1    3    3  502    0 -0.70081570851E+02 -0.31730978592E+03  0.14818047817E+04  0.15170175800E+04  0.50400001928E-02 0. -1.
       -1    1    3    3    0  502  0.70081570851E+02  0.31730978592E+03  0.57025257829E+03  0.65634208298E+03  0.50400001928E-02 0.  1.
</event>
<event>
 5   0  0.4420645E-02  0.6923193E+03  0.7818609E-02  0.9730458E-01
       -2   -1    0    0    0  501  0.00000000000E+00  0.00000000000E+00  0.99020463684E+02  0.99020463717E+02  0.25500000920E-02 0.  1.
        2   -1    0    0  501    0  0.00000000000E+00  0.00000000000E+00 -0.12101186387E+04  0.12101186387E+04  0.25500000920E-02 0. -1.
    10030    2    1    2    0    0  0.00000000000E+00  0.00000000000E+00 -0.11110981750E+04  0.13091391024E+04  0.69231931576E+03 0.  0.
        5    1    3    3  502    0  0.86538218625E+02 -0.22018318586E+03 -0.77790495734E+02  0.24908422239E+03  0.46999998093E+01 0.  1.
       -5    1    3    3    0  502 -0.86538218625E+02  0.22018318586E+03 -0.10333076793E+04  0.10600548801E+04  0.46999998093E+01 0. -1.
</event>
<event>
 5   0  0.4420645E-02  0.7071031E+03  0.7818609E-02  0.9705162E-01
        2   -1    0    0  501    0  0.00000000000E+00  0.00000000000E+00  0.11257904061E+04  0.11257904061E+04  0.25500000920E-02 0. -1.
       -2   -1    0    0    0  501  0.00000000000E+00  0.00000000000E+00 -0.11103193066E+03  0.11103193069E+03  0.25500000920E-02 0.  1.
    10030    2    1    2    0    0  0.00000000000E+00  0.00000000000E+00  0.10147584754E+04  0.12368223368E+04  0.70710305424E+03 0.  0.
        5    1    3    3  502    0  0.22868671979E+03 -0.24501512296E+03  0.70408220663E+03  0.77979732622E+03  0.46999998093E+01 0. -1.
       -5    1    3    3    0  502 -0.22868671979E+03  0.24501512296E+03  0.31067626878E+03  0.45702501056E+03  0.46999998093E+01 0.  1.
</event>
<event>
 5   0  0.2777999E-02  0.6893846E+03  0.7818609E-02  0.9735560E-01
        1   -1    0    0  501    0  0.00000000000E+00  0.00000000000E+00  0.43557128090E+03  0.43557128093E+03  0.50400001928E-02 0. -1.
       -1   -1    0    0    0  501  0.00000000000E+00  0.00000000000E+00 -0.27277463692E+03  0.27277463696E+03  0.50400001928E-02 0.  1.
    10030    2    1    2    0    0  0.00000000000E+00  0.00000000000E+00  0.16279664399E+03  0.70834591790E+03  0.68938464743E+03 0.  0.
        5    1    3    3  502    0 -0.17676176207E+03 -0.82943534404E+02 -0.21043172943E+03  0.28710268751E+03  0.46999998093E+01 0.  1.
       -5    1    3    3    0  502  0.17676176207E+03  0.82943534404E+02  0.37322837341E+03  0.42124323039E+03  0.46999998093E+01 0. -1.
</event>
<event>
 5   0  0.1784625E-02  0.6679594E+03  0.7818609E-02  0.9773651E-01
        3   -1    0    0  501    0  0.00000000000E+00  0.00000000000E+00  0.41109607076E+03  0.41109608316E+03  0.10100000352E+00 0.  1.
       -3   -1    0    0    0  501  0.00000000000E+00  0.00000000000E+00 -0.27132935229E+03  0.27132937109E+03  0.10100000352E+00 0. -1.
    10030    2    1    2    0    0  0.00000000000E+00  0.00000000000E+00  0.13976671847E+03  0.68242545425E+03  0.66795940372E+03 0.  0.
        2    1    3    3  502    0  0.18013825320E+03 -0.12732780114E+03  0.32607348663E+03  0.39368271222E+03  0.25500000920E-02 0.  1.
       -2    1    3    3    0  502 -0.18013825320E+03  0.12732780114E+03 -0.18630676816E+03  0.28874274204E+03  0.25500000920E-02 0. -1.
</event>
<event>
 5   0  0.2751729E-02  0.6953520E+03  0.7818609E-02  0.9725214E-01
        1   -1    0    0  501    0  0.00000000000E+00  0.00000000000E+00  0.45573441708E+03  0.45573441711E+03  0.50400001928E-02 0.  1.
       -1   -1    0    0    0  501  0.00000000000E+00  0.00000000000E+00 -0.26523915115E+03  0.26523915120E+03  0.50400001928E-02 0. -1.
    10030    2    1    2    0    0  0.00000000000E+00  0.00000000000E+00  0.19049526593E+03  0.72097356831E+03  0.69535202585E+03 0.  0.
        1    1    3    3  502    0 -0.12592886710E+03 -0.18874567186E+03  0.36838466876E+03  0.43265491147E+03  0.50400001928E-02 0.  1.
       -1    1    3    3    0  502  0.12592886710E+03  0.18874567186E+03 -0.17788940283E+03  0.28831865684E+03  0.50400001928E-02 0. -1.
</event>
<event>
 5   0  0.2758681E-02  0.7001067E+03  0.7818609E-02  0.9717050E-01
        1   -1    0    0  501    0  0.00000000000E+00  0.00000000000E+00  0.45660818788E+03  0.45660818791E+03  0.50400001928E-02 0.  1.
       -1   -1    0    0    0  501  0.00000000000E+00  0.00000000000E+00 -0.26836435446E+03  0.26836435451E+03  0.50400001928E-02 0. -1.
    10030    2    1    2    0    0  0.00000000000E+00  0.00000000000E+00  0.18824383342E+03  0.72497254242E+03  0.70010673932E+03 0.  0.
        3    1    3    3  502    0  0.21386850449E+03 -0.20129699360E+03  0.29135228613E+03  0.41369841875E+03  0.10100000352E+00 0.  1.
       -3    1    3    3    0  502 -0.21386850449E+03  0.20129699360E+03 -0.10310845271E+03  0.31127412367E+03  0.10100000352E+00 0. -1.
</event>
<event>
 5   0  0.2758681E-02  0.6982806E+03  0.7818609E-02  0.9720177E-01
        1   -1    0    0  501    0  0.00000000000E+00  0.00000000000E+00  0.23931090850E+03  0.23931090855E+03  0.50400001928E-02 0. -1.
       -1   -1    0    0    0  501  0.00000000000E+00  0.00000000000E+00 -0.50937474806E+03  0.50937474808E+03  0.50400001928E-02 0.  1.
    10030    2    1    2    0    0  0.00000000000E+00  0.00000000000E+00 -0.27006383956E+03  0.74868565663E+03  0.69828055609E+03 0.  0.
        3    1    3    3  502    0  0.28165250179E+03 -0.19390934541E+03 -0.21061870999E+03  0.40160828826E+03  0.10100000352E+00 0.  1.
       -3    1    3    3    0  502 -0.28165250179E+03  0.19390934541E+03 -0.59445129574E+02  0.34707736837E+03  0.10100000352E+00 0. -1.
</event>
<event>
 5   0  0.4526837E-02  0.7376709E+03  0.7818609E-02  0.9654894E-01
       -2   -1    0    0    0  501  0.00000000000E+00  0.00000000000E+00  0.39650064933E+03  0.39650064934E+03  0.25500000920E-02 0. -1.
        2   -1    0    0  501    0  0.00000000000E+00  0.00000000000E+00 -0.34310056184E+03  0.34310056185E+03  0.25500000920E-02 0.  1.
    10030    2    1    2    0    0  0.00000000000E+00  0.00000000000E+00  0.53400087486E+02  0.73960121119E+03  0.73767091731E+03 0.  0.
        1    1    3    3  502    0 -0.59835498206E+02 -0.30876004195E+03  0.21988674237E+03  0.38374891510E+03  0.50400001928E-02 0. -1.
       -1    1    3    3    0  502  0.59835498206E+02  0.30876004195E+03 -0.16648665488E+03  0.35585229608E+03  0.50400001928E-02 0.  1.
</event>
<event>
 5   0  0.2684924E-02  0.6929526E+03  0.7818609E-02  0.9729361E-01
        1   -1    0    0  501    0  0.00000000000E+00  0.00000000000E+00  0.54789692131E+03  0.54789692134E+03  0.50400001928E-02 0.  1.
       -1   -1    0    0    0  501  0.00000000000E+00  0.00000000000E+00 -0.21910295263E+03  0.21910295268E+03  0.50400001928E-02 0. -1.
    10030    2    1    2    0    0  0.00000000000E+00  0.00000000000E+00  0.32879396869E+03  0.76699987402E+03  0.69295261952E+03 0.  0.
        4    1    3    3  502    0 -0.32795221976E+03 -0.97394533169E+02  0.22508132211E+03  0.40951381906E+03  0.12699999809E+01 0.  1.
       -4    1    3    3    0  502  0.32795221976E+03  0.97394533169E+02  0.10371264657E+03  0.35748605496E+03  0.12699999809E+01 0. -1.
</event>
<event>
 5   0  0.2751729E-02  0.6931103E+03  0.7818609E-02  0.9729088E-01
       -1   -1    0    0    0  501  0.00000000000E+00  0.00000000000E+00  0.19935411925E+03  0.19935411931E+03  0.50400001928E-02 0.  1.
        1   -1    0    0  501    0  0.00000000000E+00  0.00000000000E+00 -0.60244787101E+03  0.60244787103E+03  0.50400001928E-02 0. -1.
    10030    2    1    2    0    0  0.00000000000E+00  0.00000000000E+00 -0.40309375177E+03  0.80180199034E+03  0.69311027911E+03 0.  0.
        1    1    3    3  502    0 -0.21518917985E+03 -0.15442391021E+03 -0.46008283817E+03  0.53087601676E+03  0.50400001928E-02 0. -1.
       -1    1    3    3    0  502  0.21518917985E+03  0.15442391021E+03  0.56989086398E+02  0.27092597359E+03  0.50400001928E-02 0.  1.
</event>
<event>
 5   0  0.4503289E-02  0.7463359E+03  0.7818609E-02  0.9641116E-01
       -2   -1    0    0    0  501  0.00000000000E+00  0.00000000000E+00  0.99095618515E+02  0.99095618548E+02  0.25500000920E-02 0.  1.
        2   -1    0    0  501    0  0.00000000000E+00  0.00000000000E+00 -0.14052520974E+04  0.14052520974E+04  0.25500000920E-02 0. -1.
    10030    2    1    2    0    0  0.00000000000E+00  0.00000000000E+00 -0.13061564789E+04  0.15043477159E+04  0.74633591844E+03 0.  0.
        2    1    3    3  502    0  0.18025642719E+03 -0.32372436038E+03 -0.56373982980E+03  0.67460539337E+03  0.25500000920E-02 0.  1.
       -2    1    3    3    0  502 -0.18025642719E+03  0.32372436038E+03 -0.74241664908E+03  0.82974232258E+03  0.25500000920E-02 0. -1.
</event>
<event>
 5   0  0.2758681E-02  0.5175872E+03  0.7818609E-02  0.1009288E+00
       -1   -1    0    0    0  501  0.00000000000E+00  0.00000000000E+00  0.44697481608E+02  0.44697481892E+02  0.50400001928E-02 0. -1.
        1   -1    0    0  501    0  0.00000000000E+00  0.00000000000E+00 -0.14983871589E+04  0.14983871589E+04  0.50400001928E-02 0.  1.
    10030    2    1    2    0    0  0.00000000000E+00  0.00000000000E+00 -0.14536896773E+04  0.15430846408E+04  0.51758722048E+03 0.  0.
        3    1    3    3  502    0 -0.33521221746E+02  0.25276466651E+03 -0.59484095814E+03  0.64718577288E+03  0.10100000352E+00 0.  1.
       -3    1    3    3    0  502  0.33521221746E+02 -0.25276466651E+03 -0.85884871913E+03  0.89589886789E+03  0.10100000352E+00 0. -1.
</event>
<event>
 5   0  0.1784625E-02  0.6980061E+03  0.7818609E-02  0.9720648E-01
       -3   -1    0    0    0  501  0.00000000000E+00  0.00000000000E+00  0.18842054965E+03  0.18842057672E+03  0.10100000352E+00 0.  1.
        3   -1    0    0  501    0  0.00000000000E+00  0.00000000000E+00 -0.64644277242E+03  0.64644278031E+03  0.10100000352E+00 0. -1.
    10030    2    1    2    0    0  0.00000000000E+00  0.00000000000E+00 -0.45802222277E+03  0.83486335703E+03  0.69800606614E+03 0.  0.
        4    1    3    3  502    0 -0.30779073906E+03 -0.83299767908E+02 -0.59323057229E+02  0.32433752234E+03  0.12699999809E+01 0.  1.
       -4    1    3    3    0  502  0.30779073906E+03  0.83299767908E+02 -0.39869916554E+03  0.51052583469E+03  0.12699999809E+01 0. -1.
</event>
<event>
 5   0  0.4299912E-02  0.6984110E+03  0.7818609E-02  0.9719953E-01
        2   -1    0    0  501    0  0.00000000000E+00  0.00000000000E+00  0.10569163562E+04  0.10569163562E+04  0.25500000920E-02 0. -1.
       -2   -1    0    0    0  501  0.00000000000E+00  0.00000000000E+00 -0.11537762299E+03  0.11537762302E+03  0.25500000920E-02 0.  1.
    10030    2    1    2    0    0  0.00000000000E+00  0.00000000000E+00  0.94153873318E+03  0.11722939792E+04  0.69841104486E+03 0.  0.
        3    1    3    3  502    0 -0.38974806251E+02  0.16526168407E+03  0.98296160178E+03  0.99751891236E+03  0.10100000352E+00 0. -1.
       -3    1    3    3    0  502  0.38974806251E+02 -0.16526168407E+03 -0.41422868603E+02  0.17477506683E+03  0.10100000352E+00 0.  1.
</event>
<event>
 5   0  0.2684924E-02  0.6988496E+03  0.7818609E-02  0.9719202E-01
       -1   -1    0    0    0  501  0.00000000000E+00  0.00000000000E+00  0.17439729935E+03  0.17439729942E+03  0.50400001928E-02 0. -1.
        1   -1    0    0  501    0  0.00000000000E+00  0.00000000000E+00 -0.70011233513E+03  0.70011233515E+03  0.50400001928E-02 0.  1.
    10030    2    1    2    0    0  0.00000000000E+00  0.00000000000E+00 -0.52571503578E+03  0.87450963457E+03  0.69884962768E+03 0.  0.
        4    1    3    3  502    0 -0.13629147145E+03  0.21929448736E+03  0.31758155278E+02  0.26014540300E+03  0.12699999809E+01 0. -1.
       -4    1    3    3    0  502  0.13629147145E+03 -0.21929448736E+03 -0.55747319106E+03  0.61436423157E+03  0.12699999809E+01 0.  1.
</event>
<event>
 5   0  0.4503289E-02  0.6929034E+03  0.7818609E-02  0.9729446E-01
       -2   -1    0    0    0  501  0.00000000000E+00  0.00000000000E+00  0.92785849054E+02  0.92785849089E+02  0.25500000920E-02 0. -1.
        2   -1    0    0  501    0  0.00000000000E+00  0.00000000000E+00 -0.12936107054E+04  0.12936107054E+04  0.25500000920E-02 0.  1.
    10030    2    1    2    0    0  0.00000000000E+00  0.00000000000E+00 -0.12008248564E+04  0.13863965545E+04  0.69290336317E+03 0.  0.
        2    1    3    3  502    0 -0.30302556778E+03 -0.40411818319E+02 -0.92656442446E+03  0.97569423615E+03  0.25500000920E-02 0.  1.
       -2    1    3    3    0  502  0.30302556778E+03  0.40411818319E+02 -0.27426043191E+03  0.41070231836E+03  0.25500000920E-02 0. -1.
</event>
<event>
 5   0  0.2750139E-02  0.7003887E+03  0.7818609E-02  0.9716568E-01
       -1   -1    0    0    0  501  0.00000000000E+00  0.00000000000E+00  0.54200341456E+03  0.54200341459E+03  0.50400001928E-02 0.  1.
        1   -1    0    0  501    0  0.00000000000E+00  0.00000000000E+00 -0.22626440373E+03  0.22626440379E+03  0.50400001928E-02 0. -1.
    10030    2    1    2    0    0  0.00000000000E+00  0.00000000000E+00  0.31573901083E+03  0.76826781838E+03  0.70038869051E+03 0.  0.
        2    1    3    3  502    0  0.34286067392E+02 -0.11816832371E+03 -0.20177321114E+03  0.23632967626E+03  0.25500000920E-02 0. -1.
       -2    1    3    3    0  502 -0.34286067392E+02  0.11816832371E+03  0.51751222196E+03  0.53193814211E+03  0.25500000920E-02 0.  1.
</event>
<event>
 5   0  0.4299912E-02  0.7137867E+03  0.7818609E-02  0.9693941E-01
       -2   -1    0    0    0  501  0.00000000000E+00  0.00000000000E+00  0.46235962466E+03  0.46235962467E+03  0.25500000920E-02 0.  1.
        2   -1    0    0  501    0  0.00000000000E+00  0.00000000000E+00 -0.27548441655E+03  0.27548441657E+03  0.25500000920E-02 0. -1.
    10030    2    1    2    0    0  0.00000000000E+00  0.00000000000E+00  0.18687520811E+03  0.73784404123E+03  0.71378672289E+03 0.  0.
        3    1    3    3  502    0  0.19658419870E+03  0.29521812850E+03  0.13444543819E+03  0.37930815523E+03  0.10100000352E+00 0. -1.
       -3    1    3    3    0  502 -0.19658419870E+03 -0.29521812850E+03  0.52429769914E+02  0.35853588600E+03  0.10100000352E+00 0.  1.
</event>
<event>
 5   0  0.4420645E-02  0.7104700E+03  0.7818609E-02  0.9699493E-01
        2   -1    0    0  501    0  0.00000000000E+00  0.00000000000E+00  0.74109896588E+03  0.74109896589E+03  0.25500000920E-02 0. -1.
       -2   -1    0    0    0  501  0.00000000000E+00  0.00000000000E+00 -0.17027674702E+03  0.17027674704E+03  0.25500000920E-02 0.  1.
    10030    2    1    2    0    0  0.00000000000E+00  0.00000000000E+00  0.57082221887E+03  0.91137571293E+03  0.71047004480E+03 0.  0.
        5    1    3    3  502    0  0.11049859459E+03  0.15583928665E+02 -0.14716690121E+03  0.18475114357E+03  0.46999998093E+01 0.  1.
       -5    1    3    3    0  502 -0.11049859459E+03 -0.15583928665E+02  0.71798912008E+03  0.72662456936E+03  0.46999998093E+01 0. -1.
</event>
<event>
 5   0  0.2750139E-02  0.7005881E+03  0.7818609E-02  0.9716227E-01
        1   -1    0    0  501    0  0.00000000000E+00  0.00000000000E+00  0.72580711909E+03  0.72580711911E+03  0.50400001928E-02 0. -1.
       -1   -1    0    0    0  501  0.00000000000E+00  0.00000000000E+00 -0.16906133552E+03  0.16906133560E+03  0.50400001928E-02 0.  1.
    10030    2    1    2    0    0  0.00000000000E+00  0.00000000000E+00  0.55674578357E+03  0.89486845470E+03  0.70058809846E+03 0.  0.
        2    1    3    3  502    0  0.33069131932E+03  0.11518207533E+03  0.28995787633E+03  0.45464186917E+03  0.25500000920E-02 0.  1.
       -2    1    3    3    0  502 -0.33069131932E+03 -0.11518207533E+03  0.26678790724E+03  0.44022658553E+03  0.25500000920E-02 0. -1.
</event>
<event>
 5   0  0.4299912E-02  0.7044723E+03  0.7818609E-02  0.9709614E-01
        2   -1    0    0  501    0  0.00000000000E+00  0.00000000000E+00  0.12908943228E+04  0.12908943228E+04  0.25500000920E-02 0.  1.
       -2   -1    0    0    0  501  0.00000000000E+00  0.00000000000E+00 -0.96111896894E+02  0.96111896928E+02  0.25500000920E-02 0. -1.
    10030    2    1    2    0    0  0.00000000000E+00  0.00000000000E+00  0.11947824259E+04  0.13870062197E+04  0.70447229067E+03 0.  0.
        3    1    3    3  502    0  0.18963923889E+03 -0.57012120794E+02  0.23858763069E+02  0.19945594406E+03  0.10100000352E+00 0. -1.
       -3    1    3    3    0  502 -0.18963923889E+03  0.57012120794E+02  0.11709236628E+04  0.11875502757E+04  0.10100000352E+00 0.  1.
</event>
<event>
 5   0  0.4526837E-02  0.7062613E+03  0.7818609E-02  0.9706584E-01
        2   -1    0    0  501    0  0.00000000000E+00  0.00000000000E+00  0.57076944900E+03  0.57076944901E+03  0.25500000920E-02 0.  1.
       -2   -1    0    0    0  501  0.00000000000E+00  0.00000000000E+00 -0.21847921365E+03  0.21847921367E+03  0.25500000920E-02 0. -1.
    10030    2    1    2    0    0  0.00000000000E+00  0.00000000000E+00  0.35229023535E+03  0.78924866268E+03  0.70626131256E+03 0.  0.
        1    1    3    3  502    0  0.33406376577E+03  0.11408968967E+03  0.18652066119E+03  0.39925557475E+03  0.50400001928E-02 0. -1.
       -1    1    3    3    0  502 -0.33406376577E+03 -0.11408968967E+03  0.16576957416E+03  0.38999308793E+03  0.50400001928E-02 0.  1.
</event>
<event>
 5   0  0.2758681E-02  0.6966065E+03  0.7818609E-02  0.9723053E-01
        1   -1    0    0  501    0  0.00000000000E+00  0.00000000000E+00  0.19770462281E+04  0.19770462281E+04  0.50400001928E-02 0.  1.
       -1   -1    0    0    0  501  0.00000000000E+00  0.00000000000E+00 -0.61361814009E+02  0.61361814216E+02  0.50400001928E-02 0. -1.
    10030    2    1    2    0    0  0.00000000000E+00  0.00000000000E+00  0.19156844141E+04  0.20384080423E+04  0.69660646896E+03 0.  0.
        3    1    3    3  502    0  0.20557134445E+02  0.18570601324E+03  0.97690405177E+02  0.21083819529E+03  0.10100000352E+00 0. -1.
       -3    1    3    3    0  502 -0.20557134445E+02 -0.18570601324E+03  0.18179940089E+04  0.18275698470E+04  0.10100000352E+00 0.  1.
</event>
<event>
 5   0  0.4299912E-02  0.6897415E+03  0.7818609E-02  0.9734938E-01
        2   -1    0    0  501    0  0.00000000000E+00  0.00000000000E+00  0.30033914849E+03  0.30033914850E+03  0.25500000920E-02 0. -1.
       -2   -1    0    0    0  501  0.00000000000E+00  0.00000000000E+00 -0.39600505342E+03  0.39600505343E+03  0.25500000920E-02 0.  1.
    10030    2    1    2    0    0  0.00000000000E+00  0.00000000000E+00 -0.95665904929E+02  0.69634420193E+03  0.68974146040E+03 0.  0.
        3    1    3    3  502    0  0.30620883435E+03  0.14530590644E+03 -0.11214641258E+03  0.35700768162E+03  0.10100000352E+00 0.  1.
       -3    1    3    3    0  502 -0.30620883435E+03 -0.14530590644E+03  0.16480507653E+02  0.33933652031E+03  0.10100000352E+00 0. -1.
</event>
<event>
 5   0  0.2684924E-02  0.7045845E+03  0.7818609E-02  0.9709424E-01
        1   -1    0    0  501    0  0.00000000000E+00  0.00000000000E+00  0.51428932096E+03  0.51428932099E+03  0.50400001928E-02 0. -1.
       -1   -1    0    0    0  501  0.00000000000E+00  0.00000000000E+00 -0.24132295334E+03  0.24132295339E+03  0.50400001928E-02 0.  1.
    10030    2    1    2    0    0  0.00000000000E+00  0.00000000000E+00  0.27296636762E+03  0.75561227438E+03  0.70458446714E+03 0.  0.
        4    1    3    3  502    0  0.97888943538E+02 -0.28084498151E+03 -0.66008983876E+02  0.30465545745E+03  0.12699999809E+01 0. -1.
       -4    1    3    3    0  502 -0.97888943538E+02  0.28084498151E+03  0.33897535150E+03  0.45095681692E+03  0.12699999809E+01 0.  1.
</event>
<event>
 5   0  0.2684924E-02  0.7043755E+03  0.7818609E-02  0.9709779E-01
       -1   -1    0    0    0  501  0.00000000000E+00  0.00000000000E+00  0.80572046307E+03  0.80572046309E+03  0.50400001928E-02 0.  1.
        1   -1    0    0  501    0  0.00000000000E+00  0.00000000000E+00 -0.15394445190E+03  0.15394445198E+03  0.50400001928E-02 0. -1.
    10030    2    1    2    0    0  0.00000000000E+00  0.00000000000E+00  0.65177601117E+03  0.95966491506E+03  0.70437545419E+03 0.  0.
        4    1    3    3  502    0 -0.74245956581E+02 -0.54074319815E+02  0.78911166129E+03  0.79444025642E+03  0.12699999809E+01 0.  1.
       -4    1    3    3    0  502  0.74245956581E+02  0.54074319815E+02 -0.13733565012E+03  0.16522465865E+03  0.12699999809E+01 0. -1.
</event>
<event>
 5   0  0.2758681E-02  0.6913628E+03  0.7818609E-02  0.9732118E-01
       -1   -1    0    0    0  501  0.00000000000E+00  0.00000000000E+00  0.11734115065E+03  0.11734115076E+03  0.50400001928E-02 0. -1.
        1   -1    0    0  501    0  0.00000000000E+00  0.00000000000E+00 -0.10183609640E+04  0.10183609640E+04  0.50400001928E-02 0.  1.
    10030    2    1    2    0    0  0.00000000000E+00  0.00000000000E+00 -0.90101981334E+03  0.11357021148E+04  0.69136284933E+03 0.  0.
        3    1    3    3  502    0 -0.82207570661E+02 -0.32591662339E+03 -0.58311061284E+03  0.67305105830E+03  0.10100000352E+00 0.  1.
       -3    1    3    3    0  502  0.82207570661E+02  0.32591662339E+03 -0.31790920050E+03  0.46265105646E+03  0.10100000352E+00 0. -1.
</event>
<event>
 5   0  0.4365492E-02  0.6892373E+03  0.7818609E-02  0.9735817E-01
        2   -1    0    0  501    0  0.00000000000E+00  0.00000000000E+00  0.13679742546E+04  0.13679742546E+04  0.25500000920E-02 0.  1.
       -2   -1    0    0    0  501  0.00000000000E+00  0.00000000000E+00 -0.86815959016E+02  0.86815959053E+02  0.25500000920E-02 0. -1.
    10030    2    1    2    0    0  0.00000000000E+00  0.00000000000E+00  0.12811582956E+04  0.14547902137E+04  0.68923725045E+03 0.  0.
        4    1    3    3  502    0 -0.19551271102E+03  0.15353379373E+03  0.11443421809E+04  0.11710330849E+04  0.12699999809E+01 0.  1.
       -4    1    3    3    0  502  0.19551271102E+03 -0.15353379373E+03  0.13681611466E+03  0.28375712876E+03  0.12699999809E+01 0. -1.
</event>
<event>
 5   0  0.4365492E-02  0.7021361E+03  0.7818609E-02  0.9713586E-01
       -2   -1    0    0    0  501  0.00000000000E+00  0.00000000000E+00  0.20043535305E+03  0.20043535306E+03  0.25500000920E-02 0.  1.
        2   -1    0    0  501    0  0.00000000000E+00  0.00000000000E+00 -0.61490542210E+03  0.61490542210E+03  0.25500000920E-02 0. -1.
    10030    2    1    2    0    0  0.00000000000E+00  0.00000000000E+00 -0.41447006905E+03  0.81534077517E+03  0.70213612748E+03 0.  0.
        4    1    3    3  502    0  0.32150105072E+02  0.31471561719E+03 -0.38398469402E+03  0.49751925300E+03  0.12699999809E+01 0. -1.
       -4    1    3    3    0  502 -0.32150105072E+02 -0.31471561719E+03 -0.30485375026E+02  0.31782152217E+03  0.12699999809E+01 0.  1.
</event>
<event>
 5   0  0.1784625E-02  0.6999214E+03  0.7818609E-02  0.9717367E-01
        4   -1    0    0  501    0  0.00000000000E+00  0.00000000000E+00  0.20043945159E+03  0.20044347496E+03  0.12699999809E+01 0. -1.
       -4   -1    0    0    0  501  0.00000000000E+00  0.00000000000E+00 -0.61100901824E+03  0.61101033810E+03  0.12699999809E+01 0.  1.
    10030    2    1    2    0    0  0.00000000000E+00  0.00000000000E+00 -0.41056956665E+03  0.81145381306E+03  0.69992136821E+03 0.  0.
        4    1    3    3  502    0  0.19388872905E+03  0.66162579483E+02 -0.53422271199E+03  0.57215893341E+03  0.12699999809E+01 0.  1.
       -4    1    3    3    0  502 -0.19388872905E+03 -0.66162579483E+02  0.12365314534E+03  0.23929487965E+03  0.12699999809E+01 0. -1.
</event>
<event>
 5   0  0.2758681E-02  0.6809853E+03  0.7818609E-02  0.9750314E-01
       -1   -1    0    0    0  501  0.00000000000E+00  0.00000000000E+00  0.21148059326E+03  0.21148059332E+03  0.50400001928E-02 0.  1.
        1   -1    0    0  501    0  0.00000000000E+00  0.00000000000E+00 -0.54820745391E+03  0.54820745393E+03  0.50400001928E-02 0. -1.
    10030    2    1    2    0    0  0.00000000000E+00  0.00000000000E+00 -0.33672686065E+03  0.75968804725E+03  0.68098527917E+03 0.  0.
        3    1    3    3  502    0 -0.64761296327E+02  0.18346690866E+03  0.14336076893E+03  0.24167426910E+03  0.10100000352E+00 0.  1.
       -3    1    3    3    0  502  0.64761296327E+02 -0.18346690866E+03 -0.48008762958E+03  0.51801377815E+03  0.10100000352E+00 0. -1.
</event>
<event>
 5   0  0.2777999E-02  0.7041793E+03  0.7818609E-02  0.9710112E-01
        1   -1    0    0  501    0  0.00000000000E+00  0.00000000000E+00  0.98521877741E+03  0.98521877742E+03  0.50400001928E-02 0.  1.
       -1   -1    0    0    0  501  0.00000000000E+00  0.00000000000E+00 -0.12582699448E+03  0.12582699458E+03  0.50400001928E-02 0. -1.
    10030    2    1    2    0    0  0.00000000000E+00  0.00000000000E+00  0.85939178293E+03  0.11110457720E+04  0.70417928890E+03 0.  0.
        5    1    3    3  502    0  0.28331523213E+03 -0.20626897083E+03  0.48274850401E+03  0.59655898049E+03  0.46999998093E+01 0.  1.
       -5    1    3    3    0  502 -0.28331523213E+03  0.20626897083E+03  0.37664327892E+03  0.51448679151E+03  0.46999998093E+01 0. -1.
</event>
<event>
 5   0  0.4503289E-02  0.7033471E+03  0.7818609E-02  0.9711525E-01
        2   -1    0    0  501    0  0.00000000000E+00  0.00000000000E+00  0.14868345281E+04  0.14868345281E+04  0.25500000920E-02 0.  1.
       -2   -1    0    0    0  501  0.00000000000E+00  0.00000000000E+00 -0.83179597757E+02  0.83179597796E+02  0.25500000920E-02 0. -1.
    10030    2    1    2    0    0  0.00000000000E+00  0.00000000000E+00  0.14036549304E+04  0.15700141259E+04  0.70334713481E+03 0.  0.
        2    1    3    3  502    0  0.32776337958E+03  0.36225785676E+02  0.42904926495E+03  0.54113252748E+03  0.25500000920E-02 0. -1.
       -2    1    3    3    0  502 -0.32776337958E+03 -0.36225785676E+02  0.97460566541E+03  0.10288815984E+04  0.25500000920E-02 0.  1.
</event>
<event>
 5   0  0.4299912E-02  0.6983697E+03  0.7818609E-02  0.9720024E-01
        2   -1    0    0  501    0  0.00000000000E+00  0.00000000000E+00  0.28521124927E+03  0.28521124928E+03  0.25500000920E-02 0. -1.
       -2   -1    0    0    0  501  0.00000000000E+00  0.00000000000E+00 -0.42750791192E+03  0.42750791193E+03  0.25500000920E-02 0.  1.
    10030    2    1    2    0    0  0.00000000000E+00  0.00000000000E+00 -0.14229666266E+03  0.71271916121E+03  0.69836971766E+03 0.  0.
        3    1    3    3  502    0 -0.26960343445E+03  0.65138398093E+01  0.15522366860E+03  0.31116368598E+03  0.10100000352E+00 0.  1.
       -3    1    3    3    0  502  0.26960343445E+03 -0.65138398093E+01 -0.29752033126E+03  0.40155547523E+03  0.10100000352E+00 0. -1.
</event>
<event>
 5   0  0.4526837E-02  0.6992620E+03  0.7818609E-02  0.9718495E-01
       -2   -1    0    0    0  501  0.00000000000E+00  0.00000000000E+00  0.18676363279E+03  0.18676363281E+03  0.25500000920E-02 0.  1.
        2   -1    0    0  501    0  0.00000000000E+00  0.00000000000E+00 -0.65452698199E+03  0.65452698199E+03  0.25500000920E-02 0. -1.
    10030    2    1    2    0    0  0.00000000000E+00  0.00000000000E+00 -0.46776334920E+03  0.84129061480E+03  0.69926200218E+03 0.  0.
        1    1    3    3  502    0  0.40212614393E+02 -0.33456030745E+03 -0.12170036417E+03  0.35827172976E+03  0.50400001928E-02 0.  1.
       -1    1    3    3    0  502 -0.40212614393E+02  0.33456030745E+03 -0.34606298503E+03  0.48301888504E+03  0.50400001928E-02 0. -1.
</event>
<event>
 5   0  0.4503289E-02  0.7072518E+03  0.7818609E-02  0.9704910E-01
        2   -1    0    0  501    0  0.00000000000E+00  0.00000000000E+00  0.10207536094E+04  0.10207536094E+04  0.25500000920E-02 0. -1.
       -2   -1    0    0    0  501  0.00000000000E+00  0.00000000000E+00 -0.12250876387E+03  0.12250876389E+03  0.25500000920E-02 0.  1.
    10030    2    1    2    0    0  0.00000000000E+00  0.00000000000E+00  0.89824484555E+03  0.11432623733E+04  0.70725175976E+03 0.  0.
        2    1    3    3  502    0  0.16320950722E+03 -0.19120524102E+03  0.85115147480E+03  0.88749964535E+03  0.25500000920E-02 0. -1.
       -2    1    3    3    0  502 -0.16320950722E+03  0.19120524102E+03  0.47093370750E+02  0.25576272796E+03  0.25500000920E-02 0.  1.
</event>
<event>
 5   0  0.4299912E-02  0.7265363E+03  0.7818609E-02  0.9672898E-01
       -2   -1    0    0    0  501  0.00000000000E+00  0.00000000000E+00  0.11855617869E+03  0.11855617872E+03  0.25500000920E-02 0. -1.
        2   -1    0    0  501    0  0.00000000000E+00  0.00000000000E+00 -0.11130903814E+04  0.11130903814E+04  0.25500000920E-02 0.  1.
    10030    2    1    2    0    0  0.00000000000E+00  0.00000000000E+00 -0.99453420268E+03  0.12316465601E+04  0.72653628173E+03 0.  0.
        3    1    3    3  502    0  0.71212311154E+02 -0.30508219309E+03 -0.80901164510E+03  0.86755183701E+03  0.10100000352E+00 0.  1.
       -3    1    3    3    0  502 -0.71212311154E+02  0.30508219309E+03 -0.18552255758E+03  0.36409472308E+03  0.10100000352E+00 0. -1.
</event>
<event>
 5   0  0.2758681E-02  0.7106240E+03  0.7818609E-02  0.9699234E-01
        1   -1    0    0  501    0  0.00000000000E+00  0.00000000000E+00  0.29373837667E+03  0.29373837671E+03  0.50400001928E-02 0. -1.
       -1   -1    0    0    0  501  0.00000000000E+00  0.00000000000E+00 -0.42979273277E+03  0.42979273280E+03  0.50400001928E-02 0.  1.
    10030    2    1    2    0    0  0.00000000000E+00  0.00000000000E+00 -0.13605435610E+03  0.72353110951E+03  0.71062400650E+03 0.  0.
        3    1    3    3  502    0 -0.56423520101E+02  0.43550831121E+02 -0.42243907744E+03  0.42840993553E+03  0.10100000352E+00 0.  1.
       -3    1    3    3    0  502  0.56423520101E+02 -0.43550831121E+02  0.28638472134E+03  0.29512117398E+03  0.10100000352E+00 0. -1.
</event>
<event>
 5   0  0.4420645E-02  0.7106798E+03  0.7818609E-02  0.9699141E-01
       -2   -1    0    0    0  501  0.00000000000E+00  0.00000000000E+00  0.22712701177E+03  0.22712701179E+03  0.25500000920E-02 0.  1.
        2   -1    0    0  501    0  0.00000000000E+00  0.00000000000E+00 -0.55592882450E+03  0.55592882451E+03  0.25500000920E-02 0. -1.
    10030    2    1    2    0    0  0.00000000000E+00  0.00000000000E+00 -0.32880181273E+03  0.78305583630E+03  0.71067982292E+03 0.  0.
        5    1    3    3  502    0  0.25531983166E+03  0.24699276522E+03 -0.17224800470E+03  0.39482288134E+03  0.46999998093E+01 0.  1.
       -5    1    3    3    0  502 -0.25531983166E+03 -0.24699276522E+03 -0.15655380803E+03  0.38823295496E+03  0.46999998093E+01 0. -1.
</event>
<event>
 5   0  0.2777999E-02  0.7021146E+03  0.7818609E-02  0.9713623E-01
        1   -1    0    0  501    0  0.00000000000E+00  0.00000000000E+00  0.66658895613E+03  0.66658895614E+03  0.50400001928E-02 0.  1.
       -1   -1    0    0    0  501  0.00000000000E+00  0.00000000000E+00 -0.18488341916E+03  0.18488341923E+03  0.50400001928E-02 0. -1.
    10030    2    1    2    0    0  0.00000000000E+00  0.00000000000E+00  0.48170553697E+03  0.85147237537E+03  0.70211464995E+03 0.  0.
        5    1    3    3  502    0  0.29453136710E+03 -0.33283736887E+02  0.46890522646E+03  0.55475285917E+03  0.46999998093E+01 0.  1.
       -5    1    3    3    0  502 -0.29453136710E+03  0.33283736887E+02  0.12800310502E+02  0.29671951620E+03  0.46999998093E+01 0. -1.
</event>
<event>
 5   0  0.2758681E-02  0.8103739E+03  0.7818609E-02  0.9545122E-01
       -1   -1    0    0    0  501  0.00000000000E+00  0.00000000000E+00  0.13796656237E+04  0.13796656237E+04  0.50400001928E-02 0. -1.
        1   -1    0    0  501    0  0.00000000000E+00  0.00000000000E+00 -0.11899729083E+03  0.11899729094E+03  0.50400001928E-02 0.  1.
    10030    2    1    2    0    0  0.00000000000E+00  0.00000000000E+00  0.12606683329E+04  0.14986629147E+04  0.81037391756E+03 0.  0.
        3    1    3    3  502    0  0.46544574501E+02  0.13519765961E+03 -0.70789653229E+02  0.15954933339E+03  0.10100000352E+00 0.  1.
       -3    1    3    3    0  502 -0.46544574501E+02 -0.13519765961E+03  0.13314579861E+04  0.13391135813E+04  0.10100000352E+00 0. -1.
</event>
<event>
 5   0  0.1784625E-02  0.6889748E+03  0.7818609E-02  0.9736275E-01
        3   -1    0    0  501    0  0.00000000000E+00  0.00000000000E+00  0.43120120866E+03  0.43120122049E+03  0.10100000352E+00 0. -1.
       -3   -1    0    0    0  501  0.00000000000E+00  0.00000000000E+00 -0.27521154986E+03  0.27521156840E+03  0.10100000352E+00 0.  1.
    10030    2    1    2    0    0  0.00000000000E+00  0.00000000000E+00  0.15598965879E+03  0.70641278888E+03  0.68897478521E+03 0.  0.
        5    1    3    3  502    0 -0.82786047891E+02 -0.19807452351E+03  0.35418684873E+03  0.41419495458E+03  0.46999998093E+01 0. -1.
       -5    1    3    3    0  502  0.82786047891E+02  0.19807452351E+03 -0.19819718993E+03  0.29221783430E+03  0.46999998093E+01 0.  1.
</event>
<event>
 5   0  0.4299912E-02  0.6933777E+03  0.7818609E-02  0.9728625E-01
        2   -1    0    0  501    0  0.00000000000E+00  0.00000000000E+00  0.14882018242E+04  0.14882018242E+04  0.25500000920E-02 0. -1.
       -2   -1    0    0    0  501  0.00000000000E+00  0.00000000000E+00 -0.80764020374E+02  0.80764020414E+02  0.25500000920E-02 0.  1.
    10030    2    1    2    0    0  0.00000000000E+00  0.00000000000E+00  0.14074378038E+04  0.15689658446E+04  0.69337771087E+03 0.  0.
        3    1    3    3  502    0  0.13956844001E+03 -0.19078979023E+03  0.12775620433E+04  0.12992478124E+04  0.10100000352E+00 0. -1.
       -3    1    3    3    0  502 -0.13956844001E+03  0.19078979023E+03  0.12987576055E+03  0.26971803218E+03  0.10100000352E+00 0.  1.
</event>
<event>
 5   0  0.2751729E-02  0.7006067E+03  0.7818609E-02  0.9716195E-01
        1   -1    0    0  501    0  0.00000000000E+00  0.00000000000E+00  0.20094978919E+04  0.20094978919E+04  0.50400001928E-02 0. -1.
       -1   -1    0    0    0  501  0.00000000000E+00  0.00000000000E+00 -0.61066216354E+02  0.61066216562E+02  0.50400001928E-02 0.  1.
    10030    2    1    2    0    0  0.00000000000E+00  0.00000000000E+00  0.19484316755E+04  0.20705641084E+04  0.70060668924E+03 0.  0.
        1    1    3    3  502    0  0.14018935601E+03 -0.20653132025E+03  0.17005691808E+04  0.17187913720E+04  0.50400001928E-02 0. -1.
       -1    1    3    3    0  502 -0.14018935601E+03  0.20653132025E+03  0.24786249472E+03  0.35177273644E+03  0.50400001928E-02 0.  1.
</event>
<event>
 5   0  0.2758681E-02  0.7098540E+03  0.7818609E-02  0.9700527E-01
        1   -1    0    0  501    0  0.00000000000E+00  0.00000000000E+00  0.17315314629E+03  0.17315314636E+03  0.50400001928E-02 0.  1.
       -1   -1    0    0    0  501  0.00000000000E+00  0.00000000000E+00 -0.72752467837E+03  0.72752467839E+03  0.50400001928E-02 0. -1.
    10030    2    1    2    0    0  0.00000000000E+00  0.00000000000E+00 -0.55437153208E+03  0.90067782475E+03  0.70985403318E+03 0.  0.
        3    1    3    3  502    0 -0.13998363949E+03  0.32580563225E+03 -0.29636334100E+03  0.46214280198E+03  0.10100000352E+00 0.  1.
       -3    1    3    3    0  502  0.13998363949E+03 -0.32580563225E+03 -0.25800819108E+03  0.43853502277E+03  0.10100000352E+00 0. -1.
</event>
<event>
 5   0  0.2750139E-02  0.6922905E+03  0.7818609E-02  0.9730508E-01
       -1   -1    0    0    0  501  0.00000000000E+00  0.00000000000E+00  0.22252632258E+03  0.22252632264E+03  0.50400001928E-02 0. -1.
        1   -1    0    0  501    0  0.00000000000E+00  0.00000000000E+00 -0.53843757432E+03  0.53843757434E+03  0.50400001928E-02 0.  1.
    10030    2    1    2    0    0  0.00000000000E+00  0.00000000000E+00 -0.31591125174E+03  0.76096389698E+03  0.69229049794E+03 0.  0.
        2    1    3    3  502    0  0.28063148000E+03  0.58273205756E+01  0.64692352707E+02  0.28805049164E+03  0.25500000920E-02 0. -1.
       -2    1    3    3    0  502 -0.28063148000E+03 -0.58273205756E+01 -0.38060360444E+03  0.47291340534E+03  0.25500000920E-02 0.  1.
</event>
<event>
 5   0  0.2777999E-02  0.6502380E+03  0.7818609E-02  0.9806333E-01
       -1   -1    0    0    0  501  0.00000000000E+00  0.00000000000E+00  0.17410248089E+03  0.17410248096E+03  0.50400001928E-02 0.  1.
        1   -1    0    0  501    0  0.00000000000E+00  0.00000000000E+00 -0.60712736193E+03  0.60712736195E+03  0.50400001928E-02 0. -1.
    10030    2    1    2    0    0  0.00000000000E+00  0.00000000000E+00 -0.43302488104E+03  0.78122984292E+03  0.65023804861E+03 0.  0.
        5    1    3    3  502    0  0.24874703710E+03 -0.12329498423E+03 -0.41970902443E+03  0.50324397342E+03  0.46999998093E+01 0. -1.
       -5    1    3    3    0  502 -0.24874703710E+03  0.12329498423E+03 -0.13315856613E+02  0.27798586949E+03  0.46999998093E+01 0.  1.
</event>
<event>
 5   0  0.4365492E-02  0.7477488E+03  0.7818609E-02  0.9638889E-01
       -2   -1    0    0    0  501  0.00000000000E+00  0.00000000000E+00  0.27365109989E+03  0.27365109990E+03  0.25500000920E-02 0.  1.
        2   -1    0    0  501    0  0.00000000000E+00  0.00000000000E+00 -0.51080398539E+03  0.51080398540E+03  0.25500000920E-02 0. -1.
    10030    2    1    2    0    0  0.00000000000E+00  0.00000000000E+00 -0.23715288550E+03  0.78445508530E+03  0.74774881461E+03 0.  0.
        4    1    3    3  502    0 -0.11876161401E+03  0.22319207195E+03 -0.40752656576E+03  0.47958162668E+03  0.12699999809E+01 0. -1.
       -4    1    3    3    0  502  0.11876161401E+03 -0.22319207195E+03  0.17037368026E+03  0.30487345862E+03  0.12699999809E+01 0.  1.
</event>
<event>
 5   0  0.4526837E-02  0.7025698E+03  0.7818609E-02  0.9712848E-01
       -2   -1    0    0    0  501  0.00000000000E+00  0.00000000000E+00  0.15374376499E+03  0.15374376501E+03  0.25500000920E-02 0.  1.
        2   -1    0    0  501    0  0.00000000000E+00  0.00000000000E+00 -0.80264128170E+03  0.80264128170E+03  0.25500000920E-02 0. -1.
    10030    2    1    2    0    0  0.00000000000E+00  0.00000000000E+00 -0.64889751671E+03  0.95638504671E+03  0.70256983310E+03 0.  0.
        1    1    3    3  502    0  0.20896390707E+03 -0.15506206317E+02  0.59357863935E+02  0.21778363788E+03  0.50400001928E-02 0.  1.
       -1    1    3    3    0  502 -0.20896390707E+03  0.15506206317E+02 -0.70825538064E+03  0.73860140883E+03  0.50400001928E-02 0. -1.
</event>
<event>
 5   0  0.2684924E-02  0.7228654E+03  0.7818609E-02  0.9678909E-01
        1   -1    0    0  501    0  0.00000000000E+00  0.00000000000E+00  0.73967164034E+03  0.73967164035E+03  0.50400001928E-02 0. -1.
       -1   -1    0    0    0  501  0.00000000000E+00  0.00000000000E+00 -0.17661026460E+03  0.17661026467E+03  0.50400001928E-02 0.  1.
    10030    2    1    2    0    0  0.00000000000E+00  0.00000000000E+00  0.56306137574E+03  0.91628190502E+03  0.72286542083E+03 0.  0.
        4    1    3    3  502    0  0.10029549853E+03 -0.32046115041E+03  0.11204832490E+03  0.35399290382E+03  0.12699999809E+01 0. -1.
       -4    1    3    3    0  502 -0.10029549853E+03  0.32046115041E+03  0.45101305084E+03  0.56228900120E+03  0.12699999809E+01 0.  1.
</event>
<event>
 5   0  0.4503289E-02  0.7175063E+03  0.7818609E-02  0.9687754E-01
        2   -1    0    0  501    0  0.00000000000E+00  0.00000000000E+00  0.18979336052E+04  0.18979336052E+04  0.25500000920E-02 0.  1.
       -2   -1    0    0    0  501  0.00000000000E+00  0.00000000000E+00 -0.67812609036E+02  0.67812609083E+02  0.25500000920E-02 0. -1.
    10030    2    1    2    0    0  0.00000000000E+00  0.00000000000E+00  0.18301209962E+04  0.19657462143E+04  0.71750631940E+03 0.  0.
        2    1    3    3  502    0  0.26630570894E+03 -0.23831934132E+03  0.82890206664E+03  0.90265911348E+03  0.25500000920E-02 0.  1.
       -2    1    3    3    0  502 -0.26630570894E+03  0.23831934132E+03  0.10012189295E+04  0.10630871008E+04  0.25500000920E-02 0. -1.
</event>
<event>
 5   0  0.2758681E-02  0.7106807E+03  0.7818609E-02  0.9699139E-01
       -1   -1    0    0    0  501  0.00000000000E+00  0.00000000000E+00  0.35924172068E+03  0.35924172071E+03  0.50400001928E-02 0. -1.
        1   -1    0    0  501    0  0.00000000000E+00  0.00000000000E+00 -0.35148132564E+03  0.35148132568E+03  0.50400001928E-02 0.  1.
    10030    2    1    2    0    0  0.00000000000E+00  0.00000000000E+00  0.77603950350E+01  0.71072304639E+03  0.71068067720E+03 0.  0.
        3    1    3    3  502    0  0.26428355045E+03 -0.13996146259E+03 -0.18804721525E+03  0.35326586505E+03  0.10100000352E+00 0.  1.
       -3    1    3    3    0  502 -0.26428355045E+03  0.13996146259E+03  0.19580761028E+03  0.35745718134E+03  0.10100000352E+00 0. -1.
</event>
<event>
 5   0  0.4503289E-02  0.7002172E+03  0.7818609E-02  0.9716861E-01
       -2   -1    0    0    0  501  0.00000000000E+00  0.00000000000E+00  0.87408793193E+02  0.87408793230E+02  0.25500000920E-02 0. -1.
        2   -1    0    0  501    0  0.00000000000E+00  0.00000000000E+00 -0.14023305210E+04  0.14023305210E+04  0.25500000920E-02 0.  1.
    10030    2    1    2    0    0  0.00000000000E+00  0.00000000000E+00 -0.13149217278E+04  0.14897393142E+04  0.70021716210E+03 0.  0.
        2    1    3    3  502    0 -0.23196922185E+03 -0.24245817056E+02 -0.10193913001E+03  0.25453715989E+03  0.25500000920E-02 0. -1.
       -2    1    3    3    0  502  0.23196922185E+03  0.24245817056E+02 -0.12129825978E+04  0.12352021543E+04  0.25500000920E-02 0.  1.
</event>
<event>
 5   0  0.2750139E-02  0.7776766E+03  0.7818609E-02  0.9592904E-01
       -1   -1    0    0    0  501  0.00000000000E+00  0.00000000000E+00  0.16678623980E+03  0.16678623988E+03  0.50400001928E-02 0.  1.
        1   -1    0    0  501    0  0.00000000000E+00  0.00000000000E+00 -0.90652093362E+03  0.90652093363E+03  0.50400001928E-02 0. -1.
    10030    2    1    2    0    0  0.00000000000E+00  0.00000000000E+00 -0.73973469381E+03  0.10733071735E+04  0.77767658540E+03 0.  0.
        2    1    3    3  502    0  0.11801137266E+03  0.24459734837E+03 -0.75393661899E+03  0.80135820478E+03  0.25500000920E-02 0. -1.
       -2    1    3    3    0  502 -0.11801137266E+03 -0.24459734837E+03  0.14201925176E+02  0.27194896873E+03  0.25500000920E-02 0.  1.
</event>
<event>
 5   0  0.2750139E-02  0.6667279E+03  0.7818609E-02  0.9775887E-01
       -1   -1    0    0    0  501  0.00000000000E+00  0.00000000000E+00  0.10418750440E+03  0.10418750452E+03  0.50400001928E-02 0.  1.
        1   -1    0    0  501    0  0.00000000000E+00  0.00000000000E+00 -0.10666492279E+04  0.10666492279E+04  0.50400001928E-02 0. -1.
    10030    2    1    2    0    0  0.00000000000E+00  0.00000000000E+00 -0.96246172349E+03  0.11708367324E+04  0.66672789414E+03 0.  0.
        2    1    3    3  502    0  0.32511341307E+02  0.17525799831E+03 -0.97593582385E+03  0.99208018102E+03  0.25500000920E-02 0. -1.
       -2    1    3    3    0  502 -0.32511341307E+02 -0.17525799831E+03  0.13474100362E+02  0.17875655141E+03  0.25500000920E-02 0.  1.
</event>
<event>
 5   0  0.2750139E-02  0.7027848E+03  0.7818609E-02  0.9712482E-01
        1   -1    0    0  501    0  0.00000000000E+00  0.00000000000E+00  0.34054402016E+03  0.34054402020E+03  0.50400001928E-02 0.  1.
       -1   -1    0    0    0  501  0.00000000000E+00  0.00000000000E+00 -0.36258640690E+03  0.36258640694E+03  0.50400001928E-02 0. -1.
    10030    2    1    2    0    0  0.00000000000E+00  0.00000000000E+00 -0.22042386745E+02  0.70313042713E+03  0.70278483958E+03 0.  0.
        2    1    3    3  502    0  0.27495281948E+03  0.14338834705E+03 -0.17638211490E+03  0.35674910157E+03  0.25500000920E-02 0. -1.
       -2    1    3    3    0  502 -0.27495281948E+03 -0.14338834705E+03  0.15433972815E+03  0.34638132557E+03  0.25500000920E-02 0.  1.
</event>
<event>
 5   0  0.4503289E-02  0.6169143E+03  0.7818609E-02  0.9870923E-01
       -2   -1    0    0    0  501  0.00000000000E+00  0.00000000000E+00  0.14581683158E+03  0.14581683161E+03  0.25500000920E-02 0.  1.
        2   -1    0    0  501    0  0.00000000000E+00  0.00000000000E+00 -0.65250227411E+03  0.65250227411E+03  0.25500000920E-02 0. -1.
    10030    2    1    2    0    0  0.00000000000E+00  0.00000000000E+00 -0.50668544252E+03  0.79831910572E+03  0.61691430271E+03 0.  0.
        2    1    3    3  502    0 -0.15743889026E+03  0.10388151880E+03 -0.56917473716E+03  0.59961508949E+03  0.25500000920E-02 0. -1.
       -2    1    3    3    0  502  0.15743889026E+03 -0.10388151880E+03  0.62489294642E+02  0.19870401623E+03  0.25500000920E-02 0.  1.
</event>
<event>
 5   0  0.2777999E-02  0.7065466E+03  0.7818609E-02  0.9706102E-01
       -1   -1    0    0    0  501  0.00000000000E+00  0.00000000000E+00  0.78347755590E+02  0.78347755752E+02  0.50400001928E-02 0.  1.
        1   -1    0    0  501    0  0.00000000000E+00  0.00000000000E+00 -0.15929240558E+04  0.15929240558E+04  0.50400001928E-02 0. -1.
    10030    2    1    2    0    0  0.00000000000E+00  0.00000000000E+00 -0.15145763002E+04  0.16712718116E+04  0.70654660070E+03 0.  0.
        5    1    3    3  502    0 -0.18481125170E+03 -0.28830003489E+03 -0.55233085886E+03  0.64989505038E+03  0.46999998093E+01 0.  1.
       -5    1    3    3    0  502  0.18481125170E+03  0.28830003489E+03 -0.96224544136E+03  0.10213767612E+04  0.46999998093E+01 0. -1.
</event>
<event>
 5   0  0.4420645E-02  0.7093603E+03  0.7818609E-02  0.9701357E-01
       -2   -1    0    0    0  501  0.00000000000E+00  0.00000000000E+00  0.43419614828E+02  0.43419614903E+02  0.25500000920E-02 0. -1.
        2   -1    0    0  501    0  0.00000000000E+00  0.00000000000E+00 -0.28972618496E+04  0.28972618496E+04  0.25500000920E-02 0.  1.
    10030    2    1    2    0    0  0.00000000000E+00  0.00000000000E+00 -0.28538422347E+04  0.29406814645E+04  0.70936025735E+03 0.  0.
        5    1    3    3  502    0 -0.65229794928E+02 -0.29662853147E+03 -0.21860474298E+04  0.22070498108E+04  0.46999998093E+01 0.  1.
       -5    1    3    3    0  502  0.65229794928E+02  0.29662853147E+03 -0.66779480491E+03  0.73363165369E+03  0.46999998093E+01 0. -1.
</event>
<event>
 5   0  0.4420645E-02  0.6892080E+03  0.7818609E-02  0.9735868E-01
        2   -1    0    0  501    0  0.00000000000E+00  0.00000000000E+00  0.40763759599E+03  0.40763759600E+03  0.25500000920E-02 0. -1.
       -2   -1    0    0    0  501  0.00000000000E+00  0.00000000000E+00 -0.29131734356E+03  0.29131734357E+03  0.25500000920E-02 0.  1.
    10030    2    1    2    0    0  0.00000000000E+00  0.00000000000E+00  0.11632025243E+03  0.69895493957E+03  0.68920795586E+03 0.  0.
        5    1    3    3  502    0 -0.63951497364E+02  0.15869139948E+03  0.36148372523E+03  0.39995665751E+03  0.46999998093E+01 0. -1.
       -5    1    3    3    0  502  0.63951497364E+02 -0.15869139948E+03 -0.24516347279E+03  0.29899828206E+03  0.46999998093E+01 0.  1.
</event>
<event>
 5   0  0.4365492E-02  0.7203148E+03  0.7818609E-02  0.9683108E-01
       -2   -1    0    0    0  501  0.00000000000E+00  0.00000000000E+00  0.19067582738E+03  0.19067582740E+03  0.25500000920E-02 0.  1.
        2   -1    0    0  501    0  0.00000000000E+00  0.00000000000E+00 -0.68028215246E+03  0.68028215247E+03  0.25500000920E-02 0. -1.
    10030    2    1    2    0    0  0.00000000000E+00  0.00000000000E+00 -0.48960632508E+03  0.87095797987E+03  0.72031482641E+03 0.  0.
        4    1    3    3  502    0  0.18249204073E+03  0.38354975765E+02  0.12775431747E+03  0.22604695890E+03  0.12699999809E+01 0.  1.
       -4    1    3    3    0  502 -0.18249204073E+03 -0.38354975765E+02 -0.61736064255E+03  0.64491102097E+03  0.12699999809E+01 0. -1.
</event>
<event>
 5   0  0.2684924E-02  0.6974497E+03  0.7818609E-02  0.9721604E-01
       -1   -1    0    0    0  501  0.00000000000E+00  0.00000000000E+00  0.13784860897E+03  0.13784860906E+03  0.50400001928E-02 0.  1.
        1   -1    0    0  501    0  0.00000000000E+00  0.00000000000E+00 -0.88219247596E+03  0.88219247598E+03  0.50400001928E-02 0. -1.
    10030    2    1    2    0    0  0.00000000000E+00  0.00000000000E+00 -0.74434386699E+03  0.10200410850E+04  0.69744965613E+03 0.  0.
        4    1    3    3  502    0  0.38328822465E+02  0.25174105880E+03 -0.23719018749E+02  0.25574765701E+03  0.12699999809E+01 0.  1.
       -4    1    3    3    0  502 -0.38328822465E+02 -0.25174105880E+03 -0.72062484824E+03  0.76429342803E+03  0.12699999809E+01 0. -1.
</event>
<event>
 5   0  0.1784625E-02  0.7052397E+03  0.7818609E-02  0.9708313E-01
        4   -1    0    0  501    0  0.00000000000E+00  0.00000000000E+00  0.24051228480E+03  0.24051563782E+03  0.12699999809E+01 0. -1.
       -4   -1    0    0    0  501  0.00000000000E+00  0.00000000000E+00 -0.51697531650E+03  0.51697687644E+03  0.12699999809E+01 0.  1.
    10030    2    1    2    0    0  0.00000000000E+00  0.00000000000E+00 -0.27646303171E+03  0.75749251426E+03  0.70523974736E+03 0.  0.
        3    1    3    3  502    0  0.37351133479E+02 -0.11977354139E+03  0.21573028035E+03  0.24956035833E+03  0.10100000352E+00 0. -1.
       -3    1    3    3    0  502 -0.37351133479E+02  0.11977354139E+03 -0.49219331206E+03  0.50793215593E+03  0.10100000352E+00 0.  1.
</event>
<event>
 5   0  0.1784625E-02  0.7098263E+03  0.7818609E-02  0.9700574E-01
       -3   -1    0    0    0  501  0.00000000000E+00  0.00000000000E+00  0.13375501701E+04  0.13375501739E+04  0.10100000352E+00 0.  1.
        3   -1    0    0  501    0  0.00000000000E+00  0.00000000000E+00 -0.94174629285E+02  0.94174683445E+02  0.10100000352E+00 0. -1.
    10030    2    1    2    0    0  0.00000000000E+00  0.00000000000E+00  0.12433755408E+04  0.14317248574E+04  0.70982626867E+03 0.  0.
        1    1    3    3  502    0  0.14680159364E+03 -0.11718847446E+03  0.14305621431E+02  0.18838390927E+03  0.50400001928E-02 0. -1.
       -1    1    3    3    0  502 -0.14680159364E+03  0.11718847446E+03  0.12290699194E+04  0.12433409481E+04  0.50400001928E-02 0.  1.
</event>
<event>
 5   0  0.4503289E-02  0.6927942E+03  0.7818609E-02  0.9729635E-01
       -2   -1    0    0    0  501  0.00000000000E+00  0.00000000000E+00  0.28981660438E+03  0.28981660440E+03  0.25500000920E-02 0. -1.
        2   -1    0    0  501    0  0.00000000000E+00  0.00000000000E+00 -0.41402372790E+03  0.41402372791E+03  0.25500000920E-02 0.  1.
    10030    2    1    2    0    0  0.00000000000E+00  0.00000000000E+00 -0.12420712352E+03  0.70384033231E+03  0.69279420021E+03 0.  0.
        2    1    3    3  502    0  0.21688814779E+02 -0.34404698823E+03 -0.27618033160E+02  0.34583448434E+03  0.25500000920E-02 0. -1.
       -2    1    3    3    0  502 -0.21688814779E+02  0.34404698823E+03 -0.96589090359E+02  0.35800584797E+03  0.25500000920E-02 0.  1.
</event>
<event>
 5   0  0.2750139E-02  0.7075883E+03  0.7818609E-02  0.9704342E-01
        1   -1    0    0  501    0  0.00000000000E+00  0.00000000000E+00  0.53131711363E+03  0.53131711366E+03  0.50400001928E-02 0.  1.
       -1   -1    0    0    0  501  0.00000000000E+00  0.00000000000E+00 -0.23558495234E+03  0.23558495239E+03  0.50400001928E-02 0. -1.
    10030    2    1    2    0    0  0.00000000000E+00  0.00000000000E+00  0.29573216130E+03  0.76690206605E+03  0.70758834620E+03 0.  0.
        2    1    3    3  502    0 -0.73217411424E+02  0.33976056278E+03  0.21953215154E+03  0.41108684596E+03  0.25500000920E-02 0.  1.
       -2    1    3    3    0  502  0.73217411424E+02 -0.33976056278E+03  0.76200009759E+02  0.35581522009E+03  0.25500000920E-02 0. -1.
</event>
<event>
 5   0  0.4299912E-02  0.7086306E+03  0.7818609E-02  0.9702585E-01
       -2   -1    0    0    0  501  0.00000000000E+00  0.00000000000E+00  0.14952929429E+03  0.14952929431E+03  0.25500000920E-02 0.  1.
        2   -1    0    0  501    0  0.00000000000E+00  0.00000000000E+00 -0.83956349547E+03  0.83956349547E+03  0.25500000920E-02 0. -1.
    10030    2    1    2    0    0  0.00000000000E+00  0.00000000000E+00 -0.69003420117E+03  0.98909278979E+03  0.70863061465E+03 0.  0.
        3    1    3    3  502    0  0.47737885751E+02 -0.17452657340E+03 -0.77021705592E+03  0.79118439948E+03  0.10100000352E+00 0. -1.
       -3    1    3    3    0  502 -0.47737885751E+02  0.17452657340E+03  0.80182854741E+02  0.19790839031E+03  0.10100000352E+00 0.  1.
</event>
<event>
 5   0  0.4420645E-02  0.6820676E+03  0.7818609E-02  0.9748400E-01
       -2   -1    0    0    0  501  0.00000000000E+00  0.00000000000E+00  0.24754448017E+03  0.24754448019E+03  0.25500000920E-02 0. -1.
        2   -1    0    0  501    0  0.00000000000E+00  0.00000000000E+00 -0.46983093911E+03  0.46983093912E+03  0.25500000920E-02 0.  1.
    10030    2    1    2    0    0  0.00000000000E+00  0.00000000000E+00 -0.22228645894E+03  0.71737541931E+03  0.68206760838E+03 0.  0.
        5    1    3    3  502    0 -0.15539713083E+03 -0.99570617398E+02  0.19043930744E+03  0.26523912973E+03  0.46999998093E+01 0. -1.
       -5    1    3    3    0  502  0.15539713083E+03  0.99570617398E+02 -0.41272576638E+03  0.45213628958E+03  0.46999998093E+01 0.  1.
</event>
<event>
 5   0  0.2777999E-02  0.7148354E+03  0.7818609E-02  0.9692193E-01
       -1   -1    0    0    0  501  0.00000000000E+00  0.00000000000E+00  0.33784491203E+03  0.33784491207E+03  0.50400001928E-02 0. -1.
        1   -1    0    0  501    0  0.00000000000E+00  0.00000000000E+00 -0.37812442133E+03  0.37812442137E+03  0.50400001928E-02 0.  1.
    10030    2    1    2    0    0  0.00000000000E+00  0.00000000000E+00 -0.40279509302E+02  0.71596933343E+03  0.71483539892E+03 0.  0.
        5    1    3    3  502    0  0.35663083470E+03  0.13460034867E+01  0.30909572084E+01  0.35667773689E+03  0.46999998093E+01 0.  1.
       -5    1    3    3    0  502 -0.35663083470E+03 -0.13460034867E+01 -0.43370466510E+02  0.35929159654E+03  0.46999998093E+01 0. -1.
</event>
<event>
 5   0  0.2758681E-02  0.7048835E+03  0.7818609E-02  0.9708917E-01
        1   -1    0    0  501    0  0.00000000000E+00  0.00000000000E+00  0.10035688159E+04  0.10035688159E+04  0.50400001928E-02 0.  1.
       -1   -1    0    0    0  501  0.00000000000E+00  0.00000000000E+00 -0.12377346219E+03  0.12377346229E+03  0.50400001928E-02 0. -1.
    10030    2    1    2    0    0  0.00000000000E+00  0.00000000000E+00  0.87979535373E+03  0.11273422782E+04  0.70488349946E+03 0.  0.
        3    1    3    3  502    0 -0.26613728540E+03  0.19729176382E+03  0.63223070087E+03  0.71377080640E+03  0.10100000352E+00 0.  1.
       -3    1    3    3    0  502  0.26613728540E+03 -0.19729176382E+03  0.24756465286E+03  0.41357147181E+03  0.10100000352E+00 0. -1.
</event>
<event>
 5   0  0.4299912E-02  0.6585518E+03  0.7818609E-02  0.9790863E-01
        2   -1    0    0  501    0  0.00000000000E+00  0.00000000000E+00  0.24228196401E+03  0.24228196402E+03  0.25500000920E-02 0. -1.
       -2   -1    0    0    0  501  0.00000000000E+00  0.00000000000E+00 -0.44750590662E+03  0.44750590663E+03  0.25500000920E-02 0.  1.
    10030    2    1    2    0    0  0.00000000000E+00  0.00000000000E+00 -0.20522394261E+03  0.68978787065E+03  0.65855177464E+03 0.  0.
        3    1    3    3  502    0  0.10403099312E+03 -0.24259904065E+03  0.10356410416E+03  0.28355295083E+03  0.10100000352E+00 0. -1.
       -3    1    3    3    0  502 -0.10403099312E+03  0.24259904065E+03 -0.30878804677E+03  0.40623491982E+03  0.10100000352E+00 0.  1.
</event>
<event>
 5   0  0.4526837E-02  0.6934333E+03  0.7818609E-02  0.9728529E-01
       -2   -1    0    0    0  501  0.00000000000E+00  0.00000000000E+00  0.10544708194E+03  0.10544708197E+03  0.25500000920E-02 0.  1.
        2   -1    0    0  501    0  0.00000000000E+00  0.00000000000E+00 -0.11400260870E+04  0.11400260870E+04  0.25500000920E-02 0. -1.
    10030    2    1    2    0    0  0.00000000000E+00  0.00000000000E+00 -0.10345790050E+04  0.12454731689E+04  0.69343326781E+03 0.  0.
        1    1    3    3  502    0 -0.22394337515E+03  0.23593513948E+03 -0.30178485603E+03  0.44372302697E+03  0.50400001928E-02 0.  1.
       -1    1    3    3    0  502  0.22394337515E+03 -0.23593513948E+03 -0.73279414901E+03  0.80175014198E+03  0.50400001928E-02 0. -1.
</event>
<event>
 5   0  0.4526837E-02  0.6976709E+03  0.7818609E-02  0.9721224E-01
       -2   -1    0    0    0  501  0.00000000000E+00  0.00000000000E+00  0.35628429842E+03  0.35628429843E+03  0.25500000920E-02 0.  1.
        2   -1    0    0  501    0  0.00000000000E+00  0.00000000000E+00 -0.34154230382E+03  0.34154230383E+03  0.25500000920E-02 0. -1.
    10030    2    1    2    0    0  0.00000000000E+00  0.00000000000E+00  0.14741994599E+02  0.69782660225E+03  0.69767086825E+03 0.  0.
        1    1    3    3  502    0 -0.15327080863E+03 -0.30281982983E+03  0.87976639974E+02  0.35061614241E+03  0.50400001928E-02 0.  1.
       -1    1    3    3    0  502  0.15327080863E+03  0.30281982983E+03 -0.73234645374E+02  0.34721045984E+03  0.50400001928E-02 0. -1.
</event>
<event>
 5   0  0.4503289E-02  0.7014636E+03  0.7818609E-02  0.9714733E-01
        2   -1    0    0  501    0  0.00000000000E+00  0.00000000000E+00  0.50335935326E+03  0.50335935326E+03  0.25500000920E-02 0.  1.
       -2   -1    0    0    0  501  0.00000000000E+00  0.00000000000E+00 -0.24438361740E+03  0.24438361741E+03  0.25500000920E-02 0. -1.
    10030    2    1    2    0    0  0.00000000000E+00  0.00000000000E+00  0.25897573586E+03  0.74774297067E+03  0.70146355460E+03 0.  0.
        2    1    3    3  502    0  0.24280374764E+03  0.20496180874E+03  0.28777635391E+03  0.42869363512E+03  0.25500000920E-02 0.  1.
       -2    1    3    3    0  502 -0.24280374764E+03 -0.20496180874E+03 -0.28800618048E+02  0.31904933556E+03  0.25500000920E-02 0. -1.
</event>
<event>
 5   0  0.2751729E-02  0.6782388E+03  0.7818609E-02  0.9755188E-01
        1   -1    0    0  501    0  0.00000000000E+00  0.00000000000E+00  0.37669130278E+03  0.37669130282E+03  0.50400001928E-02 0. -1.
       -1   -1    0    0    0  501  0.00000000000E+00  0.00000000000E+00 -0.30529500257E+03  0.30529500261E+03  0.50400001928E-02 0.  1.
    10030    2    1    2    0    0  0.00000000000E+00  0.00000000000E+00  0.71396300217E+02  0.68198630542E+03  0.67823881421E+03 0.  0.
        1    1    3    3  502    0  0.59063763401E+02 -0.33361324533E+03  0.50464201034E+02  0.34253899226E+03  0.50400001928E-02 0.  1.
       -1    1    3    3    0  502 -0.59063763401E+02  0.33361324533E+03  0.20932099183E+02  0.33944731316E+03  0.50400001928E-02 0. -1.
</event>
<event>
 5   0  0.4526837E-02  0.6507230E+03  0.7818609E-02  0.9805423E-01
       -2   -1    0    0    0  501  0.00000000000E+00  0.00000000000E+00  0.25247822724E+03  0.25247822725E+03  0.25500000920E-02 0. -1.
        2   -1    0    0  501    0  0.00000000000E+00  0.00000000000E+00 -0.41928410043E+03  0.41928410044E+03  0.25500000920E-02 0.  1.
    10030    2    1    2    0    0  0.00000000000E+00  0.00000000000E+00 -0.16680587319E+03  0.67176232769E+03  0.65072300219E+03 0.  0.
        1    1    3    3  502    0 -0.23136540088E+03 -0.18087652460E+03 -0.22798046826E+03  0.37178133332E+03  0.50400001928E-02 0.  1.
       -1    1    3    3    0  502  0.23136540088E+03  0.18087652460E+03  0.61174595062E+02  0.29998099437E+03  0.50400001928E-02 0. -1.
</event>
<event>
 5   0  0.4365492E-02  0.7021994E+03  0.7818609E-02  0.9713478E-01
       -2   -1    0    0    0  501  0.00000000000E+00  0.00000000000E+00  0.83790181053E+02  0.83790181092E+02  0.25500000920E-02 0. -1.
        2   -1    0    0  501    0  0.00000000000E+00  0.00000000000E+00 -0.14711866633E+04  0.14711866633E+04  0.25500000920E-02 0.  1.
    10030    2    1    2    0    0  0.00000000000E+00  0.00000000000E+00 -0.13873964822E+04  0.15549768444E+04  0.70219939308E+03 0.  0.
        4    1    3    3  502    0 -0.24648301448E+03 -0.30704547901E+02 -0.12431856061E+04  0.12677573545E+04  0.12699999809E+01 0. -1.
       -4    1    3    3    0  502  0.24648301448E+03  0.30704547901E+02 -0.14421087613E+03  0.28721948991E+03  0.12699999809E+01 0.  1.
</event>
<event>
 5   0  0.4299912E-02  0.6869490E+03  0.7818609E-02  0.9739815E-01
       -2   -1    0    0    0  501  0.00000000000E+00  0.00000000000E+00  0.83399154344E+02  0.83399154383E+02  0.25500000920E-02 0. -1.
        2   -1    0    0  501    0  0.00000000000E+00  0.00000000000E+00 -0.14145795484E+04  0.14145795484E+04  0.25500000920E-02 0.  1.
    10030    2    1    2    0    0  0.00000000000E+00  0.00000000000E+00 -0.13311803941E+04  0.14979787028E+04  0.68694901739E+03 0.  0.
        3    1    3    3  502    0 -0.49135256895E+02 -0.93391180602E+02 -0.13783531333E+04  0.13823869055E+04  0.10100000352E+00 0.  1.
       -3    1    3    3    0  502  0.49135256895E+02  0.93391180602E+02  0.47172739238E+02  0.11559179734E+03  0.10100000352E+00 0. -1.
</event>
<event>
 5   0  0.2758681E-02  0.6928907E+03  0.7818609E-02  0.9729468E-01
       -1   -1    0    0    0  501  0.00000000000E+00  0.00000000000E+00  0.80347526229E+02  0.80347526387E+02  0.50400001928E-02 0.  1.
        1   -1    0    0  501    0  0.00000000000E+00  0.00000000000E+00 -0.14938154301E+04  0.14938154301E+04  0.50400001928E-02 0. -1.
    10030    2    1    2    0    0  0.00000000000E+00  0.00000000000E+00 -0.14134679039E+04  0.15741629565E+04  0.69289068282E+03 0.  0.
        3    1    3    3  502    0 -0.20070456930E+03 -0.15498372853E+02 -0.66153681134E+02  0.21189347189E+03  0.10100000352E+00 0.  1.
       -3    1    3    3    0  502  0.20070456930E+03  0.15498372853E+02 -0.13473142228E+04  0.13622694846E+04  0.10100000352E+00 0. -1.
</event>
<event>
 5   0  0.1784625E-02  0.6913240E+03  0.7818609E-02  0.9732185E-01
        4   -1    0    0  501    0  0.00000000000E+00  0.00000000000E+00  0.18237685046E+03  0.18238127229E+03  0.12699999809E+01 0.  1.
       -4   -1    0    0    0  501  0.00000000000E+00  0.00000000000E+00 -0.65512624374E+03  0.65512747473E+03  0.12699999809E+01 0. -1.
    10030    2    1    2    0    0  0.00000000000E+00  0.00000000000E+00 -0.47274939329E+03  0.83750874702E+03  0.69132402857E+03 0.  0.
        4    1    3    3  502    0 -0.17390249908E+03 -0.20235958782E+03 -0.50258962448E+03  0.56902497793E+03  0.12699999809E+01 0. -1.
       -4    1    3    3    0  502  0.17390249908E+03  0.20235958782E+03  0.29840231194E+02  0.26848376909E+03  0.12699999809E+01 0.  1.
</event>
<event>
 5   0  0.4526837E-02  0.8164537E+03  0.7818609E-02  0.9536502E-01
        2   -1    0    0  501    0  0.00000000000E+00  0.00000000000E+00  0.65485343664E+03  0.65485343665E+03  0.25500000920E-02 0. -1.
       -2   -1    0    0    0  501  0.00000000000E+00  0.00000000000E+00 -0.25448312024E+03  0.25448312025E+03  0.25500000920E-02 0.  1.
    10030    2    1    2    0    0  0.00000000000E+00  0.00000000000E+00  0.40037031640E+03  0.90933655690E+03  0.81645366278E+03 0.  0.
        1    1    3    3  502    0 -0.23144854982E+03  0.20102321865E+03 -0.10005710511E+03  0.32247509976E+03  0.50400001928E-02 0.  1.
       -1    1    3    3    0  502  0.23144854982E+03 -0.20102321865E+03  0.50042742152E+03  0.58686145715E+03  0.50400001928E-02 0. -1.
</event>
<event>
 5   0  0.4365492E-02  0.7180019E+03  0.7818609E-02  0.9686932E-01
        2   -1    0    0  501    0  0.00000000000E+00  0.00000000000E+00  0.42583040942E+03  0.42583040943E+03  0.25500000920E-02 0.  1.
       -2   -1    0    0    0  501  0.00000000000E+00  0.00000000000E+00 -0.30265964690E+03  0.30265964691E+03  0.25500000920E-02 0. -1.
    10030    2    1    2    0    0  0.00000000000E+00  0.00000000000E+00  0.12317076252E+03  0.72849005634E+03  0.71800189794E+03 0.  0.
        4    1    3    3  502    0  0.17346409271E+03 -0.16005158969E+03  0.33604328280E+03  0.41064949000E+03  0.12699999809E+01 0.  1.
       -4    1    3    3    0  502 -0.17346409271E+03  0.16005158969E+03 -0.21287252028E+03  0.31784056634E+03  0.12699999809E+01 0. -1.
</event>
<event>
 5   0  0.4299912E-02  0.7046433E+03  0.7818609E-02  0.9709324E-01
       -2   -1    0    0    0  501  0.00000000000E+00  0.00000000000E+00  0.50701697812E+02  0.50701697876E+02  0.25500000920E-02 0. -1.
        2   -1    0    0  501    0  0.00000000000E+00  0.00000000000E+00 -0.24482521926E+04  0.24482521926E+04  0.25500000920E-02 0.  1.
    10030    2    1    2    0    0  0.00000000000E+00  0.00000000000E+00 -0.23975504948E+04  0.24989538905E+04  0.70464329392E+03 0.  0.
        3    1    3    3  502    0  0.26536220134E+03 -0.23082605756E+02 -0.20166101689E+04  0.20341254849E+04  0.10100000352E+00 0.  1.
       -3    1    3    3    0  502 -0.26536220134E+03  0.23082605756E+02 -0.38094032587E+03  0.46482840561E+03  0.10100000352E+00 0. -1.
</event>
<event>
 5   0  0.2751729E-02  0.6981707E+03  0.7818609E-02  0.9720366E-01
       -1   -1    0    0    0  501  0.00000000000E+00  0.00000000000E+00  0.15857062700E+03  0.15857062708E+03  0.50400001928E-02 0.  1.
        1   -1    0    0  501    0  0.00000000000E+00  0.00000000000E+00 -0.76849402005E+03  0.76849402006E+03  0.50400001928E-02 0. -1.
    10030    2    1    2    0    0  0.00000000000E+00  0.00000000000E+00 -0.60992339304E+03  0.92706464715E+03  0.69817069160E+03 0.  0.
        1    1    3    3  502    0 -0.41690976224E+01  0.59980036699E+02  0.15164353916E+03  0.16312801468E+03  0.50400001928E-02 0.  1.
       -1    1    3    3    0  502  0.41690976224E+01 -0.59980036699E+02 -0.76156693220E+03  0.76393663247E+03  0.50400001928E-02 0. -1.
</event>
<event>
 5   0  0.4503289E-02  0.6985281E+03  0.7818609E-02  0.9719753E-01
        2   -1    0    0  501    0  0.00000000000E+00  0.00000000000E+00  0.13340766384E+03  0.13340766387E+03  0.25500000920E-02 0.  1.
       -2   -1    0    0    0  501  0.00000000000E+00  0.00000000000E+00 -0.91438064517E+03  0.91438064517E+03  0.25500000920E-02 0. -1.
    10030    2    1    2    0    0  0.00000000000E+00  0.00000000000E+00 -0.78097298133E+03  0.10477883090E+04  0.69852812613E+03 0.  0.
        2    1    3    3  502    0  0.77138708585E+02  0.37101533252E+02  0.11743050347E+03  0.14531630082E+03  0.25500000920E-02 0.  1.
       -2    1    3    3    0  502 -0.77138708585E+02 -0.37101533252E+02 -0.89840348479E+03  0.90247200822E+03  0.25500000920E-02 0. -1.
</event>
<event>
 5   0  0.2684924E-02  0.7133300E+03  0.7818609E-02  0.9694704E-01
       -1   -1    0    0    0  501  0.00000000000E+00  0.00000000000E+00  0.20646918373E+03  0.20646918379E+03  0.50400001928E-02 0.  1.
        1   -1    0    0  501    0  0.00000000000E+00  0.00000000000E+00 -0.61612056488E+03  0.61612056490E+03  0.50400001928E-02 0. -1.
    10030    2    1    2    0    0  0.00000000000E+00  0.00000000000E+00 -0.40965138116E+03  0.82258974869E+03  0.71332996612E+03 0.  0.
        4    1    3    3  502    0  0.11125466712E+03  0.25347348776E+03 -0.46417813111E+03  0.54045292140E+03  0.12699999809E+01 0. -1.
       -4    1    3    3    0  502 -0.11125466712E+03 -0.25347348776E+03  0.54526749949E+02  0.28213682729E+03  0.12699999809E+01 0.  1.
</event>
<event>
 5   0  0.2750139E-02  0.6322376E+03  0.7818609E-02  0.9840692E-01
       -1   -1    0    0    0  501  0.00000000000E+00  0.00000000000E+00  0.60034934210E+03  0.60034934212E+03  0.50400001928E-02 0.  1.
        1   -1    0    0  501    0  0.00000000000E+00  0.00000000000E+00 -0.16645490834E+03  0.16645490841E+03  0.50400001928E-02 0. -1.
    10030    2    1    2    0    0  0.00000000000E+00  0.00000000000E+00  0.43389443377E+03  0.76680425053E+03  0.63223759694E+03 0.  0.
        2    1    3    3  502    0 -0.21440114859E+03  0.44281884494E+02 -0.59629557475E+02  0.22690178920E+03  0.25500000920E-02 0. -1.
       -2    1    3    3    0  502  0.21440114859E+03 -0.44281884494E+02  0.49352399124E+03  0.53990246133E+03  0.25500000920E-02 0.  1.
</event>
<event>
 5   0  0.4420645E-02  0.7340995E+03  0.7818609E-02  0.9660631E-01
        2   -1    0    0  501    0  0.00000000000E+00  0.00000000000E+00  0.15849663881E+04  0.15849663881E+04  0.25500000920E-02 0.  1.
       -2   -1    0    0    0  501  0.00000000000E+00  0.00000000000E+00 -0.85002141250E+02  0.85002141288E+02  0.25500000920E-02 0. -1.
    10030    2    1    2    0    0  0.00000000000E+00  0.00000000000E+00  0.14999642468E+04  0.16699685294E+04  0.73409954864E+03 0.  0.
        5    1    3    3  502    0 -0.79263894788E+01  0.27022274368E+03  0.18528549896E+03  0.32777425917E+03  0.46999998093E+01 0. -1.
       -5    1    3    3    0  502  0.79263894788E+01 -0.27022274368E+03  0.13146787479E+04  0.13421942702E+04  0.46999998093E+01 0.  1.
</event>
<event>
 5   0  0.2751729E-02  0.7028244E+03  0.7818609E-02  0.9712414E-01
       -1   -1    0    0    0  501  0.00000000000E+00  0.00000000000E+00  0.11630823694E+03  0.11630823705E+03  0.50400001928E-02 0.  1.
        1   -1    0    0  501    0  0.00000000000E+00  0.00000000000E+00 -0.10617523361E+04  0.10617523361E+04  0.50400001928E-02 0. -1.
    10030    2    1    2    0    0  0.00000000000E+00  0.00000000000E+00 -0.94544409914E+03  0.11780605731E+04  0.70282442287E+03 0.  0.
        1    1    3    3  502    0  0.25112224666E+03  0.24333885346E+03 -0.41431102117E+03  0.54215293291E+03  0.50400001928E-02 0.  1.
       -1    1    3    3    0  502 -0.25112224666E+03 -0.24333885346E+03 -0.53113307797E+03  0.63590764024E+03  0.50400001928E-02 0. -1.
</event>
<event>
 5   0  0.4365492E-02  0.6802453E+03  0.7818609E-02  0.9751625E-01
       -2   -1    0    0    0  501  0.00000000000E+00  0.00000000000E+00  0.12476919061E+03  0.12476919064E+03  0.25500000920E-02 0. -1.
        2   -1    0    0  501    0  0.00000000000E+00  0.00000000000E+00 -0.92717932227E+03  0.92717932227E+03  0.25500000920E-02 0.  1.
    10030    2    1    2    0    0  0.00000000000E+00  0.00000000000E+00 -0.80241013166E+03  0.10519485129E+04  0.68024528989E+03 0.  0.
        4    1    3    3  502    0 -0.54370275430E+02  0.47557736154E+02  0.11276662225E+03  0.13392456501E+03  0.12699999809E+01 0. -1.
       -4    1    3    3    0  502  0.54370275430E+02 -0.47557736154E+02 -0.91517675391E+03  0.91802394790E+03  0.12699999809E+01 0.  1.
</event>
<event>
 5   0  0.2777999E-02  0.6917475E+03  0.7818609E-02  0.9731450E-01
       -1   -1    0    0    0  501  0.00000000000E+00  0.00000000000E+00  0.26327941041E+03  0.26327941046E+03  0.50400001928E-02 0.  1.
        1   -1    0    0  501    0  0.00000000000E+00  0.00000000000E+00 -0.45437907323E+03  0.45437907326E+03  0.50400001928E-02 0. -1.
    10030    2    1    2    0    0  0.00000000000E+00  0.00000000000E+00 -0.19109966283E+03  0.71765848372E+03  0.69174751038E+03 0.  0.
        5    1    3    3  502    0 -0.26945576982E+03  0.78483748689E+01  0.12921847812E+03  0.29897744725E+03  0.46999998093E+01 0.  1.
       -5    1    3    3    0  502  0.26945576982E+03 -0.78483748689E+01 -0.32031814095E+03  0.41868103647E+03  0.46999998093E+01 0. -1.
</event>
<event>
 5   0  0.4299912E-02  0.7440572E+03  0.7818609E-02  0.9644720E-01
        2   -1    0    0  501    0  0.00000000000E+00  0.00000000000E+00  0.60330999843E+03  0.60330999844E+03  0.25500000920E-02 0. -1.
       -2   -1    0    0    0  501  0.00000000000E+00  0.00000000000E+00 -0.22940988839E+03  0.22940988841E+03  0.25500000920E-02 0.  1.
    10030    2    1    2    0    0  0.00000000000E+00  0.00000000000E+00  0.37390011004E+03  0.83271988684E+03  0.74405720053E+03 0.  0.
        3    1    3    3  502    0  0.18676404514E+03 -0.25417715867E+02 -0.17201710085E+03  0.25517986210E+03  0.10100000352E+00 0.  1.
       -3    1    3    3    0  502 -0.18676404514E+03  0.25417715867E+02  0.54591721089E+03  0.57754002474E+03  0.10100000352E+00 0. -1.
</event>
<event>
 5   0  0.4299912E-02  0.7020788E+03  0.7818609E-02  0.9713684E-01
       -2   -1    0    0    0  501  0.00000000000E+00  0.00000000000E+00  0.12570134510E+03  0.12570134513E+03  0.25500000920E-02 0.  1.
        2   -1    0    0  501    0  0.00000000000E+00  0.00000000000E+00 -0.98032889841E+03  0.98032889841E+03  0.25500000920E-02 0. -1.
    10030    2    1    2    0    0  0.00000000000E+00  0.00000000000E+00 -0.85462755331E+03  0.11060302435E+04  0.70207880239E+03 0.  0.
        3    1    3    3  502    0  0.14092294005E+03  0.31310210445E+03 -0.31223180632E+03  0.46409149305E+03  0.10100000352E+00 0. -1.
       -3    1    3    3    0  502 -0.14092294005E+03 -0.31310210445E+03 -0.54239574698E+03  0.64193875050E+03  0.10100000352E+00 0.  1.
</event>
<event>
 5   0  0.2758681E-02  0.6903325E+03  0.7818609E-02  0.9733909E-01
       -1   -1    0    0    0  501  0.00000000000E+00  0.00000000000E+00  0.89863078979E+02  0.89863079120E+02  0.50400001928E-02 0. -1.
        1   -1    0    0  501    0  0.00000000000E+00  0.00000000000E+00 -0.13257919145E+04  0.13257919146E+04  0.50400001928E-02 0.  1.
    10030    2    1    2    0    0  0.00000000000E+00  0.00000000000E+00 -0.12359288356E+04  0.14156549937E+04  0.69033251012E+03 0.  0.
        3    1    3    3  502    0 -0.51282556096E+02 -0.33939457390E+03 -0.54342668768E+03  0.64275279263E+03  0.10100000352E+00 0. -1.
       -3    1    3    3    0  502  0.51282556096E+02  0.33939457390E+03 -0.69250214789E+03  0.77290220105E+03  0.10100000352E+00 0.  1.
</event>
<event>
 5   0  0.4503289E-02  0.6990175E+03  0.7818609E-02  0.9718914E-01
        2   -1    0    0  501    0  0.00000000000E+00  0.00000000000E+00  0.21538787019E+04  0.21538787019E+04  0.25500000920E-02 0.  1.
       -2   -1    0    0    0  501  0.00000000000E+00  0.00000000000E+00 -0.56714593648E+02  0.56714593705E+02  0.25500000920E-02 0. -1.
    10030    2    1    2    0    0  0.00000000000E+00  0.00000000000E+00  0.20971641083E+04  0.22105932956E+04  0.69901746877E+03 0.  0.
        2    1    3    3  502    0 -0.27224750811E+03 -0.19255194602E+03  0.71748616452E+03  0.79118983428E+03  0.25500000920E-02 0. -1.
       -2    1    3    3    0  502  0.27224750811E+03  0.19255194602E+03  0.13796779437E+04  0.14194034613E+04  0.25500000920E-02 0.  1.
</event>
<event>
 5   0  0.4365492E-02  0.6898766E+03  0.7818609E-02  0.9734703E-01
       -2   -1    0    0    0  501  0.00000000000E+00  0.00000000000E+00  0.21050494627E+03  0.21050494628E+03  0.25500000920E-02 0.  1.
        2   -1    0    0  501    0  0.00000000000E+00  0.00000000000E+00 -0.56522393864E+03  0.56522393865E+03  0.25500000920E-02 0. -1.
    10030    2    1    2    0    0  0.00000000000E+00  0.00000000000E+00 -0.35471899237E+03  0.77572888493E+03  0.68987661170E+03 0.  0.
        4    1    3    3  502    0 -0.12866502222E+03 -0.97956884221E+01  0.18234047846E+03  0.22338376495E+03  0.12699999809E+01 0.  1.
       -4    1    3    3    0  502  0.12866502222E+03  0.97956884221E+01 -0.53705947084E+03  0.55234511998E+03  0.12699999809E+01 0. -1.
</event>
<event>
 5   0  0.4365492E-02  0.7034632E+03  0.7818609E-02  0.9711328E-01
        2   -1    0    0  501    0  0.00000000000E+00  0.00000000000E+00  0.12804242973E+03  0.12804242976E+03  0.25500000920E-02 0. -1.
       -2   -1    0    0    0  501  0.00000000000E+00  0.00000000000E+00 -0.96620411819E+03  0.96620411819E+03  0.25500000920E-02 0.  1.
    10030    2    1    2    0    0  0.00000000000E+00  0.00000000000E+00 -0.83816168846E+03  0.10942465480E+04  0.70346321275E+03 0.  0.
        4    1    3    3  502    0  0.10883316016E+03 -0.57240405056E+02 -0.93167480889E+03  0.93975565076E+03  0.12699999809E+01 0.  1.
       -4    1    3    3    0  502 -0.10883316016E+03  0.57240405056E+02  0.93513120427E+02  0.15449089719E+03  0.12699999809E+01 0. -1.
</event>
<event>
 5   0  0.2750139E-02  0.6965003E+03  0.7818609E-02  0.9723236E-01
        1   -1    0    0  501    0  0.00000000000E+00  0.00000000000E+00  0.11460830843E+04  0.11460830843E+04  0.50400001928E-02 0.  1.
       -1   -1    0    0    0  501  0.00000000000E+00  0.00000000000E+00 -0.10581969232E+03  0.10581969244E+03  0.50400001928E-02 0. -1.
    10030    2    1    2    0    0  0.00000000000E+00  0.00000000000E+00  0.10402633920E+04  0.12519027767E+04  0.69650027834E+03 0.  0.
        2    1    3    3  502    0 -0.72105208427E+02  0.26752000120E+03  0.89934895368E+03  0.94106038734E+03  0.25500000920E-02 0.  1.
       -2    1    3    3    0  502  0.72105208427E+02 -0.26752000120E+03  0.14091443828E+03  0.31084238940E+03  0.25500000920E-02 0. -1.
</event>
<event>
 5   0  0.2758681E-02  0.6990141E+03  0.7818609E-02  0.9718920E-01
        1   -1    0    0  501    0  0.00000000000E+00  0.00000000000E+00  0.37008338040E+03  0.37008338044E+03  0.50400001928E-02 0. -1.
       -1   -1    0    0    0  501  0.00000000000E+00  0.00000000000E+00 -0.33007477138E+03  0.33007477142E+03  0.50400001928E-02 0.  1.
    10030    2    1    2    0    0  0.00000000000E+00  0.00000000000E+00  0.40008609020E+02  0.70015815186E+03  0.69901412633E+03 0.  0.
        3    1    3    3  502    0 -0.23014195350E+03 -0.11528558723E+03 -0.21681253039E+03  0.33654683020E+03  0.10100000352E+00 0. -1.
       -3    1    3    3    0  502  0.23014195350E+03  0.11528558723E+03  0.25682113941E+03  0.36361132165E+03  0.10100000352E+00 0.  1.
</event>
<event>
 5   0  0.2751729E-02  0.6517546E+03  0.7818609E-02  0.9803492E-01
       -1   -1    0    0    0  501  0.00000000000E+00  0.00000000000E+00  0.22091663343E+03  0.22091663348E+03  0.50400001928E-02 0. -1.
        1   -1    0    0  501    0  0.00000000000E+00  0.00000000000E+00 -0.48070630626E+03  0.48070630628E+03  0.50400001928E-02 0.  1.
    10030    2    1    2    0    0  0.00000000000E+00  0.00000000000E+00 -0.25978967283E+03  0.70162293977E+03  0.65175461294E+03 0.  0.
        1    1    3    3  502    0  0.20754968744E+03  0.69576040514E+01 -0.40024934850E+03  0.45091553755E+03  0.50400001928E-02 0.  1.
       -1    1    3    3    0  502 -0.20754968744E+03 -0.69576040514E+01  0.14045967566E+03  0.25070740221E+03  0.50400001928E-02 0. -1.
</event>
<event>
 5   0  0.2750139E-02  0.6925985E+03  0.7818609E-02  0.9729974E-01
       -1   -1    0    0    0  501  0.00000000000E+00  0.00000000000E+00  0.77527335241E+02  0.77527335405E+02  0.50400001928E-02 0. -1.
        1   -1    0    0  501    0  0.00000000000E+00  0.00000000000E+00 -0.15468501895E+04  0.15468501895E+04  0.50400001928E-02 0.  1.
    10030    2    1    2    0    0  0.00000000000E+00  0.00000000000E+00 -0.14693228542E+04  0.16243775249E+04  0.69259850807E+03 0.  0.
        2    1    3    3  502    0  0.29401973110E+02  0.60162222158E+02  0.62198674702E+02  0.91392801352E+02  0.25500000920E-02 0. -1.
       -2    1    3    3    0  502 -0.29401973110E+02 -0.60162222158E+02 -0.15315215289E+04  0.15329847235E+04  0.25500000920E-02 0.  1.
</event>
<event>
 5   0  0.2751729E-02  0.7028967E+03  0.7818609E-02  0.9712291E-01
        1   -1    0    0  501    0  0.00000000000E+00  0.00000000000E+00  0.18316022310E+03  0.18316022317E+03  0.50400001928E-02 0.  1.
       -1   -1    0    0    0  501  0.00000000000E+00  0.00000000000E+00 -0.67435999829E+03  0.67435999831E+03  0.50400001928E-02 0. -1.
    10030    2    1    2    0    0  0.00000000000E+00  0.00000000000E+00 -0.49119977519E+03  0.85752022148E+03  0.70289665748E+03 0.  0.
        1    1    3    3  502    0 -0.16749113852E+03  0.30878539484E+03 -0.25863863156E+03  0.43622888867E+03  0.50400001928E-02 0.  1.
       -1    1    3    3    0  502  0.16749113852E+03 -0.30878539484E+03 -0.23256114363E+03  0.42129133281E+03  0.50400001928E-02 0. -1.
</event>
<event>
 5   0  0.4503289E-02  0.6856726E+03  0.7818609E-02  0.9742053E-01
        2   -1    0    0  501    0  0.00000000000E+00  0.00000000000E+00  0.27126159703E+03  0.27126159705E+03  0.25500000920E-02 0. -1.
       -2   -1    0    0    0  501  0.00000000000E+00  0.00000000000E+00 -0.43329662836E+03  0.43329662837E+03  0.25500000920E-02 0.  1.
    10030    2    1    2    0    0  0.00000000000E+00  0.00000000000E+00 -0.16203503133E+03  0.70455822541E+03  0.68567261985E+03 0.  0.
        2    1    3    3  502    0 -0.81360324729E+02 -0.25364510449E+01  0.26118799552E+03  0.27357833437E+03  0.25500000920E-02 0. -1.
       -2    1    3    3    0  502  0.81360324729E+02  0.25364510449E+01 -0.42322302685E+03  0.43097989104E+03  0.25500000920E-02 0.  1.
</event>
<event>
 5   0  0.2684924E-02  0.6856722E+03  0.7818609E-02  0.9742053E-01
       -1   -1    0    0    0  501  0.00000000000E+00  0.00000000000E+00  0.18999768590E+03  0.18999768596E+03  0.50400001928E-02 0. -1.
        1   -1    0    0  501    0  0.00000000000E+00  0.00000000000E+00 -0.61862124735E+03  0.61862124737E+03  0.50400001928E-02 0.  1.
    10030    2    1    2    0    0  0.00000000000E+00  0.00000000000E+00 -0.42862356145E+03  0.80861893333E+03  0.68567224088E+03 0.  0.
        4    1    3    3  502    0 -0.14079447601E+03 -0.22435758829E+03 -0.47099921637E+03  0.54037143394E+03  0.12699999809E+01 0.  1.
       -4    1    3    3    0  502  0.14079447601E+03  0.22435758829E+03  0.42375654921E+02  0.26824749939E+03  0.12699999809E+01 0. -1.
</event>
<event>
 5   0  0.4365492E-02  0.7042296E+03  0.7818609E-02  0.9710026E-01
        2   -1    0    0  501    0  0.00000000000E+00  0.00000000000E+00  0.78835099471E+03  0.78835099471E+03  0.25500000920E-02 0. -1.
       -2   -1    0    0    0  501  0.00000000000E+00  0.00000000000E+00 -0.15727112007E+03  0.15727112009E+03  0.25500000920E-02 0.  1.
    10030    2    1    2    0    0  0.00000000000E+00  0.00000000000E+00  0.63107987464E+03  0.94562211480E+03  0.70422963288E+03 0.  0.
        4    1    3    3  502    0 -0.26053157955E+03 -0.35515108642E+02  0.10746925046E+01  0.26294637238E+03  0.12699999809E+01 0.  1.
       -4    1    3    3    0  502  0.26053157955E+03  0.35515108642E+02  0.63000518213E+03  0.68267574243E+03  0.12699999809E+01 0. -1.
</event>
<event>
 5   0  0.2684924E-02  0.7081050E+03  0.7818609E-02  0.9703471E-01
       -1   -1    0    0    0  501  0.00000000000E+00  0.00000000000E+00  0.16372158341E+03  0.16372158348E+03  0.50400001928E-02 0. -1.
        1   -1    0    0  501    0  0.00000000000E+00  0.00000000000E+00 -0.76564841572E+03  0.76564841574E+03  0.50400001928E-02 0.  1.
    10030    2    1    2    0    0  0.00000000000E+00  0.00000000000E+00 -0.60192683232E+03  0.92936999922E+03  0.70810499504E+03 0.  0.
        4    1    3    3  502    0  0.18125404010E+03 -0.31206780949E+02 -0.69802701252E+03  0.72185193311E+03  0.12699999809E+01 0.  1.
       -4    1    3    3    0  502 -0.18125404010E+03  0.31206780949E+02  0.96100180204E+02  0.20751806611E+03  0.12699999809E+01 0. -1.
</event>
<event>
 5   0  0.2758681E-02  0.7026926E+03  0.7818609E-02  0.9712639E-01
       -1   -1    0    0    0  501  0.00000000000E+00  0.00000000000E+00  0.77235085733E+03  0.77235085735E+03  0.50400001928E-02 0.  1.
        1   -1    0    0  501    0  0.00000000000E+00  0.00000000000E+00 -0.15982918258E+03  0.15982918266E+03  0.50400001928E-02 0. -1.
    10030    2    1    2    0    0  0.00000000000E+00  0.00000000000E+00  0.61252167475E+03  0.93218004001E+03  0.70269255364E+03 0.  0.
        3    1    3    3  502    0  0.87740034646E+02  0.23805814301E+03  0.62868930800E+03  0.67795298460E+03  0.10100000352E+00 0.  1.
       -3    1    3    3    0  502 -0.87740034646E+02 -0.23805814301E+03 -0.16167633251E+02  0.25422705540E+03  0.10100000352E+00 0. -1.
</event>
<event>
 5   0  0.4503289E-02  0.6960863E+03  0.7818609E-02  0.9723949E-01
       -2   -1    0    0    0  501  0.00000000000E+00  0.00000000000E+00  0.70000500732E+02  0.70000500779E+02  0.25500000920E-02 0.  1.
        2   -1    0    0  501    0  0.00000000000E+00  0.00000000000E+00 -0.17304737597E+04  0.17304737597E+04  0.25500000920E-02 0. -1.
    10030    2    1    2    0    0  0.00000000000E+00  0.00000000000E+00 -0.16604732590E+04  0.18004742605E+04  0.69608628697E+03 0.  0.
        2    1    3    3  502    0 -0.28543653134E+03  0.27068967110E+02 -0.13405664061E+04  0.13708847624E+04  0.25500000920E-02 0. -1.
       -2    1    3    3    0  502  0.28543653134E+03 -0.27068967110E+02 -0.31990685285E+03  0.42958949813E+03  0.25500000920E-02 0.  1.
</event>
<event>
 5   0  0.4526837E-02  0.6985000E+03  0.7818609E-02  0.9719801E-01
       -2   -1    0    0    0  501  0.00000000000E+00  0.00000000000E+00  0.35485751963E+03  0.35485751964E+03  0.25500000920E-02 0. -1.
        2   -1    0    0  501    0  0.00000000000E+00  0.00000000000E+00 -0.34373112168E+03  0.34373112169E+03  0.25500000920E-02 0.  1.
    10030    2    1    2    0    0  0.00000000000E+00  0.00000000000E+00  0.11126397944E+02  0.69858864133E+03  0.69850003083E+03 0.  0.
        1    1    3    3  502    0  0.15532761751E+03  0.23885436465E+03 -0.19644632710E+03  0.34607692170E+03  0.50400001928E-02 0.  1.
       -1    1    3    3    0  502 -0.15532761751E+03 -0.23885436465E+03  0.20757272505E+03  0.35251171964E+03  0.50400001928E-02 0. -1.
</event>
<event>
 5   0  0.4420645E-02  0.7164002E+03  0.7818609E-02  0.9689590E-01
        2   -1    0    0  501    0  0.00000000000E+00  0.00000000000E+00  0.15679348885E+04  0.15679348885E+04  0.25500000920E-02 0. -1.
       -2   -1    0    0    0  501  0.00000000000E+00  0.00000000000E+00 -0.81832039533E+02  0.81832039573E+02  0.25500000920E-02 0.  1.
    10030    2    1    2    0    0  0.00000000000E+00  0.00000000000E+00  0.14861028490E+04  0.16497669281E+04  0.71640019491E+03 0.  0.
        5    1    3    3  502    0  0.83983457699E+02 -0.19742236616E+03  0.14035194056E+04  0.14198301391E+04  0.46999998093E+01 0. -1.
       -5    1    3    3    0  502 -0.83983457699E+02  0.19742236616E+03  0.82583443339E+02  0.22993678901E+03  0.46999998093E+01 0.  1.
</event>
<event>
 5   0  0.2684924E-02  0.7112711E+03  0.7818609E-02  0.9698149E-01
       -1   -1    0    0    0  501  0.00000000000E+00  0.00000000000E+00  0.17623554348E+03  0.17623554356E+03  0.50400001928E-02 0.  1.
        1   -1    0    0  501    0  0.00000000000E+00  0.00000000000E+00 -0.71765681723E+03  0.71765681724E+03  0.50400001928E-02 0. -1.
    10030    2    1    2    0    0  0.00000000000E+00  0.00000000000E+00 -0.54142127374E+03  0.89389236080E+03  0.71127108548E+03 0.  0.
        4    1    3    3  502    0 -0.31505500736E+03 -0.13899703828E+03 -0.15904194699E+03  0.37930962038E+03  0.12699999809E+01 0. -1.
       -4    1    3    3    0  502  0.31505500736E+03  0.13899703828E+03 -0.38237932675E+03  0.51458274042E+03  0.12699999809E+01 0.  1.
</event>
<event>
 5   0  0.2751729E-02  0.6930191E+03  0.7818609E-02  0.9729245E-01
       -1   -1    0    0    0  501  0.00000000000E+00  0.00000000000E+00  0.12635244446E+03  0.12635244456E+03  0.50400001928E-02 0.  1.
        1   -1    0    0  501    0  0.00000000000E+00  0.00000000000E+00 -0.95026955526E+03  0.95026955527E+03  0.50400001928E-02 0. -1.
    10030    2    1    2    0    0  0.00000000000E+00  0.00000000000E+00 -0.82391711080E+03  0.10766219998E+04  0.69301913759E+03 0.  0.
        1    1    3    3  502    0  0.21457140277E+03 -0.22270650463E+03 -0.16914214107E+03  0.35248849343E+03  0.50400001928E-02 0.  1.
       -1    1    3    3    0  502 -0.21457140277E+03  0.22270650463E+03 -0.65477496972E+03  0.72413350640E+03  0.50400001928E-02 0. -1.
</event>
<event>
 5   0  0.2758681E-02  0.6974315E+03  0.7818609E-02  0.9721635E-01
        1   -1    0    0  501    0  0.00000000000E+00  0.00000000000E+00  0.12432003180E+04  0.12432003180E+04  0.50400001928E-02 0. -1.
       -1   -1    0    0    0  501  0.00000000000E+00  0.00000000000E+00 -0.97814210932E+02  0.97814211062E+02  0.50400001928E-02 0.  1.
    10030    2    1    2    0    0  0.00000000000E+00  0.00000000000E+00  0.11453861071E+04  0.13410145291E+04  0.69743145392E+03 0.  0.
        3    1    3    3  502    0  0.28746204863E+03 -0.11038649776E+03  0.88736779644E+03  0.93927696908E+03  0.10100000352E+00 0.  1.
       -3    1    3    3    0  502 -0.28746204863E+03  0.11038649776E+03  0.25801831064E+03  0.40173756000E+03  0.10100000352E+00 0. -1.
</event>
<event>
 5   0  0.4299912E-02  0.6992569E+03  0.7818609E-02  0.9718504E-01
        2   -1    0    0  501    0  0.00000000000E+00  0.00000000000E+00  0.76308484039E+03  0.76308484040E+03  0.25500000920E-02 0. -1.
       -2   -1    0    0    0  501  0.00000000000E+00  0.00000000000E+00 -0.16019195597E+03  0.16019195599E+03  0.25500000920E-02 0.  1.
    10030    2    1    2    0    0  0.00000000000E+00  0.00000000000E+00  0.60289288442E+03  0.92327679639E+03  0.69925690033E+03 0.  0.
        3    1    3    3  502    0  0.27520544617E+03  0.66767802620E+02  0.30709503199E+02  0.28484918967E+03  0.10100000352E+00 0.  1.
       -3    1    3    3    0  502 -0.27520544617E+03 -0.66767802620E+02  0.57218338122E+03  0.63842760672E+03  0.10100000352E+00 0. -1.
</event>
<event>
 5   0  0.4503289E-02  0.7017468E+03  0.7818609E-02  0.9714250E-01
        2   -1    0    0  501    0  0.00000000000E+00  0.00000000000E+00  0.10669041293E+04  0.10669041293E+04  0.25500000920E-02 0.  1.
       -2   -1    0    0    0  501  0.00000000000E+00  0.00000000000E+00 -0.11539193800E+03  0.11539193803E+03  0.25500000920E-02 0. -1.
    10030    2    1    2    0    0  0.00000000000E+00  0.00000000000E+00  0.95151219132E+03  0.11822960674E+04  0.70174677816E+03 0.  0.
        2    1    3    3  502    0 -0.61020634711E+02 -0.34538217464E+03  0.49258467331E+03  0.60469167747E+03  0.25500000920E-02 0.  1.
       -2    1    3    3    0  502  0.61020634711E+02  0.34538217464E+03  0.45892751801E+03  0.57760438988E+03  0.25500000920E-02 0. -1.
</event>
<event>
 5   0  0.1784625E-02  0.6897815E+03  0.7818609E-02  0.9734868E-01
       -4   -1    0    0    0  501  0.00000000000E+00  0.00000000000E+00  0.77603240784E+03  0.77603344703E+03  0.12699999809E+01 0. -1.
        4   -1    0    0  501    0  0.00000000000E+00  0.00000000000E+00 -0.15327545120E+03  0.15328071256E+03  0.12699999809E+01 0.  1.
    10030    2    1    2    0    0  0.00000000000E+00  0.00000000000E+00  0.62275695663E+03  0.92931415959E+03  0.68978154526E+03 0.  0.
        4    1    3    3  502    0 -0.12760605869E+02  0.13621312696E+03  0.73791125695E+03  0.75048749827E+03  0.12699999809E+01 0. -1.
       -4    1    3    3    0  502  0.12760605869E+02 -0.13621312696E+03 -0.11515430032E+03  0.17882666132E+03  0.12699999809E+01 0.  1.
</event>
<event>
 5   0  0.1784625E-02  0.7044879E+03  0.7818609E-02  0.9709588E-01
        4   -1    0    0  501    0  0.00000000000E+00  0.00000000000E+00  0.40686728279E+03  0.40686926488E+03  0.12699999809E+01 0. -1.
       -4   -1    0    0    0  501  0.00000000000E+00  0.00000000000E+00 -0.30494994300E+03  0.30495258753E+03  0.12699999809E+01 0.  1.
    10030    2    1    2    0    0  0.00000000000E+00  0.00000000000E+00  0.10191733979E+03  0.71182185241E+03  0.70448790296E+03 0.  0.
        5    1    3    3  502    0  0.27817693647E+03 -0.11001146368E+03 -0.13690370594E+03  0.32901313777E+03  0.46999998093E+01 0.  1.
       -5    1    3    3    0  502 -0.27817693647E+03  0.11001146368E+03  0.23882104573E+03  0.38280871464E+03  0.46999998093E+01 0. -1.
</event>
<event>
 5   0  0.4365492E-02  0.6965253E+03  0.7818609E-02  0.9723193E-01
       -2   -1    0    0    0  501  0.00000000000E+00  0.00000000000E+00  0.14002842717E+03  0.14002842720E+03  0.25500000920E-02 0.  1.
        2   -1    0    0  501    0  0.00000000000E+00  0.00000000000E+00 -0.86615905043E+03  0.86615905044E+03  0.25500000920E-02 0. -1.
    10030    2    1    2    0    0  0.00000000000E+00  0.00000000000E+00 -0.72613062326E+03  0.10061874776E+04  0.69652534635E+03 0.  0.
        4    1    3    3  502    0  0.26021041420E+03  0.21829961311E+03 -0.25190672140E+03  0.42287443754E+03  0.12699999809E+01 0.  1.
       -4    1    3    3    0  502 -0.26021041420E+03 -0.21829961311E+03 -0.47422390187E+03  0.58331304009E+03  0.12699999809E+01 0. -1.
</event>
<event>
 5   0  0.2758681E-02  0.6965232E+03  0.7818609E-02  0.9723196E-01
        1   -1    0    0  501    0  0.00000000000E+00  0.00000000000E+00  0.53448423283E+03  0.53448423285E+03  0.50400001928E-02 0. -1.
       -1   -1    0    0    0  501  0.00000000000E+00  0.00000000000E+00 -0.22692185057E+03  0.22692185063E+03  0.50400001928E-02 0.  1.
    10030    2    1    2    0    0  0.00000000000E+00  0.00000000000E+00  0.30756238226E+03  0.76140608348E+03  0.69652322644E+03 0.  0.
        3    1    3    3  502    0 -0.21739731819E+03  0.28351876267E+02  0.44958089272E+03  0.50018837666E+03  0.10100000352E+00 0. -1.
       -3    1    3    3    0  502  0.21739731819E+03 -0.28351876267E+02 -0.14201851046E+03  0.26121770682E+03  0.10100000352E+00 0.  1.
</event>
<event>
 5   0  0.4526837E-02  0.7140182E+03  0.7818609E-02  0.9693555E-01
        2   -1    0    0  501    0  0.00000000000E+00  0.00000000000E+00  0.26032800219E+03  0.26032800220E+03  0.25500000920E-02 0.  1.
       -2   -1    0    0    0  501  0.00000000000E+00  0.00000000000E+00 -0.48959582449E+03  0.48959582450E+03  0.25500000920E-02 0. -1.
    10030    2    1    2    0    0  0.00000000000E+00  0.00000000000E+00 -0.22926782230E+03  0.74992382670E+03  0.71401821511E+03 0.  0.
        1    1    3    3  502    0 -0.19160149372E+03  0.85362474392E+02  0.18878374899E+03  0.28220061719E+03  0.50400001928E-02 0.  1.
       -1    1    3    3    0  502  0.19160149372E+03 -0.85362474392E+02 -0.41805157129E+03  0.46772320951E+03  0.50400001928E-02 0. -1.
</event>
<event>
 5   0  0.1784625E-02  0.6957538E+03  0.7818609E-02  0.9724521E-01
       -4   -1    0    0    0  501  0.00000000000E+00  0.00000000000E+00  0.30141621669E+03  0.30141889222E+03  0.12699999809E+01 0.  1.
        4   -1    0    0  501    0  0.00000000000E+00  0.00000000000E+00 -0.40149362573E+03  0.40149563435E+03  0.12699999809E+01 0. -1.
    10030    2    1    2    0    0  0.00000000000E+00  0.00000000000E+00 -0.10007740904E+03  0.70291452657E+03  0.69575379544E+03 0.  0.
        4    1    3    3  502    0 -0.26068256215E+03  0.17388361441E+03  0.10259838161E+03  0.32972556828E+03  0.12699999809E+01 0.  1.
       -4    1    3    3    0  502  0.26068256215E+03 -0.17388361441E+03 -0.20267579065E+03  0.37318895829E+03  0.12699999809E+01 0. -1.
</event>
<event>
 5   0  0.2750139E-02  0.6991950E+03  0.7818609E-02  0.9718610E-01
        1   -1    0    0  501    0  0.00000000000E+00  0.00000000000E+00  0.69886956616E+03  0.69886956618E+03  0.50400001928E-02 0.  1.
       -1   -1    0    0    0  501  0.00000000000E+00  0.00000000000E+00 -0.17488016593E+03  0.17488016601E+03  0.50400001928E-02 0. -1.
    10030    2    1    2    0    0  0.00000000000E+00  0.00000000000E+00  0.52398940022E+03  0.87374973218E+03  0.69919503927E+03 0.  0.
        2    1    3    3  502    0  0.25524124327E+03 -0.12406215328E+02 -0.36136550779E+02  0.25808497971E+03  0.25500000920E-02 0. -1.
       -2    1    3    3    0  502 -0.25524124327E+03  0.12406215328E+02  0.56012595100E+03  0.61566475247E+03  0.25500000920E-02 0.  1.
</event>
<event>
 5   0  0.4365492E-02  0.6940571E+03  0.7818609E-02  0.9727450E-01
        2   -1    0    0  501    0  0.00000000000E+00  0.00000000000E+00  0.85020491725E+03  0.85020491725E+03  0.25500000920E-02 0.  1.
       -2   -1    0    0    0  501  0.00000000000E+00  0.00000000000E+00 -0.14164680614E+03  0.14164680616E+03  0.25500000920E-02 0. -1.
    10030    2    1    2    0    0  0.00000000000E+00  0.00000000000E+00  0.70855811111E+03  0.99185172341E+03  0.69405709017E+03 0.  0.
        4    1    3    3  502    0  0.26761753246E+03  0.20059583137E+03  0.48656872386E+03  0.59043083184E+03  0.12699999809E+01 0. -1.
       -4    1    3    3    0  502 -0.26761753246E+03 -0.20059583137E+03  0.22198938725E+03  0.40142089157E+03  0.12699999809E+01 0.  1.
</event>
<event>
 5   0  0.4503289E-02  0.7050127E+03  0.7818609E-02  0.9708698E-01
        2   -1    0    0  501    0  0.00000000000E+00  0.00000000000E+00  0.54911834868E+03  0.54911834869E+03  0.25500000920E-02 0.  1.
       -2   -1    0    0    0  501  0.00000000000E+00  0.00000000000E+00 -0.22629131991E+03  0.22629131993E+03  0.25500000920E-02 0. -1.
    10030    2    1    2    0    0  0.00000000000E+00  0.00000000000E+00  0.32282702877E+03  0.77540966861E+03  0.70501266916E+03 0.  0.
        2    1    3    3  502    0  0.10320524339E+03  0.60213637606E+02 -0.20333915272E+03  0.23584701705E+03  0.25500000920E-02 0. -1.
       -2    1    3    3    0  502 -0.10320524339E+03 -0.60213637606E+02  0.52616618149E+03  0.53956265156E+03  0.25500000920E-02 0.  1.
</event>
<event>
 5   0  0.2777999E-02  0.7832303E+03  0.7818609E-02  0.9584613E-01
        1   -1    0    0  501    0  0.00000000000E+00  0.00000000000E+00  0.13693884380E+04  0.13693884380E+04  0.50400001928E-02 0. -1.
       -1   -1    0    0    0  501  0.00000000000E+00  0.00000000000E+00 -0.11199336782E+03  0.11199336793E+03  0.50400001928E-02 0.  1.
    10030    2    1    2    0    0  0.00000000000E+00  0.00000000000E+00  0.12573950702E+04  0.14813818060E+04  0.78323029338E+03 0.  0.
        5    1    3    3  502    0 -0.33840269243E+03  0.86830117007E+02  0.29416218838E+03  0.45673770868E+03  0.46999998093E+01 0.  1.
       -5    1    3    3    0  502  0.33840269243E+03 -0.86830117007E+02  0.96323288183E+03  0.10246440973E+04  0.46999998093E+01 0. -1.
</event>
<event>
 5   0  0.4420645E-02  0.6932136E+03  0.7818609E-02  0.9728909E-01
        2   -1    0    0  501    0  0.00000000000E+00  0.00000000000E+00  0.19662823543E+04  0.19662823543E+04  0.25500000920E-02 0.  1.
       -2   -1    0    0    0  501  0.00000000000E+00  0.00000000000E+00 -0.61098181043E+02  0.61098181096E+02  0.25500000920E-02 0. -1.
    10030    2    1    2    0    0  0.00000000000E+00  0.00000000000E+00  0.19051841733E+04  0.20273805354E+04  0.69321360437E+03 0.  0.
        5    1    3    3  502    0  0.27826141203E+03  0.20407651974E+03  0.85838753795E+03  0.92516371235E+03  0.46999998093E+01 0. -1.
       -5    1    3    3    0  502 -0.27826141203E+03 -0.20407651974E+03  0.10467966353E+04  0.11022168231E+04  0.46999998093E+01 0.  1.
</event>
<event>
 5   0  0.4503289E-02  0.7059369E+03  0.7818609E-02  0.9707133E-01
        2   -1    0    0  501    0  0.00000000000E+00  0.00000000000E+00  0.66669742863E+03  0.66669742864E+03  0.25500000920E-02 0. -1.
       -2   -1    0    0    0  501  0.00000000000E+00  0.00000000000E+00 -0.18687146831E+03  0.18687146833E+03  0.25500000920E-02 0.  1.
    10030    2    1    2    0    0  0.00000000000E+00  0.00000000000E+00  0.47982596032E+03  0.85356889697E+03  0.70593690205E+03 0.  0.
        2    1    3    3  502    0 -0.35032566781E+03  0.17068464144E+02  0.19204426943E+03  0.39987548990E+03  0.25500000920E-02 0.  1.
       -2    1    3    3    0  502  0.35032566781E+03 -0.17068464144E+02  0.28778169089E+03  0.45369340706E+03  0.25500000920E-02 0. -1.
</event>
<event>
 5   0  0.4420645E-02  0.7223329E+03  0.7818609E-02  0.9679784E-01
        2   -1    0    0  501    0  0.00000000000E+00  0.00000000000E+00  0.46049573274E+03  0.46049573274E+03  0.25500000920E-02 0.  1.
       -2   -1    0    0    0  501  0.00000000000E+00  0.00000000000E+00 -0.28326254467E+03  0.28326254468E+03  0.25500000920E-02 0. -1.
    10030    2    1    2    0    0  0.00000000000E+00  0.00000000000E+00  0.17723318806E+03  0.74375827743E+03  0.72233286807E+03 0.  0.
        5    1    3    3  502    0  0.81350746873E+02 -0.50351986917E+02 -0.26994491640E+03  0.28643605655E+03  0.46999998093E+01 0. -1.
       -5    1    3    3    0  502 -0.81350746873E+02  0.50351986917E+02  0.44717810446E+03  0.45732222088E+03  0.46999998093E+01 0.  1.
</event>
<event>
 5   0  0.2758681E-02  0.7185308E+03  0.7818609E-02  0.9686057E-01
        1   -1    0    0  501    0  0.00000000000E+00  0.00000000000E+00  0.27976320605E+03  0.27976320610E+03  0.50400001928E-02 0. -1.
       -1   -1    0    0    0  501  0.00000000000E+00  0.00000000000E+00 -0.46136027426E+03  0.46136027429E+03  0.50400001928E-02 0.  1.
    10030    2    1    2    0    0  0.00000000000E+00  0.00000000000E+00 -0.18159706821E+03  0.74112348039E+03  0.71853080518E+03 0.  0.
        3    1    3    3  502    0 -0.13954950034E+03 -0.30743621320E+03  0.35865553322E+02  0.33952531032E+03  0.10100000352E+00 0. -1.
       -3    1    3    3    0  502  0.13954950034E+03  0.30743621320E+03 -0.21746262153E+03  0.40159817006E+03  0.10100000352E+00 0.  1.
</event>
<event>
 5   0  0.4526837E-02  0.6936418E+03  0.7818609E-02  0.9728168E-01
        2   -1    0    0  501    0  0.00000000000E+00  0.00000000000E+00  0.13708636430E+04  0.13708636430E+04  0.25500000920E-02 0. -1.
       -2   -1    0    0    0  501  0.00000000000E+00  0.00000000000E+00 -0.87743774109E+02  0.87743774147E+02  0.25500000920E-02 0.  1.
    10030    2    1    2    0    0  0.00000000000E+00  0.00000000000E+00  0.12831198689E+04  0.14586074171E+04  0.69364183799E+03 0.  0.
        1    1    3    3  502    0 -0.28106812220E+03  0.11162759143E+03  0.28454544138E+03  0.41524223860E+03  0.50400001928E-02 0.  1.
       -1    1    3    3    0  502  0.28106812220E+03 -0.11162759143E+03  0.99857442750E+03  0.10433651785E+04  0.50400001928E-02 0. -1.
</event>
<event>
 5   0  0.2758681E-02  0.7156003E+03  0.7818609E-02  0.9690919E-01
       -1   -1    0    0    0  501  0.00000000000E+00  0.00000000000E+00  0.18054332413E+03  0.18054332420E+03  0.50400001928E-02 0. -1.
        1   -1    0    0  501    0  0.00000000000E+00  0.00000000000E+00 -0.70908710288E+03  0.70908710290E+03  0.50400001928E-02 0.  1.
    10030    2    1    2    0    0  0.00000000000E+00  0.00000000000E+00 -0.52854377876E+03  0.88963042710E+03  0.71560028701E+03 0.  0.
        3    1    3    3  502    0 -0.12970263993E+02 -0.18534620123E+03  0.11586826271E+03  0.21896782084E+03  0.10100000352E+00 0. -1.
       -3    1    3    3    0  502  0.12970263993E+02  0.18534620123E+03 -0.64441204146E+03  0.67066260626E+03  0.10100000352E+00 0.  1.
</event>
<event>
 5   0  0.4503289E-02  0.6867594E+03  0.7818609E-02  0.9740147E-01
       -2   -1    0    0    0  501  0.00000000000E+00  0.00000000000E+00  0.12578823112E+03  0.12578823115E+03  0.25500000920E-02 0.  1.
        2   -1    0    0  501    0  0.00000000000E+00  0.00000000000E+00 -0.93736596509E+03  0.93736596510E+03  0.25500000920E-02 0. -1.
    10030    2    1    2    0    0  0.00000000000E+00  0.00000000000E+00 -0.81157773397E+03  0.10631541962E+04  0.68675936595E+03 0.  0.
        2    1    3    3  502    0 -0.29869956340E+03 -0.14366846848E+03 -0.26691405870E+03  0.42556453418E+03  0.25500000920E-02 0.  1.
       -2    1    3    3    0  502  0.29869956340E+03  0.14366846848E+03 -0.54466367527E+03  0.63758966207E+03  0.25500000920E-02 0. -1.
</event>
<event>
 5   0  0.4299912E-02  0.6861322E+03  0.7818609E-02  0.9741246E-01
       -2   -1    0    0    0  501  0.00000000000E+00  0.00000000000E+00  0.41808606454E+03  0.41808606455E+03  0.25500000920E-02 0. -1.
        2   -1    0    0  501    0  0.00000000000E+00  0.00000000000E+00 -0.28150749817E+03  0.28150749818E+03  0.25500000920E-02 0.  1.
    10030    2    1    2    0    0  0.00000000000E+00  0.00000000000E+00  0.13657856637E+03  0.69959356273E+03  0.68613223815E+03 0.  0.
        3    1    3    3  502    0 -0.19286710545E+03 -0.19886582514E+03  0.27461801539E+03  0.39007742994E+03  0.10100000352E+00 0. -1.
       -3    1    3    3    0  502  0.19286710545E+03  0.19886582514E+03 -0.13803944902E+03  0.30951613279E+03  0.10100000352E+00 0.  1.
</event>
<event>
 5   0  0.4526837E-02  0.6989025E+03  0.7818609E-02  0.9719111E-01
       -2   -1    0    0    0  501  0.00000000000E+00  0.00000000000E+00  0.54489605423E+03  0.54489605423E+03  0.25500000920E-02 0.  1.
        2   -1    0    0  501    0  0.00000000000E+00  0.00000000000E+00 -0.22410909914E+03  0.22410909916E+03  0.25500000920E-02 0. -1.
    10030    2    1    2    0    0  0.00000000000E+00  0.00000000000E+00  0.32078695508E+03  0.76900515339E+03  0.69890246486E+03 0.  0.
        1    1    3    3  502    0 -0.93017541877E+02  0.27197471177E+03  0.37905700632E+03  0.47571705982E+03  0.50400001928E-02 0.  1.
       -1    1    3    3    0  502  0.93017541877E+02 -0.27197471177E+03 -0.58270051235E+02  0.29328809358E+03  0.50400001928E-02 0. -1.
</event>
<event>
 5   0  0.4420645E-02  0.7002803E+03  0.7818609E-02  0.9716753E-01
        2   -1    0    0  501    0  0.00000000000E+00  0.00000000000E+00  0.32696850338E+03  0.32696850339E+03  0.25500000920E-02 0.  1.
       -2   -1    0    0    0  501  0.00000000000E+00  0.00000000000E+00 -0.37495391528E+03  0.37495391529E+03  0.25500000920E-02 0. -1.
    10030    2    1    2    0    0  0.00000000000E+00  0.00000000000E+00 -0.47985411902E+02  0.70192241868E+03  0.70028028823E+03 0.  0.
        5    1    3    3  502    0  0.29897194866E+03  0.91542097151E+02  0.13389444043E+03  0.34016759518E+03  0.46999998093E+01 0.  1.
       -5    1    3    3    0  502 -0.29897194866E+03 -0.91542097151E+02 -0.18187985234E+03  0.36175482349E+03  0.46999998093E+01 0. -1.
</event>
<event>
 5   0  0.2684924E-02  0.7046246E+03  0.7818609E-02  0.9709356E-01
        1   -1    0    0  501    0  0.00000000000E+00  0.00000000000E+00  0.70994463744E+03  0.70994463746E+03  0.50400001928E-02 0.  1.
       -1   -1    0    0    0  501  0.00000000000E+00  0.00000000000E+00 -0.17483612755E+03  0.17483612763E+03  0.50400001928E-02 0. -1.
    10030    2    1    2    0    0  0.00000000000E+00  0.00000000000E+00  0.53510850989E+03  0.88478076509E+03  0.70462464115E+03 0.  0.
        4    1    3    3  502    0  0.85205171378E+02 -0.32708350214E+03  0.14274971719E+03  0.36690957096E+03  0.12699999809E+01 0. -1.
       -4    1    3    3    0  502 -0.85205171378E+02  0.32708350214E+03  0.39235879270E+03  0.51787119413E+03  0.12699999809E+01 0.  1.
</event>
<event>
 5   0  0.2758681E-02  0.5860256E+03  0.7818609E-02  0.9934830E-01
        1   -1    0    0  501    0  0.00000000000E+00  0.00000000000E+00  0.52088427293E+03  0.52088427295E+03  0.50400001928E-02 0.  1.
       -1   -1    0    0    0  501  0.00000000000E+00  0.00000000000E+00 -0.16482836246E+03  0.16482836254E+03  0.50400001928E-02 0. -1.
    10030    2    1    2    0    0  0.00000000000E+00  0.00000000000E+00  0.35605591047E+03  0.68571263549E+03  0.58602560276E+03 0.  0.
        3    1    3    3  502    0  0.24861253842E+03 -0.34386733965E+02  0.35496518994E+03  0.43473087997E+03  0.10100000352E+00 0.  1.
       -3    1    3    3    0  502 -0.24861253842E+03  0.34386733965E+02  0.10907205321E+01  0.25098175552E+03  0.10100000352E+00 0. -1.
</event>
<event>
 5   0  0.1784625E-02  0.7025937E+03  0.7818609E-02  0.9712807E-01
        3   -1    0    0  501    0  0.00000000000E+00  0.00000000000E+00  0.35703332235E+03  0.35703333663E+03  0.10100000352E+00 0. -1.
       -3   -1    0    0    0  501  0.00000000000E+00  0.00000000000E+00 -0.34565253986E+03  0.34565255462E+03  0.10100000352E+00 0.  1.
    10030    2    1    2    0    0  0.00000000000E+00  0.00000000000E+00  0.11380782483E+02  0.70268589125E+03  0.70259372297E+03 0.  0.
        4    1    3    3  502    0  0.30501303495E+03 -0.16868592457E+03  0.49513708358E+02  0.35205271317E+03  0.12699999809E+01 0. -1.
       -4    1    3    3    0  502 -0.30501303495E+03  0.16868592457E+03 -0.38132925875E+02  0.35063317808E+03  0.12699999809E+01 0.  1.
</event>
<event>
 5   0  0.4365492E-02  0.7386394E+03  0.7818609E-02  0.9653344E-01
        2   -1    0    0  501    0  0.00000000000E+00  0.00000000000E+00  0.76350821169E+03  0.76350821170E+03  0.25500000920E-02 0. -1.
       -2   -1    0    0    0  501  0.00000000000E+00  0.00000000000E+00 -0.17864513371E+03  0.17864513373E+03  0.25500000920E-02 0.  1.
    10030    2    1    2    0    0  0.00000000000E+00  0.00000000000E+00  0.58486307798E+03  0.94215334543E+03  0.73863936147E+03 0.  0.
        4    1    3    3  502    0 -0.28723572261E+03 -0.16290035271E+03  0.50339331042E+03  0.60203598159E+03  0.12699999809E+01 0. -1.
       -4    1    3    3    0  502  0.28723572261E+03  0.16290035271E+03  0.81469767559E+02  0.34011736383E+03  0.12699999809E+01 0.  1.
</event>
<event>
 5   0  0.2684924E-02  0.6988986E+03  0.7818609E-02  0.9719118E-01
       -1   -1    0    0    0  501  0.00000000000E+00  0.00000000000E+00  0.34617899512E+03  0.34617899516E+03  0.50400001928E-02 0. -1.
        1   -1    0    0  501    0  0.00000000000E+00  0.00000000000E+00 -0.35275048171E+03  0.35275048175E+03  0.50400001928E-02 0.  1.
    10030    2    1    2    0    0  0.00000000000E+00  0.00000000000E+00 -0.65714865929E+01  0.69892947691E+03  0.69889858295E+03 0.  0.
        4    1    3    3  502    0 -0.85738035709E+02 -0.79491485027E+02  0.32603609757E+03  0.34636838305E+03  0.12699999809E+01 0. -1.
       -4    1    3    3    0  502  0.85738035709E+02  0.79491485027E+02 -0.33260758416E+03  0.35256109386E+03  0.12699999809E+01 0.  1.
</event>
<event>
 5   0  0.1784625E-02  0.7001025E+03  0.7818609E-02  0.9717057E-01
        3   -1    0    0  501    0  0.00000000000E+00  0.00000000000E+00  0.17255769486E+03  0.17255772442E+03  0.10100000352E+00 0.  1.
       -3   -1    0    0    0  501  0.00000000000E+00  0.00000000000E+00 -0.71011532997E+03  0.71011533715E+03  0.10100000352E+00 0. -1.
    10030    2    1    2    0    0  0.00000000000E+00  0.00000000000E+00 -0.53755763511E+03  0.88267306157E+03  0.70010250860E+03 0.  0.
        4    1    3    3  502    0 -0.34963659843E+03  0.35250242824E+01 -0.28972786822E+03  0.45409473382E+03  0.12699999809E+01 0. -1.
       -4    1    3    3    0  502  0.34963659843E+03 -0.35250242824E+01 -0.24782976689E+03  0.42857832775E+03  0.12699999809E+01 0.  1.
</event>
<event>
 5   0  0.2751729E-02  0.6302280E+03  0.7818609E-02  0.9844604E-01
       -1   -1    0    0    0  501  0.00000000000E+00  0.00000000000E+00  0.45318004751E+02  0.45318005031E+02  0.50400001928E-02 0.  1.
        1   -1    0    0  501    0  0.00000000000E+00  0.00000000000E+00 -0.21911120300E+04  0.21911120300E+04  0.50400001928E-02 0. -1.
    10030    2    1    2    0    0  0.00000000000E+00  0.00000000000E+00 -0.21457940252E+04  0.22364300350E+04  0.63022797686E+03 0.  0.
        1    1    3    3  502    0  0.22240935304E+03  0.34794005379E+01 -0.28084397255E+03  0.35826158529E+03  0.50400001928E-02 0.  1.
       -1    1    3    3    0  502 -0.22240935304E+03 -0.34794005379E+01 -0.18649500527E+04  0.18781684497E+04  0.50400001928E-02 0. -1.
</event>
<event>
 5   0  0.4526837E-02  0.6945706E+03  0.7818609E-02  0.9726563E-01
        2   -1    0    0  501    0  0.00000000000E+00  0.00000000000E+00  0.12371986628E+04  0.12371986628E+04  0.25500000920E-02 0.  1.
       -2   -1    0    0    0  501  0.00000000000E+00  0.00000000000E+00 -0.97483998834E+02  0.97483998867E+02  0.25500000920E-02 0. -1.
    10030    2    1    2    0    0  0.00000000000E+00  0.00000000000E+00  0.11397146639E+04  0.13346826616E+04  0.69457058107E+03 0.  0.
        1    1    3    3  502    0  0.28249171929E+03  0.19894968878E+03  0.50261464130E+03  0.60992132920E+03  0.50400001928E-02 0. -1.
       -1    1    3    3    0  502 -0.28249171929E+03 -0.19894968878E+03  0.63710002264E+03  0.72476133245E+03  0.50400001928E-02 0.  1.
</event>
<event>
 5   0  0.2777999E-02  0.7024812E+03  0.7818609E-02  0.9712998E-01
        1   -1    0    0  501    0  0.00000000000E+00  0.00000000000E+00  0.94573354620E+02  0.94573354754E+02  0.50400001928E-02 0. -1.
       -1   -1    0    0    0  501  0.00000000000E+00  0.00000000000E+00 -0.13044896205E+04  0.13044896205E+04  0.50400001928E-02 0.  1.
    10030    2    1    2    0    0  0.00000000000E+00  0.00000000000E+00 -0.12099162659E+04  0.13990629753E+04  0.70248120140E+03 0.  0.
        5    1    3    3  502    0  0.30879744194E+03 -0.13186368909E+03 -0.81004457168E+03  0.87689120806E+03  0.46999998093E+01 0.  1.
       -5    1    3    3    0  502 -0.30879744194E+03  0.13186368909E+03 -0.39987169420E+03  0.52217176721E+03  0.46999998093E+01 0. -1.
</event>
<event>
 5   0  0.4365492E-02  0.6995529E+03  0.7818609E-02  0.9717997E-01
       -2   -1    0    0    0  501  0.00000000000E+00  0.00000000000E+00  0.92127421417E+02  0.92127421453E+02  0.25500000920E-02 0. -1.
        2   -1    0    0  501    0  0.00000000000E+00  0.00000000000E+00 -0.13279821305E+04  0.13279821305E+04  0.25500000920E-02 0.  1.
    10030    2    1    2    0    0  0.00000000000E+00  0.00000000000E+00 -0.12358547090E+04  0.14201095519E+04  0.69955291263E+03 0.  0.
        4    1    3    3  502    0  0.32339328009E+03 -0.78925430720E+02 -0.83590245134E+03  0.89974827495E+03  0.12699999809E+01 0.  1.
       -4    1    3    3    0  502 -0.32339328009E+03  0.78925430720E+02 -0.39995225769E+03  0.52036127696E+03  0.12699999809E+01 0. -1.
</event>
<event>
 5   0  0.4526837E-02  0.7073778E+03  0.7818609E-02  0.9704698E-01
        2   -1    0    0  501    0  0.00000000000E+00  0.00000000000E+00  0.16261909776E+04  0.16261909776E+04  0.25500000920E-02 0.  1.
       -2   -1    0    0    0  501  0.00000000000E+00  0.00000000000E+00 -0.76925668732E+02  0.76925668774E+02  0.25500000920E-02 0. -1.
    10030    2    1    2    0    0  0.00000000000E+00  0.00000000000E+00  0.15492653089E+04  0.17031166464E+04  0.70737777313E+03 0.  0.
        1    1    3    3  502    0  0.21194268601E+03 -0.87333377708E+02  0.12613453379E+03  0.26164239270E+03  0.50400001928E-02 0. -1.
       -1    1    3    3    0  502 -0.21194268601E+03  0.87333377708E+02  0.14231307751E+04  0.14414742537E+04  0.50400001928E-02 0.  1.
</event>
<event>
 5   0  0.4299912E-02  0.7032093E+03  0.7818609E-02  0.9711760E-01
       -2   -1    0    0    0  501  0.00000000000E+00  0.00000000000E+00  0.27204721003E+03  0.27204721004E+03  0.25500000920E-02 0.  1.
        2   -1    0    0  501    0  0.00000000000E+00  0.00000000000E+00 -0.45442780464E+03  0.45442780465E+03  0.25500000920E-02 0. -1.
    10030    2    1    2    0    0  0.00000000000E+00  0.00000000000E+00 -0.18238059461E+03  0.72647501469E+03  0.70320926166E+03 0.  0.
        3    1    3    3  502    0  0.22140997779E+03 -0.13849413572E+03 -0.33439968869E+03  0.42429490439E+03  0.10100000352E+00 0. -1.
       -3    1    3    3    0  502 -0.22140997779E+03  0.13849413572E+03  0.15201909408E+03  0.30218011030E+03  0.10100000352E+00 0.  1.
</event>
<event>
 5   0  0.4503289E-02  0.6990887E+03  0.7818609E-02  0.9718792E-01
       -2   -1    0    0    0  501  0.00000000000E+00  0.00000000000E+00  0.77855298370E+02  0.77855298412E+02  0.25500000920E-02 0. -1.
        2   -1    0    0  501    0  0.00000000000E+00  0.00000000000E+00 -0.15693377705E+04  0.15693377705E+04  0.25500000920E-02 0.  1.
    10030    2    1    2    0    0  0.00000000000E+00  0.00000000000E+00 -0.14914824721E+04  0.16471930689E+04  0.69908872226E+03 0.  0.
        2    1    3    3  502    0 -0.20352189278E+03 -0.23708852845E+03 -0.11149145126E+04  0.11578715393E+04  0.25500000920E-02 0.  1.
       -2    1    3    3    0  502  0.20352189278E+03  0.23708852845E+03 -0.37656795950E+03  0.48932152956E+03  0.25500000920E-02 0. -1.
</event>
<event>
 5   0  0.4526837E-02  0.6844696E+03  0.7818609E-02  0.9744166E-01
       -2   -1    0    0    0  501  0.00000000000E+00  0.00000000000E+00  0.24917954925E+03  0.24917954926E+03  0.25500000920E-02 0. -1.
        2   -1    0    0  501    0  0.00000000000E+00  0.00000000000E+00 -0.47004115889E+03  0.47004115890E+03  0.25500000920E-02 0.  1.
    10030    2    1    2    0    0  0.00000000000E+00  0.00000000000E+00 -0.22086160964E+03  0.71922070816E+03  0.68446955844E+03 0.  0.
        1    1    3    3  502    0 -0.19786046656E+03 -0.27883410937E+03 -0.94584729558E+02  0.35474426826E+03  0.50400001928E-02 0.  1.
       -1    1    3    3    0  502  0.19786046656E+03  0.27883410937E+03 -0.12627688009E+03  0.36447643990E+03  0.50400001928E-02 0. -1.
</event>
<event>
 5   0  0.4420645E-02  0.6897392E+03  0.7818609E-02  0.9734942E-01
        2   -1    0    0  501    0  0.00000000000E+00  0.00000000000E+00  0.52124007427E+03  0.52124007428E+03  0.25500000920E-02 0. -1.
       -2   -1    0    0    0  501  0.00000000000E+00  0.00000000000E+00 -0.22817708377E+03  0.22817708379E+03  0.25500000920E-02 0.  1.
    10030    2    1    2    0    0  0.00000000000E+00  0.00000000000E+00  0.29306299050E+03  0.74941715807E+03  0.68973919738E+03 0.  0.
        5    1    3    3  502    0 -0.16919347713E+03  0.22082299311E+03 -0.74873221134E+02  0.28812725701E+03  0.46999998093E+01 0.  1.
       -5    1    3    3    0  502  0.16919347713E+03 -0.22082299311E+03  0.36793621163E+03  0.46128990106E+03  0.46999998093E+01 0. -1.
</event>
<event>
 5   0  0.1784625E-02  0.6921849E+03  0.7818609E-02  0.9730691E-01
       -3   -1    0    0    0  501  0.00000000000E+00  0.00000000000E+00  0.19812439000E+03  0.19812441574E+03  0.10100000352E+00 0. -1.
        3   -1    0    0  501    0  0.00000000000E+00  0.00000000000E+00 -0.60456954527E+03  0.60456955371E+03  0.10100000352E+00 0.  1.
    10030    2    1    2    0    0  0.00000000000E+00  0.00000000000E+00 -0.40644515527E+03  0.80269396945E+03  0.69218490618E+03 0.  0.
        5    1    3    3  502    0 -0.28771552526E+03 -0.13285080455E+03 -0.36444487766E+03  0.48298211001E+03  0.46999998093E+01 0. -1.
       -5    1    3    3    0  502  0.28771552526E+03  0.13285080455E+03 -0.42000277615E+02  0.31971185943E+03  0.46999998093E+01 0.  1.
</event>
<event>
 5   0  0.4503289E-02  0.7043258E+03  0.7818609E-02  0.9709863E-01
        2   -1    0    0  501    0  0.00000000000E+00  0.00000000000E+00  0.16642929849E+04  0.16642929849E+04  0.25500000920E-02 0.  1.
       -2   -1    0    0    0  501  0.00000000000E+00  0.00000000000E+00 -0.74517343972E+02  0.74517344016E+02  0.25500000920E-02 0. -1.
    10030    2    1    2    0    0  0.00000000000E+00  0.00000000000E+00  0.15897756409E+04  0.17388103289E+04  0.70432575664E+03 0.  0.
        2    1    3    3  502    0  0.12662925207E+03  0.21577267118E+03  0.18302462081E+03  0.30998520116E+03  0.25500000920E-02 0. -1.
       -2    1    3    3    0  502 -0.12662925207E+03 -0.21577267118E+03  0.14067510201E+04  0.14288251278E+04  0.25500000920E-02 0.  1.
</event>
<event>
 5   0  0.2758681E-02  0.6970971E+03  0.7818609E-02  0.9722209E-01
       -1   -1    0    0    0  501  0.00000000000E+00  0.00000000000E+00  0.13969762064E+03  0.13969762073E+03  0.50400001928E-02 0.  1.
        1   -1    0    0  501    0  0.00000000000E+00  0.00000000000E+00 -0.86963617363E+03  0.86963617364E+03  0.50400001928E-02 0. -1.
    10030    2    1    2    0    0  0.00000000000E+00  0.00000000000E+00 -0.72993855299E+03  0.10093337944E+04  0.69709713622E+03 0.  0.
        3    1    3    3  502    0  0.14776031356E+03 -0.62341045357E+02 -0.81304199313E+03  0.82870791537E+03  0.10100000352E+00 0. -1.
       -3    1    3    3    0  502 -0.14776031356E+03  0.62341045357E+02  0.83103440147E+02  0.18062587900E+03  0.10100000352E+00 0.  1.
</event>
<event>
 5   0  0.2751729E-02  0.7234812E+03  0.7818609E-02  0.9677898E-01
        1   -1    0    0  501    0  0.00000000000E+00  0.00000000000E+00  0.14405161612E+04  0.14405161612E+04  0.50400001928E-02 0. -1.
       -1   -1    0    0    0  501  0.00000000000E+00  0.00000000000E+00 -0.90839850770E+02  0.90839850909E+02  0.50400001928E-02 0.  1.
    10030    2    1    2    0    0  0.00000000000E+00  0.00000000000E+00  0.13496763104E+04  0.15313560121E+04  0.72348123190E+03 0.  0.
        1    1    3    3  502    0  0.68154223340E+02 -0.92943181830E+02  0.14006138211E+04  0.14053478250E+04  0.50400001928E-02 0. -1.
       -1    1    3    3    0  502 -0.68154223340E+02  0.92943181830E+02 -0.50937510690E+02  0.12600818715E+03  0.50400001928E-02 0.  1.
</event>
<event>
 5   0  0.4503289E-02  0.7204207E+03  0.7818609E-02  0.9682934E-01
       -2   -1    0    0    0  501  0.00000000000E+00  0.00000000000E+00  0.93228411170E+02  0.93228411205E+02  0.25500000920E-02 0. -1.
        2   -1    0    0  501    0  0.00000000000E+00  0.00000000000E+00 -0.13917590249E+04  0.13917590249E+04  0.25500000920E-02 0.  1.
    10030    2    1    2    0    0  0.00000000000E+00  0.00000000000E+00 -0.12985306138E+04  0.14849874361E+04  0.72042066226E+03 0.  0.
        2    1    3    3  502    0 -0.98606871936E+00  0.29398242074E+03 -0.22021804379E+03  0.36731814936E+03  0.25500000920E-02 0. -1.
       -2    1    3    3    0  502  0.98606871936E+00 -0.29398242074E+03 -0.10783125700E+04  0.11176692868E+04  0.25500000920E-02 0.  1.
</event>
<event>
 5   0  0.4420645E-02  0.6972128E+03  0.7818609E-02  0.9722011E-01
        2   -1    0    0  501    0  0.00000000000E+00  0.00000000000E+00  0.74130051465E+03  0.74130051465E+03  0.25500000920E-02 0.  1.
       -2   -1    0    0    0  501  0.00000000000E+00  0.00000000000E+00 -0.16393677132E+03  0.16393677134E+03  0.25500000920E-02 0. -1.
    10030    2    1    2    0    0  0.00000000000E+00  0.00000000000E+00  0.57736374333E+03  0.90523728599E+03  0.69721277372E+03 0.  0.
        5    1    3    3  502    0  0.18521920834E+03  0.23962136564E+03  0.64625261758E+02  0.30971449508E+03  0.46999998093E+01 0. -1.
       -5    1    3    3    0  502 -0.18521920834E+03 -0.23962136564E+03  0.51273848157E+03  0.59552279091E+03  0.46999998093E+01 0.  1.
</event>
<event>
 5   0  0.4420645E-02  0.7013701E+03  0.7818609E-02  0.9714892E-01
       -2   -1    0    0    0  501  0.00000000000E+00  0.00000000000E+00  0.12288765430E+03  0.12288765432E+03  0.25500000920E-02 0.  1.
        2   -1    0    0  501    0  0.00000000000E+00  0.00000000000E+00 -0.10007513999E+04  0.10007513999E+04  0.25500000920E-02 0. -1.
    10030    2    1    2    0    0  0.00000000000E+00  0.00000000000E+00 -0.87786374557E+03  0.11236390542E+04  0.70137006517E+03 0.  0.
        5    1    3    3  502    0 -0.17059889365E+03  0.14965836858E+03 -0.86718430522E+03  0.89639964246E+03  0.46999998093E+01 0. -1.
       -5    1    3    3    0  502  0.17059889365E+03 -0.14965836858E+03 -0.10679440359E+02  0.22723941173E+03  0.46999998093E+01 0.  1.
</event>
<event>
 5   0  0.2684924E-02  0.6136348E+03  0.7818609E-02  0.9877515E-01
        1   -1    0    0  501    0  0.00000000000E+00  0.00000000000E+00  0.13691140511E+03  0.13691140520E+03  0.50400001928E-02 0. -1.
       -1   -1    0    0    0  501  0.00000000000E+00  0.00000000000E+00 -0.68757532041E+03  0.68757532043E+03  0.50400001928E-02 0.  1.
    10030    2    1    2    0    0  0.00000000000E+00  0.00000000000E+00 -0.55066391530E+03  0.82448672563E+03  0.61363475547E+03 0.  0.
        4    1    3    3  502    0  0.28272545972E+03 -0.11892662388E+03 -0.28557014867E+03  0.41908131688E+03  0.12699999809E+01 0. -1.
       -4    1    3    3    0  502 -0.28272545972E+03  0.11892662388E+03 -0.26509376663E+03  0.40540540875E+03  0.12699999809E+01 0.  1.
</event>
<event>
 5   0  0.2777999E-02  0.7038781E+03  0.7818609E-02  0.9710623E-01
        1   -1    0    0  501    0  0.00000000000E+00  0.00000000000E+00  0.16613449878E+03  0.16613449885E+03  0.50400001928E-02 0. -1.
       -1   -1    0    0    0  501  0.00000000000E+00  0.00000000000E+00 -0.74554712570E+03  0.74554712572E+03  0.50400001928E-02 0.  1.
    10030    2    1    2    0    0  0.00000000000E+00  0.00000000000E+00 -0.57941262692E+03  0.91168162457E+03  0.70387810901E+03 0.  0.
        5    1    3    3  502    0 -0.34877784521E+03  0.18533556058E+01 -0.22909873531E+03  0.41732210672E+03  0.46999998093E+01 0. -1.
       -5    1    3    3    0  502  0.34877784521E+03 -0.18533556058E+01 -0.35031389161E+03  0.49435951785E+03  0.46999998093E+01 0.  1.
</event>
<event>
 5   0  0.4526837E-02  0.7082414E+03  0.7818609E-02  0.9703241E-01
       -2   -1    0    0    0  501  0.00000000000E+00  0.00000000000E+00  0.33084327034E+03  0.33084327035E+03  0.25500000920E-02 0. -1.
        2   -1    0    0  501    0  0.00000000000E+00  0.00000000000E+00 -0.37903585634E+03  0.37903585635E+03  0.25500000920E-02 0.  1.
    10030    2    1    2    0    0  0.00000000000E+00  0.00000000000E+00 -0.48192586009E+02  0.70987912670E+03  0.70824137776E+03 0.  0.
        1    1    3    3  502    0  0.19592517980E+03  0.24017075037E+03  0.14756795191E+03  0.34328554568E+03  0.50400001928E-02 0. -1.
       -1    1    3    3    0  502 -0.19592517980E+03 -0.24017075037E+03 -0.19576053792E+03  0.36659358102E+03  0.50400001928E-02 0.  1.
</event>
<event>
 5   0  0.4365492E-02  0.7008621E+03  0.7818609E-02  0.9715759E-01
        2   -1    0    0  501    0  0.00000000000E+00  0.00000000000E+00  0.57926041137E+03  0.57926041138E+03  0.25500000920E-02 0. -1.
       -2   -1    0    0    0  501  0.00000000000E+00  0.00000000000E+00 -0.21199777692E+03  0.21199777694E+03  0.25500000920E-02 0.  1.
    10030    2    1    2    0    0  0.00000000000E+00  0.00000000000E+00  0.36726263445E+03  0.79125818831E+03  0.70086209622E+03 0.  0.
        4    1    3    3  502    0  0.13150915479E+03 -0.24980084537E+03  0.41802743158E+03  0.50442409398E+03  0.12699999809E+01 0. -1.
       -4    1    3    3    0  502 -0.13150915479E+03  0.24980084537E+03 -0.50764797127E+02  0.28683409433E+03  0.12699999809E+01 0.  1.
</event>
<event>
 5   0  0.4503289E-02  0.7027889E+03  0.7818609E-02  0.9712475E-01
       -2   -1    0    0    0  501  0.00000000000E+00  0.00000000000E+00  0.21430994428E+03  0.21430994430E+03  0.25500000920E-02 0. -1.
        2   -1    0    0  501    0  0.00000000000E+00  0.00000000000E+00 -0.57616574632E+03  0.57616574633E+03  0.25500000920E-02 0.  1.
    10030    2    1    2    0    0  0.00000000000E+00  0.00000000000E+00 -0.36185580204E+03  0.79047569063E+03  0.70278887015E+03 0.  0.
        2    1    3    3  502    0 -0.79367486757E+02  0.24050424305E+03  0.93055862135E+02  0.26981638639E+03  0.25500000920E-02 0. -1.
       -2    1    3    3    0  502  0.79367486757E+02 -0.24050424305E+03 -0.45491166417E+03  0.52065930424E+03  0.25500000920E-02 0.  1.
</event>
<event>
 5   0  0.4503289E-02  0.6808016E+03  0.7818609E-02  0.9750639E-01
        2   -1    0    0  501    0  0.00000000000E+00  0.00000000000E+00  0.32476825836E+03  0.32476825837E+03  0.25500000920E-02 0.  1.
       -2   -1    0    0    0  501  0.00000000000E+00  0.00000000000E+00 -0.35678583679E+03  0.35678583680E+03  0.25500000920E-02 0. -1.
    10030    2    1    2    0    0  0.00000000000E+00  0.00000000000E+00 -0.32017578430E+02  0.68155409516E+03  0.68080162992E+03 0.  0.
        2    1    3    3  502    0  0.25766992275E+03  0.86445201293E+02 -0.22118934375E+03  0.35041587822E+03  0.25500000920E-02 0. -1.
       -2    1    3    3    0  502 -0.25766992275E+03 -0.86445201293E+02  0.18917176532E+03  0.33113821694E+03  0.25500000920E-02 0.  1.
</event>
<event>
 5   0  0.1784625E-02  0.7039143E+03  0.7818609E-02  0.9710562E-01
        4   -1    0    0  501    0  0.00000000000E+00  0.00000000000E+00  0.14685899105E+03  0.14686448227E+03  0.12699999809E+01 0.  1.
       -4   -1    0    0    0  501  0.00000000000E+00  0.00000000000E+00 -0.84346649646E+03  0.84346745257E+03  0.12699999809E+01 0. -1.
    10030    2    1    2    0    0  0.00000000000E+00  0.00000000000E+00 -0.69660750541E+03  0.99033193484E+03  0.70391428780E+03 0.  0.
        4    1    3    3  502    0  0.34349876762E+03 -0.57822426911E+02 -0.41917236300E+03  0.54501552199E+03  0.12699999809E+01 0.  1.
       -4    1    3    3    0  502 -0.34349876762E+03  0.57822426911E+02 -0.27743514242E+03  0.44531641285E+03  0.12699999809E+01 0. -1.
</event>
<event>
 5   0  0.2751729E-02  0.7057659E+03  0.7818609E-02  0.9707422E-01
       -1   -1    0    0    0  501  0.00000000000E+00  0.00000000000E+00  0.17998319603E+03  0.17998319610E+03  0.50400001928E-02 0.  1.
        1   -1    0    0  501    0  0.00000000000E+00  0.00000000000E+00 -0.69187784571E+03  0.69187784573E+03  0.50400001928E-02 0. -1.
    10030    2    1    2    0    0  0.00000000000E+00  0.00000000000E+00 -0.51189464968E+03  0.87186104182E+03  0.70576592712E+03 0.  0.
        1    1    3    3  502    0 -0.15939124520E+02 -0.46053978716E+02 -0.68770069876E+03  0.68942532283E+03  0.50400001928E-02 0. -1.
       -1    1    3    3    0  502  0.15939124520E+02  0.46053978716E+02  0.17580604909E+03  0.18243571900E+03  0.50400001928E-02 0.  1.
</event>
<event>
 5   0  0.4420645E-02  0.6996009E+03  0.7818609E-02  0.9717915E-01
       -2   -1    0    0    0  501  0.00000000000E+00  0.00000000000E+00  0.58384819120E+03  0.58384819120E+03  0.25500000920E-02 0. -1.
        2   -1    0    0  501    0  0.00000000000E+00  0.00000000000E+00 -0.20957565505E+03  0.20957565506E+03  0.25500000920E-02 0.  1.
    10030    2    1    2    0    0  0.00000000000E+00  0.00000000000E+00  0.37427253615E+03  0.79342384627E+03  0.69960093518E+03 0.  0.
        5    1    3    3  502    0 -0.14041896363E+03  0.82803656438E+02 -0.16382306152E+03  0.23115799002E+03  0.46999998093E+01 0.  1.
       -5    1    3    3    0  502  0.14041896363E+03 -0.82803656438E+02  0.53809559767E+03  0.56226585625E+03  0.46999998093E+01 0. -1.
</event>
<event>
 5   0  0.4526837E-02  0.6988274E+03  0.7818609E-02  0.9719240E-01
        2   -1    0    0  501    0  0.00000000000E+00  0.00000000000E+00  0.42610774474E+03  0.42610774475E+03  0.25500000920E-02 0.  1.
       -2   -1    0    0    0  501  0.00000000000E+00  0.00000000000E+00 -0.28652362738E+03  0.28652362739E+03  0.25500000920E-02 0. -1.
    10030    2    1    2    0    0  0.00000000000E+00  0.00000000000E+00  0.13958411736E+03  0.71263137214E+03  0.69882740840E+03 0.  0.
        1    1    3    3  502    0  0.33162186007E+03 -0.46170305167E+02  0.17169177833E+03  0.37627492865E+03  0.50400001928E-02 0.  1.
       -1    1    3    3    0  502 -0.33162186007E+03  0.46170305167E+02 -0.32107660969E+02  0.33635644349E+03  0.50400001928E-02 0. -1.
</event>
<event>
 5   0  0.2684924E-02  0.6983118E+03  0.7818609E-02  0.9720124E-01
       -1   -1    0    0    0  501  0.00000000000E+00  0.00000000000E+00  0.37854243450E+03  0.37854243453E+03  0.50400001928E-02 0.  1.
        1   -1    0    0  501    0  0.00000000000E+00  0.00000000000E+00 -0.32205067625E+03  0.32205067628E+03  0.50400001928E-02 0. -1.
    10030    2    1    2    0    0  0.00000000000E+00  0.00000000000E+00  0.56491758256E+02  0.70059311082E+03  0.69831181300E+03 0.  0.
        4    1    3    3  502    0  0.36679097089E+02 -0.27885225381E+03  0.23581376680E+03  0.36703362397E+03  0.12699999809E+01 0. -1.
       -4    1    3    3    0  502 -0.36679097089E+02  0.27885225381E+03 -0.17932200854E+03  0.33355948684E+03  0.12699999809E+01 0.  1.
</event>
<event>
 5   0  0.2758681E-02  0.7458694E+03  0.7818609E-02  0.9641853E-01
        1   -1    0    0  501    0  0.00000000000E+00  0.00000000000E+00  0.95517508768E+03  0.95517508770E+03  0.50400001928E-02 0. -1.
       -1   -1    0    0    0  501  0.00000000000E+00  0.00000000000E+00 -0.14560710891E+03  0.14560710900E+03  0.50400001928E-02 0.  1.
    10030    2    1    2    0    0  0.00000000000E+00  0.00000000000E+00  0.80956797877E+03  0.11007821967E+04  0.74586938019E+03 0.  0.
        3    1    3    3  502    0 -0.10397060083E+03 -0.35438004277E+03  0.48125990755E+03  0.60663515342E+03  0.10100000352E+00 0. -1.
       -3    1    3    3    0  502  0.10397060083E+03  0.35438004277E+03  0.32830807123E+03  0.49414704328E+03  0.10100000352E+00 0.  1.
</event>
<event>
 5   0  0.4420645E-02  0.6878306E+03  0.7818609E-02  0.9738273E-01
        2   -1    0    0  501    0  0.00000000000E+00  0.00000000000E+00  0.11204941271E+04  0.11204941271E+04  0.25500000920E-02 0. -1.
       -2   -1    0    0    0  501  0.00000000000E+00  0.00000000000E+00 -0.10555856040E+03  0.10555856043E+03  0.25500000920E-02 0.  1.
    10030    2    1    2    0    0  0.00000000000E+00  0.00000000000E+00  0.10149355667E+04  0.12260526876E+04  0.68783063908E+03 0.  0.
        5    1    3    3  502    0  0.22403329590E+01 -0.27713346627E+03  0.14457550414E+03  0.31262140620E+03  0.46999998093E+01 0.  1.
       -5    1    3    3    0  502 -0.22403329590E+01  0.27713346627E+03  0.87036006260E+03  0.91343128137E+03  0.46999998093E+01 0. -1.
</event>
<event>
 5   0  0.4420645E-02  0.6996874E+03  0.7818609E-02  0.9717767E-01
       -2   -1    0    0    0  501  0.00000000000E+00  0.00000000000E+00  0.15250228018E+03  0.15250228020E+03  0.25500000920E-02 0.  1.
        2   -1    0    0  501    0  0.00000000000E+00  0.00000000000E+00 -0.80254937969E+03  0.80254937969E+03  0.25500000920E-02 0. -1.
    10030    2    1    2    0    0  0.00000000000E+00  0.00000000000E+00 -0.65004709951E+03  0.95505165989E+03  0.69968738840E+03 0.  0.
        5    1    3    3  502    0  0.77612734926E+02 -0.32073816390E+03 -0.48345297850E+03  0.58535935871E+03  0.46999998093E+01 0.  1.
       -5    1    3    3    0  502 -0.77612734926E+02  0.32073816390E+03 -0.16659412101E+03  0.36969230119E+03  0.46999998093E+01 0. -1.
</event>
<event>
 5   0  0.4503289E-02  0.7007495E+03  0.7818609E-02  0.9715951E-01
       -2   -1    0    0    0  501  0.00000000000E+00  0.00000000000E+00  0.20507662315E+03  0.20507662316E+03  0.25500000920E-02 0. -1.
        2   -1    0    0  501    0  0.00000000000E+00  0.00000000000E+00 -0.59861752360E+03  0.59861752360E+03  0.25500000920E-02 0.  1.
    10030    2    1    2    0    0  0.00000000000E+00  0.00000000000E+00 -0.39354090045E+03  0.80369414676E+03  0.70074948535E+03 0.  0.
        2    1    3    3  502    0 -0.27406264753E+03  0.17824127753E+03 -0.34130876022E+03  0.47262242604E+03  0.25500000920E-02 0. -1.
       -2    1    3    3    0  502  0.27406264753E+03 -0.17824127753E+03 -0.52232140232E+02  0.33107172073E+03  0.25500000920E-02 0.  1.
</event>
<event>
 5   0  0.4365492E-02  0.7022190E+03  0.7818609E-02  0.9713445E-01
       -2   -1    0    0    0  501  0.00000000000E+00  0.00000000000E+00  0.15678727851E+03  0.15678727853E+03  0.25500000920E-02 0. -1.
        2   -1    0    0  501    0  0.00000000000E+00  0.00000000000E+00 -0.78627486998E+03  0.78627486999E+03  0.25500000920E-02 0.  1.
    10030    2    1    2    0    0  0.00000000000E+00  0.00000000000E+00 -0.62948759147E+03  0.94306214852E+03  0.70221904570E+03 0.  0.
        4    1    3    3  502    0  0.10817945057E+03  0.26980639890E+03 -0.57920404328E+03  0.64805649682E+03  0.12699999809E+01 0.  1.
       -4    1    3    3    0  502 -0.10817945057E+03 -0.26980639890E+03 -0.50283548189E+02  0.29500565170E+03  0.12699999809E+01 0. -1.
</event>
<event>
 5   0  0.2751729E-02  0.7168672E+03  0.7818609E-02  0.9688814E-01
        1   -1    0    0  501    0  0.00000000000E+00  0.00000000000E+00  0.47971292551E+03  0.47971292554E+03  0.50400001928E-02 0. -1.
       -1   -1    0    0    0  501  0.00000000000E+00  0.00000000000E+00 -0.26781568926E+03  0.26781568930E+03  0.50400001928E-02 0.  1.
    10030    2    1    2    0    0  0.00000000000E+00  0.00000000000E+00  0.21189723625E+03  0.74752861484E+03  0.71686720616E+03 0.  0.
        1    1    3    3  502    0  0.21763026330E+03  0.33447490793E+02  0.40087596953E+03  0.45736550932E+03  0.50400001928E-02 0. -1.
       -1    1    3    3    0  502 -0.21763026330E+03 -0.33447490793E+02 -0.18897873328E+03  0.29016310552E+03  0.50400001928E-02 0.  1.
</event>
<event>
 5   0  0.2751729E-02  0.6151419E+03  0.7818609E-02  0.9874480E-01
        1   -1    0    0  501    0  0.00000000000E+00  0.00000000000E+00  0.44858255537E+03  0.44858255540E+03  0.50400001928E-02 0. -1.
       -1   -1    0    0    0  501  0.00000000000E+00  0.00000000000E+00 -0.21088625153E+03  0.21088625159E+03  0.50400001928E-02 0.  1.
    10030    2    1    2    0    0  0.00000000000E+00  0.00000000000E+00  0.23769630384E+03  0.65946880698E+03  0.61514191413E+03 0.  0.
        1    1    3    3  502    0 -0.46828820652E+02  0.90979127620E+02  0.42980043272E+03  0.44181280210E+03  0.50400001928E-02 0. -1.
       -1    1    3    3    0  502  0.46828820652E+02 -0.90979127620E+02 -0.19210412888E+03  0.21765600489E+03  0.50400001928E-02 0.  1.
</event>
<event>
 5   0  0.2758681E-02  0.6997463E+03  0.7818609E-02  0.9717666E-01
       -1   -1    0    0    0  501  0.00000000000E+00  0.00000000000E+00  0.18155113859E+03  0.18155113866E+03  0.50400001928E-02 0. -1.
        1   -1    0    0  501    0  0.00000000000E+00  0.00000000000E+00 -0.67425205268E+03  0.67425205270E+03  0.50400001928E-02 0.  1.
    10030    2    1    2    0    0  0.00000000000E+00  0.00000000000E+00 -0.49270091409E+03  0.85580319135E+03  0.69974631945E+03 0.  0.
        3    1    3    3  502    0 -0.27130539325E+03 -0.13826275825E+03 -0.45707922584E+03  0.54922184554E+03  0.10100000352E+00 0.  1.
       -3    1    3    3    0  502  0.27130539325E+03  0.13826275825E+03 -0.35621688253E+02  0.30658134581E+03  0.10100000352E+00 0. -1.
</event>
<event>
 5   0  0.4526837E-02  0.6977507E+03  0.7818609E-02  0.9721087E-01
        2   -1    0    0  501    0  0.00000000000E+00  0.00000000000E+00  0.55433468067E+03  0.55433468068E+03  0.25500000920E-02 0.  1.
       -2   -1    0    0    0  501  0.00000000000E+00  0.00000000000E+00 -0.21956774201E+03  0.21956774203E+03  0.25500000920E-02 0. -1.
    10030    2    1    2    0    0  0.00000000000E+00  0.00000000000E+00  0.33476693866E+03  0.77390242271E+03  0.69775071240E+03 0.  0.
        1    1    3    3  502    0 -0.14132742454E+03  0.25692081773E+03 -0.42276829572E+02  0.29625846462E+03  0.50400001928E-02 0.  1.
       -1    1    3    3    0  502  0.14132742454E+03 -0.25692081773E+03  0.37704376823E+03  0.47764395809E+03  0.50400001928E-02 0. -1.
</event>
<event>
 5   0  0.1784625E-02  0.7350177E+03  0.7818609E-02  0.9659153E-01
        3   -1    0    0  501    0  0.00000000000E+00  0.00000000000E+00  0.10094469239E+04  0.10094469290E+04  0.10100000352E+00 0. -1.
       -3   -1    0    0    0  501  0.00000000000E+00  0.00000000000E+00 -0.13379875409E+03  0.13379879221E+03  0.10100000352E+00 0.  1.
    10030    2    1    2    0    0  0.00000000000E+00  0.00000000000E+00  0.87564816981E+03  0.11432457212E+04  0.73501772882E+03 0.  0.
        2    1    3    3  502    0 -0.13704392259E+03  0.32663081142E+03  0.28547404528E+03  0.45493313160E+03  0.25500000920E-02 0. -1.
       -2    1    3    3    0  502  0.13704392259E+03 -0.32663081142E+03  0.59017412453E+03  0.68831258957E+03  0.25500000920E-02 0.  1.
</event>
<event>
 5   0  0.4365492E-02  0.7009691E+03  0.7818609E-02  0.9715576E-01
        2   -1    0    0  501    0  0.00000000000E+00  0.00000000000E+00  0.14700876528E+04  0.14700876528E+04  0.25500000920E-02 0.  1.
       -2   -1    0    0    0  501  0.00000000000E+00  0.00000000000E+00 -0.83559237409E+02  0.83559237448E+02  0.25500000920E-02 0. -1.
    10030    2    1    2    0    0  0.00000000000E+00  0.00000000000E+00  0.13865284154E+04  0.15536468902E+04  0.70096905274E+03 0.  0.
        4    1    3    3  502    0  0.20645848576E+03 -0.44041202075E+02  0.13133611959E+04  0.13302195223E+04  0.12699999809E+01 0.  1.
       -4    1    3    3    0  502 -0.20645848576E+03  0.44041202075E+02  0.73167219485E+02  0.22342736790E+03  0.12699999809E+01 0. -1.
</event>
<event>
 5   0  0.2684924E-02  0.6968630E+03  0.7818609E-02  0.9722612E-01
        1   -1    0    0  501    0  0.00000000000E+00  0.00000000000E+00  0.16538697684E+03  0.16538697692E+03  0.50400001928E-02 0. -1.
       -1   -1    0    0    0  501  0.00000000000E+00  0.00000000000E+00 -0.73406333668E+03  0.73406333669E+03  0.50400001928E-02 0.  1.
    10030    2    1    2    0    0  0.00000000000E+00  0.00000000000E+00 -0.56867635984E+03  0.89945031361E+03  0.69686301697E+03 0.  0.
        4    1    3    3  502    0 -0.25881171792E+03 -0.61034908436E+02  0.62705332455E+01  0.26598815362E+03  0.12699999809E+01 0. -1.
       -4    1    3    3    0  502  0.25881171792E+03  0.61034908436E+02 -0.57494689308E+03  0.63346215999E+03  0.12699999809E+01 0.  1.
</event>
<event>
 5   0  0.2777999E-02  0.7003248E+03  0.7818609E-02  0.9716677E-01
       -1   -1    0    0    0  501  0.00000000000E+00  0.00000000000E+00  0.36751350610E+03  0.36751350614E+03  0.50400001928E-02 0. -1.
        1   -1    0    0  501    0  0.00000000000E+00  0.00000000000E+00 -0.33363047573E+03  0.33363047577E+03  0.50400001928E-02 0.  1.
    10030    2    1    2    0    0  0.00000000000E+00  0.00000000000E+00  0.33883030375E+02  0.70114398190E+03  0.70032479866E+03 0.  0.
        5    1    3    3  502    0  0.27143338314E+03 -0.17555742285E+03  0.15161698766E+03  0.35708023069E+03  0.46999998093E+01 0.  1.
       -5    1    3    3    0  502 -0.27143338314E+03  0.17555742285E+03 -0.11773395729E+03  0.34406375121E+03  0.46999998093E+01 0. -1.
</event>
<event>
 5   0  0.4526837E-02  0.6923604E+03  0.7818609E-02  0.9730387E-01
        2   -1    0    0  501    0  0.00000000000E+00  0.00000000000E+00  0.14875394825E+04  0.14875394825E+04  0.25500000920E-02 0. -1.
       -2   -1    0    0    0  501  0.00000000000E+00  0.00000000000E+00 -0.80563058136E+02  0.80563058177E+02  0.25500000920E-02 0.  1.
    10030    2    1    2    0    0  0.00000000000E+00  0.00000000000E+00  0.14069764243E+04  0.15681025407E+04  0.69236039702E+03 0.  0.
        1    1    3    3  502    0  0.22886886354E+03 -0.17408453120E+03  0.26692506766E+03  0.39234598567E+03  0.50400001928E-02 0.  1.
       -1    1    3    3    0  502 -0.22886886354E+03  0.17408453120E+03  0.11400513567E+04  0.11757565550E+04  0.50400001928E-02 0. -1.
</event>
<event>
 5   0  0.2758681E-02  0.7150649E+03  0.7818609E-02  0.9691811E-01
        1   -1    0    0  501    0  0.00000000000E+00  0.00000000000E+00  0.24193622836E+03  0.24193622842E+03  0.50400001928E-02 0.  1.
       -1   -1    0    0    0  501  0.00000000000E+00  0.00000000000E+00 -0.52836008789E+03  0.52836008791E+03  0.50400001928E-02 0. -1.
    10030    2    1    2    0    0  0.00000000000E+00  0.00000000000E+00 -0.28642385952E+03  0.77029631633E+03  0.71506488352E+03 0.  0.
        3    1    3    3  502    0  0.77567045348E+02 -0.22481656441E+03 -0.43079722211E+03  0.49208270741E+03  0.10100000352E+00 0. -1.
       -3    1    3    3    0  502 -0.77567045348E+02  0.22481656441E+03  0.14437336259E+03  0.27821360891E+03  0.10100000352E+00 0.  1.
</event>
<event>
 5   0  0.4503289E-02  0.7013012E+03  0.7818609E-02  0.9715009E-01
       -2   -1    0    0    0  501  0.00000000000E+00  0.00000000000E+00  0.44596102535E+03  0.44596102536E+03  0.25500000920E-02 0.  1.
        2   -1    0    0  501    0  0.00000000000E+00  0.00000000000E+00 -0.27570987002E+03  0.27570987003E+03  0.25500000920E-02 0. -1.
    10030    2    1    2    0    0  0.00000000000E+00  0.00000000000E+00  0.17025115534E+03  0.72167089539E+03  0.70130123724E+03 0.  0.
        2    1    3    3  502    0  0.25238072340E+03  0.14229377020E+03  0.28837785371E+03  0.40878519188E+03  0.25500000920E-02 0.  1.
       -2    1    3    3    0  502 -0.25238072340E+03 -0.14229377020E+03 -0.11812669837E+03  0.31288570351E+03  0.25500000920E-02 0. -1.
</event>
<event>
 5   0  0.4503289E-02  0.6781982E+03  0.7818609E-02  0.9755260E-01
        2   -1    0    0  501    0  0.00000000000E+00  0.00000000000E+00  0.14364493649E+04  0.14364493649E+04  0.25500000920E-02 0.  1.
       -2   -1    0    0    0  501  0.00000000000E+00  0.00000000000E+00 -0.80050291854E+02  0.80050291894E+02  0.25500000920E-02 0. -1.
    10030    2    1    2    0    0  0.00000000000E+00  0.00000000000E+00  0.13563990731E+04  0.15164996568E+04  0.67819817437E+03 0.  0.
        2    1    3    3  502    0 -0.18362800583E+03  0.15158642094E+01  0.40755775441E+02  0.18810256673E+03  0.25500000920E-02 0. -1.
       -2    1    3    3    0  502  0.18362800583E+03 -0.15158642094E+01  0.13156432976E+04  0.13283970901E+04  0.25500000920E-02 0.  1.
</event>
<event>
 5   0  0.4365492E-02  0.7204983E+03  0.7818609E-02  0.9682806E-01
        2   -1    0    0  501    0  0.00000000000E+00  0.00000000000E+00  0.47386263305E+03  0.47386263305E+03  0.25500000920E-02 0.  1.
       -2   -1    0    0    0  501  0.00000000000E+00  0.00000000000E+00 -0.27387568504E+03  0.27387568505E+03  0.25500000920E-02 0. -1.
    10030    2    1    2    0    0  0.00000000000E+00  0.00000000000E+00  0.19998694801E+03  0.74773831811E+03  0.72049830880E+03 0.  0.
        4    1    3    3  502    0 -0.15848733098E+03 -0.87765388532E+02  0.42314477127E+03  0.46029784690E+03  0.12699999809E+01 0.  1.
       -4    1    3    3    0  502  0.15848733098E+03  0.87765388532E+02 -0.22315782326E+03  0.28744047121E+03  0.12699999809E+01 0. -1.
</event>
<event>
 5   0  0.4299912E-02  0.7118324E+03  0.7818609E-02  0.9697208E-01
        2   -1    0    0  501    0  0.00000000000E+00  0.00000000000E+00  0.33074441594E+03  0.33074441595E+03  0.25500000920E-02 0. -1.
       -2   -1    0    0    0  501  0.00000000000E+00  0.00000000000E+00 -0.38300376319E+03  0.38300376320E+03  0.25500000920E-02 0.  1.
    10030    2    1    2    0    0  0.00000000000E+00  0.00000000000E+00 -0.52259347256E+02  0.71374817915E+03  0.71183244086E+03 0.  0.
        3    1    3    3  502    0 -0.47769335913E+02 -0.15037972966E+03  0.29375928956E+03  0.33345239983E+03  0.10100000352E+00 0. -1.
       -3    1    3    3    0  502  0.47769335913E+02  0.15037972966E+03 -0.34601863682E+03  0.38029577932E+03  0.10100000352E+00 0.  1.
</event>
<event>
 5   0  0.4526837E-02  0.7012707E+03  0.7818609E-02  0.9715062E-01
       -2   -1    0    0    0  501  0.00000000000E+00  0.00000000000E+00  0.77458310294E+03  0.77458310294E+03  0.25500000920E-02 0. -1.
        2   -1    0    0  501    0  0.00000000000E+00  0.00000000000E+00 -0.15872428056E+03  0.15872428058E+03  0.25500000920E-02 0.  1.
    10030    2    1    2    0    0  0.00000000000E+00  0.00000000000E+00  0.61585882238E+03  0.93330738352E+03  0.70127069170E+03 0.  0.
        1    1    3    3  502    0  0.40207932270E+02 -0.85590807309E+01 -0.15550600187E+03  0.16084791675E+03  0.50400001928E-02 0.  1.
       -1    1    3    3    0  502 -0.40207932270E+02  0.85590807309E+01  0.77136482425E+03  0.77245946677E+03  0.50400001928E-02 0. -1.
</event>
<event>
 5   0  0.4420645E-02  0.6950337E+03  0.7818609E-02  0.9725763E-01
       -2   -1    0    0    0  501  0.00000000000E+00  0.00000000000E+00  0.15030937305E+03  0.15030937307E+03  0.25500000920E-02 0. -1.
        2   -1    0    0  501    0  0.00000000000E+00  0.00000000000E+00 -0.80346266914E+03  0.80346266915E+03  0.25500000920E-02 0.  1.
    10030    2    1    2    0    0  0.00000000000E+00  0.00000000000E+00 -0.65315329609E+03  0.95377204222E+03  0.69503372604E+03 0.  0.
        5    1    3    3  502    0 -0.22019543677E+03 -0.22508999913E+03 -0.12492178650E+03  0.33879061501E+03  0.46999998093E+01 0. -1.
       -5    1    3    3    0  502  0.22019543677E+03  0.22508999913E+03 -0.52823150960E+03  0.61498142721E+03  0.46999998093E+01 0.  1.
</event>
<event>
 5   0  0.2684924E-02  0.6820275E+03  0.7818609E-02  0.9748471E-01
        1   -1    0    0  501    0  0.00000000000E+00  0.00000000000E+00  0.15049684985E+03  0.15049684994E+03  0.50400001928E-02 0.  1.
       -1   -1    0    0    0  501  0.00000000000E+00  0.00000000000E+00 -0.77270967576E+03  0.77270967577E+03  0.50400001928E-02 0. -1.
    10030    2    1    2    0    0  0.00000000000E+00  0.00000000000E+00 -0.62221282590E+03  0.92320652571E+03  0.68202748361E+03 0.  0.
        4    1    3    3  502    0 -0.13313360667E+03  0.12830891371E+03 -0.69896309553E+03  0.72300674711E+03  0.12699999809E+01 0. -1.
       -4    1    3    3    0  502  0.13313360667E+03 -0.12830891371E+03  0.76750269625E+02  0.20019977860E+03  0.12699999809E+01 0.  1.
</event>
<event>
 5   0  0.2758681E-02  0.7042175E+03  0.7818609E-02  0.9710047E-01
        1   -1    0    0  501    0  0.00000000000E+00  0.00000000000E+00  0.70261432271E+03  0.70261432273E+03  0.50400001928E-02 0.  1.
       -1   -1    0    0    0  501  0.00000000000E+00  0.00000000000E+00 -0.17645607668E+03  0.17645607676E+03  0.50400001928E-02 0. -1.
    10030    2    1    2    0    0  0.00000000000E+00  0.00000000000E+00  0.52615824603E+03  0.87907039948E+03  0.70421748586E+03 0.  0.
        3    1    3    3  502    0  0.31500074915E+03  0.11518643428E+03  0.39686903775E+03  0.51961373147E+03  0.10100000352E+00 0.  1.
       -3    1    3    3    0  502 -0.31500074915E+03 -0.11518643428E+03  0.12928920828E+03  0.35945666802E+03  0.10100000352E+00 0. -1.
</event>
<event>
 5   0  0.4365492E-02  0.6984196E+03  0.7818609E-02  0.9719939E-01
        2   -1    0    0  501    0  0.00000000000E+00  0.00000000000E+00  0.99509314809E+03  0.99509314809E+03  0.25500000920E-02 0.  1.
       -2   -1    0    0    0  501  0.00000000000E+00  0.00000000000E+00 -0.12254880485E+03  0.12254880488E+03  0.25500000920E-02 0. -1.
    10030    2    1    2    0    0  0.00000000000E+00  0.00000000000E+00  0.87254434324E+03  0.11176419530E+04  0.69841957598E+03 0.  0.
        4    1    3    3  502    0 -0.33887831381E+03 -0.34624413158E+02  0.55927779596E+03  0.65485160724E+03  0.12699999809E+01 0.  1.
       -4    1    3    3    0  502  0.33887831381E+03  0.34624413158E+02  0.31326654728E+03  0.46279034573E+03  0.12699999809E+01 0. -1.
</event>
<event>
 5   0  0.4503289E-02  0.7014068E+03  0.7818609E-02  0.9714829E-01
       -2   -1    0    0    0  501  0.00000000000E+00  0.00000000000E+00  0.45435897831E+03  0.45435897831E+03  0.25500000920E-02 0.  1.
        2   -1    0    0  501    0  0.00000000000E+00  0.00000000000E+00 -0.27069539488E+03  0.27069539489E+03  0.25500000920E-02 0. -1.
    10030    2    1    2    0    0  0.00000000000E+00  0.00000000000E+00  0.18366358343E+03  0.72505437321E+03  0.70140682362E+03 0.  0.
        2    1    3    3  502    0 -0.16926412775E+03 -0.75120410888E+02 -0.21603374996E+03  0.28454174070E+03  0.25500000920E-02 0. -1.
       -2    1    3    3    0  502  0.16926412775E+03  0.75120410888E+02  0.39969733338E+03  0.44051263250E+03  0.25500000920E-02 0.  1.
</event>
<event>
 5   0  0.2777999E-02  0.6646993E+03  0.7818609E-02  0.9779581E-01
       -1   -1    0    0    0  501  0.00000000000E+00  0.00000000000E+00  0.48004416345E+03  0.48004416347E+03  0.50400001928E-02 0.  1.
        1   -1    0    0  501    0  0.00000000000E+00  0.00000000000E+00 -0.23009610792E+03  0.23009610798E+03  0.50400001928E-02 0. -1.
    10030    2    1    2    0    0  0.00000000000E+00  0.00000000000E+00  0.24994805552E+03  0.71014027145E+03  0.66469931147E+03 0.  0.
        5    1    3    3  502    0 -0.48428611143E+02 -0.11702688740E+03  0.45321299976E+03  0.47060039939E+03  0.46999998093E+01 0.  1.
       -5    1    3    3    0  502  0.48428611143E+02  0.11702688740E+03 -0.20326494424E+03  0.23953987206E+03  0.46999998093E+01 0. -1.
</event>
<event>
 5   0  0.2750139E-02  0.7471008E+03  0.7818609E-02  0.9639910E-01
       -1   -1    0    0    0  501  0.00000000000E+00  0.00000000000E+00  0.12502666437E+03  0.12502666448E+03  0.50400001928E-02 0.  1.
        1   -1    0    0  501    0  0.00000000000E+00  0.00000000000E+00 -0.11160812532E+04  0.11160812532E+04  0.50400001928E-02 0. -1.
    10030    2    1    2    0    0  0.00000000000E+00  0.00000000000E+00 -0.99105458884E+03  0.12411079177E+04  0.74710084013E+03 0.  0.
        2    1    3    3  502    0 -0.19393541978E+03 -0.90503668615E+02 -0.10041412718E+04  0.10266944798E+04  0.25500000920E-02 0. -1.
       -2    1    3    3    0  502  0.19393541978E+03  0.90503668615E+02  0.13086682972E+02  0.21441343791E+03  0.25500000920E-02 0.  1.
</event>
<event>
 5   0  0.4420645E-02  0.6512543E+03  0.7818609E-02  0.9804428E-01
        2   -1    0    0  501    0  0.00000000000E+00  0.00000000000E+00  0.50476072468E+03  0.50476072468E+03  0.25500000920E-02 0.  1.
       -2   -1    0    0    0  501  0.00000000000E+00  0.00000000000E+00 -0.21006593610E+03  0.21006593612E+03  0.25500000920E-02 0. -1.
    10030    2    1    2    0    0  0.00000000000E+00  0.00000000000E+00  0.29469478858E+03  0.71482666080E+03  0.65125427951E+03 0.  0.
        5    1    3    3  502    0  0.17488599489E+03  0.23910769222E+03  0.29564064198E+03  0.41854877717E+03  0.46999998093E+01 0.  1.
       -5    1    3    3    0  502 -0.17488599489E+03 -0.23910769222E+03 -0.94585339919E+00  0.29627788362E+03  0.46999998093E+01 0. -1.
</event>
<event>
 5   0  0.2750139E-02  0.6957524E+03  0.7818609E-02  0.9724524E-01
        1   -1    0    0  501    0  0.00000000000E+00  0.00000000000E+00  0.62854216400E+03  0.62854216402E+03  0.50400001928E-02 0.  1.
       -1   -1    0    0    0  501  0.00000000000E+00  0.00000000000E+00 -0.19253738547E+03  0.19253738554E+03  0.50400001928E-02 0. -1.
    10030    2    1    2    0    0  0.00000000000E+00  0.00000000000E+00  0.43600477853E+03  0.82107954956E+03  0.69575244146E+03 0.  0.
        2    1    3    3  502    0  0.20552589954E+02  0.31319182546E+03  0.40957701651E+02  0.31652655785E+03  0.25500000920E-02 0. -1.
       -2    1    3    3    0  502 -0.20552589954E+02 -0.31319182546E+03  0.39504707688E+03  0.50455299171E+03  0.25500000920E-02 0.  1.
</event>
<event>
 5   0  0.2758681E-02  0.6971845E+03  0.7818609E-02  0.9722059E-01
        1   -1    0    0  501    0  0.00000000000E+00  0.00000000000E+00  0.10375980082E+04  0.10375980082E+04  0.50400001928E-02 0.  1.
       -1   -1    0    0    0  501  0.00000000000E+00  0.00000000000E+00 -0.11711333227E+03  0.11711333237E+03  0.50400001928E-02 0. -1.
    10030    2    1    2    0    0  0.00000000000E+00  0.00000000000E+00  0.92048467594E+03  0.11547113406E+04  0.69718451033E+03 0.  0.
        3    1    3    3  502    0  0.17991699458E+03 -0.27607471976E+03  0.27191598454E+03  0.42723025253E+03  0.10100000352E+00 0. -1.
       -3    1    3    3    0  502 -0.17991699458E+03  0.27607471976E+03  0.64856869139E+03  0.72748108806E+03  0.10100000352E+00 0.  1.
</event>
<event>
 5   0  0.2751729E-02  0.6963412E+03  0.7818609E-02  0.9723510E-01
        1   -1    0    0  501    0  0.00000000000E+00  0.00000000000E+00  0.65357185776E+03  0.65357185778E+03  0.50400001928E-02 0.  1.
       -1   -1    0    0    0  501  0.00000000000E+00  0.00000000000E+00 -0.18547735640E+03  0.18547735647E+03  0.50400001928E-02 0. -1.
    10030    2    1    2    0    0  0.00000000000E+00  0.00000000000E+00  0.46809450136E+03  0.83904921425E+03  0.69634123944E+03 0.  0.
        1    1    3    3  502    0  0.19590727995E+03 -0.28814879533E+02 -0.11102194662E+03  0.22701504857E+03  0.50400001928E-02 0. -1.
       -1    1    3    3    0  502 -0.19590727995E+03  0.28814879533E+02  0.57911644798E+03  0.61203416568E+03  0.50400001928E-02 0.  1.
</event>
<event>
 5   0  0.4526837E-02  0.7048997E+03  0.7818609E-02  0.9708889E-01
        2   -1    0    0  501    0  0.00000000000E+00  0.00000000000E+00  0.11748632592E+04  0.11748632592E+04  0.25500000920E-02 0.  1.
       -2   -1    0    0    0  501  0.00000000000E+00  0.00000000000E+00 -0.10573222705E+03  0.10573222709E+03  0.25500000920E-02 0. -1.
    10030    2    1    2    0    0  0.00000000000E+00  0.00000000000E+00  0.10691310321E+04  0.12805954863E+04  0.70489973444E+03 0.  0.
        1    1    3    3  502    0 -0.59976004881E+02  0.20526705446E+02  0.11644215081E+04  0.11661457522E+04  0.50400001928E-02 0.  1.
       -1    1    3    3    0  502  0.59976004881E+02 -0.20526705446E+02 -0.95290475965E+02  0.11444973409E+03  0.50400001928E-02 0. -1.
</event>
<event>
 5   0  0.1784625E-02  0.7252307E+03  0.7818609E-02  0.9675031E-01
       -3   -1    0    0    0  501  0.00000000000E+00  0.00000000000E+00  0.15685118575E+03  0.15685121827E+03  0.10100000352E+00 0. -1.
        3   -1    0    0  501    0  0.00000000000E+00  0.00000000000E+00 -0.83830974137E+03  0.83830974745E+03  0.10100000352E+00 0.  1.
    10030    2    1    2    0    0  0.00000000000E+00  0.00000000000E+00 -0.68145855561E+03  0.99516096572E+03  0.72523071134E+03 0.  0.
        2    1    3    3  502    0 -0.15130549060E+03 -0.13771994530E+03 -0.75154141494E+03  0.77889321039E+03  0.25500000920E-02 0.  1.
       -2    1    3    3    0  502  0.15130549060E+03  0.13771994530E+03  0.70082859321E+02  0.21626775533E+03  0.25500000920E-02 0. -1.
</event>
<event>
 5   0  0.4299912E-02  0.7035446E+03  0.7818609E-02  0.9711190E-01
       -2   -1    0    0    0  501  0.00000000000E+00  0.00000000000E+00  0.13203744388E+03  0.13203744391E+03  0.25500000920E-02 0.  1.
        2   -1    0    0  501    0  0.00000000000E+00  0.00000000000E+00 -0.93718682973E+03  0.93718682973E+03  0.25500000920E-02 0. -1.
    10030    2    1    2    0    0  0.00000000000E+00  0.00000000000E+00 -0.80514938584E+03  0.10692242736E+04  0.70354460684E+03 0.  0.
        3    1    3    3  502    0  0.26704770777E+03 -0.10364539035E+03 -0.92278132412E+02  0.30095200463E+03  0.10100000352E+00 0.  1.
       -3    1    3    3    0  502 -0.26704770777E+03  0.10364539035E+03 -0.71287125343E+03  0.76827226901E+03  0.10100000352E+00 0. -1.
</event>
<event>
 5   0  0.4420645E-02  0.7045852E+03  0.7818609E-02  0.9709423E-01
       -2   -1    0    0    0  501  0.00000000000E+00  0.00000000000E+00  0.45057126124E+03  0.45057126124E+03  0.25500000920E-02 0.  1.
        2   -1    0    0  501    0  0.00000000000E+00  0.00000000000E+00 -0.27545051717E+03  0.27545051718E+03  0.25500000920E-02 0. -1.
    10030    2    1    2    0    0  0.00000000000E+00  0.00000000000E+00  0.17512074407E+03  0.72602177842E+03  0.70458523100E+03 0.  0.
        5    1    3    3  502    0  0.16692785010E+03  0.16115409380E+03 -0.18555543943E+03  0.29713374125E+03  0.46999998093E+01 0. -1.
       -5    1    3    3    0  502 -0.16692785010E+03 -0.16115409380E+03  0.36067618350E+03  0.42888803717E+03  0.46999998093E+01 0.  1.
</event>
<event>
 5   0  0.4365492E-02  0.6703720E+03  0.7818609E-02  0.9769286E-01
       -2   -1    0    0    0  501  0.00000000000E+00  0.00000000000E+00  0.20907496228E+03  0.20907496229E+03  0.25500000920E-02 0.  1.
        2   -1    0    0  501    0  0.00000000000E+00  0.00000000000E+00 -0.53736534047E+03  0.53736534048E+03  0.25500000920E-02 0. -1.
    10030    2    1    2    0    0  0.00000000000E+00  0.00000000000E+00 -0.32829037819E+03  0.74644030277E+03  0.67037195137E+03 0.  0.
        4    1    3    3  502    0 -0.20045774436E+03  0.19467420165E+03  0.41972477675E+02  0.28256796323E+03  0.12699999809E+01 0.  1.
       -4    1    3    3    0  502  0.20045774436E+03 -0.19467420165E+03 -0.37026285587E+03  0.46387233955E+03  0.12699999809E+01 0. -1.
</event>
<event>
 5   0  0.4526837E-02  0.8044262E+03  0.7818609E-02  0.9553632E-01
       -2   -1    0    0    0  501  0.00000000000E+00  0.00000000000E+00  0.21526597120E+03  0.21526597122E+03  0.25500000920E-02 0.  1.
        2   -1    0    0  501    0  0.00000000000E+00  0.00000000000E+00 -0.75151396227E+03  0.75151396228E+03  0.25500000920E-02 0. -1.
    10030    2    1    2    0    0  0.00000000000E+00  0.00000000000E+00 -0.53624799107E+03  0.96677993349E+03  0.80442621282E+03 0.  0.
        1    1    3    3  502    0 -0.39522029887E+03  0.73810776689E+02 -0.28173530210E+03  0.49093980880E+03  0.50400001928E-02 0. -1.
       -1    1    3    3    0  502  0.39522029887E+03 -0.73810776689E+02 -0.25451268897E+03  0.47584012469E+03  0.50400001928E-02 0.  1.
</event>
<event>
 5   0  0.2750139E-02  0.6829598E+03  0.7818609E-02  0.9746825E-01
       -1   -1    0    0    0  501  0.00000000000E+00  0.00000000000E+00  0.19910680257E+03  0.19910680263E+03  0.50400001928E-02 0. -1.
        1   -1    0    0  501    0  0.00000000000E+00  0.00000000000E+00 -0.58565821238E+03  0.58565821240E+03  0.50400001928E-02 0.  1.
    10030    2    1    2    0    0  0.00000000000E+00  0.00000000000E+00 -0.38655140981E+03  0.78476501503E+03  0.68295983512E+03 0.  0.
        2    1    3    3  502    0 -0.16413617342E+03 -0.85677745433E+02  0.13642211532E+03  0.22998337557E+03  0.25500000920E-02 0. -1.
       -2    1    3    3    0  502  0.16413617342E+03  0.85677745433E+02 -0.52297352513E+03  0.55478163946E+03  0.25500000920E-02 0.  1.
</event>
<event>
 5   0  0.2758681E-02  0.7033415E+03  0.7818609E-02  0.9711535E-01
        1   -1    0    0  501    0  0.00000000000E+00  0.00000000000E+00  0.10556141148E+04  0.10556141148E+04  0.50400001928E-02 0.  1.
       -1   -1    0    0    0  501  0.00000000000E+00  0.00000000000E+00 -0.11715673620E+03  0.11715673631E+03  0.50400001928E-02 0. -1.
    10030    2    1    2    0    0  0.00000000000E+00  0.00000000000E+00  0.93845737861E+03  0.11727708511E+04  0.70334146600E+03 0.  0.
        3    1    3    3  502    0 -0.14346633612E+03 -0.10017926963E+01 -0.66139391562E+02  0.15798108274E+03  0.10100000352E+00 0. -1.
       -3    1    3    3    0  502  0.14346633612E+03  0.10017926963E+01  0.10045967702E+04  0.10147897684E+04  0.10100000352E+00 0.  1.
</event>
<event>
 5   0  0.1784625E-02  0.7171907E+03  0.7818609E-02  0.9688277E-01
       -3   -1    0    0    0  501  0.00000000000E+00  0.00000000000E+00  0.28397169494E+03  0.28397171291E+03  0.10100000352E+00 0. -1.
        3   -1    0    0  501    0  0.00000000000E+00  0.00000000000E+00 -0.45282897640E+03  0.45282898766E+03  0.10100000352E+00 0.  1.
    10030    2    1    2    0    0  0.00000000000E+00  0.00000000000E+00 -0.16885728146E+03  0.73680070057E+03  0.71719069351E+03 0.  0.
        1    1    3    3  502    0 -0.26370245658E+03 -0.18167134796E+03 -0.25023285329E+03  0.40639875143E+03  0.50400001928E-02 0.  1.
       -1    1    3    3    0  502  0.26370245658E+03  0.18167134796E+03  0.81375571832E+02  0.33040194914E+03  0.50400001928E-02 0. -1.
</event>
<event>
 5   0  0.4299912E-02  0.7018140E+03  0.7818609E-02  0.9714135E-01
        2   -1    0    0  501    0  0.00000000000E+00  0.00000000000E+00  0.32403049267E+03  0.32403049268E+03  0.25500000920E-02 0.  1.
       -2   -1    0    0    0  501  0.00000000000E+00  0.00000000000E+00 -0.38001281193E+03  0.38001281194E+03  0.25500000920E-02 0. -1.
    10030    2    1    2    0    0  0.00000000000E+00  0.00000000000E+00 -0.55982319255E+02  0.70404330462E+03  0.70181404568E+03 0.  0.
        3    1    3    3  502    0  0.14789310489E+03 -0.26924855619E+03 -0.19814293196E+03  0.36555134683E+03  0.10100000352E+00 0. -1.
       -3    1    3    3    0  502 -0.14789310489E+03  0.26924855619E+03  0.14216061271E+03  0.33849195779E+03  0.10100000352E+00 0.  1.
</event>
<event>
 5   0  0.4299912E-02  0.6984529E+03  0.7818609E-02  0.9719882E-01
       -2   -1    0    0    0  501  0.00000000000E+00  0.00000000000E+00  0.33996489547E+03  0.33996489548E+03  0.25500000920E-02 0. -1.
        2   -1    0    0  501    0  0.00000000000E+00  0.00000000000E+00 -0.35874034903E+03  0.35874034904E+03  0.25500000920E-02 0.  1.
    10030    2    1    2    0    0  0.00000000000E+00  0.00000000000E+00 -0.18775453553E+02  0.69870524452E+03  0.69845293404E+03 0.  0.
        3    1    3    3  502    0  0.18160650475E+03  0.11696905550E+03  0.26511335307E+03  0.34197628966E+03  0.10100000352E+00 0. -1.
       -3    1    3    3    0  502 -0.18160650475E+03 -0.11696905550E+03 -0.28388880662E+03  0.35672895486E+03  0.10100000352E+00 0.  1.
</event>
<event>
 5   0  0.2750139E-02  0.6952722E+03  0.7818609E-02  0.9725352E-01
        1   -1    0    0  501    0  0.00000000000E+00  0.00000000000E+00  0.13398048458E+03  0.13398048468E+03  0.50400001928E-02 0. -1.
       -1   -1    0    0    0  501  0.00000000000E+00  0.00000000000E+00 -0.90200345149E+03  0.90200345151E+03  0.50400001928E-02 0.  1.
    10030    2    1    2    0    0  0.00000000000E+00  0.00000000000E+00 -0.76802296691E+03  0.10359839362E+04  0.69527220448E+03 0.  0.
        2    1    3    3  502    0  0.18238642259E+03 -0.29594601315E+03 -0.38189912664E+03  0.51642597996E+03  0.25500000920E-02 0.  1.
       -2    1    3    3    0  502 -0.18238642259E+03  0.29594601315E+03 -0.38612384028E+03  0.51955795623E+03  0.25500000920E-02 0. -1.
</event>
<event>
 5   0  0.2751729E-02  0.7027430E+03  0.7818609E-02  0.9712553E-01
       -1   -1    0    0    0  501  0.00000000000E+00  0.00000000000E+00  0.18580384981E+03  0.18580384988E+03  0.50400001928E-02 0. -1.
        1   -1    0    0  501    0  0.00000000000E+00  0.00000000000E+00 -0.66447453558E+03  0.66447453560E+03  0.50400001928E-02 0.  1.
    10030    2    1    2    0    0  0.00000000000E+00  0.00000000000E+00 -0.47867068577E+03  0.85027838547E+03  0.70274298815E+03 0.  0.
        1    1    3    3  502    0  0.34208703547E+03 -0.57889299599E+02 -0.30656302299E+03  0.46298552670E+03  0.50400001928E-02 0.  1.
       -1    1    3    3    0  502 -0.34208703547E+03  0.57889299599E+02 -0.17210766278E+03  0.38729285877E+03  0.50400001928E-02 0. -1.
</event>
<event>
 5   0  0.4420645E-02  0.6984417E+03  0.7818609E-02  0.9719901E-01
       -2   -1    0    0    0  501  0.00000000000E+00  0.00000000000E+00  0.17359928486E+03  0.17359928488E+03  0.25500000920E-02 0.  1.
        2   -1    0    0  501    0  0.00000000000E+00  0.00000000000E+00 -0.70250976036E+03  0.70250976036E+03  0.25500000920E-02 0. -1.
    10030    2    1    2    0    0  0.00000000000E+00  0.00000000000E+00 -0.52891047550E+03  0.87610904524E+03  0.69844167120E+03 0.  0.
        5    1    3    3  502    0  0.94635452937E+02 -0.32544254345E+03 -0.36988547160E+03  0.50170316935E+03  0.46999998093E+01 0. -1.
       -5    1    3    3    0  502 -0.94635452937E+02  0.32544254345E+03 -0.15902500390E+03  0.37440587589E+03  0.46999998093E+01 0.  1.
</event>
<event>
 5   0  0.2684924E-02  0.7025591E+03  0.7818609E-02  0.9712866E-01
       -1   -1    0    0    0  501  0.00000000000E+00  0.00000000000E+00  0.35968679468E+03  0.35968679471E+03  0.50400001928E-02 0.  1.
        1   -1    0    0  501    0  0.00000000000E+00  0.00000000000E+00 -0.34306876735E+03  0.34306876739E+03  0.50400001928E-02 0. -1.
    10030    2    1    2    0    0  0.00000000000E+00  0.00000000000E+00  0.16618027326E+02  0.70275556210E+03  0.70255905178E+03 0.  0.
        4    1    3    3  502    0 -0.29075280045E+03  0.19439252842E+03 -0.24411698675E+02  0.35060403592E+03  0.12699999809E+01 0. -1.
       -4    1    3    3    0  502  0.29075280045E+03 -0.19439252842E+03  0.41029726001E+02  0.35215152618E+03  0.12699999809E+01 0.  1.
</event>
<event>
 5   0  0.2684924E-02  0.7011350E+03  0.7818609E-02  0.9715293E-01
        1   -1    0    0  501    0  0.00000000000E+00  0.00000000000E+00  0.26194705853E+03  0.26194705857E+03  0.50400001928E-02 0.  1.
       -1   -1    0    0    0  501  0.00000000000E+00  0.00000000000E+00 -0.46916955484E+03  0.46916955487E+03  0.50400001928E-02 0. -1.
    10030    2    1    2    0    0  0.00000000000E+00  0.00000000000E+00 -0.20722249632E+03  0.73111661345E+03  0.70113503655E+03 0.  0.
        4    1    3    3  502    0  0.22596370716E+03  0.79448746853E+02  0.16331180501E+03  0.28990353376E+03  0.12699999809E+01 0.  1.
       -4    1    3    3    0  502 -0.22596370716E+03 -0.79448746853E+02 -0.37053430133E+03  0.44121307969E+03  0.12699999809E+01 0. -1.
</event>
<event>
 5   0  0.4365492E-02  0.6984943E+03  0.7818609E-02  0.9719811E-01
       -2   -1    0    0    0  501  0.00000000000E+00  0.00000000000E+00  0.47958009494E+03  0.47958009494E+03  0.25500000920E-02 0.  1.
        2   -1    0    0  501    0  0.00000000000E+00  0.00000000000E+00 -0.25433406579E+03  0.25433406581E+03  0.25500000920E-02 0. -1.
    10030    2    1    2    0    0  0.00000000000E+00  0.00000000000E+00  0.22524602914E+03  0.73391416075E+03  0.69849425316E+03 0.  0.
        4    1    3    3  502    0 -0.34032278756E+03  0.57012762561E+01  0.30426689380E+02  0.34173015760E+03  0.12699999809E+01 0.  1.
       -4    1    3    3    0  502  0.34032278756E+03 -0.57012762561E+01  0.19481933976E+03  0.39218400315E+03  0.12699999809E+01 0. -1.
</event>
<event>
 5   0  0.2751729E-02  0.6981469E+03  0.7818609E-02  0.9720407E-01
        1   -1    0    0  501    0  0.00000000000E+00  0.00000000000E+00  0.15288870471E+04  0.15288870471E+04  0.50400001928E-02 0. -1.
       -1   -1    0    0    0  501  0.00000000000E+00  0.00000000000E+00 -0.79699976389E+02  0.79699976549E+02  0.50400001928E-02 0.  1.
    10030    2    1    2    0    0  0.00000000000E+00  0.00000000000E+00  0.14491870707E+04  0.16085870236E+04  0.69814686618E+03 0.  0.
        1    1    3    3  502    0 -0.10717098470E+03 -0.99836909279E+02 -0.54738813829E+01  0.14657077409E+03  0.50400001928E-02 0.  1.
       -1    1    3    3    0  502  0.10717098470E+03  0.99836909279E+02  0.14546609521E+04  0.14620162495E+04  0.50400001928E-02 0. -1.
</event>
<event>
 5   0  0.2751729E-02  0.6589861E+03  0.7818609E-02  0.9790062E-01
        1   -1    0    0  501    0  0.00000000000E+00  0.00000000000E+00  0.83565202562E+03  0.83565202563E+03  0.50400001928E-02 0. -1.
       -1   -1    0    0    0  501  0.00000000000E+00  0.00000000000E+00 -0.12991729964E+03  0.12991729974E+03  0.50400001928E-02 0.  1.
    10030    2    1    2    0    0  0.00000000000E+00  0.00000000000E+00  0.70573472598E+03  0.96556932537E+03  0.65898605345E+03 0.  0.
        1    1    3    3  502    0 -0.17412867514E+02  0.69171916608E+02  0.82420335566E+03  0.82728419151E+03  0.50400001928E-02 0. -1.
       -1    1    3    3    0  502  0.17412867514E+02 -0.69171916608E+02 -0.11846862969E+03  0.13828513386E+03  0.50400001928E-02 0.  1.
</event>
<event>
 5   0  0.2751729E-02  0.7090090E+03  0.7818609E-02  0.9701948E-01
        1   -1    0    0  501    0  0.00000000000E+00  0.00000000000E+00  0.42693925257E+03  0.42693925260E+03  0.50400001928E-02 0.  1.
       -1   -1    0    0    0  501  0.00000000000E+00  0.00000000000E+00 -0.29435905013E+03  0.29435905017E+03  0.50400001928E-02 0. -1.
    10030    2    1    2    0    0  0.00000000000E+00  0.00000000000E+00  0.13258020244E+03  0.72129830277E+03  0.70900897843E+03 0.  0.
        1    1    3    3  502    0 -0.56667917323E+02 -0.34145486411E+03 -0.11658833146E+02  0.34632153484E+03  0.50400001928E-02 0. -1.
       -1    1    3    3    0  502  0.56667917323E+02  0.34145486411E+03  0.14423903559E+03  0.37497676793E+03  0.50400001928E-02 0.  1.
</event>
<event>
 5   0  0.2777999E-02  0.7106814E+03  0.7818609E-02  0.9699138E-01
       -1   -1    0    0    0  501  0.00000000000E+00  0.00000000000E+00  0.42783648992E+03  0.42783648995E+03  0.50400001928E-02 0.  1.
        1   -1    0    0  501    0  0.00000000000E+00  0.00000000000E+00 -0.29512912301E+03  0.29512912305E+03  0.50400001928E-02 0. -1.
    10030    2    1    2    0    0  0.00000000000E+00  0.00000000000E+00  0.13270736691E+03  0.72296561300E+03  0.71068138596E+03 0.  0.
        5    1    3    3  502    0 -0.11259477592E+03  0.32354906216E+03 -0.29526932598E+02  0.34388298728E+03  0.46999998093E+01 0. -1.
       -5    1    3    3    0  502  0.11259477592E+03 -0.32354906216E+03  0.16223429951E+03  0.37908262572E+03  0.46999998093E+01 0.  1.
</event>
<event>
 5   0  0.2758681E-02  0.6955255E+03  0.7818609E-02  0.9724915E-01
       -1   -1    0    0    0  501  0.00000000000E+00  0.00000000000E+00  0.15147500004E+03  0.15147500013E+03  0.50400001928E-02 0.  1.
        1   -1    0    0  501    0  0.00000000000E+00  0.00000000000E+00 -0.79840844650E+03  0.79840844651E+03  0.50400001928E-02 0. -1.
    10030    2    1    2    0    0  0.00000000000E+00  0.00000000000E+00 -0.64693344646E+03  0.94988344664E+03  0.69552546902E+03 0.  0.
        3    1    3    3  502    0 -0.20575880989E+03  0.18360780490E+03 -0.34109720483E+02  0.27787046821E+03  0.10100000352E+00 0.  1.
       -3    1    3    3    0  502  0.20575880989E+03 -0.18360780490E+03 -0.61282372597E+03  0.67201297843E+03  0.10100000352E+00 0. -1.
</event>
<event>
 5   0  0.2750139E-02  0.7016990E+03  0.7818609E-02  0.9714331E-01
       -1   -1    0    0    0  501  0.00000000000E+00  0.00000000000E+00  0.75617086043E+03  0.75617086045E+03  0.50400001928E-02 0.  1.
        1   -1    0    0  501    0  0.00000000000E+00  0.00000000000E+00 -0.16278775625E+03  0.16278775632E+03  0.50400001928E-02 0. -1.
    10030    2    1    2    0    0  0.00000000000E+00  0.00000000000E+00  0.59338310418E+03  0.91895861677E+03  0.70169896039E+03 0.  0.
        2    1    3    3  502    0  0.17879271967E+03  0.21721959398E+03  0.57122530692E+03  0.63674919701E+03  0.25500000920E-02 0.  1.
       -2    1    3    3    0  502 -0.17879271967E+03 -0.21721959398E+03  0.22157797266E+02  0.28220941977E+03  0.25500000920E-02 0. -1.
</event>
<event>
 5   0  0.2750139E-02  0.6898731E+03  0.7818609E-02  0.9734709E-01
       -1   -1    0    0    0  501  0.00000000000E+00  0.00000000000E+00  0.33440342308E+03  0.33440342312E+03  0.50400001928E-02 0. -1.
        1   -1    0    0  501    0  0.00000000000E+00  0.00000000000E+00 -0.35580147942E+03  0.35580147945E+03  0.50400001928E-02 0.  1.
    10030    2    1    2    0    0  0.00000000000E+00  0.00000000000E+00 -0.21398056339E+02  0.69020490257E+03  0.68987312654E+03 0.  0.
        2    1    3    3  502    0 -0.12725835859E+03  0.17860428324E+03  0.25567524181E+03  0.33684419114E+03  0.25500000920E-02 0. -1.
       -2    1    3    3    0  502  0.12725835859E+03 -0.17860428324E+03 -0.27707329815E+03  0.35336071143E+03  0.25500000920E-02 0.  1.
</event>
<event>
 5   0  0.2750139E-02  0.7011090E+03  0.7818609E-02  0.9715338E-01
        1   -1    0    0  501    0  0.00000000000E+00  0.00000000000E+00  0.47009095732E+03  0.47009095735E+03  0.50400001928E-02 0.  1.
       -1   -1    0    0    0  501  0.00000000000E+00  0.00000000000E+00 -0.26141421143E+03  0.26141421148E+03  0.50400001928E-02 0. -1.
    10030    2    1    2    0    0  0.00000000000E+00  0.00000000000E+00  0.20867674589E+03  0.73150516882E+03  0.70110899847E+03 0.  0.
        2    1    3    3  502    0 -0.74223281091E+02  0.10389575482E+03 -0.23628933426E+03  0.26858159434E+03  0.25500000920E-02 0. -1.
       -2    1    3    3    0  502  0.74223281091E+02 -0.10389575482E+03  0.44496608015E+03  0.46292357449E+03  0.25500000920E-02 0.  1.
</event>
<event>
 5   0  0.4420645E-02  0.7014465E+03  0.7818609E-02  0.9714762E-01
        2   -1    0    0  501    0  0.00000000000E+00  0.00000000000E+00  0.97856721906E+03  0.97856721906E+03  0.25500000920E-02 0.  1.
       -2   -1    0    0    0  501  0.00000000000E+00  0.00000000000E+00 -0.12570091177E+03  0.12570091180E+03  0.25500000920E-02 0. -1.
    10030    2    1    2    0    0  0.00000000000E+00  0.00000000000E+00  0.85286630728E+03  0.11042681309E+04  0.70144648173E+03 0.  0.
        5    1    3    3  502    0  0.88753391431E+02 -0.26948270015E+03  0.75092668608E+03  0.80275218345E+03  0.46999998093E+01 0.  1.
       -5    1    3    3    0  502 -0.88753391431E+02  0.26948270015E+03  0.10193962121E+03  0.30151594741E+03  0.46999998093E+01 0. -1.
</event>
<event>
 5   0  0.2751729E-02  0.7198388E+03  0.7818609E-02  0.9683894E-01
        1   -1    0    0  501    0  0.00000000000E+00  0.00000000000E+00  0.14277751597E+03  0.14277751606E+03  0.50400001928E-02 0.  1.
       -1   -1    0    0    0  501  0.00000000000E+00  0.00000000000E+00 -0.90729947597E+03  0.90729947599E+03  0.50400001928E-02 0. -1.
    10030    2    1    2    0    0  0.00000000000E+00  0.00000000000E+00 -0.76452196000E+03  0.10500769920E+04  0.71983877494E+03 0.  0.
        1    1    3    3  502    0 -0.34709842992E+03  0.83077858659E+02 -0.31442102790E+03  0.47564675281E+03  0.50400001928E-02 0.  1.
       -1    1    3    3    0  502  0.34709842992E+03 -0.83077858659E+02 -0.45010093210E+03  0.57443023924E+03  0.50400001928E-02 0. -1.
</event>
<event>
 5   0  0.2777999E-02  0.6858504E+03  0.7818609E-02  0.9741741E-01
        1   -1    0    0  501    0  0.00000000000E+00  0.00000000000E+00  0.60639713433E+03  0.60639713436E+03  0.50400001928E-02 0. -1.
       -1   -1    0    0    0  501  0.00000000000E+00  0.00000000000E+00 -0.19392850559E+03  0.19392850566E+03  0.50400001928E-02 0.  1.
    10030    2    1    2    0    0  0.00000000000E+00  0.00000000000E+00  0.41246862874E+03  0.80032564001E+03  0.68585039211E+03 0.  0.
        5    1    3    3  502    0  0.19835395125E+03  0.84570780249E+02 -0.10487160809E+03  0.23982629345E+03  0.46999998093E+01 0.  1.
       -5    1    3    3    0  502 -0.19835395125E+03 -0.84570780249E+02  0.51734023684E+03  0.56049934656E+03  0.46999998093E+01 0. -1.
</event>
<event>
 5   0  0.4299912E-02  0.6065663E+03  0.7818609E-02  0.9891876E-01
       -2   -1    0    0    0  501  0.00000000000E+00  0.00000000000E+00  0.11030538339E+03  0.11030538342E+03  0.25500000920E-02 0.  1.
        2   -1    0    0  501    0  0.00000000000E+00  0.00000000000E+00 -0.83387294280E+03  0.83387294280E+03  0.25500000920E-02 0. -1.
    10030    2    1    2    0    0  0.00000000000E+00  0.00000000000E+00 -0.72356755940E+03  0.94417832623E+03  0.60656631846E+03 0.  0.
        3    1    3    3  502    0 -0.50589801452E+02 -0.12476924033E+03 -0.78480550081E+03  0.79627029057E+03  0.10100000352E+00 0. -1.
       -3    1    3    3    0  502  0.50589801452E+02  0.12476924033E+03  0.61237941408E+02  0.14790803565E+03  0.10100000352E+00 0.  1.
</event>
<event>
 5   0  0.2684924E-02  0.7031442E+03  0.7818609E-02  0.9711870E-01
        1   -1    0    0  501    0  0.00000000000E+00  0.00000000000E+00  0.36442934999E+03  0.36442935002E+03  0.50400001928E-02 0. -1.
       -1   -1    0    0    0  501  0.00000000000E+00  0.00000000000E+00 -0.33916850808E+03  0.33916850812E+03  0.50400001928E-02 0.  1.
    10030    2    1    2    0    0  0.00000000000E+00  0.00000000000E+00  0.25260841912E+02  0.70359785814E+03  0.70314424967E+03 0.  0.
        4    1    3    3  502    0  0.21247563439E+03  0.25076497033E+03  0.13750026888E+03  0.35628205455E+03  0.12699999809E+01 0. -1.
       -4    1    3    3    0  502 -0.21247563439E+03 -0.25076497033E+03 -0.11223942697E+03  0.34731580359E+03  0.12699999809E+01 0.  1.
</event>
<event>
 5   0  0.4365492E-02  0.7092179E+03  0.7818609E-02  0.9701597E-01
        2   -1    0    0  501    0  0.00000000000E+00  0.00000000000E+00  0.34683982488E+03  0.34683982489E+03  0.25500000920E-02 0. -1.
       -2   -1    0    0    0  501  0.00000000000E+00  0.00000000000E+00 -0.36255210857E+03  0.36255210858E+03  0.25500000920E-02 0.  1.
    10030    2    1    2    0    0  0.00000000000E+00  0.00000000000E+00 -0.15712283688E+02  0.70939193346E+03  0.70921790686E+03 0.  0.
        4    1    3    3  502    0  0.24208079285E+03 -0.23220310552E+02 -0.26599620851E+03  0.36041349715E+03  0.12699999809E+01 0.  1.
       -4    1    3    3    0  502 -0.24208079285E+03  0.23220310552E+02  0.25028392482E+03  0.34897843631E+03  0.12699999809E+01 0. -1.
</event>
<event>
 5   0  0.4526837E-02  0.6931710E+03  0.7818609E-02  0.9728982E-01
        2   -1    0    0  501    0  0.00000000000E+00  0.00000000000E+00  0.44061508550E+03  0.44061508551E+03  0.25500000920E-02 0. -1.
       -2   -1    0    0    0  501  0.00000000000E+00  0.00000000000E+00 -0.27262232952E+03  0.27262232953E+03  0.25500000920E-02 0.  1.
    10030    2    1    2    0    0  0.00000000000E+00  0.00000000000E+00  0.16799275599E+03  0.71323741504E+03  0.69317100642E+03 0.  0.
        1    1    3    3  502    0 -0.25486743866E+02 -0.34561235451E+03  0.78951662950E+02  0.35543049786E+03  0.50400001928E-02 0.  1.
       -1    1    3    3    0  502  0.25486743866E+02  0.34561235451E+03  0.89041093036E+02  0.35780691718E+03  0.50400001928E-02 0. -1.
</event>
<event>
 5   0  0.2758681E-02  0.6586082E+03  0.7818609E-02  0.9790759E-01
       -1   -1    0    0    0  501  0.00000000000E+00  0.00000000000E+00  0.14813103417E+03  0.14813103425E+03  0.50400001928E-02 0.  1.
        1   -1    0    0  501    0  0.00000000000E+00  0.00000000000E+00 -0.73206253785E+03  0.73206253787E+03  0.50400001928E-02 0. -1.
    10030    2    1    2    0    0  0.00000000000E+00  0.00000000000E+00 -0.58393150368E+03  0.88019357212E+03  0.65860817138E+03 0.  0.
        3    1    3    3  502    0 -0.11625400832E+03 -0.16066076671E+03  0.59380250750E+02  0.20700942198E+03  0.10100000352E+00 0.  1.
       -3    1    3    3    0  502  0.11625400832E+03  0.16066076671E+03 -0.64331175443E+03  0.67318415014E+03  0.10100000352E+00 0. -1.
</event>
<event>
 5   0  0.4299912E-02  0.6999755E+03  0.7818609E-02  0.9717274E-01
        2   -1    0    0  501    0  0.00000000000E+00  0.00000000000E+00  0.58098712615E+03  0.58098712616E+03  0.25500000920E-02 0.  1.
       -2   -1    0    0    0  501  0.00000000000E+00  0.00000000000E+00 -0.21083330269E+03  0.21083330270E+03  0.25500000920E-02 0. -1.
    10030    2    1    2    0    0  0.00000000000E+00  0.00000000000E+00  0.37015382346E+03  0.79182042886E+03  0.69997552710E+03 0.  0.
        3    1    3    3  502    0 -0.98738043338E+02 -0.18259295349E+03  0.50383386484E+03  0.54492014225E+03  0.10100000352E+00 0.  1.
       -3    1    3    3    0  502  0.98738043338E+02  0.18259295349E+03 -0.13368004138E+03  0.24690028661E+03  0.10100000352E+00 0. -1.
</event>
<event>
 5   0  0.2684924E-02  0.6999775E+03  0.7818609E-02  0.9717271E-01
       -1   -1    0    0    0  501  0.00000000000E+00  0.00000000000E+00  0.86921548184E+02  0.86921548330E+02  0.50400001928E-02 0.  1.
        1   -1    0    0  501    0  0.00000000000E+00  0.00000000000E+00 -0.14092261901E+04  0.14092261901E+04  0.50400001928E-02 0. -1.
    10030    2    1    2    0    0  0.00000000000E+00  0.00000000000E+00 -0.13223046419E+04  0.14961477384E+04  0.69997749192E+03 0.  0.
        4    1    3    3  502    0  0.26271076914E+03 -0.22803201169E+03 -0.57906408137E+03  0.67552377442E+03  0.12699999809E+01 0.  1.
       -4    1    3    3    0  502 -0.26271076914E+03  0.22803201169E+03 -0.74324056051E+03  0.82062396399E+03  0.12699999809E+01 0. -1.
</event>
<event>
 5   0  0.4503289E-02  0.6999173E+03  0.7818609E-02  0.9717374E-01
        2   -1    0    0  501    0  0.00000000000E+00  0.00000000000E+00  0.13326723326E+03  0.13326723328E+03  0.25500000920E-02 0. -1.
       -2   -1    0    0    0  501  0.00000000000E+00  0.00000000000E+00 -0.91898847263E+03  0.91898847263E+03  0.25500000920E-02 0.  1.
    10030    2    1    2    0    0  0.00000000000E+00  0.00000000000E+00 -0.78572123937E+03  0.10522557059E+04  0.69991728413E+03 0.  0.
        2    1    3    3  502    0  0.55268166326E+02 -0.14535946122E+03 -0.86418819513E+03  0.87806900628E+03  0.25500000920E-02 0.  1.
       -2    1    3    3    0  502 -0.55268166326E+02  0.14535946122E+03  0.78466955760E+02  0.17418669963E+03  0.25500000920E-02 0. -1.
</event>
<event>
 5   0  0.2684924E-02  0.7449150E+03  0.7818609E-02  0.9643362E-01
        1   -1    0    0  501    0  0.00000000000E+00  0.00000000000E+00  0.17245381328E+03  0.17245381336E+03  0.50400001928E-02 0.  1.
       -1   -1    0    0    0  501  0.00000000000E+00  0.00000000000E+00 -0.80441579624E+03  0.80441579625E+03  0.50400001928E-02 0. -1.
    10030    2    1    2    0    0  0.00000000000E+00  0.00000000000E+00 -0.63196198296E+03  0.97686960961E+03  0.74491495238E+03 0.  0.
        4    1    3    3  502    0  0.25573716816E+03  0.19334580863E+03 -0.67374741771E+02  0.32760505128E+03  0.12699999809E+01 0.  1.
       -4    1    3    3    0  502 -0.25573716816E+03 -0.19334580863E+03 -0.56458724119E+03  0.64926455833E+03  0.12699999809E+01 0. -1.
</event>
<event>
 5   0  0.2684924E-02  0.6713238E+03  0.7818609E-02  0.9767569E-01
        1   -1    0    0  501    0  0.00000000000E+00  0.00000000000E+00  0.12542303095E+04  0.12542303095E+04  0.50400001928E-02 0.  1.
       -1   -1    0    0    0  501  0.00000000000E+00  0.00000000000E+00 -0.89831116656E+02  0.89831116797E+02  0.50400001928E-02 0. -1.
    10030    2    1    2    0    0  0.00000000000E+00  0.00000000000E+00  0.11643991928E+04  0.13440614263E+04  0.67132379475E+03 0.  0.
        4    1    3    3  502    0 -0.10252397715E+03 -0.84540292806E+02  0.11993195782E+04  0.12066595587E+04  0.12699999809E+01 0.  1.
       -4    1    3    3    0  502  0.10252397715E+03  0.84540292806E+02 -0.34920385402E+02  0.13740186758E+03  0.12699999809E+01 0. -1.
</event>
<event>
 5   0  0.2750139E-02  0.6883278E+03  0.7818609E-02  0.9737404E-01
        1   -1    0    0  501    0  0.00000000000E+00  0.00000000000E+00  0.49628597108E+03  0.49628597110E+03  0.50400001928E-02 0. -1.
       -1   -1    0    0    0  501  0.00000000000E+00  0.00000000000E+00 -0.23867041040E+03  0.23867041045E+03  0.50400001928E-02 0.  1.
    10030    2    1    2    0    0  0.00000000000E+00  0.00000000000E+00  0.25761556068E+03  0.73495638155E+03  0.68832776036E+03 0.  0.
        2    1    3    3  502    0  0.26529472726E+03 -0.15639696594E+03  0.29286337005E+03  0.42498265470E+03  0.25500000920E-02 0. -1.
       -2    1    3    3    0  502 -0.26529472726E+03  0.15639696594E+03 -0.35247809374E+02  0.30997372686E+03  0.25500000920E-02 0.  1.
</event>
<event>
 5   0  0.4503289E-02  0.6962834E+03  0.7818609E-02  0.9723609E-01
        2   -1    0    0  501    0  0.00000000000E+00  0.00000000000E+00  0.45285902948E+03  0.45285902948E+03  0.25500000920E-02 0.  1.
       -2   -1    0    0    0  501  0.00000000000E+00  0.00000000000E+00 -0.26763876434E+03  0.26763876435E+03  0.25500000920E-02 0. -1.
    10030    2    1    2    0    0  0.00000000000E+00  0.00000000000E+00  0.18522026514E+03  0.72049779384E+03  0.69628336495E+03 0.  0.
        2    1    3    3  502    0 -0.39539434789E+02  0.21102278153E+03 -0.19098032507E+03  0.28734555120E+03  0.25500000920E-02 0. -1.
       -2    1    3    3    0  502  0.39539434789E+02 -0.21102278153E+03  0.37620059020E+03  0.43315224264E+03  0.25500000920E-02 0.  1.
</event>
<event>
 5   0  0.4526837E-02  0.7064929E+03  0.7818609E-02  0.9706192E-01
        2   -1    0    0  501    0  0.00000000000E+00  0.00000000000E+00  0.61759185532E+03  0.61759185533E+03  0.25500000920E-02 0. -1.
       -2   -1    0    0    0  501  0.00000000000E+00  0.00000000000E+00 -0.20204779054E+03  0.20204779056E+03  0.25500000920E-02 0.  1.
    10030    2    1    2    0    0  0.00000000000E+00  0.00000000000E+00  0.41554406478E+03  0.81963964589E+03  0.70649294359E+03 0.  0.
        1    1    3    3  502    0 -0.12882469784E+03 -0.32714401186E+03  0.16818952645E+03  0.38975213162E+03  0.50400001928E-02 0. -1.
       -1    1    3    3    0  502  0.12882469784E+03  0.32714401186E+03  0.24735453833E+03  0.42988751427E+03  0.50400001928E-02 0.  1.
</event>
<event>
 5   0  0.4420645E-02  0.6768726E+03  0.7818609E-02  0.9757622E-01
       -2   -1    0    0    0  501  0.00000000000E+00  0.00000000000E+00  0.26771744132E+03  0.26771744133E+03  0.25500000920E-02 0.  1.
        2   -1    0    0  501    0  0.00000000000E+00  0.00000000000E+00 -0.42783587843E+03  0.42783587844E+03  0.25500000920E-02 0. -1.
    10030    2    1    2    0    0  0.00000000000E+00  0.00000000000E+00 -0.16011843711E+03  0.69555331977E+03  0.67687259269E+03 0.  0.
        5    1    3    3  502    0  0.65172027704E+02 -0.31827728198E+03 -0.17737890971E+03  0.37017994142E+03  0.46999998093E+01 0. -1.
       -5    1    3    3    0  502 -0.65172027704E+02  0.31827728198E+03  0.17260472606E+02  0.32537337834E+03  0.46999998093E+01 0.  1.
</event>
<event>
 5   0  0.4526837E-02  0.6339795E+03  0.7818609E-02  0.9837314E-01
       -2   -1    0    0    0  501  0.00000000000E+00  0.00000000000E+00  0.51644107035E+03  0.51644107036E+03  0.25500000920E-02 0. -1.
        2   -1    0    0  501    0  0.00000000000E+00  0.00000000000E+00 -0.19456720126E+03  0.19456720128E+03  0.25500000920E-02 0.  1.
    10030    2    1    2    0    0  0.00000000000E+00  0.00000000000E+00  0.32187386909E+03  0.71100827164E+03  0.63397947501E+03 0.  0.
        1    1    3    3  502    0 -0.17384768577E+03 -0.11474751680E+03  0.42890862855E+03  0.47681508169E+03  0.50400001928E-02 0. -1.
       -1    1    3    3    0  502  0.17384768577E+03  0.11474751680E+03 -0.10703475947E+03  0.23419318995E+03  0.50400001928E-02 0.  1.
</event>
<event>
 5   0  0.2751729E-02  0.6965260E+03  0.7818609E-02  0.9723192E-01
        1   -1    0    0  501    0  0.00000000000E+00  0.00000000000E+00  0.49473583130E+03  0.49473583132E+03  0.50400001928E-02 0. -1.
       -1   -1    0    0    0  501  0.00000000000E+00  0.00000000000E+00 -0.24515530804E+03  0.24515530809E+03  0.50400001928E-02 0.  1.
    10030    2    1    2    0    0  0.00000000000E+00  0.00000000000E+00  0.24958052326E+03  0.73989113941E+03  0.69652599420E+03 0.  0.
        1    1    3    3  502    0 -0.25330087808E+03  0.20905857539E+03  0.17317987934E+01  0.32843541516E+03  0.50400001928E-02 0. -1.
       -1    1    3    3    0  502  0.25330087808E+03 -0.20905857539E+03  0.24784872447E+03  0.41145572426E+03  0.50400001928E-02 0.  1.
</event>
<event>
 5   0  0.4420645E-02  0.7056540E+03  0.7818609E-02  0.9707612E-01
        2   -1    0    0  501    0  0.00000000000E+00  0.00000000000E+00  0.44281675856E+03  0.44281675857E+03  0.25500000920E-02 0.  1.
       -2   -1    0    0    0  501  0.00000000000E+00  0.00000000000E+00 -0.28112507775E+03  0.28112507776E+03  0.25500000920E-02 0. -1.
    10030    2    1    2    0    0  0.00000000000E+00  0.00000000000E+00  0.16169168081E+03  0.72394183633E+03  0.70565401065E+03 0.  0.
        5    1    3    3  502    0  0.34329785167E+03 -0.11878987053E+02  0.16336853712E+03  0.38040227945E+03  0.46999998093E+01 0.  1.
       -5    1    3    3    0  502 -0.34329785167E+03  0.11878987053E+02 -0.16768563029E+01  0.34353955688E+03  0.46999998093E+01 0. -1.
</event>
<event>
 5   0  0.1784625E-02  0.8451614E+03  0.7818609E-02  0.9496854E-01
       -3   -1    0    0    0  501  0.00000000000E+00  0.00000000000E+00  0.48333414275E+03  0.48333415330E+03  0.10100000352E+00 0.  1.
        3   -1    0    0  501    0  0.00000000000E+00  0.00000000000E+00 -0.36946371277E+03  0.36946372657E+03  0.10100000352E+00 0. -1.
    10030    2    1    2    0    0  0.00000000000E+00  0.00000000000E+00  0.11387042998E+03  0.85279787987E+03  0.84516137458E+03 0.  0.
        2    1    3    3  502    0  0.31970577813E+03 -0.15024286158E+03 -0.17708650908E+03  0.39515102648E+03  0.25500000920E-02 0. -1.
       -2    1    3    3    0  502 -0.31970577813E+03  0.15024286158E+03  0.29095693906E+03  0.45764685339E+03  0.25500000920E-02 0.  1.
</event>
<event>
 5   0  0.4365492E-02  0.7044364E+03  0.7818609E-02  0.9709675E-01
       -2   -1    0    0    0  501  0.00000000000E+00  0.00000000000E+00  0.22138111556E+03  0.22138111557E+03  0.25500000920E-02 0.  1.
        2   -1    0    0  501    0  0.00000000000E+00  0.00000000000E+00 -0.56038045078E+03  0.56038045079E+03  0.25500000920E-02 0. -1.
    10030    2    1    2    0    0  0.00000000000E+00  0.00000000000E+00 -0.33899933523E+03  0.78176156636E+03  0.70443636856E+03 0.  0.
        4    1    3    3  502    0 -0.15128578778E+03 -0.22138752197E+03  0.83946405535E+02  0.28097764390E+03  0.12699999809E+01 0.  1.
       -4    1    3    3    0  502  0.15128578778E+03  0.22138752197E+03 -0.42294574076E+03  0.50078392246E+03  0.12699999809E+01 0. -1.
</event>
<event>
 5   0  0.4365492E-02  0.6982784E+03  0.7818609E-02  0.9720181E-01
        2   -1    0    0  501    0  0.00000000000E+00  0.00000000000E+00  0.55023015120E+03  0.55023015121E+03  0.25500000920E-02 0.  1.
       -2   -1    0    0    0  501  0.00000000000E+00  0.00000000000E+00 -0.22154033410E+03  0.22154033411E+03  0.25500000920E-02 0. -1.
    10030    2    1    2    0    0  0.00000000000E+00  0.00000000000E+00  0.32868981710E+03  0.77177048532E+03  0.69827837296E+03 0.  0.
        4    1    3    3  502    0 -0.25516940913E+03 -0.16024854326E+03  0.35927478923E+03  0.46890405207E+03  0.12699999809E+01 0.  1.
       -4    1    3    3    0  502  0.25516940913E+03  0.16024854326E+03 -0.30584972124E+02  0.30286643325E+03  0.12699999809E+01 0. -1.
</event>
<event>
 5   0  0.1784625E-02  0.7106411E+03  0.7818609E-02  0.9699206E-01
       -4   -1    0    0    0  501  0.00000000000E+00  0.00000000000E+00  0.53888749470E+03  0.53888899120E+03  0.12699999809E+01 0.  1.
        4   -1    0    0  501    0  0.00000000000E+00  0.00000000000E+00 -0.23428038204E+03  0.23428382426E+03  0.12699999809E+01 0. -1.
    10030    2    1    2    0    0  0.00000000000E+00  0.00000000000E+00  0.30460711266E+03  0.77317281546E+03  0.71064105531E+03 0.  0.
        3    1    3    3  502    0  0.22896782216E+03 -0.26384941390E+03  0.22289656225E+03  0.41439795423E+03  0.10100000352E+00 0.  1.
       -3    1    3    3    0  502 -0.22896782216E+03  0.26384941390E+03  0.81710550401E+02  0.35877486123E+03  0.10100000352E+00 0. -1.
</event>
<event>
 5   0  0.1784625E-02  0.7068143E+03  0.7818609E-02  0.9705649E-01
       -3   -1    0    0    0  501  0.00000000000E+00  0.00000000000E+00  0.92242136198E+03  0.92242136751E+03  0.10100000352E+00 0. -1.
        3   -1    0    0  501    0  0.00000000000E+00  0.00000000000E+00 -0.13540080159E+03  0.13540083926E+03  0.10100000352E+00 0.  1.
    10030    2    1    2    0    0  0.00000000000E+00  0.00000000000E+00  0.78702056039E+03  0.10578222068E+04  0.70681430281E+03 0.  0.
        3    1    3    3  502    0 -0.17199342851E+03 -0.96231817742E+02  0.83253972109E+03  0.85554935543E+03  0.10100000352E+00 0. -1.
       -3    1    3    3    0  502  0.17199342851E+03  0.96231817742E+02 -0.45519160696E+02  0.20227285133E+03  0.10100000352E+00 0.  1.
</event>
<event>
 5   0  0.2751729E-02  0.7117982E+03  0.7818609E-02  0.9697266E-01
       -1   -1    0    0    0  501  0.00000000000E+00  0.00000000000E+00  0.36372067273E+03  0.36372067276E+03  0.50400001928E-02 0.  1.
        1   -1    0    0  501    0  0.00000000000E+00  0.00000000000E+00 -0.34824572474E+03  0.34824572478E+03  0.50400001928E-02 0. -1.
    10030    2    1    2    0    0  0.00000000000E+00  0.00000000000E+00  0.15474947986E+02  0.71196639754E+03  0.71179819978E+03 0.  0.
        1    1    3    3  502    0  0.31085462930E+03 -0.10623355660E+03  0.14469316579E+03  0.35895999966E+03  0.50400001928E-02 0. -1.
       -1    1    3    3    0  502 -0.31085462930E+03  0.10623355660E+03 -0.12921821780E+03  0.35300639788E+03  0.50400001928E-02 0.  1.
</event>
<event>
 5   0  0.2777999E-02  0.7016925E+03  0.7818609E-02  0.9714342E-01
        1   -1    0    0  501    0  0.00000000000E+00  0.00000000000E+00  0.19234697622E+03  0.19234697628E+03  0.50400001928E-02 0.  1.
       -1   -1    0    0    0  501  0.00000000000E+00  0.00000000000E+00 -0.63995332423E+03  0.63995332425E+03  0.50400001928E-02 0. -1.
    10030    2    1    2    0    0  0.00000000000E+00  0.00000000000E+00 -0.44760634801E+03  0.83230030053E+03  0.70169248784E+03 0.  0.
        5    1    3    3  502    0 -0.16320877982E+03  0.41737935107E+02 -0.58880034017E+03  0.61244354158E+03  0.46999998093E+01 0. -1.
       -5    1    3    3    0  502  0.16320877982E+03 -0.41737935107E+02  0.14119399216E+03  0.21985675895E+03  0.46999998093E+01 0.  1.
</event>
<event>
 5   0  0.4365492E-02  0.6890459E+03  0.7818609E-02  0.9736151E-01
        2   -1    0    0  501    0  0.00000000000E+00  0.00000000000E+00  0.43991533536E+03  0.43991533537E+03  0.25500000920E-02 0.  1.
       -2   -1    0    0    0  501  0.00000000000E+00  0.00000000000E+00 -0.26981571177E+03  0.26981571178E+03  0.25500000920E-02 0. -1.
    10030    2    1    2    0    0  0.00000000000E+00  0.00000000000E+00  0.17009962359E+03  0.70973104714E+03  0.68904591816E+03 0.  0.
        4    1    3    3  502    0  0.20173943092E+03  0.26648055297E+03  0.17112752232E+03  0.37549557240E+03  0.12699999809E+01 0.  1.
       -4    1    3    3    0  502 -0.20173943092E+03 -0.26648055297E+03 -0.10278987299E+01  0.33423547474E+03  0.12699999809E+01 0. -1.
</event>
<event>
 5   0  0.4420645E-02  0.6991809E+03  0.7818609E-02  0.9718634E-01
        2   -1    0    0  501    0  0.00000000000E+00  0.00000000000E+00  0.25141983017E+03  0.25141983019E+03  0.25500000920E-02 0. -1.
       -2   -1    0    0    0  501  0.00000000000E+00  0.00000000000E+00 -0.48609328181E+03  0.48609328182E+03  0.25500000920E-02 0.  1.
    10030    2    1    2    0    0  0.00000000000E+00  0.00000000000E+00 -0.23467345164E+03  0.73751311201E+03  0.69918092185E+03 0.  0.
        5    1    3    3  502    0  0.12772142711E+03  0.14093679419E+03 -0.42669976685E+03  0.46719452472E+03  0.46999998093E+01 0.  1.
       -5    1    3    3    0  502 -0.12772142711E+03 -0.14093679419E+03  0.19202631522E+03  0.27031858729E+03  0.46999998093E+01 0. -1.
</event>
<event>
 5   0  0.4526837E-02  0.7476041E+03  0.7818609E-02  0.9639117E-01
        2   -1    0    0  501    0  0.00000000000E+00  0.00000000000E+00  0.23571132713E+03  0.23571132714E+03  0.25500000920E-02 0.  1.
       -2   -1    0    0    0  501  0.00000000000E+00  0.00000000000E+00 -0.59279280983E+03  0.59279280984E+03  0.25500000920E-02 0. -1.
    10030    2    1    2    0    0  0.00000000000E+00  0.00000000000E+00 -0.35708148270E+03  0.82850413698E+03  0.74760411964E+03 0.  0.
        1    1    3    3  502    0  0.37223395168E+03  0.26834500170E+02 -0.15503789210E+03  0.40412244827E+03  0.50400001928E-02 0.  1.
       -1    1    3    3    0  502 -0.37223395168E+03 -0.26834500170E+02 -0.20204359060E+03  0.42438168871E+03  0.50400001928E-02 0. -1.
</event>
<event>
 5   0  0.4526837E-02  0.7289979E+03  0.7818609E-02  0.9668888E-01
       -2   -1    0    0    0  501  0.00000000000E+00  0.00000000000E+00  0.77042104114E+02  0.77042104156E+02  0.25500000920E-02 0.  1.
        2   -1    0    0  501    0  0.00000000000E+00  0.00000000000E+00 -0.17245047451E+04  0.17245047451E+04  0.25500000920E-02 0. -1.
    10030    2    1    2    0    0  0.00000000000E+00  0.00000000000E+00 -0.16474626410E+04  0.18015468492E+04  0.72899787148E+03 0.  0.
        1    1    3    3  502    0  0.39178382437E+01  0.12085467623E+03  0.26032696430E+02  0.12368873648E+03  0.50400001928E-02 0.  1.
       -1    1    3    3    0  502 -0.39178382437E+01 -0.12085467623E+03 -0.16734953374E+04  0.16778581127E+04  0.50400001928E-02 0. -1.
</event>
<event>
 5   0  0.2777999E-02  0.7002234E+03  0.7818609E-02  0.9716850E-01
        1   -1    0    0  501    0  0.00000000000E+00  0.00000000000E+00  0.94248181868E+02  0.94248182003E+02  0.50400001928E-02 0.  1.
       -1   -1    0    0    0  501  0.00000000000E+00  0.00000000000E+00 -0.13005896383E+04  0.13005896383E+04  0.50400001928E-02 0. -1.
    10030    2    1    2    0    0  0.00000000000E+00  0.00000000000E+00 -0.12063414565E+04  0.13948378203E+04  0.70022341826E+03 0.  0.
        5    1    3    3  502    0  0.11700005774E+03  0.10373023647E+03  0.20761470662E+02  0.15780400544E+03  0.46999998093E+01 0.  1.
       -5    1    3    3    0  502 -0.11700005774E+03 -0.10373023647E+03 -0.12271029271E+04  0.12370338149E+04  0.46999998093E+01 0. -1.
</event>
<event>
 5   0  0.2777999E-02  0.6951400E+03  0.7818609E-02  0.9725580E-01
        1   -1    0    0  501    0  0.00000000000E+00  0.00000000000E+00  0.10536284948E+04  0.10536284948E+04  0.50400001928E-02 0. -1.
       -1   -1    0    0    0  501  0.00000000000E+00  0.00000000000E+00 -0.11465608030E+03  0.11465608041E+03  0.50400001928E-02 0.  1.
    10030    2    1    2    0    0  0.00000000000E+00  0.00000000000E+00  0.93897241449E+03  0.11682845752E+04  0.69514002439E+03 0.  0.
        5    1    3    3  502    0 -0.26233145815E+03  0.16702429128E+03  0.73021895866E+03  0.79369813241E+03  0.46999998093E+01 0.  1.
       -5    1    3    3    0  502  0.26233145815E+03 -0.16702429128E+03  0.20875345583E+03  0.37458644280E+03  0.46999998093E+01 0. -1.
</event>
<event>
 5   0  0.4365492E-02  0.7002784E+03  0.7818609E-02  0.9716756E-01
        2   -1    0    0  501    0  0.00000000000E+00  0.00000000000E+00  0.12969879496E+04  0.12969879496E+04  0.25500000920E-02 0. -1.
       -2   -1    0    0    0  501  0.00000000000E+00  0.00000000000E+00 -0.94524749399E+02  0.94524749433E+02  0.25500000920E-02 0.  1.
    10030    2    1    2    0    0  0.00000000000E+00  0.00000000000E+00  0.12024632002E+04  0.13915126990E+04  0.70027840444E+03 0.  0.
        4    1    3    3  502    0 -0.84361504150E+02 -0.31538678424E+03  0.34980322430E+03  0.47848677692E+03  0.12699999809E+01 0.  1.
       -4    1    3    3    0  502  0.84361504150E+02  0.31538678424E+03  0.85265997587E+03  0.91302592209E+03  0.12699999809E+01 0. -1.
</event>
<event>
 5   0  0.2684924E-02  0.7028275E+03  0.7818609E-02  0.9712409E-01
        1   -1    0    0  501    0  0.00000000000E+00  0.00000000000E+00  0.31566588974E+03  0.31566588978E+03  0.50400001928E-02 0. -1.
       -1   -1    0    0    0  501  0.00000000000E+00  0.00000000000E+00 -0.39120989668E+03  0.39120989672E+03  0.50400001928E-02 0.  1.
    10030    2    1    2    0    0  0.00000000000E+00  0.00000000000E+00 -0.75544006947E+02  0.70687578650E+03  0.70282748989E+03 0.  0.
        4    1    3    3  502    0  0.26783885904E+03  0.18754251485E+03 -0.16727764792E+03  0.36727819658E+03  0.12699999809E+01 0.  1.
       -4    1    3    3    0  502 -0.26783885904E+03 -0.18754251485E+03  0.91733640974E+02  0.33959758991E+03  0.12699999809E+01 0. -1.
</event>
<event>
 5   0  0.4365492E-02  0.6993492E+03  0.7818609E-02  0.9718346E-01
       -2   -1    0    0    0  501  0.00000000000E+00  0.00000000000E+00  0.81594990855E+03  0.81594990856E+03  0.25500000920E-02 0. -1.
        2   -1    0    0  501    0  0.00000000000E+00  0.00000000000E+00 -0.14985273865E+03  0.14985273867E+03  0.25500000920E-02 0.  1.
    10030    2    1    2    0    0  0.00000000000E+00  0.00000000000E+00  0.66609716990E+03  0.96580264723E+03  0.69934920723E+03 0.  0.
        4    1    3    3  502    0 -0.32882228755E+03 -0.33760351741E+01  0.16885899898E+03  0.36966264193E+03  0.12699999809E+01 0.  1.
       -4    1    3    3    0  502  0.32882228755E+03  0.33760351741E+01  0.49723817092E+03  0.59614000530E+03  0.12699999809E+01 0. -1.
</event>
<event>
 5   0  0.2758681E-02  0.6916248E+03  0.7818609E-02  0.9731663E-01
        1   -1    0    0  501    0  0.00000000000E+00  0.00000000000E+00  0.68350775211E+03  0.68350775213E+03  0.50400001928E-02 0.  1.
       -1   -1    0    0    0  501  0.00000000000E+00  0.00000000000E+00 -0.17495956229E+03  0.17495956236E+03  0.50400001928E-02 0. -1.
    10030    2    1    2    0    0  0.00000000000E+00  0.00000000000E+00  0.50854818982E+03  0.85846731450E+03  0.69162480341E+03 0.  0.
        3    1    3    3  502    0 -0.23462016380E+03 -0.25226412377E+03  0.29156064156E+03  0.45132186665E+03  0.10100000352E+00 0.  1.
       -3    1    3    3    0  502  0.23462016380E+03  0.25226412377E+03  0.21698754826E+03  0.40714544785E+03  0.10100000352E+00 0. -1.
</event>
<event>
 5   0  0.2684924E-02  0.6931236E+03  0.7818609E-02  0.9729065E-01
        1   -1    0    0  501    0  0.00000000000E+00  0.00000000000E+00  0.52133958886E+03  0.52133958889E+03  0.50400001928E-02 0.  1.
       -1   -1    0    0    0  501  0.00000000000E+00  0.00000000000E+00 -0.23037782955E+03  0.23037782960E+03  0.50400001928E-02 0. -1.
    10030    2    1    2    0    0  0.00000000000E+00  0.00000000000E+00  0.29096175932E+03  0.75171741849E+03  0.69312360505E+03 0.  0.
        4    1    3    3  502    0  0.33923332257E+03  0.53893525544E+02  0.95548503444E+02  0.35653174984E+03  0.12699999809E+01 0.  1.
       -4    1    3    3    0  502 -0.33923332257E+03 -0.53893525544E+02  0.19541325587E+03  0.39518566865E+03  0.12699999809E+01 0. -1.
</event>
<event>
 5   0  0.2750139E-02  0.6987617E+03  0.7818609E-02  0.9719352E-01
       -1   -1    0    0    0  501  0.00000000000E+00  0.00000000000E+00  0.73428432840E+03  0.73428432841E+03  0.50400001928E-02 0. -1.
        1   -1    0    0  501    0  0.00000000000E+00  0.00000000000E+00 -0.16623941293E+03  0.16623941301E+03  0.50400001928E-02 0.  1.
    10030    2    1    2    0    0  0.00000000000E+00  0.00000000000E+00  0.56804491546E+03  0.90052374142E+03  0.69876174973E+03 0.  0.
        2    1    3    3  502    0  0.45535249028E+02  0.87991451752E+02  0.71580117569E+03  0.72262526777E+03  0.25500000920E-02 0. -1.
       -2    1    3    3    0  502 -0.45535249028E+02 -0.87991451752E+02 -0.14775626023E+03  0.17789847366E+03  0.25500000920E-02 0.  1.
</event>
<event>
 5   0  0.4526837E-02  0.6979319E+03  0.7818609E-02  0.9720775E-01
        2   -1    0    0  501    0  0.00000000000E+00  0.00000000000E+00  0.12072783769E+04  0.12072783769E+04  0.25500000920E-02 0.  1.
       -2   -1    0    0    0  501  0.00000000000E+00  0.00000000000E+00 -0.10086922543E+03  0.10086922546E+03  0.25500000920E-02 0. -1.
    10030    2    1    2    0    0  0.00000000000E+00  0.00000000000E+00  0.11064091515E+04  0.13081476024E+04  0.69793190149E+03 0.  0.
        1    1    3    3  502    0  0.20321414019E+03 -0.28365099264E+03  0.54414512177E+03  0.64641146801E+03  0.50400001928E-02 0. -1.
       -1    1    3    3    0  502 -0.20321414019E+03  0.28365099264E+03  0.56226402972E+03  0.66173613438E+03  0.50400001928E-02 0.  1.
</event>
<event>
 5   0  0.2751729E-02  0.6869710E+03  0.7818609E-02  0.9739777E-01
        1   -1    0    0  501    0  0.00000000000E+00  0.00000000000E+00  0.27391781449E+03  0.27391781454E+03  0.50400001928E-02 0. -1.
       -1   -1    0    0    0  501  0.00000000000E+00  0.00000000000E+00 -0.43072147671E+03  0.43072147674E+03  0.50400001928E-02 0.  1.
    10030    2    1    2    0    0  0.00000000000E+00  0.00000000000E+00 -0.15680366221E+03  0.70463929128E+03  0.68697099089E+03 0.  0.
        1    1    3    3  502    0 -0.18695766053E+03  0.11624380599E+03 -0.34884274536E+03  0.41250097003E+03  0.50400001928E-02 0.  1.
       -1    1    3    3    0  502  0.18695766053E+03 -0.11624380599E+03  0.19203908315E+03  0.29213832125E+03  0.50400001928E-02 0. -1.
</event>
<event>
 5   0  0.4526837E-02  0.7008675E+03  0.7818609E-02  0.9715750E-01
        2   -1    0    0  501    0  0.00000000000E+00  0.00000000000E+00  0.43607454670E+03  0.43607454670E+03  0.25500000920E-02 0.  1.
       -2   -1    0    0    0  501  0.00000000000E+00  0.00000000000E+00 -0.28161195299E+03  0.28161195300E+03  0.25500000920E-02 0. -1.
    10030    2    1    2    0    0  0.00000000000E+00  0.00000000000E+00  0.15446259371E+03  0.71768649970E+03  0.70086747606E+03 0.  0.
        1    1    3    3  502    0  0.10730256670E+03 -0.32093872449E+03  0.17045612158E+03  0.37890737009E+03  0.50400001928E-02 0.  1.
       -1    1    3    3    0  502 -0.10730256670E+03  0.32093872449E+03 -0.15993527872E+02  0.33877912961E+03  0.50400001928E-02 0. -1.
</event>
<event>
 5   0  0.4503289E-02  0.6734529E+03  0.7818609E-02  0.9763740E-01
       -2   -1    0    0    0  501  0.00000000000E+00  0.00000000000E+00  0.34117229565E+03  0.34117229566E+03  0.25500000920E-02 0.  1.
        2   -1    0    0  501    0  0.00000000000E+00  0.00000000000E+00 -0.33233851424E+03  0.33233851424E+03  0.25500000920E-02 0. -1.
    10030    2    1    2    0    0  0.00000000000E+00  0.00000000000E+00  0.88337814151E+01  0.67351080990E+03  0.67345287539E+03 0.  0.
        2    1    3    3  502    0  0.26137005150E+03  0.76375357896E+02  0.20251773840E+03  0.33935369968E+03  0.25500000920E-02 0.  1.
       -2    1    3    3    0  502 -0.26137005150E+03 -0.76375357896E+02 -0.19368395698E+03  0.33415711022E+03  0.25500000920E-02 0. -1.
</event>
<event>
 5   0  0.4365492E-02  0.6990299E+03  0.7818609E-02  0.9718893E-01
       -2   -1    0    0    0  501  0.00000000000E+00  0.00000000000E+00  0.61893617688E+02  0.61893617741E+02  0.25500000920E-02 0. -1.
        2   -1    0    0  501    0  0.00000000000E+00  0.00000000000E+00 -0.19737202297E+04  0.19737202297E+04  0.25500000920E-02 0.  1.
    10030    2    1    2    0    0  0.00000000000E+00  0.00000000000E+00 -0.19118266120E+04  0.20356138474E+04  0.69902985737E+03 0.  0.
        4    1    3    3  502    0 -0.13803424145E+03  0.14723396147E+03 -0.17868845041E+04  0.17982461275E+04  0.12699999809E+01 0.  1.
       -4    1    3    3    0  502  0.13803424145E+03 -0.14723396147E+03 -0.12494210786E+03  0.23736771988E+03  0.12699999809E+01 0. -1.
</event>
<event>
 5   0  0.2750139E-02  0.7088341E+03  0.7818609E-02  0.9702243E-01
        1   -1    0    0  501    0  0.00000000000E+00  0.00000000000E+00  0.20576946888E+03  0.20576946895E+03  0.50400001928E-02 0. -1.
       -1   -1    0    0    0  501  0.00000000000E+00  0.00000000000E+00 -0.61044752055E+03  0.61044752057E+03  0.50400001928E-02 0.  1.
    10030    2    1    2    0    0  0.00000000000E+00  0.00000000000E+00 -0.40467805167E+03  0.81621698952E+03  0.70883414737E+03 0.  0.
        2    1    3    3  502    0  0.34677371571E+03  0.71398829929E+02 -0.18371261934E+03  0.39887357563E+03  0.25500000920E-02 0.  1.
       -2    1    3    3    0  502 -0.34677371571E+03 -0.71398829929E+02 -0.22096543232E+03  0.41734341389E+03  0.25500000920E-02 0. -1.
</event>
<event>
 5   0  0.2751729E-02  0.7001045E+03  0.7818609E-02  0.9717054E-01
       -1   -1    0    0    0  501  0.00000000000E+00  0.00000000000E+00  0.83018466111E+02  0.83018466263E+02  0.50400001928E-02 0.  1.
        1   -1    0    0  501    0  0.00000000000E+00  0.00000000000E+00 -0.14760157211E+04  0.14760157211E+04  0.50400001928E-02 0. -1.
    10030    2    1    2    0    0  0.00000000000E+00  0.00000000000E+00 -0.13929972550E+04  0.15590341874E+04  0.70010445291E+03 0.  0.
        1    1    3    3  502    0 -0.18149899196E+03 -0.17501347544E+03 -0.15575699855E+03  0.29636437588E+03  0.50400001928E-02 0.  1.
       -1    1    3    3    0  502  0.18149899196E+03  0.17501347544E+03 -0.12372402564E+04  0.12626698115E+04  0.50400001928E-02 0. -1.
</event>
<event>
 5   0  0.4365492E-02  0.5315207E+03  0.7818609E-02  0.1005864E+00
       -2   -1    0    0    0  501  0.00000000000E+00  0.00000000000E+00  0.10254616365E+03  0.10254616368E+03  0.25500000920E-02 0. -1.
        2   -1    0    0  501    0  0.00000000000E+00  0.00000000000E+00 -0.68874905883E+03  0.68874905884E+03  0.25500000920E-02 0.  1.
    10030    2    1    2    0    0  0.00000000000E+00  0.00000000000E+00 -0.58620289518E+03  0.79129522251E+03  0.53152073793E+03 0.  0.
        4    1    3    3  502    0 -0.14007193865E+03 -0.22112314765E+03 -0.22469451259E+03  0.34497076878E+03  0.12699999809E+01 0. -1.
       -4    1    3    3    0  502  0.14007193865E+03  0.22112314765E+03 -0.36150838259E+03  0.44632445374E+03  0.12699999809E+01 0.  1.
</event>
<event>
 5   0  0.4299912E-02  0.7055403E+03  0.7818609E-02  0.9707804E-01
       -2   -1    0    0    0  501  0.00000000000E+00  0.00000000000E+00  0.19629385851E+03  0.19629385853E+03  0.25500000920E-02 0.  1.
        2   -1    0    0  501    0  0.00000000000E+00  0.00000000000E+00 -0.63398198033E+03  0.63398198034E+03  0.25500000920E-02 0. -1.
    10030    2    1    2    0    0  0.00000000000E+00  0.00000000000E+00 -0.43768812182E+03  0.83027583887E+03  0.70554027286E+03 0.  0.
        3    1    3    3  502    0  0.11363755894E+03 -0.26922278301E+03 -0.45139827742E+03  0.53773117517E+03  0.10100000352E+00 0. -1.
       -3    1    3    3    0  502 -0.11363755894E+03  0.26922278301E+03  0.13710155597E+02  0.29254466370E+03  0.10100000352E+00 0.  1.
</event>
<event>
 5   0  0.1784625E-02  0.7335891E+03  0.7818609E-02  0.9661454E-01
        4   -1    0    0  501    0  0.00000000000E+00  0.00000000000E+00  0.48192720882E+03  0.48192888220E+03  0.12699999809E+01 0. -1.
       -4   -1    0    0    0  501  0.00000000000E+00  0.00000000000E+00 -0.27916353726E+03  0.27916642605E+03  0.12699999809E+01 0.  1.
    10030    2    1    2    0    0  0.00000000000E+00  0.00000000000E+00  0.20276367156E+03  0.76109530825E+03  0.73358909598E+03 0.  0.
        1    1    3    3  502    0  0.11782450738E+03  0.85537369455E+02  0.45066353851E+03  0.47359991668E+03  0.50400001928E-02 0. -1.
       -1    1    3    3    0  502 -0.11782450738E+03 -0.85537369455E+02 -0.24789986695E+03  0.28749539157E+03  0.50400001928E-02 0.  1.
</event>
<event>
 5   0  0.1784625E-02  0.6423165E+03  0.7818609E-02  0.9821304E-01
       -3   -1    0    0    0  501  0.00000000000E+00  0.00000000000E+00  0.30884472469E+03  0.30884474121E+03  0.10100000352E+00 0.  1.
        3   -1    0    0  501    0  0.00000000000E+00  0.00000000000E+00 -0.33396272212E+03  0.33396273740E+03  0.10100000352E+00 0. -1.
    10030    2    1    2    0    0  0.00000000000E+00  0.00000000000E+00 -0.25117997431E+02  0.64280747860E+03  0.64231654249E+03 0.  0.
        4    1    3    3  502    0  0.95073476111E+02 -0.30238989843E+03  0.39078944495E+02  0.31938596296E+03  0.12699999809E+01 0.  1.
       -4    1    3    3    0  502 -0.95073476111E+02  0.30238989843E+03 -0.64196941927E+02  0.32342151565E+03  0.12699999809E+01 0. -1.
</event>
<event>
 5   0  0.2758681E-02  0.7107577E+03  0.7818609E-02  0.9699010E-01
       -1   -1    0    0    0  501  0.00000000000E+00  0.00000000000E+00  0.14330958003E+03  0.14330958012E+03  0.50400001928E-02 0. -1.
        1   -1    0    0  501    0  0.00000000000E+00  0.00000000000E+00 -0.88126774887E+03  0.88126774889E+03  0.50400001928E-02 0.  1.
    10030    2    1    2    0    0  0.00000000000E+00  0.00000000000E+00 -0.73795816884E+03  0.10245773290E+04  0.71075765501E+03 0.  0.
        3    1    3    3  502    0  0.10460042898E+03  0.26059974472E+03 -0.55001681265E+02  0.28614449468E+03  0.10100000352E+00 0. -1.
       -3    1    3    3    0  502 -0.10460042898E+03 -0.26059974472E+03 -0.68295648758E+03  0.73843283433E+03  0.10100000352E+00 0.  1.
</event>
<event>
 5   0  0.4503289E-02  0.7011031E+03  0.7818609E-02  0.9715348E-01
       -2   -1    0    0    0  501  0.00000000000E+00  0.00000000000E+00  0.34520810121E+03  0.34520810122E+03  0.25500000920E-02 0. -1.
        2   -1    0    0  501    0  0.00000000000E+00  0.00000000000E+00 -0.35597771419E+03  0.35597771420E+03  0.25500000920E-02 0.  1.
    10030    2    1    2    0    0  0.00000000000E+00  0.00000000000E+00 -0.10769612979E+02  0.70118581543E+03  0.70110310454E+03 0.  0.
        2    1    3    3  502    0  0.96290772406E+02 -0.84591961515E+02  0.32093374625E+03  0.34558093450E+03  0.25500000920E-02 0. -1.
       -2    1    3    3    0  502 -0.96290772406E+02  0.84591961515E+02 -0.33170335923E+03  0.35560488092E+03  0.25500000920E-02 0.  1.
</event>
<event>
 5   0  0.4365492E-02  0.7034743E+03  0.7818609E-02  0.9711309E-01
       -2   -1    0    0    0  501  0.00000000000E+00  0.00000000000E+00  0.17619801044E+03  0.17619801046E+03  0.25500000920E-02 0. -1.
        2   -1    0    0  501    0  0.00000000000E+00  0.00000000000E+00 -0.70215910391E+03  0.70215910391E+03  0.25500000920E-02 0.  1.
    10030    2    1    2    0    0  0.00000000000E+00  0.00000000000E+00 -0.52596109346E+03  0.87835711437E+03  0.70347434106E+03 0.  0.
        4    1    3    3  502    0 -0.44178474274E+02 -0.31951503658E+03 -0.43812217023E+03  0.54405353150E+03  0.12699999809E+01 0. -1.
       -4    1    3    3    0  502  0.44178474274E+02  0.31951503658E+03 -0.87838923236E+02  0.33430358288E+03  0.12699999809E+01 0.  1.
</event>
<event>
 5   0  0.2751729E-02  0.6971346E+03  0.7818609E-02  0.9722145E-01
        1   -1    0    0  501    0  0.00000000000E+00  0.00000000000E+00  0.33457478892E+03  0.33457478896E+03  0.50400001928E-02 0.  1.
       -1   -1    0    0    0  501  0.00000000000E+00  0.00000000000E+00 -0.36314502524E+03  0.36314502528E+03  0.50400001928E-02 0. -1.
    10030    2    1    2    0    0  0.00000000000E+00  0.00000000000E+00 -0.28570236320E+02  0.69771981424E+03  0.69713462170E+03 0.  0.
        1    1    3    3  502    0 -0.12511061555E+03 -0.12687397547E+03 -0.31411880149E+03  0.36113749909E+03  0.50400001928E-02 0. -1.
       -1    1    3    3    0  502  0.12511061555E+03  0.12687397547E+03  0.28554856517E+03  0.33658231515E+03  0.50400001928E-02 0.  1.
</event>
<event>
 5   0  0.2751729E-02  0.6886306E+03  0.7818609E-02  0.9736875E-01
        1   -1    0    0  501    0  0.00000000000E+00  0.00000000000E+00  0.17394472189E+03  0.17394472196E+03  0.50400001928E-02 0. -1.
       -1   -1    0    0    0  501  0.00000000000E+00  0.00000000000E+00 -0.68155568255E+03  0.68155568257E+03  0.50400001928E-02 0.  1.
    10030    2    1    2    0    0  0.00000000000E+00  0.00000000000E+00 -0.50761096066E+03  0.85550040453E+03  0.68863056479E+03 0.  0.
        1    1    3    3  502    0 -0.13689823610E+03  0.21886051937E+03  0.29247437565E+02  0.25980082105E+03  0.50400001928E-02 0. -1.
       -1    1    3    3    0  502  0.13689823610E+03 -0.21886051937E+03 -0.53685839822E+03  0.59569958348E+03  0.50400001928E-02 0.  1.
</event>
<event>
 5   0  0.4299912E-02  0.6958694E+03  0.7818609E-02  0.9724322E-01
        2   -1    0    0  501    0  0.00000000000E+00  0.00000000000E+00  0.73266016735E+03  0.73266016735E+03  0.25500000920E-02 0. -1.
       -2   -1    0    0    0  501  0.00000000000E+00  0.00000000000E+00 -0.16523153770E+03  0.16523153772E+03  0.25500000920E-02 0.  1.
    10030    2    1    2    0    0  0.00000000000E+00  0.00000000000E+00  0.56742862965E+03  0.89789170507E+03  0.69586943049E+03 0.  0.
        3    1    3    3  502    0  0.59435448700E+02 -0.27794002143E+03  0.24764417612E+02  0.28530074423E+03  0.10100000352E+00 0.  1.
       -3    1    3    3    0  502 -0.59435448700E+02  0.27794002143E+03  0.54266421204E+03  0.61259096084E+03  0.10100000352E+00 0. -1.
</event>
<event>
 5   0  0.2684924E-02  0.6343082E+03  0.7818609E-02  0.9836677E-01
       -1   -1    0    0    0  501  0.00000000000E+00  0.00000000000E+00  0.15859048090E+03  0.15859048098E+03  0.50400001928E-02 0. -1.
        1   -1    0    0  501    0  0.00000000000E+00  0.00000000000E+00 -0.63425457688E+03  0.63425457690E+03  0.50400001928E-02 0.  1.
    10030    2    1    2    0    0  0.00000000000E+00  0.00000000000E+00 -0.47566409598E+03  0.79284505789E+03  0.63430824810E+03 0.  0.
        4    1    3    3  502    0 -0.20194276434E+03  0.60973038483E+02 -0.53384946590E+03  0.57401694803E+03  0.12699999809E+01 0.  1.
       -4    1    3    3    0  502  0.20194276434E+03 -0.60973038483E+02  0.58185369916E+02  0.21882810986E+03  0.12699999809E+01 0. -1.
</event>
<event>
 5   0  0.2751729E-02  0.7723186E+03  0.7818609E-02  0.9600972E-01
       -1   -1    0    0    0  501  0.00000000000E+00  0.00000000000E+00  0.17536646774E+03  0.17536646781E+03  0.50400001928E-02 0. -1.
        1   -1    0    0  501    0  0.00000000000E+00  0.00000000000E+00 -0.85032792573E+03  0.85032792574E+03  0.50400001928E-02 0.  1.
    10030    2    1    2    0    0  0.00000000000E+00  0.00000000000E+00 -0.67496145799E+03  0.10256943935E+04  0.77231859953E+03 0.  0.
        1    1    3    3  502    0 -0.15146348998E+03 -0.11992079007E+03  0.10657370719E+03  0.22063576269E+03  0.50400001928E-02 0. -1.
       -1    1    3    3    0  502  0.15146348998E+03  0.11992079007E+03 -0.78153516518E+03  0.80505863086E+03  0.50400001928E-02 0.  1.
</event>
<event>
 5   0  0.1784625E-02  0.6998105E+03  0.7818609E-02  0.9717556E-01
        3   -1    0    0  501    0  0.00000000000E+00  0.00000000000E+00  0.34865362880E+03  0.34865364342E+03  0.10100000352E+00 0. -1.
       -3   -1    0    0    0  501  0.00000000000E+00  0.00000000000E+00 -0.35116132465E+03  0.35116133918E+03  0.10100000352E+00 0.  1.
    10030    2    1    2    0    0  0.00000000000E+00  0.00000000000E+00 -0.25076958582E+01  0.69981498260E+03  0.69981048959E+03 0.  0.
        4    1    3    3  502    0 -0.21944919855E+03  0.27200797671E+03  0.15651209570E+02  0.34984691423E+03  0.12699999809E+01 0.  1.
       -4    1    3    3    0  502  0.21944919855E+03 -0.27200797671E+03 -0.18158905428E+02  0.34996806837E+03  0.12699999809E+01 0. -1.
</event>
<event>
 5   0  0.2751729E-02  0.6945865E+03  0.7818609E-02  0.9726535E-01
       -1   -1    0    0    0  501  0.00000000000E+00  0.00000000000E+00  0.18074186327E+03  0.18074186334E+03  0.50400001928E-02 0. -1.
        1   -1    0    0  501    0  0.00000000000E+00  0.00000000000E+00 -0.66731972969E+03  0.66731972971E+03  0.50400001928E-02 0.  1.
    10030    2    1    2    0    0  0.00000000000E+00  0.00000000000E+00 -0.48657786642E+03  0.84806159305E+03  0.69458652845E+03 0.  0.
        1    1    3    3  502    0  0.33498486634E+03 -0.84704457191E+02 -0.20059191889E+03  0.39953325731E+03  0.50400001928E-02 0.  1.
       -1    1    3    3    0  502 -0.33498486634E+03  0.84704457191E+02 -0.28598594753E+03  0.44852833574E+03  0.50400001928E-02 0. -1.
</event>
<event>
 5   0  0.2758681E-02  0.6913650E+03  0.7818609E-02  0.9732114E-01
       -1   -1    0    0    0  501  0.00000000000E+00  0.00000000000E+00  0.26862726352E+03  0.26862726356E+03  0.50400001928E-02 0. -1.
        1   -1    0    0  501    0  0.00000000000E+00  0.00000000000E+00 -0.44484092494E+03  0.44484092497E+03  0.50400001928E-02 0.  1.
    10030    2    1    2    0    0  0.00000000000E+00  0.00000000000E+00 -0.17621366142E+03  0.71346818854E+03  0.69136502774E+03 0.  0.
        3    1    3    3  502    0  0.34544725237E+02  0.61509884316E+00 -0.44305462923E+03  0.44439974243E+03  0.10100000352E+00 0.  1.
       -3    1    3    3    0  502 -0.34544725237E+02 -0.61509884316E+00  0.26684096781E+03  0.26906844610E+03  0.10100000352E+00 0. -1.
</event>
<event>
 5   0  0.4420645E-02  0.7002415E+03  0.7818609E-02  0.9716819E-01
        2   -1    0    0  501    0  0.00000000000E+00  0.00000000000E+00  0.95250338481E+03  0.95250338481E+03  0.25500000920E-02 0. -1.
       -2   -1    0    0    0  501  0.00000000000E+00  0.00000000000E+00 -0.12869723497E+03  0.12869723500E+03  0.25500000920E-02 0.  1.
    10030    2    1    2    0    0  0.00000000000E+00  0.00000000000E+00  0.82380614983E+03  0.10812006198E+04  0.70024153531E+03 0.  0.
        5    1    3    3  502    0  0.93748763884E+01  0.29867335673E+03  0.69353182255E+03  0.75518351492E+03  0.46999998093E+01 0. -1.
       -5    1    3    3    0  502 -0.93748763884E+01 -0.29867335673E+03  0.13027432729E+03  0.32601710489E+03  0.46999998093E+01 0.  1.
</event>
<event>
 5   0  0.2684924E-02  0.5265168E+03  0.7818609E-02  0.1007080E+00
       -1   -1    0    0    0  501  0.00000000000E+00  0.00000000000E+00  0.42046685869E+02  0.42046686171E+02  0.50400001928E-02 0.  1.
        1   -1    0    0  501    0  0.00000000000E+00  0.00000000000E+00 -0.16482866837E+04  0.16482866837E+04  0.50400001928E-02 0. -1.
    10030    2    1    2    0    0  0.00000000000E+00  0.00000000000E+00 -0.16062399978E+04  0.16903333699E+04  0.52651682850E+03 0.  0.
        4    1    3    3  502    0  0.23723693535E+02 -0.11499017786E+03 -0.15595632124E+04  0.15639771677E+04  0.12699999809E+01 0. -1.
       -4    1    3    3    0  502 -0.23723693535E+02  0.11499017786E+03 -0.46676785447E+02  0.12635620222E+03  0.12699999809E+01 0.  1.
</event>
<event>
 5   0  0.2751729E-02  0.7020303E+03  0.7818609E-02  0.9713766E-01
       -1   -1    0    0    0  501  0.00000000000E+00  0.00000000000E+00  0.20739446502E+03  0.20739446508E+03  0.50400001928E-02 0.  1.
        1   -1    0    0  501    0  0.00000000000E+00  0.00000000000E+00 -0.59409316254E+03  0.59409316256E+03  0.50400001928E-02 0. -1.
    10030    2    1    2    0    0  0.00000000000E+00  0.00000000000E+00 -0.38669869752E+03  0.80148762763E+03  0.70203029463E+03 0.  0.
        1    1    3    3  502    0  0.16047701243E+03  0.18359632370E+03 -0.48160975054E+03  0.53982259442E+03  0.50400001928E-02 0. -1.
       -1    1    3    3    0  502 -0.16047701243E+03 -0.18359632370E+03  0.94911053024E+02  0.26166503322E+03  0.50400001928E-02 0.  1.
</event>
<event>
 5   0  0.2751729E-02  0.7005902E+03  0.7818609E-02  0.9716223E-01
       -1   -1    0    0    0  501  0.00000000000E+00  0.00000000000E+00  0.21271807270E+03  0.21271807276E+03  0.50400001928E-02 0. -1.
        1   -1    0    0  501    0  0.00000000000E+00  0.00000000000E+00 -0.57685103890E+03  0.57685103892E+03  0.50400001928E-02 0.  1.
    10030    2    1    2    0    0  0.00000000000E+00  0.00000000000E+00 -0.36413296620E+03  0.78956911168E+03  0.70059015483E+03 0.  0.
        1    1    3    3  502    0  0.20596977707E+03 -0.27964772273E+03 -0.23346885862E+03  0.41849026974E+03  0.50400001928E-02 0.  1.
       -1    1    3    3    0  502 -0.20596977707E+03  0.27964772273E+03 -0.13066410758E+03  0.37107884194E+03  0.50400001928E-02 0. -1.
</event>
<event>
 5   0  0.4420645E-02  0.6227537E+03  0.7818609E-02  0.9859292E-01
        2   -1    0    0  501    0  0.00000000000E+00  0.00000000000E+00  0.10170140929E+04  0.10170140929E+04  0.25500000920E-02 0.  1.
       -2   -1    0    0    0  501  0.00000000000E+00  0.00000000000E+00 -0.95333531628E+02  0.95333531662E+02  0.25500000920E-02 0. -1.
    10030    2    1    2    0    0  0.00000000000E+00  0.00000000000E+00  0.92168056129E+03  0.11123476246E+04  0.62275370802E+03 0.  0.
        5    1    3    3  502    0 -0.27884224535E+03 -0.89491866234E+02  0.27204847997E+03  0.39974273898E+03  0.46999998093E+01 0. -1.
       -5    1    3    3    0  502  0.27884224535E+03  0.89491866234E+02  0.64963208132E+03  0.71260488560E+03  0.46999998093E+01 0.  1.
</event>
<event>
 5   0  0.4365492E-02  0.6975418E+03  0.7818609E-02  0.9721445E-01
       -2   -1    0    0    0  501  0.00000000000E+00  0.00000000000E+00  0.14602926215E+03  0.14602926217E+03  0.25500000920E-02 0.  1.
        2   -1    0    0  501    0  0.00000000000E+00  0.00000000000E+00 -0.83299150529E+03  0.83299150530E+03  0.25500000920E-02 0. -1.
    10030    2    1    2    0    0  0.00000000000E+00  0.00000000000E+00 -0.68696224315E+03  0.97902076747E+03  0.69754178342E+03 0.  0.
        4    1    3    3  502    0  0.34123472206E+03 -0.63202774851E+02 -0.39217765806E+03  0.52367991624E+03  0.12699999809E+01 0.  1.
       -4    1    3    3    0  502 -0.34123472206E+03  0.63202774851E+02 -0.29478458509E+03  0.45534085122E+03  0.12699999809E+01 0. -1.
</event>
<event>
 5   0  0.2777999E-02  0.7035967E+03  0.7818609E-02  0.9711101E-01
       -1   -1    0    0    0  501  0.00000000000E+00  0.00000000000E+00  0.13006183492E+03  0.13006183502E+03  0.50400001928E-02 0.  1.
        1   -1    0    0  501    0  0.00000000000E+00  0.00000000000E+00 -0.95156348725E+03  0.95156348726E+03  0.50400001928E-02 0. -1.
    10030    2    1    2    0    0  0.00000000000E+00  0.00000000000E+00 -0.82150165233E+03  0.10816253223E+04  0.70359674034E+03 0.  0.
        5    1    3    3  502    0  0.43741797614E+01  0.24983408226E+03 -0.79137531722E+03  0.82989950284E+03  0.46999998093E+01 0. -1.
       -5    1    3    3    0  502 -0.43741797614E+01 -0.24983408226E+03 -0.30126335104E+02  0.25172581944E+03  0.46999998093E+01 0.  1.
</event>
<event>
 5   0  0.4365492E-02  0.6990060E+03  0.7818609E-02  0.9718934E-01
       -2   -1    0    0    0  501  0.00000000000E+00  0.00000000000E+00  0.29764892286E+03  0.29764892287E+03  0.25500000920E-02 0. -1.
        2   -1    0    0  501    0  0.00000000000E+00  0.00000000000E+00 -0.41039064461E+03  0.41039064462E+03  0.25500000920E-02 0.  1.
    10030    2    1    2    0    0  0.00000000000E+00  0.00000000000E+00 -0.11274172175E+03  0.70803956749E+03  0.69900596085E+03 0.  0.
        4    1    3    3  502    0 -0.21518425884E+03 -0.44832697627E+02  0.21886952245E+03  0.31019303149E+03  0.12699999809E+01 0. -1.
       -4    1    3    3    0  502  0.21518425884E+03  0.44832697627E+02 -0.33161124420E+03  0.39784653600E+03  0.12699999809E+01 0.  1.
</event>
<event>
 5   0  0.2758681E-02  0.7004477E+03  0.7818609E-02  0.9716467E-01
       -1   -1    0    0    0  501  0.00000000000E+00  0.00000000000E+00  0.24311918681E+03  0.24311918686E+03  0.50400001928E-02 0. -1.
        1   -1    0    0  501    0  0.00000000000E+00  0.00000000000E+00 -0.50451275903E+03  0.50451275906E+03  0.50400001928E-02 0.  1.
    10030    2    1    2    0    0  0.00000000000E+00  0.00000000000E+00 -0.26139357222E+03  0.74763194592E+03  0.70044766183E+03 0.  0.
        3    1    3    3  502    0  0.34141172567E+03 -0.75256852531E+02 -0.15285996367E+03  0.38156485553E+03  0.10100000352E+00 0. -1.
       -3    1    3    3    0  502 -0.34141172567E+03  0.75256852531E+02 -0.10853360855E+03  0.36606709039E+03  0.10100000352E+00 0.  1.
</event>
<event>
 5   0  0.4503289E-02  0.6770821E+03  0.7818609E-02  0.9757248E-01
        2   -1    0    0  501    0  0.00000000000E+00  0.00000000000E+00  0.69422683299E+03  0.69422683299E+03  0.25500000920E-02 0. -1.
       -2   -1    0    0    0  501  0.00000000000E+00  0.00000000000E+00 -0.16509017916E+03  0.16509017918E+03  0.25500000920E-02 0.  1.
    10030    2    1    2    0    0  0.00000000000E+00  0.00000000000E+00  0.52913665382E+03  0.85931701217E+03  0.67708206961E+03 0.  0.
        2    1    3    3  502    0 -0.76146621491E+02  0.27896821532E+03  0.48798320317E+03  0.56722938897E+03  0.25500000920E-02 0.  1.
       -2    1    3    3    0  502  0.76146621491E+02 -0.27896821532E+03  0.41153450650E+02  0.29208762320E+03  0.25500000920E-02 0. -1.
</event>
<event>
 5   0  0.4526837E-02  0.6701044E+03  0.7818609E-02  0.9769769E-01
        2   -1    0    0  501    0  0.00000000000E+00  0.00000000000E+00  0.14062793255E+04  0.14062793255E+04  0.25500000920E-02 0. -1.
       -2   -1    0    0    0  501  0.00000000000E+00  0.00000000000E+00 -0.79827650873E+02  0.79827650913E+02  0.25500000920E-02 0.  1.
    10030    2    1    2    0    0  0.00000000000E+00  0.00000000000E+00  0.13264516746E+04  0.14861069764E+04  0.67010439503E+03 0.  0.
        1    1    3    3  502    0  0.25891872934E+02 -0.33387279943E+03  0.63908014785E+03  0.72150181613E+03  0.50400001928E-02 0.  1.
       -1    1    3    3    0  502 -0.25891872934E+02  0.33387279943E+03  0.68737152680E+03  0.76460516030E+03  0.50400001928E-02 0. -1.
</event>
<event>
 5   0  0.1784625E-02  0.6956108E+03  0.7818609E-02  0.9724768E-01
        3   -1    0    0  501    0  0.00000000000E+00  0.00000000000E+00  0.18977226364E+03  0.18977229052E+03  0.10100000352E+00 0.  1.
       -3   -1    0    0    0  501  0.00000000000E+00  0.00000000000E+00 -0.63744084377E+03  0.63744085177E+03  0.10100000352E+00 0. -1.
    10030    2    1    2    0    0  0.00000000000E+00  0.00000000000E+00 -0.44766858013E+03  0.82721314229E+03  0.69561082880E+03 0.  0.
        5    1    3    3  502    0 -0.14569954136E+03 -0.13352810823E+03  0.11646598138E+03  0.22944395145E+03  0.46999998093E+01 0.  1.
       -5    1    3    3    0  502  0.14569954136E+03  0.13352810823E+03 -0.56413456151E+03  0.59776919085E+03  0.46999998093E+01 0. -1.
</event>
<event>
 5   0  0.2684924E-02  0.6919723E+03  0.7818609E-02  0.9731060E-01
       -1   -1    0    0    0  501  0.00000000000E+00  0.00000000000E+00  0.10502205932E+04  0.10502205932E+04  0.50400001928E-02 0.  1.
        1   -1    0    0  501    0  0.00000000000E+00  0.00000000000E+00 -0.11398216381E+03  0.11398216392E+03  0.50400001928E-02 0. -1.
    10030    2    1    2    0    0  0.00000000000E+00  0.00000000000E+00  0.93623842938E+03  0.11642027571E+04  0.69197229933E+03 0.  0.
        4    1    3    3  502    0  0.19984269805E+03  0.24499324292E+03  0.70453669721E+03  0.77222559117E+03  0.12699999809E+01 0.  1.
       -4    1    3    3    0  502 -0.19984269805E+03 -0.24499324292E+03  0.23170173217E+03  0.39197716596E+03  0.12699999809E+01 0. -1.
</event>
<event>
 5   0  0.4526837E-02  0.6981834E+03  0.7818609E-02  0.9720344E-01
        2   -1    0    0  501    0  0.00000000000E+00  0.00000000000E+00  0.48114100186E+03  0.48114100187E+03  0.25500000920E-02 0. -1.
       -2   -1    0    0    0  501  0.00000000000E+00  0.00000000000E+00 -0.25328338295E+03  0.25328338297E+03  0.25500000920E-02 0.  1.
    10030    2    1    2    0    0  0.00000000000E+00  0.00000000000E+00  0.22785761891E+03  0.73442438483E+03  0.69818341612E+03 0.  0.
        1    1    3    3  502    0  0.15587099214E+03 -0.22594723734E+03 -0.11294474587E+03  0.29682391396E+03  0.50400001928E-02 0.  1.
       -1    1    3    3    0  502 -0.15587099214E+03  0.22594723734E+03  0.34080236478E+03  0.43760047088E+03  0.50400001928E-02 0. -1.
</event>
<event>
 5   0  0.1784625E-02  0.6956278E+03  0.7818609E-02  0.9724739E-01
       -4   -1    0    0    0  501  0.00000000000E+00  0.00000000000E+00  0.49380794036E+03  0.49380957348E+03  0.12699999809E+01 0. -1.
        4   -1    0    0  501    0  0.00000000000E+00  0.00000000000E+00 -0.24497925885E+03  0.24498255074E+03  0.12699999809E+01 0.  1.
    10030    2    1    2    0    0  0.00000000000E+00  0.00000000000E+00  0.24882868151E+03  0.73879212421E+03  0.69562783876E+03 0.  0.
        4    1    3    3  502    0  0.88826682392E+02  0.65391815519E+02 -0.22591217026E+03  0.25140443635E+03  0.12699999809E+01 0.  1.
       -4    1    3    3    0  502 -0.88826682392E+02 -0.65391815519E+02  0.47474085177E+03  0.48738768787E+03  0.12699999809E+01 0. -1.
</event>
<event>
 5   0  0.4365492E-02  0.7125031E+03  0.7818609E-02  0.9696086E-01
        2   -1    0    0  501    0  0.00000000000E+00  0.00000000000E+00  0.93217149344E+03  0.93217149345E+03  0.25500000920E-02 0.  1.
       -2   -1    0    0    0  501  0.00000000000E+00  0.00000000000E+00 -0.13615002814E+03  0.13615002816E+03  0.25500000920E-02 0. -1.
    10030    2    1    2    0    0  0.00000000000E+00  0.00000000000E+00  0.79602146531E+03  0.10683215216E+04  0.71250312301E+03 0.  0.
        4    1    3    3  502    0 -0.39479572463E+02  0.26833326375E+03  0.74434168790E+03  0.79221685056E+03  0.12699999809E+01 0.  1.
       -4    1    3    3    0  502  0.39479572463E+02 -0.26833326375E+03  0.51679777410E+02  0.27610467104E+03  0.12699999809E+01 0. -1.
</event>
<event>
 5   0  0.4299912E-02  0.6930455E+03  0.7818609E-02  0.9729200E-01
        2   -1    0    0  501    0  0.00000000000E+00  0.00000000000E+00  0.12327943472E+04  0.12327943472E+04  0.25500000920E-02 0. -1.
       -2   -1    0    0    0  501  0.00000000000E+00  0.00000000000E+00 -0.97403133366E+02  0.97403133399E+02  0.25500000920E-02 0.  1.
    10030    2    1    2    0    0  0.00000000000E+00  0.00000000000E+00  0.11353912138E+04  0.13301974806E+04  0.69304554607E+03 0.  0.
        3    1    3    3  502    0  0.14338264828E+03  0.17189474966E+03  0.10754051769E+04  0.10984546843E+04  0.10100000352E+00 0. -1.
       -3    1    3    3    0  502 -0.14338264828E+03 -0.17189474966E+03  0.59986036891E+02  0.23174279624E+03  0.10100000352E+00 0.  1.
</event>
<event>
 5   0  0.2750139E-02  0.7343629E+03  0.7818609E-02  0.9660207E-01
       -1   -1    0    0    0  501  0.00000000000E+00  0.00000000000E+00  0.13052124009E+03  0.13052124019E+03  0.50400001928E-02 0.  1.
        1   -1    0    0  501    0  0.00000000000E+00  0.00000000000E+00 -0.10329522764E+04  0.10329522764E+04  0.50400001928E-02 0. -1.
    10030    2    1    2    0    0  0.00000000000E+00  0.00000000000E+00 -0.90243103630E+03  0.11634735166E+04  0.73436288615E+03 0.  0.
        2    1    3    3  502    0 -0.23269150657E+03  0.14253498053E+03 -0.84046025707E+03  0.88364868677E+03  0.25500000920E-02 0. -1.
       -2    1    3    3    0  502  0.23269150657E+03 -0.14253498053E+03 -0.61970779231E+02  0.27982482983E+03  0.25500000920E-02 0.  1.
</event>
<event>
 5   0  0.2684924E-02  0.7112205E+03  0.7818609E-02  0.9698234E-01
        1   -1    0    0  501    0  0.00000000000E+00  0.00000000000E+00  0.45747205521E+03  0.45747205524E+03  0.50400001928E-02 0. -1.
       -1   -1    0    0    0  501  0.00000000000E+00  0.00000000000E+00 -0.27642921947E+03  0.27642921951E+03  0.50400001928E-02 0.  1.
    10030    2    1    2    0    0  0.00000000000E+00  0.00000000000E+00  0.18104283574E+03  0.73390127475E+03  0.71122048108E+03 0.  0.
        4    1    3    3  502    0 -0.35801047714E+02  0.99903364103E+02  0.44074832624E+03  0.45334655305E+03  0.12699999809E+01 0. -1.
       -4    1    3    3    0  502  0.35801047714E+02 -0.99903364103E+02 -0.25970549050E+03  0.28055472170E+03  0.12699999809E+01 0.  1.
</event>
<event>
 5   0  0.2758681E-02  0.6962755E+03  0.7818609E-02  0.9723623E-01
       -1   -1    0    0    0  501  0.00000000000E+00  0.00000000000E+00  0.18566092798E+03  0.18566092805E+03  0.50400001928E-02 0.  1.
        1   -1    0    0  501    0  0.00000000000E+00  0.00000000000E+00 -0.65280236932E+03  0.65280236934E+03  0.50400001928E-02 0. -1.
    10030    2    1    2    0    0  0.00000000000E+00  0.00000000000E+00 -0.46714144134E+03  0.83846329739E+03  0.69627550212E+03 0.  0.
        3    1    3    3  502    0 -0.35444382224E+02  0.21976620202E+03  0.88758824447E+02  0.23964896599E+03  0.10100000352E+00 0.  1.
       -3    1    3    3    0  502  0.35444382224E+02 -0.21976620202E+03 -0.55590026579E+03  0.59881433140E+03  0.10100000352E+00 0. -1.
</event>
<event>
 5   0  0.2758681E-02  0.6768111E+03  0.7818609E-02  0.9757731E-01
       -1   -1    0    0    0  501  0.00000000000E+00  0.00000000000E+00  0.20363178954E+03  0.20363178960E+03  0.50400001928E-02 0. -1.
        1   -1    0    0  501    0  0.00000000000E+00  0.00000000000E+00 -0.56237933370E+03  0.56237933372E+03  0.50400001928E-02 0.  1.
    10030    2    1    2    0    0  0.00000000000E+00  0.00000000000E+00 -0.35874754416E+03  0.76601112333E+03  0.67681108193E+03 0.  0.
        3    1    3    3  502    0 -0.96362758173E+02  0.21935276199E+03 -0.44986293542E+03  0.50968430054E+03  0.10100000352E+00 0.  1.
       -3    1    3    3    0  502  0.96362758173E+02 -0.21935276199E+03  0.91115391262E+02  0.25632682279E+03  0.10100000352E+00 0. -1.
</event>
<event>
 5   0  0.4526837E-02  0.6883512E+03  0.7818609E-02  0.9737363E-01
        2   -1    0    0  501    0  0.00000000000E+00  0.00000000000E+00  0.65308090684E+03  0.65308090684E+03  0.25500000920E-02 0.  1.
       -2   -1    0    0    0  501  0.00000000000E+00  0.00000000000E+00 -0.18138156161E+03  0.18138156163E+03  0.25500000920E-02 0. -1.
    10030    2    1    2    0    0  0.00000000000E+00  0.00000000000E+00  0.47169934523E+03  0.83446246847E+03  0.68835117418E+03 0.  0.
        1    1    3    3  502    0  0.25651783270E+03  0.16548539031E+03  0.42855759053E+03  0.52616387307E+03  0.50400001928E-02 0.  1.
       -1    1    3    3    0  502 -0.25651783270E+03 -0.16548539031E+03  0.43141754699E+02  0.30829859540E+03  0.50400001928E-02 0. -1.
</event>
<event>
 5   0  0.4420645E-02  0.6971688E+03  0.7818609E-02  0.9722086E-01
       -2   -1    0    0    0  501  0.00000000000E+00  0.00000000000E+00  0.23876059180E+03  0.23876059181E+03  0.25500000920E-02 0.  1.
        2   -1    0    0  501    0  0.00000000000E+00  0.00000000000E+00 -0.50892440516E+03  0.50892440517E+03  0.25500000920E-02 0. -1.
    10030    2    1    2    0    0  0.00000000000E+00  0.00000000000E+00 -0.27016381337E+03  0.74768499698E+03  0.69716882364E+03 0.  0.
        5    1    3    3  502    0 -0.17342497570E+03 -0.24419182530E+03  0.56114205511E+02  0.30475689295E+03  0.46999998093E+01 0.  1.
       -5    1    3    3    0  502  0.17342497570E+03  0.24419182530E+03 -0.32627801888E+03  0.44292810403E+03  0.46999998093E+01 0. -1.
</event>
<event>
 5   0  0.4503289E-02  0.6984013E+03  0.7818609E-02  0.9719970E-01
        2   -1    0    0  501    0  0.00000000000E+00  0.00000000000E+00  0.12797748300E+03  0.12797748302E+03  0.25500000920E-02 0.  1.
       -2   -1    0    0    0  501  0.00000000000E+00  0.00000000000E+00 -0.95283242721E+03  0.95283242721E+03  0.25500000920E-02 0. -1.
    10030    2    1    2    0    0  0.00000000000E+00  0.00000000000E+00 -0.82485494421E+03  0.10808099102E+04  0.69840130517E+03 0.  0.
        2    1    3    3  502    0 -0.18762318036E+03  0.12315532912E+03 -0.82644053182E+03  0.85637237551E+03  0.25500000920E-02 0.  1.
       -2    1    3    3    0  502  0.18762318036E+03 -0.12315532912E+03  0.15855876027E+01  0.22443753472E+03  0.25500000920E-02 0. -1.
</event>
<event>
 5   0  0.2751729E-02  0.7087668E+03  0.7818609E-02  0.9702356E-01
       -1   -1    0    0    0  501  0.00000000000E+00  0.00000000000E+00  0.58343672246E+03  0.58343672249E+03  0.50400001928E-02 0.  1.
        1   -1    0    0  501    0  0.00000000000E+00  0.00000000000E+00 -0.21525485259E+03  0.21525485265E+03  0.50400001928E-02 0. -1.
    10030    2    1    2    0    0  0.00000000000E+00  0.00000000000E+00  0.36818186987E+03  0.79869157514E+03  0.70876677609E+03 0.  0.
        1    1    3    3  502    0 -0.17127592089E+03 -0.18839451098E+03 -0.93677821051E+02  0.27129958907E+03  0.50400001928E-02 0. -1.
       -1    1    3    3    0  502  0.17127592089E+03  0.18839451098E+03  0.46185969092E+03  0.52739198607E+03  0.50400001928E-02 0.  1.
</event>
<event>
 5   0  0.4503289E-02  0.6970755E+03  0.7818609E-02  0.9722247E-01
        2   -1    0    0  501    0  0.00000000000E+00  0.00000000000E+00  0.10791891610E+04  0.10791891610E+04  0.25500000920E-02 0.  1.
       -2   -1    0    0    0  501  0.00000000000E+00  0.00000000000E+00 -0.11256464786E+03  0.11256464789E+03  0.25500000920E-02 0. -1.
    10030    2    1    2    0    0  0.00000000000E+00  0.00000000000E+00  0.96662451313E+03  0.11917538089E+04  0.69707545617E+03 0.  0.
        2    1    3    3  502    0  0.33946443204E+03  0.66784596051E+02  0.55548827101E+03  0.65441844574E+03  0.25500000920E-02 0. -1.
       -2    1    3    3    0  502 -0.33946443204E+03 -0.66784596051E+02  0.41113624211E+03  0.53733536313E+03  0.25500000920E-02 0.  1.
</event>
<event>
 5   0  0.2751729E-02  0.6756335E+03  0.7818609E-02  0.9759834E-01
       -1   -1    0    0    0  501  0.00000000000E+00  0.00000000000E+00  0.18132885521E+04  0.18132885521E+04  0.50400001928E-02 0. -1.
        1   -1    0    0  501    0  0.00000000000E+00  0.00000000000E+00 -0.62935470945E+02  0.62935471147E+02  0.50400001928E-02 0.  1.
    10030    2    1    2    0    0  0.00000000000E+00  0.00000000000E+00  0.17503530811E+04  0.18762240232E+04  0.67563353730E+03 0.  0.
        1    1    3    3  502    0  0.13580784100E+03  0.20918009685E+03  0.24241336456E+03  0.34779925523E+03  0.50400001928E-02 0.  1.
       -1    1    3    3    0  502 -0.13580784100E+03 -0.20918009685E+03  0.15079397166E+04  0.15284247680E+04  0.50400001928E-02 0. -1.
</event>
<event>
 5   0  0.2777999E-02  0.6986766E+03  0.7818609E-02  0.9719498E-01
        1   -1    0    0  501    0  0.00000000000E+00  0.00000000000E+00  0.24084429516E+03  0.24084429522E+03  0.50400001928E-02 0.  1.
       -1   -1    0    0    0  501  0.00000000000E+00  0.00000000000E+00 -0.50670603731E+03  0.50670603734E+03  0.50400001928E-02 0. -1.
    10030    2    1    2    0    0  0.00000000000E+00  0.00000000000E+00 -0.26586174215E+03  0.74755033255E+03  0.69867663032E+03 0.  0.
        5    1    3    3  502    0  0.44870824812E+02  0.35031126666E+02  0.23581401501E+03  0.24263328384E+03  0.46999998093E+01 0.  1.
       -5    1    3    3    0  502 -0.44870824812E+02 -0.35031126666E+02 -0.50167575716E+03  0.50491704871E+03  0.46999998093E+01 0. -1.
</event>
<event>
 5   0  0.4365492E-02  0.7060063E+03  0.7818609E-02  0.9707015E-01
       -2   -1    0    0    0  501  0.00000000000E+00  0.00000000000E+00  0.46683140381E+03  0.46683140382E+03  0.25500000920E-02 0.  1.
        2   -1    0    0  501    0  0.00000000000E+00  0.00000000000E+00 -0.26692984434E+03  0.26692984435E+03  0.25500000920E-02 0. -1.
    10030    2    1    2    0    0  0.00000000000E+00  0.00000000000E+00  0.19990155948E+03  0.73376124817E+03  0.70600632847E+03 0.  0.
        4    1    3    3  502    0  0.11801602777E+03  0.23463756656E+03  0.34507667609E+03  0.43366126843E+03  0.12699999809E+01 0.  1.
       -4    1    3    3    0  502 -0.11801602777E+03 -0.23463756656E+03 -0.14517511662E+03  0.30009997974E+03  0.12699999809E+01 0. -1.
</event>
<event>
 5   0  0.2751729E-02  0.7020904E+03  0.7818609E-02  0.9713664E-01
       -1   -1    0    0    0  501  0.00000000000E+00  0.00000000000E+00  0.20050192097E+03  0.20050192103E+03  0.50400001928E-02 0.  1.
        1   -1    0    0  501    0  0.00000000000E+00  0.00000000000E+00 -0.61462127028E+03  0.61462127030E+03  0.50400001928E-02 0. -1.
    10030    2    1    2    0    0  0.00000000000E+00  0.00000000000E+00 -0.41411934931E+03  0.81512319133E+03  0.70209043689E+03 0.  0.
        1    1    3    3  502    0 -0.24284208484E+03 -0.85917658478E+02 -0.48394805409E+03  0.54823338214E+03  0.50400001928E-02 0. -1.
       -1    1    3    3    0  502  0.24284208484E+03  0.85917658478E+02  0.69828704785E+02  0.26688980918E+03  0.50400001928E-02 0.  1.
</event>
<event>
 5   0  0.2777999E-02  0.5831394E+03  0.7818609E-02  0.9941017E-01
        1   -1    0    0  501    0  0.00000000000E+00  0.00000000000E+00  0.81165876670E+02  0.81165876826E+02  0.50400001928E-02 0.  1.
       -1   -1    0    0    0  501  0.00000000000E+00  0.00000000000E+00 -0.10473968858E+04  0.10473968858E+04  0.50400001928E-02 0. -1.
    10030    2    1    2    0    0  0.00000000000E+00  0.00000000000E+00 -0.96623100913E+03  0.11285627626E+04  0.58313938832E+03 0.  0.
        5    1    3    3  502    0  0.14563564703E+03 -0.25239488749E+03 -0.46603683054E+03  0.54965929296E+03  0.46999998093E+01 0.  1.
       -5    1    3    3    0  502 -0.14563564703E+03  0.25239488749E+03 -0.50019417858E+03  0.57890346968E+03  0.46999998093E+01 0. -1.
</event>
<event>
 5   0  0.2751729E-02  0.6874576E+03  0.7818609E-02  0.9738925E-01
       -1   -1    0    0    0  501  0.00000000000E+00  0.00000000000E+00  0.15997547807E+03  0.15997547815E+03  0.50400001928E-02 0. -1.
        1   -1    0    0  501    0  0.00000000000E+00  0.00000000000E+00 -0.73854751063E+03  0.73854751064E+03  0.50400001928E-02 0.  1.
    10030    2    1    2    0    0  0.00000000000E+00  0.00000000000E+00 -0.57857203256E+03  0.89852298879E+03  0.68745760926E+03 0.  0.
        1    1    3    3  502    0 -0.31895888117E+03  0.10530102890E+03 -0.38467557350E+03  0.51068421891E+03  0.50400001928E-02 0.  1.
       -1    1    3    3    0  502  0.31895888117E+03 -0.10530102890E+03 -0.19389645905E+03  0.38783876988E+03  0.50400001928E-02 0. -1.
</event>
<event>
 5   0  0.2750139E-02  0.6673569E+03  0.7818609E-02  0.9774744E-01
       -1   -1    0    0    0  501  0.00000000000E+00  0.00000000000E+00  0.10884402355E+03  0.10884402366E+03  0.50400001928E-02 0. -1.
        1   -1    0    0  501    0  0.00000000000E+00  0.00000000000E+00 -0.10229437563E+04  0.10229437563E+04  0.50400001928E-02 0.  1.
    10030    2    1    2    0    0  0.00000000000E+00  0.00000000000E+00 -0.91409973271E+03  0.11317877799E+04  0.66735691910E+03 0.  0.
        2    1    3    3  502    0  0.13264459337E+03 -0.85278681459E+02  0.41662677510E+02  0.16310371046E+03  0.25500000920E-02 0. -1.
       -2    1    3    3    0  502 -0.13264459337E+03  0.85278681459E+02 -0.95576241022E+03  0.96868406947E+03  0.25500000920E-02 0.  1.
</event>
<event>
 5   0  0.2750139E-02  0.6966702E+03  0.7818609E-02  0.9722944E-01
       -1   -1    0    0    0  501  0.00000000000E+00  0.00000000000E+00  0.38732532311E+03  0.38732532314E+03  0.50400001928E-02 0. -1.
        1   -1    0    0  501    0  0.00000000000E+00  0.00000000000E+00 -0.31326983291E+03  0.31326983295E+03  0.50400001928E-02 0.  1.
    10030    2    1    2    0    0  0.00000000000E+00  0.00000000000E+00  0.74055490203E+02  0.70059515609E+03  0.69667019249E+03 0.  0.
        2    1    3    3  502    0  0.17378014454E+03  0.12904271243E+03 -0.23743069016E+03  0.32128630986E+03  0.25500000920E-02 0.  1.
       -2    1    3    3    0  502 -0.17378014454E+03 -0.12904271243E+03  0.31148618036E+03  0.37930884623E+03  0.25500000920E-02 0. -1.
</event>
<event>
 5   0  0.1784625E-02  0.7002833E+03  0.7818609E-02  0.9716748E-01
        3   -1    0    0  501    0  0.00000000000E+00  0.00000000000E+00  0.43341766772E+03  0.43341767949E+03  0.10100000352E+00 0. -1.
       -3   -1    0    0    0  501  0.00000000000E+00  0.00000000000E+00 -0.28286608667E+03  0.28286610470E+03  0.10100000352E+00 0.  1.
    10030    2    1    2    0    0  0.00000000000E+00  0.00000000000E+00  0.15055158105E+03  0.71628378419E+03  0.70028328620E+03 0.  0.
        5    1    3    3  502    0  0.26249610657E+03 -0.10074060923E+03 -0.13811554254E+03  0.31329039149E+03  0.46999998093E+01 0.  1.
       -5    1    3    3    0  502 -0.26249610657E+03  0.10074060923E+03  0.28866712359E+03  0.40299339269E+03  0.46999998093E+01 0. -1.
</event>
<event>
 5   0  0.2777999E-02  0.7192794E+03  0.7818609E-02  0.9684818E-01
       -1   -1    0    0    0  501  0.00000000000E+00  0.00000000000E+00  0.13371914985E+03  0.13371914995E+03  0.50400001928E-02 0.  1.
        1   -1    0    0  501    0  0.00000000000E+00  0.00000000000E+00 -0.96725644916E+03  0.96725644918E+03  0.50400001928E-02 0. -1.
    10030    2    1    2    0    0  0.00000000000E+00  0.00000000000E+00 -0.83353729931E+03  0.11009755991E+04  0.71927938976E+03 0.  0.
        5    1    3    3  502    0  0.34837568094E+03  0.34486165130E+02 -0.29088406534E+03  0.45518187587E+03  0.46999998093E+01 0.  1.
       -5    1    3    3    0  502 -0.34837568094E+03 -0.34486165130E+02 -0.54265323397E+03  0.64579372325E+03  0.46999998093E+01 0. -1.
</event>
<event>
 5   0  0.4526837E-02  0.6980267E+03  0.7818609E-02  0.9720613E-01
        2   -1    0    0  501    0  0.00000000000E+00  0.00000000000E+00  0.16272272365E+03  0.16272272367E+03  0.25500000920E-02 0. -1.
       -2   -1    0    0    0  501  0.00000000000E+00  0.00000000000E+00 -0.74857592732E+03  0.74857592733E+03  0.25500000920E-02 0.  1.
    10030    2    1    2    0    0  0.00000000000E+00  0.00000000000E+00 -0.58585320367E+03  0.91129865100E+03  0.69802668650E+03 0.  0.
        1    1    3    3  502    0  0.12250728724E+03 -0.30913221044E+03 -0.15451794473E+03  0.36666954364E+03  0.50400001928E-02 0.  1.
       -1    1    3    3    0  502 -0.12250728724E+03  0.30913221044E+03 -0.43133525894E+03  0.54462910736E+03  0.50400001928E-02 0. -1.
</event>
<event>
 5   0  0.2750139E-02  0.6968382E+03  0.7818609E-02  0.9722655E-01
       -1   -1    0    0    0  501  0.00000000000E+00  0.00000000000E+00  0.12780590244E+03  0.12780590254E+03  0.50400001928E-02 0. -1.
        1   -1    0    0  501    0  0.00000000000E+00  0.00000000000E+00 -0.94984558625E+03  0.94984558626E+03  0.50400001928E-02 0.  1.
    10030    2    1    2    0    0  0.00000000000E+00  0.00000000000E+00 -0.82203968380E+03  0.10776514888E+04  0.69683820904E+03 0.  0.
        2    1    3    3  502    0  0.10802618041E+03  0.43745109014E+02  0.96766600435E+02  0.15148288743E+03  0.25500000920E-02 0. -1.
       -2    1    3    3    0  502 -0.10802618041E+03 -0.43745109014E+02 -0.91880628424E+03  0.92616860138E+03  0.25500000920E-02 0.  1.
</event>
<event>
 5   0  0.4299912E-02  0.6791935E+03  0.7818609E-02  0.9753491E-01
        2   -1    0    0  501    0  0.00000000000E+00  0.00000000000E+00  0.12840562327E+03  0.12840562330E+03  0.25500000920E-02 0. -1.
       -2   -1    0    0    0  501  0.00000000000E+00  0.00000000000E+00 -0.89813797659E+03  0.89813797659E+03  0.25500000920E-02 0.  1.
    10030    2    1    2    0    0  0.00000000000E+00  0.00000000000E+00 -0.76973235331E+03  0.10265435999E+04  0.67919354145E+03 0.  0.
        3    1    3    3  502    0  0.13864245286E+03 -0.21813365018E+03 -0.71779616750E+03  0.76291242443E+03  0.10100000352E+00 0.  1.
       -3    1    3    3    0  502 -0.13864245286E+03  0.21813365018E+03 -0.51936185816E+02  0.26363117546E+03  0.10100000352E+00 0. -1.
</event>
<event>
 5   0  0.2684924E-02  0.7334010E+03  0.7818609E-02  0.9661758E-01
       -1   -1    0    0    0  501  0.00000000000E+00  0.00000000000E+00  0.11552319136E+03  0.11552319147E+03  0.50400001928E-02 0. -1.
        1   -1    0    0  501    0  0.00000000000E+00  0.00000000000E+00 -0.11640022852E+04  0.11640022852E+04  0.50400001928E-02 0.  1.
    10030    2    1    2    0    0  0.00000000000E+00  0.00000000000E+00 -0.10484790939E+04  0.12795254767E+04  0.73340100579E+03 0.  0.
        4    1    3    3  502    0  0.16358806523E+03 -0.28379730671E+03 -0.81179242783E+03  0.87539164102E+03  0.12699999809E+01 0.  1.
       -4    1    3    3    0  502 -0.16358806523E+03  0.28379730671E+03 -0.23668666604E+03  0.40413383570E+03  0.12699999809E+01 0. -1.
</event>
<event>
 5   0  0.4526837E-02  0.6869610E+03  0.7818609E-02  0.9739794E-01
       -2   -1    0    0    0  501  0.00000000000E+00  0.00000000000E+00  0.17957430507E+03  0.17957430509E+03  0.25500000920E-02 0.  1.
        2   -1    0    0  501    0  0.00000000000E+00  0.00000000000E+00 -0.65699188022E+03  0.65699188023E+03  0.25500000920E-02 0. -1.
    10030    2    1    2    0    0  0.00000000000E+00  0.00000000000E+00 -0.47741757515E+03  0.83656618532E+03  0.68696101881E+03 0.  0.
        1    1    3    3  502    0 -0.30811890018E+03  0.43358353262E+02 -0.61558016845E+02  0.31718542354E+03  0.50400001928E-02 0.  1.
       -1    1    3    3    0  502  0.30811890018E+03 -0.43358353262E+02 -0.41585955831E+03  0.51938076178E+03  0.50400001928E-02 0. -1.
</event>
<event>
 5   0  0.2751729E-02  0.7033082E+03  0.7818609E-02  0.9711591E-01
        1   -1    0    0  501    0  0.00000000000E+00  0.00000000000E+00  0.44553023883E+03  0.44553023886E+03  0.50400001928E-02 0. -1.
       -1   -1    0    0    0  501  0.00000000000E+00  0.00000000000E+00 -0.27755824284E+03  0.27755824288E+03  0.50400001928E-02 0.  1.
    10030    2    1    2    0    0  0.00000000000E+00  0.00000000000E+00  0.16797199599E+03  0.72308848174E+03  0.70330815507E+03 0.  0.
        1    1    3    3  502    0  0.24417789345E+03 -0.25211839229E+03  0.61600655348E+02  0.35634417092E+03  0.50400001928E-02 0. -1.
       -1    1    3    3    0  502 -0.24417789345E+03  0.25211839229E+03  0.10637134064E+03  0.36674431082E+03  0.50400001928E-02 0.  1.
</event>
<event>
 5   0  0.4365492E-02  0.6828249E+03  0.7818609E-02  0.9747063E-01
       -2   -1    0    0    0  501  0.00000000000E+00  0.00000000000E+00  0.36091718613E+03  0.36091718614E+03  0.25500000920E-02 0. -1.
        2   -1    0    0  501    0  0.00000000000E+00  0.00000000000E+00 -0.32296178600E+03  0.32296178601E+03  0.25500000920E-02 0.  1.
    10030    2    1    2    0    0  0.00000000000E+00  0.00000000000E+00  0.37955400123E+02  0.68387897215E+03  0.68282489421E+03 0.  0.
        4    1    3    3  502    0 -0.37188753691E+02  0.19369694590E+03 -0.26012673674E+03  0.32644914201E+03  0.12699999809E+01 0.  1.
       -4    1    3    3    0  502  0.37188753691E+02 -0.19369694590E+03  0.29808213687E+03  0.35742983014E+03  0.12699999809E+01 0. -1.
</event>
<event>
 5   0  0.1784625E-02  0.6557878E+03  0.7818609E-02  0.9795979E-01
        3   -1    0    0  501    0  0.00000000000E+00  0.00000000000E+00  0.45955083535E+03  0.45955084645E+03  0.10100000352E+00 0.  1.
       -3   -1    0    0    0  501  0.00000000000E+00  0.00000000000E+00 -0.23395538416E+03  0.23395540596E+03  0.10100000352E+00 0. -1.
    10030    2    1    2    0    0  0.00000000000E+00  0.00000000000E+00  0.22559545119E+03  0.69350625241E+03  0.65578778163E+03 0.  0.
        2    1    3    3  502    0 -0.26780902804E+03 -0.16825182484E+03  0.20428389540E+03  0.37651329590E+03  0.25500000920E-02 0.  1.
       -2    1    3    3    0  502  0.26780902804E+03  0.16825182484E+03  0.21311555790E+02  0.31699295651E+03  0.25500000920E-02 0. -1.
</event>
<event>
 5   0  0.4365492E-02  0.6910776E+03  0.7818609E-02  0.9732613E-01
       -2   -1    0    0    0  501  0.00000000000E+00  0.00000000000E+00  0.12752029272E+03  0.12752029275E+03  0.25500000920E-02 0.  1.
        2   -1    0    0  501    0  0.00000000000E+00  0.00000000000E+00 -0.93629854342E+03  0.93629854342E+03  0.25500000920E-02 0. -1.
    10030    2    1    2    0    0  0.00000000000E+00  0.00000000000E+00 -0.80877825070E+03  0.10638188362E+04  0.69107760592E+03 0.  0.
        4    1    3    3  502    0 -0.67438849840E+02  0.16571903955E+03 -0.85943841261E+03  0.87786490789E+03  0.12699999809E+01 0. -1.
       -4    1    3    3    0  502  0.67438849840E+02 -0.16571903955E+03  0.50660161916E+02  0.18595392828E+03  0.12699999809E+01 0.  1.
</event>
<event>
 5   0  0.4420645E-02  0.7003634E+03  0.7818609E-02  0.9716611E-01
        2   -1    0    0  501    0  0.00000000000E+00  0.00000000000E+00  0.12854632614E+03  0.12854632617E+03  0.25500000920E-02 0. -1.
       -2   -1    0    0    0  501  0.00000000000E+00  0.00000000000E+00 -0.95395360752E+03  0.95395360752E+03  0.25500000920E-02 0.  1.
    10030    2    1    2    0    0  0.00000000000E+00  0.00000000000E+00 -0.82540728137E+03  0.10824999337E+04  0.70036342444E+03 0.  0.
        5    1    3    3  502    0 -0.15300933187E+03  0.31119953131E+03 -0.33780633469E+03  0.48414069616E+03  0.46999998093E+01 0.  1.
       -5    1    3    3    0  502  0.15300933187E+03 -0.31119953131E+03 -0.48760094669E+03  0.59835923753E+03  0.46999998093E+01 0. -1.
</event>
<event>
 5   0  0.4503289E-02  0.7135014E+03  0.7818609E-02  0.9694418E-01
       -2   -1    0    0    0  501  0.00000000000E+00  0.00000000000E+00  0.16102673488E+03  0.16102673490E+03  0.25500000920E-02 0. -1.
        2   -1    0    0  501    0  0.00000000000E+00  0.00000000000E+00 -0.79037219875E+03  0.79037219875E+03  0.25500000920E-02 0.  1.
    10030    2    1    2    0    0  0.00000000000E+00  0.00000000000E+00 -0.62934546387E+03  0.95139893366E+03  0.71350137917E+03 0.  0.
        2    1    3    3  502    0 -0.16033701284E+03  0.28209682356E+03 -0.11696396296E+03  0.34491614081E+03  0.25500000920E-02 0. -1.
       -2    1    3    3    0  502  0.16033701284E+03 -0.28209682356E+03 -0.51238150090E+03  0.60648279285E+03  0.25500000920E-02 0.  1.
</event>
<event>
 5   0  0.4299912E-02  0.7179643E+03  0.7818609E-02  0.9686995E-01
       -2   -1    0    0    0  501  0.00000000000E+00  0.00000000000E+00  0.41985255040E+03  0.41985255041E+03  0.25500000920E-02 0. -1.
        2   -1    0    0  501    0  0.00000000000E+00  0.00000000000E+00 -0.30693675980E+03  0.30693675982E+03  0.25500000920E-02 0.  1.
    10030    2    1    2    0    0  0.00000000000E+00  0.00000000000E+00  0.11291579060E+03  0.72678931023E+03  0.71796429277E+03 0.  0.
        3    1    3    3  502    0  0.32545809862E+03 -0.24100451871E+02  0.20784328945E+03  0.38691426558E+03  0.10100000352E+00 0.  1.
       -3    1    3    3    0  502 -0.32545809862E+03  0.24100451871E+02 -0.94927498851E+02  0.33987504465E+03  0.10100000352E+00 0. -1.
</event>
<event>
 5   0  0.4299912E-02  0.7057587E+03  0.7818609E-02  0.9707434E-01
       -2   -1    0    0    0  501  0.00000000000E+00  0.00000000000E+00  0.96277373629E+02  0.96277373663E+02  0.25500000920E-02 0.  1.
        2   -1    0    0  501    0  0.00000000000E+00  0.00000000000E+00 -0.12933861462E+04  0.12933861462E+04  0.25500000920E-02 0. -1.
    10030    2    1    2    0    0  0.00000000000E+00  0.00000000000E+00 -0.11971087726E+04  0.13896635199E+04  0.70575865923E+03 0.  0.
        3    1    3    3  502    0  0.19094131973E+03 -0.29075621582E+03 -0.71547671485E+03  0.79555308077E+03  0.10100000352E+00 0.  1.
       -3    1    3    3    0  502 -0.19094131973E+03  0.29075621582E+03 -0.48163205771E+03  0.59411043909E+03  0.10100000352E+00 0. -1.
</event>
<event>
 5   0  0.4503289E-02  0.7018188E+03  0.7818609E-02  0.9714127E-01
       -2   -1    0    0    0  501  0.00000000000E+00  0.00000000000E+00  0.43338580039E+03  0.43338580039E+03  0.25500000920E-02 0.  1.
        2   -1    0    0  501    0  0.00000000000E+00  0.00000000000E+00 -0.28412883574E+03  0.28412883575E+03  0.25500000920E-02 0. -1.
    10030    2    1    2    0    0  0.00000000000E+00  0.00000000000E+00  0.14925696464E+03  0.71751463615E+03  0.70181878829E+03 0.  0.
        2    1    3    3  502    0 -0.91675433118E+02 -0.19537202779E+03  0.35751656067E+03  0.41760352661E+03  0.25500000920E-02 0.  1.
       -2    1    3    3    0  502  0.91675433118E+02  0.19537202779E+03 -0.20825959602E+03  0.29991110954E+03  0.25500000920E-02 0. -1.
</event>
<event>
 5   0  0.2777999E-02  0.6981653E+03  0.7818609E-02  0.9720375E-01
       -1   -1    0    0    0  501  0.00000000000E+00  0.00000000000E+00  0.21740038970E+03  0.21740038976E+03  0.50400001928E-02 0.  1.
        1   -1    0    0  501    0  0.00000000000E+00  0.00000000000E+00 -0.56052658193E+03  0.56052658195E+03  0.50400001928E-02 0. -1.
    10030    2    1    2    0    0  0.00000000000E+00  0.00000000000E+00 -0.34312619223E+03  0.77792697171E+03  0.69816530243E+03 0.  0.
        5    1    3    3  502    0 -0.44226141321E+02 -0.34620970132E+03 -0.16664291227E+03  0.38679330278E+03  0.46999998093E+01 0. -1.
       -5    1    3    3    0  502  0.44226141321E+02  0.34620970132E+03 -0.17648327996E+03  0.39113366893E+03  0.46999998093E+01 0.  1.
</event>
<event>
 5   0  0.4420645E-02  0.7554578E+03  0.7818609E-02  0.9626827E-01
       -2   -1    0    0    0  501  0.00000000000E+00  0.00000000000E+00  0.16041159214E+03  0.16041159216E+03  0.25500000920E-02 0. -1.
        2   -1    0    0  501    0  0.00000000000E+00  0.00000000000E+00 -0.88945644300E+03  0.88945644301E+03  0.25500000920E-02 0.  1.
    10030    2    1    2    0    0  0.00000000000E+00  0.00000000000E+00 -0.72904485087E+03  0.10498680352E+04  0.75545780603E+03 0.  0.
        5    1    3    3  502    0 -0.61031266702E+02  0.19597889372E+03  0.76093757009E+02  0.21896322101E+03  0.46999998093E+01 0. -1.
       -5    1    3    3    0  502  0.61031266702E+02 -0.19597889372E+03 -0.80513860788E+03  0.83090481416E+03  0.46999998093E+01 0.  1.
</event>
<event>
 5   0  0.4299912E-02  0.6987287E+03  0.7818609E-02  0.9719409E-01
        2   -1    0    0  501    0  0.00000000000E+00  0.00000000000E+00  0.63100092641E+03  0.63100092642E+03  0.25500000920E-02 0. -1.
       -2   -1    0    0    0  501  0.00000000000E+00  0.00000000000E+00 -0.19343146616E+03  0.19343146618E+03  0.25500000920E-02 0.  1.
    10030    2    1    2    0    0  0.00000000000E+00  0.00000000000E+00  0.43756946025E+03  0.82443239259E+03  0.69872865793E+03 0.  0.
        3    1    3    3  502    0 -0.33876233033E+03  0.78827809260E+02  0.25759053825E+03  0.43281247159E+03  0.10100000352E+00 0. -1.
       -3    1    3    3    0  502  0.33876233033E+03 -0.78827809260E+02  0.17997892200E+03  0.39161992101E+03  0.10100000352E+00 0.  1.
</event>
<event>
 5   0  0.2684924E-02  0.5887916E+03  0.7818609E-02  0.9928937E-01
        1   -1    0    0  501    0  0.00000000000E+00  0.00000000000E+00  0.34811579541E+03  0.34811579545E+03  0.50400001928E-02 0.  1.
       -1   -1    0    0    0  501  0.00000000000E+00  0.00000000000E+00 -0.24896572152E+03  0.24896572157E+03  0.50400001928E-02 0. -1.
    10030    2    1    2    0    0  0.00000000000E+00  0.00000000000E+00  0.99150073893E+02  0.59708151702E+03  0.58879164465E+03 0.  0.
        4    1    3    3  502    0  0.27226515127E+03 -0.91211801660E+02  0.11544636342E+03  0.30947920946E+03  0.12699999809E+01 0.  1.
       -4    1    3    3    0  502 -0.27226515127E+03  0.91211801660E+02 -0.16296289525E+02  0.28760230756E+03  0.12699999809E+01 0. -1.
</event>
<event>
 5   0  0.4526837E-02  0.7061043E+03  0.7818609E-02  0.9706850E-01
       -2   -1    0    0    0  501  0.00000000000E+00  0.00000000000E+00  0.98277507922E+02  0.98277507955E+02  0.25500000920E-02 0.  1.
        2   -1    0    0  501    0  0.00000000000E+00  0.00000000000E+00 -0.12683045415E+04  0.12683045415E+04  0.25500000920E-02 0. -1.
    10030    2    1    2    0    0  0.00000000000E+00  0.00000000000E+00 -0.11700270336E+04  0.13665820495E+04  0.70610426893E+03 0.  0.
        1    1    3    3  502    0  0.24891680404E+03 -0.17774738163E+03 -0.92627865147E+03  0.97547211503E+03  0.50400001928E-02 0. -1.
       -1    1    3    3    0  502 -0.24891680404E+03  0.17774738163E+03 -0.24374838213E+03  0.39110993445E+03  0.50400001928E-02 0.  1.
</event>
<event>
 5   0  0.4503289E-02  0.6256222E+03  0.7818609E-02  0.9853629E-01
       -2   -1    0    0    0  501  0.00000000000E+00  0.00000000000E+00  0.15530923984E+03  0.15530923986E+03  0.25500000920E-02 0.  1.
        2   -1    0    0  501    0  0.00000000000E+00  0.00000000000E+00 -0.63003834042E+03  0.63003834042E+03  0.25500000920E-02 0. -1.
    10030    2    1    2    0    0  0.00000000000E+00  0.00000000000E+00 -0.47472910057E+03  0.78534758028E+03  0.62562217266E+03 0.  0.
        2    1    3    3  502    0 -0.12857352879E+03  0.26260114928E+03 -0.37692539126E+03  0.47703591740E+03  0.25500000920E-02 0. -1.
       -2    1    3    3    0  502  0.12857352879E+03 -0.26260114928E+03 -0.97803709316E+02  0.30831166288E+03  0.25500000920E-02 0.  1.
</event>
<event>
 5   0  0.2750139E-02  0.6989587E+03  0.7818609E-02  0.9719015E-01
        1   -1    0    0  501    0  0.00000000000E+00  0.00000000000E+00  0.15384125121E+04  0.15384125121E+04  0.50400001928E-02 0.  1.
       -1   -1    0    0    0  501  0.00000000000E+00  0.00000000000E+00 -0.79390814227E+02  0.79390814387E+02  0.50400001928E-02 0. -1.
    10030    2    1    2    0    0  0.00000000000E+00  0.00000000000E+00  0.14590216979E+04  0.16178033265E+04  0.69895871720E+03 0.  0.
        2    1    3    3  502    0 -0.22310734869E+03  0.17911412527E+03  0.26499226172E+03  0.38997391925E+03  0.25500000920E-02 0. -1.
       -2    1    3    3    0  502  0.22310734869E+03 -0.17911412527E+03  0.11940294361E+04  0.12278294072E+04  0.25500000920E-02 0.  1.
</event>
<event>
 5   0  0.4420645E-02  0.7323602E+03  0.7818609E-02  0.9663438E-01
       -2   -1    0    0    0  501  0.00000000000E+00  0.00000000000E+00  0.67439272028E+02  0.67439272076E+02  0.25500000920E-02 0. -1.
        2   -1    0    0  501    0  0.00000000000E+00  0.00000000000E+00 -0.19882757341E+04  0.19882757341E+04  0.25500000920E-02 0.  1.
    10030    2    1    2    0    0  0.00000000000E+00  0.00000000000E+00 -0.19208364621E+04  0.20557150062E+04  0.73236020687E+03 0.  0.
        5    1    3    3  502    0 -0.17515251595E+03  0.31842982895E+03 -0.83520653953E+03  0.91086113842E+03  0.46999998093E+01 0. -1.
       -5    1    3    3    0  502  0.17515251595E+03 -0.31842982895E+03 -0.10856299226E+04  0.11448538678E+04  0.46999998093E+01 0.  1.
</event>
<event>
 5   0  0.2758681E-02  0.7173624E+03  0.7818609E-02  0.9687992E-01
        1   -1    0    0  501    0  0.00000000000E+00  0.00000000000E+00  0.61969657005E+03  0.61969657007E+03  0.50400001928E-02 0.  1.
       -1   -1    0    0    0  501  0.00000000000E+00  0.00000000000E+00 -0.20760514144E+03  0.20760514150E+03  0.50400001928E-02 0. -1.
    10030    2    1    2    0    0  0.00000000000E+00  0.00000000000E+00  0.41209142861E+03  0.82730171157E+03  0.71736237456E+03 0.  0.
        3    1    3    3  502    0  0.10035108145E+03 -0.27191939967E+03 -0.37620667847E+02  0.29227696508E+03  0.10100000352E+00 0. -1.
       -3    1    3    3    0  502 -0.10035108145E+03  0.27191939967E+03  0.44971209646E+03  0.53502474650E+03  0.10100000352E+00 0.  1.
</event>
<event>
 5   0  0.2758681E-02  0.7021919E+03  0.7818609E-02  0.9713491E-01
        1   -1    0    0  501    0  0.00000000000E+00  0.00000000000E+00  0.54356738363E+03  0.54356738365E+03  0.50400001928E-02 0. -1.
       -1   -1    0    0    0  501  0.00000000000E+00  0.00000000000E+00 -0.22677660286E+03  0.22677660292E+03  0.50400001928E-02 0.  1.
    10030    2    1    2    0    0  0.00000000000E+00  0.00000000000E+00  0.31679078076E+03  0.77034398657E+03  0.70219189604E+03 0.  0.
        3    1    3    3  502    0 -0.14156406288E+03  0.30013616877E+02  0.50932848829E+03  0.52948722391E+03  0.10100000352E+00 0. -1.
       -3    1    3    3    0  502  0.14156406288E+03 -0.30013616877E+02 -0.19253770753E+03  0.24085676266E+03  0.10100000352E+00 0.  1.
</event>
<event>
 5   0  0.2750139E-02  0.7021564E+03  0.7818609E-02  0.9713552E-01
        1   -1    0    0  501    0  0.00000000000E+00  0.00000000000E+00  0.41329715397E+03  0.41329715400E+03  0.50400001928E-02 0.  1.
       -1   -1    0    0    0  501  0.00000000000E+00  0.00000000000E+00 -0.29822584689E+03  0.29822584693E+03  0.50400001928E-02 0. -1.
    10030    2    1    2    0    0  0.00000000000E+00  0.00000000000E+00  0.11507130709E+03  0.71152300093E+03  0.70215637513E+03 0.  0.
        2    1    3    3  502    0  0.22778045103E+03  0.11321774005E+03 -0.18767101909E+03  0.31610536526E+03  0.25500000920E-02 0. -1.
       -2    1    3    3    0  502 -0.22778045103E+03 -0.11321774005E+03  0.30274232618E+03  0.39541763567E+03  0.25500000920E-02 0.  1.
</event>
<event>
 5   0  0.4365492E-02  0.6956513E+03  0.7818609E-02  0.9724698E-01
        2   -1    0    0  501    0  0.00000000000E+00  0.00000000000E+00  0.13798382922E+04  0.13798382922E+04  0.25500000920E-02 0. -1.
       -2   -1    0    0    0  501  0.00000000000E+00  0.00000000000E+00 -0.87678894978E+02  0.87678895015E+02  0.25500000920E-02 0.  1.
    10030    2    1    2    0    0  0.00000000000E+00  0.00000000000E+00  0.12921593973E+04  0.14675171872E+04  0.69565134008E+03 0.  0.
        4    1    3    3  502    0  0.32827406641E+03  0.48192742291E+01  0.88839438686E+03  0.94711841265E+03  0.12699999809E+01 0. -1.
       -4    1    3    3    0  502 -0.32827406641E+03 -0.48192742291E+01  0.40376501040E+03  0.52039877460E+03  0.12699999809E+01 0.  1.
</event>
<event>
 5   0  0.4503289E-02  0.6450228E+03  0.7818609E-02  0.9816164E-01
        2   -1    0    0  501    0  0.00000000000E+00  0.00000000000E+00  0.70992394424E+03  0.70992394424E+03  0.25500000920E-02 0. -1.
       -2   -1    0    0    0  501  0.00000000000E+00  0.00000000000E+00 -0.14651372395E+03  0.14651372397E+03  0.25500000920E-02 0.  1.
    10030    2    1    2    0    0  0.00000000000E+00  0.00000000000E+00  0.56341022029E+03  0.85643766821E+03  0.64502279278E+03 0.  0.
        2    1    3    3  502    0  0.54784850396E+02  0.30325200293E+03  0.40802031598E+03  0.51131569053E+03  0.25500000920E-02 0. -1.
       -2    1    3    3    0  502 -0.54784850396E+02 -0.30325200293E+03  0.15538990430E+03  0.34512197769E+03  0.25500000920E-02 0.  1.
</event>
<event>
 5   0  0.4365492E-02  0.6973610E+03  0.7818609E-02  0.9721756E-01
        2   -1    0    0  501    0  0.00000000000E+00  0.00000000000E+00  0.74640096459E+03  0.74640096460E+03  0.25500000920E-02 0.  1.
       -2   -1    0    0    0  501  0.00000000000E+00  0.00000000000E+00 -0.16288578377E+03  0.16288578379E+03  0.25500000920E-02 0. -1.
    10030    2    1    2    0    0  0.00000000000E+00  0.00000000000E+00  0.58351518083E+03  0.90928674839E+03  0.69736104317E+03 0.  0.
        4    1    3    3  502    0 -0.28286911808E+03 -0.14267581162E+03  0.48163095162E+03  0.57649051306E+03  0.12699999809E+01 0.  1.
       -4    1    3    3    0  502  0.28286911808E+03  0.14267581162E+03  0.10188422921E+03  0.33279623533E+03  0.12699999809E+01 0. -1.
</event>
<event>
 5   0  0.4526837E-02  0.7120182E+03  0.7818609E-02  0.9696897E-01
        2   -1    0    0  501    0  0.00000000000E+00  0.00000000000E+00  0.55917385821E+03  0.55917385822E+03  0.25500000920E-02 0.  1.
       -2   -1    0    0    0  501  0.00000000000E+00  0.00000000000E+00 -0.22666025348E+03  0.22666025349E+03  0.25500000920E-02 0. -1.
    10030    2    1    2    0    0  0.00000000000E+00  0.00000000000E+00  0.33251360474E+03  0.78583411171E+03  0.71201822574E+03 0.  0.
        1    1    3    3  502    0  0.28721877747E+03  0.88205260961E+02 -0.44505977789E+02  0.30373603058E+03  0.50400001928E-02 0. -1.
       -1    1    3    3    0  502 -0.28721877747E+03 -0.88205260961E+02  0.37701958252E+03  0.48209808112E+03  0.50400001928E-02 0.  1.
</event>
<event>
 5   0  0.4299912E-02  0.7376751E+03  0.7818609E-02  0.9654887E-01
       -2   -1    0    0    0  501  0.00000000000E+00  0.00000000000E+00  0.33839469837E+03  0.33839469838E+03  0.25500000920E-02 0. -1.
        2   -1    0    0  501    0  0.00000000000E+00  0.00000000000E+00 -0.40201907267E+03  0.40201907268E+03  0.25500000920E-02 0.  1.
    10030    2    1    2    0    0  0.00000000000E+00  0.00000000000E+00 -0.63624374297E+02  0.74041377106E+03  0.73767505812E+03 0.  0.
        3    1    3    3  502    0 -0.14198689725E+03  0.33376599548E+03  0.35377313145E+02  0.36443323560E+03  0.10100000352E+00 0. -1.
       -3    1    3    3    0  502  0.14198689725E+03 -0.33376599548E+03 -0.99001687443E+02  0.37598053546E+03  0.10100000352E+00 0.  1.
</event>
<event>
 5   0  0.2751729E-02  0.7280615E+03  0.7818609E-02  0.9670411E-01
        1   -1    0    0  501    0  0.00000000000E+00  0.00000000000E+00  0.20968715234E+03  0.20968715240E+03  0.50400001928E-02 0.  1.
       -1   -1    0    0    0  501  0.00000000000E+00  0.00000000000E+00 -0.63198138020E+03  0.63198138022E+03  0.50400001928E-02 0. -1.
    10030    2    1    2    0    0  0.00000000000E+00  0.00000000000E+00 -0.42229422785E+03  0.84166853262E+03  0.72806146988E+03 0.  0.
        1    1    3    3  502    0  0.21722401904E+03 -0.14003688415E+03  0.85218407006E+02  0.27213742905E+03  0.50400001928E-02 0.  1.
       -1    1    3    3    0  502 -0.21722401904E+03  0.14003688415E+03 -0.50751263486E+03  0.56953110357E+03  0.50400001928E-02 0. -1.
</event>
<event>
 5   0  0.4503289E-02  0.7015929E+03  0.7818609E-02  0.9714512E-01
       -2   -1    0    0    0  501  0.00000000000E+00  0.00000000000E+00  0.95859860001E+02  0.95859860035E+02  0.25500000920E-02 0. -1.
        2   -1    0    0  501    0  0.00000000000E+00  0.00000000000E+00 -0.12837297279E+04  0.12837297279E+04  0.25500000920E-02 0.  1.
    10030    2    1    2    0    0  0.00000000000E+00  0.00000000000E+00 -0.11878698679E+04  0.13795895880E+04  0.70159290767E+03 0.  0.
        2    1    3    3  502    0  0.28947718171E+03 -0.19238211698E+03 -0.68721279810E+03  0.77010995809E+03  0.25500000920E-02 0.  1.
       -2    1    3    3    0  502 -0.28947718171E+03  0.19238211698E+03 -0.50065706984E+03  0.60947962989E+03  0.25500000920E-02 0. -1.
</event>
<event>
 5   0  0.2750139E-02  0.6504491E+03  0.7818609E-02  0.9805937E-01
        1   -1    0    0  501    0  0.00000000000E+00  0.00000000000E+00  0.38851412508E+03  0.38851412512E+03  0.50400001928E-02 0.  1.
       -1   -1    0    0    0  501  0.00000000000E+00  0.00000000000E+00 -0.27224497907E+03  0.27224497912E+03  0.50400001928E-02 0. -1.
    10030    2    1    2    0    0  0.00000000000E+00  0.00000000000E+00  0.11626914601E+03  0.66075910424E+03  0.65044913676E+03 0.  0.
        2    1    3    3  502    0  0.29865875919E+03  0.11909594121E+03  0.10779836410E+03  0.33911854117E+03  0.25500000920E-02 0.  1.
       -2    1    3    3    0  502 -0.29865875919E+03 -0.11909594121E+03  0.84707819094E+01  0.32164056306E+03  0.25500000920E-02 0. -1.
</event>
<event>
 5   0  0.4365492E-02  0.7046606E+03  0.7818609E-02  0.9709295E-01
       -2   -1    0    0    0  501  0.00000000000E+00  0.00000000000E+00  0.85147224437E+02  0.85147224475E+02  0.25500000920E-02 0. -1.
        2   -1    0    0  501    0  0.00000000000E+00  0.00000000000E+00 -0.14579057298E+04  0.14579057298E+04  0.25500000920E-02 0.  1.
    10030    2    1    2    0    0  0.00000000000E+00  0.00000000000E+00 -0.13727585053E+04  0.15430529543E+04  0.70466056059E+03 0.  0.
        4    1    3    3  502    0 -0.18801385165E+02 -0.10126060964E+03 -0.14242019246E+04  0.14279215448E+04  0.12699999809E+01 0.  1.
       -4    1    3    3    0  502  0.18801385165E+02  0.10126060964E+03  0.51443419296E+02  0.11513140943E+03  0.12699999809E+01 0. -1.
</event>
<event>
 5   0  0.4365492E-02  0.7000833E+03  0.7818609E-02  0.9717090E-01
       -2   -1    0    0    0  501  0.00000000000E+00  0.00000000000E+00  0.26018769716E+03  0.26018769718E+03  0.25500000920E-02 0.  1.
        2   -1    0    0  501    0  0.00000000000E+00  0.00000000000E+00 -0.47092599275E+03  0.47092599276E+03  0.25500000920E-02 0. -1.
    10030    2    1    2    0    0  0.00000000000E+00  0.00000000000E+00 -0.21073829559E+03  0.73111368993E+03  0.70008327960E+03 0.  0.
        4    1    3    3  502    0 -0.85316810211E+02 -0.25497950219E+03 -0.33943293616E+03  0.43302405902E+03  0.12699999809E+01 0. -1.
       -4    1    3    3    0  502  0.85316810211E+02  0.25497950219E+03  0.12869464057E+03  0.29808963091E+03  0.12699999809E+01 0.  1.
</event>
<event>
 5   0  0.2684924E-02  0.7203018E+03  0.7818609E-02  0.9683130E-01
        1   -1    0    0  501    0  0.00000000000E+00  0.00000000000E+00  0.73091490662E+03  0.73091490664E+03  0.50400001928E-02 0. -1.
       -1   -1    0    0    0  501  0.00000000000E+00  0.00000000000E+00 -0.17746070339E+03  0.17746070346E+03  0.50400001928E-02 0.  1.
    10030    2    1    2    0    0  0.00000000000E+00  0.00000000000E+00  0.55345420323E+03  0.90837561010E+03  0.72030180755E+03 0.  0.
        4    1    3    3  502    0  0.13530084130E+03 -0.72394702874E+01 -0.14408945665E+03  0.19779310404E+03  0.12699999809E+01 0.  1.
       -4    1    3    3    0  502 -0.13530084130E+03  0.72394702874E+01  0.69754365987E+03  0.71058250606E+03  0.12699999809E+01 0. -1.
</event>
<event>
 5   0  0.2758681E-02  0.6745633E+03  0.7818609E-02  0.9761749E-01
        1   -1    0    0  501    0  0.00000000000E+00  0.00000000000E+00  0.12903821219E+04  0.12903821219E+04  0.50400001928E-02 0.  1.
       -1   -1    0    0    0  501  0.00000000000E+00  0.00000000000E+00 -0.88159080807E+02  0.88159080951E+02  0.50400001928E-02 0. -1.
    10030    2    1    2    0    0  0.00000000000E+00  0.00000000000E+00  0.12022230411E+04  0.13785412028E+04  0.67456327164E+03 0.  0.
        3    1    3    3  502    0 -0.13894566906E+03 -0.29499960916E+03  0.42497900597E+03  0.53566578579E+03  0.10100000352E+00 0.  1.
       -3    1    3    3    0  502  0.13894566906E+03  0.29499960916E+03  0.77724403510E+03  0.84287541704E+03  0.10100000352E+00 0. -1.
</event>
<event>
 5   0  0.4299912E-02  0.6916292E+03  0.7818609E-02  0.9731655E-01
       -2   -1    0    0    0  501  0.00000000000E+00  0.00000000000E+00  0.31364227207E+03  0.31364227208E+03  0.25500000920E-02 0.  1.
        2   -1    0    0  501    0  0.00000000000E+00  0.00000000000E+00 -0.38128700693E+03  0.38128700694E+03  0.25500000920E-02 0. -1.
    10030    2    1    2    0    0  0.00000000000E+00  0.00000000000E+00 -0.67644734862E+02  0.69492927901E+03  0.69162915834E+03 0.  0.
        3    1    3    3  502    0 -0.26992311197E+03  0.90224370292E+02 -0.23119998100E+03  0.36667746697E+03  0.10100000352E+00 0. -1.
       -3    1    3    3    0  502  0.26992311197E+03 -0.90224370292E+02  0.16355524614E+03  0.32825181204E+03  0.10100000352E+00 0.  1.
</event>
<event>
 5   0  0.2777999E-02  0.7207365E+03  0.7818609E-02  0.9682413E-01
       -1   -1    0    0    0  501  0.00000000000E+00  0.00000000000E+00  0.24470875831E+03  0.24470875836E+03  0.50400001928E-02 0.  1.
        1   -1    0    0  501    0  0.00000000000E+00  0.00000000000E+00 -0.53069318396E+03  0.53069318399E+03  0.50400001928E-02 0. -1.
    10030    2    1    2    0    0  0.00000000000E+00  0.00000000000E+00 -0.28598442565E+03  0.77540194235E+03  0.72073648477E+03 0.  0.
        5    1    3    3  502    0  0.13928531409E+03 -0.30491847081E+03 -0.28518116285E+03  0.44014322465E+03  0.46999998093E+01 0.  1.
       -5    1    3    3    0  502 -0.13928531409E+03  0.30491847081E+03 -0.80326280483E+00  0.33525871770E+03  0.46999998093E+01 0. -1.
</event>
<event>
 5   0  0.2684924E-02  0.6943223E+03  0.7818609E-02  0.9726991E-01
       -1   -1    0    0    0  501  0.00000000000E+00  0.00000000000E+00  0.38122981376E+03  0.38122981379E+03  0.50400001928E-02 0. -1.
        1   -1    0    0  501    0  0.00000000000E+00  0.00000000000E+00 -0.31613706674E+03  0.31613706678E+03  0.50400001928E-02 0.  1.
    10030    2    1    2    0    0  0.00000000000E+00  0.00000000000E+00  0.65092747018E+02  0.69736688057E+03  0.69432233177E+03 0.  0.
        4    1    3    3  502    0 -0.76628535597E+02  0.16776560841E+03 -0.26285556078E+03  0.32111040246E+03  0.12699999809E+01 0.  1.
       -4    1    3    3    0  502  0.76628535597E+02 -0.16776560841E+03  0.32794830780E+03  0.37625647811E+03  0.12699999809E+01 0. -1.
</event>
<event>
 5   0  0.4365492E-02  0.5461895E+03  0.7818609E-02  0.1002380E+00
        2   -1    0    0  501    0  0.00000000000E+00  0.00000000000E+00  0.15180960390E+03  0.15180960392E+03  0.25500000920E-02 0. -1.
       -2   -1    0    0    0  501  0.00000000000E+00  0.00000000000E+00 -0.49127821080E+03  0.49127821081E+03  0.25500000920E-02 0.  1.
    10030    2    1    2    0    0  0.00000000000E+00  0.00000000000E+00 -0.33946860691E+03  0.64308781473E+03  0.54618952972E+03 0.  0.
        4    1    3    3  502    0  0.17962747148E+03  0.13504264762E+03 -0.35242836095E+03  0.41798314283E+03  0.12699999809E+01 0.  1.
       -4    1    3    3    0  502 -0.17962747148E+03 -0.13504264762E+03  0.12959754042E+02  0.22510467190E+03  0.12699999809E+01 0. -1.
</event>
<event>
 5   0  0.4526837E-02  0.7013658E+03  0.7818609E-02  0.9714899E-01
        2   -1    0    0  501    0  0.00000000000E+00  0.00000000000E+00  0.33778241209E+03  0.33778241210E+03  0.25500000920E-02 0. -1.
       -2   -1    0    0    0  501  0.00000000000E+00  0.00000000000E+00 -0.36407604208E+03  0.36407604209E+03  0.25500000920E-02 0.  1.
    10030    2    1    2    0    0  0.00000000000E+00  0.00000000000E+00 -0.26293629988E+02  0.70185845419E+03  0.70136576388E+03 0.  0.
        1    1    3    3  502    0 -0.25398396617E+03 -0.16724731301E+03 -0.18790902289E+03  0.35747632046E+03  0.50400001928E-02 0.  1.
       -1    1    3    3    0  502  0.25398396617E+03  0.16724731301E+03  0.16161539290E+03  0.34438213373E+03  0.50400001928E-02 0. -1.
</event>
<event>
 5   0  0.2750139E-02  0.6858131E+03  0.7818609E-02  0.9741806E-01
       -1   -1    0    0    0  501  0.00000000000E+00  0.00000000000E+00  0.11363248076E+03  0.11363248087E+03  0.50400001928E-02 0. -1.
        1   -1    0    0  501    0  0.00000000000E+00  0.00000000000E+00 -0.10347825652E+04  0.10347825652E+04  0.50400001928E-02 0.  1.
    10030    2    1    2    0    0  0.00000000000E+00  0.00000000000E+00 -0.92115008444E+03  0.11484150461E+04  0.68581312324E+03 0.  0.
        2    1    3    3  502    0 -0.13732520863E+03  0.66454674758E+02 -0.97482355542E+03  0.98668911058E+03  0.25500000920E-02 0.  1.
       -2    1    3    3    0  502  0.13732520863E+03 -0.66454674758E+02  0.53673470981E+02  0.16172593551E+03  0.25500000920E-02 0. -1.
</event>
<event>
 5   0  0.4503289E-02  0.6862732E+03  0.7818609E-02  0.9740999E-01
        2   -1    0    0  501    0  0.00000000000E+00  0.00000000000E+00  0.84640112129E+03  0.84640112130E+03  0.25500000920E-02 0.  1.
       -2   -1    0    0    0  501  0.00000000000E+00  0.00000000000E+00 -0.13910985089E+03  0.13910985091E+03  0.25500000920E-02 0. -1.
    10030    2    1    2    0    0  0.00000000000E+00  0.00000000000E+00  0.70729127041E+03  0.98551097221E+03  0.68627322194E+03 0.  0.
        2    1    3    3  502    0 -0.64292565979E+02 -0.18284440812E+03 -0.52975213548E+02  0.20092781011E+03  0.25500000920E-02 0. -1.
       -2    1    3    3    0  502  0.64292565979E+02  0.18284440812E+03  0.76026648395E+03  0.78458316210E+03  0.25500000920E-02 0.  1.
</event>
<event>
 5   0  0.1784625E-02  0.6960546E+03  0.7818609E-02  0.9724003E-01
        3   -1    0    0  501    0  0.00000000000E+00  0.00000000000E+00  0.20770528439E+04  0.20770528464E+04  0.10100000352E+00 0.  1.
       -3   -1    0    0    0  501  0.00000000000E+00  0.00000000000E+00 -0.58314791141E+02  0.58314878605E+02  0.10100000352E+00 0. -1.
    10030    2    1    2    0    0  0.00000000000E+00  0.00000000000E+00  0.20187380528E+04  0.21353677250E+04  0.69605459208E+03 0.  0.
        1    1    3    3  502    0 -0.27021903801E+02 -0.26872698128E+03  0.16827433805E+04  0.17042798064E+04  0.50400001928E-02 0.  1.
       -1    1    3    3    0  502  0.27021903801E+02  0.26872698128E+03  0.33599467231E+03  0.43108791865E+03  0.50400001928E-02 0. -1.
</event>
<event>
 5   0  0.4526837E-02  0.7038644E+03  0.7818609E-02  0.9710646E-01
       -2   -1    0    0    0  501  0.00000000000E+00  0.00000000000E+00  0.60319342675E+03  0.60319342676E+03  0.25500000920E-02 0.  1.
        2   -1    0    0  501    0  0.00000000000E+00  0.00000000000E+00 -0.20533422760E+03  0.20533422762E+03  0.25500000920E-02 0. -1.
    10030    2    1    2    0    0  0.00000000000E+00  0.00000000000E+00  0.39785919915E+03  0.80852765438E+03  0.70386435166E+03 0.  0.
        1    1    3    3  502    0  0.15364797704E+03  0.13658712468E+03 -0.12918916144E+03  0.24280358922E+03  0.50400001928E-02 0. -1.
       -1    1    3    3    0  502 -0.15364797704E+03 -0.13658712468E+03  0.52704836059E+03  0.56572406516E+03  0.50400001928E-02 0.  1.
</event>
<event>
 5   0  0.4299912E-02  0.6934381E+03  0.7818609E-02  0.9728520E-01
       -2   -1    0    0    0  501  0.00000000000E+00  0.00000000000E+00  0.27361261693E+03  0.27361261694E+03  0.25500000920E-02 0.  1.
        2   -1    0    0  501    0  0.00000000000E+00  0.00000000000E+00 -0.43935875342E+03  0.43935875343E+03  0.25500000920E-02 0. -1.
    10030    2    1    2    0    0  0.00000000000E+00  0.00000000000E+00 -0.16574613649E+03  0.71297137037E+03  0.69343809616E+03 0.  0.
        3    1    3    3  502    0 -0.15170205299E+03 -0.67616194594E+02  0.23004958460E+03  0.28373981784E+03  0.10100000352E+00 0.  1.
       -3    1    3    3    0  502  0.15170205299E+03  0.67616194594E+02 -0.39579572109E+03  0.42923155253E+03  0.10100000352E+00 0. -1.
</event>
<event>
 5   0  0.4503289E-02  0.7009761E+03  0.7818609E-02  0.9715564E-01
        2   -1    0    0  501    0  0.00000000000E+00  0.00000000000E+00  0.15969972493E+04  0.15969972493E+04  0.25500000920E-02 0. -1.
       -2   -1    0    0    0  501  0.00000000000E+00  0.00000000000E+00 -0.76920529384E+02  0.76920529426E+02  0.25500000920E-02 0.  1.
    10030    2    1    2    0    0  0.00000000000E+00  0.00000000000E+00  0.15200767199E+04  0.16739177787E+04  0.70097610196E+03 0.  0.
        2    1    3    3  502    0  0.59863733744E+02 -0.26310108275E+03  0.22587718154E+03  0.35188968088E+03  0.25500000920E-02 0.  1.
       -2    1    3    3    0  502 -0.59863733744E+02  0.26310108275E+03  0.12941995384E+04  0.13220280979E+04  0.25500000920E-02 0. -1.
</event>
<event>
 5   0  0.2777999E-02  0.6796117E+03  0.7818609E-02  0.9752748E-01
       -1   -1    0    0    0  501  0.00000000000E+00  0.00000000000E+00  0.13281427948E+03  0.13281427958E+03  0.50400001928E-02 0. -1.
        1   -1    0    0  501    0  0.00000000000E+00  0.00000000000E+00 -0.86939465897E+03  0.86939465899E+03  0.50400001928E-02 0.  1.
    10030    2    1    2    0    0  0.00000000000E+00  0.00000000000E+00 -0.73658037949E+03  0.10022089386E+04  0.67961172819E+03 0.  0.
        5    1    3    3  502    0  0.30275684554E+02  0.33315331581E+03 -0.45600799548E+03  0.56557327629E+03  0.46999998093E+01 0.  1.
       -5    1    3    3    0  502 -0.30275684554E+02 -0.33315331581E+03 -0.28057238401E+03  0.43663566228E+03  0.46999998093E+01 0. -1.
</event>
<event>
 5   0  0.4365492E-02  0.7124468E+03  0.7818609E-02  0.9696180E-01
        2   -1    0    0  501    0  0.00000000000E+00  0.00000000000E+00  0.61560251426E+03  0.61560251426E+03  0.25500000920E-02 0.  1.
       -2   -1    0    0    0  501  0.00000000000E+00  0.00000000000E+00 -0.20613159451E+03  0.20613159453E+03  0.25500000920E-02 0. -1.
    10030    2    1    2    0    0  0.00000000000E+00  0.00000000000E+00  0.40947091974E+03  0.82173410879E+03  0.71244684815E+03 0.  0.
        4    1    3    3  502    0 -0.75643394773E+02  0.31576117121E+03  0.35746159645E+02  0.32665951883E+03  0.12699999809E+01 0. -1.
       -4    1    3    3    0  502  0.75643394773E+02 -0.31576117121E+03  0.37372476010E+03  0.49507458996E+03  0.12699999809E+01 0.  1.
</event>
<event>
 5   0  0.2758681E-02  0.7027022E+03  0.7818609E-02  0.9712622E-01
        1   -1    0    0  501    0  0.00000000000E+00  0.00000000000E+00  0.79108493082E+03  0.79108493083E+03  0.50400001928E-02 0. -1.
       -1   -1    0    0    0  501  0.00000000000E+00  0.00000000000E+00 -0.15604846209E+03  0.15604846217E+03  0.50400001928E-02 0.  1.
    10030    2    1    2    0    0  0.00000000000E+00  0.00000000000E+00  0.63503646872E+03  0.94713339300E+03  0.70270217556E+03 0.  0.
        3    1    3    3  502    0  0.28623603632E+03  0.18941101628E+03  0.21629541155E+03  0.40569855414E+03  0.10100000352E+00 0. -1.
       -3    1    3    3    0  502 -0.28623603632E+03 -0.18941101628E+03  0.41874105717E+03  0.54143483886E+03  0.10100000352E+00 0.  1.
</event>
<event>
 5   0  0.2751729E-02  0.7177526E+03  0.7818609E-02  0.9687345E-01
        1   -1    0    0  501    0  0.00000000000E+00  0.00000000000E+00  0.75281721599E+03  0.75281721601E+03  0.50400001928E-02 0. -1.
       -1   -1    0    0    0  501  0.00000000000E+00  0.00000000000E+00 -0.17108029944E+03  0.17108029951E+03  0.50400001928E-02 0.  1.
    10030    2    1    2    0    0  0.00000000000E+00  0.00000000000E+00  0.58173691655E+03  0.92389751552E+03  0.71775258907E+03 0.  0.
        1    1    3    3  502    0  0.17342797097E+03 -0.30920813946E+03  0.36259799482E+03  0.50711363667E+03  0.50400001928E-02 0. -1.
       -1    1    3    3    0  502 -0.17342797097E+03  0.30920813946E+03  0.21913892173E+03  0.41678387885E+03  0.50400001928E-02 0.  1.
</event>
<event>
 5   0  0.4299912E-02  0.6979935E+03  0.7818609E-02  0.9720670E-01
        2   -1    0    0  501    0  0.00000000000E+00  0.00000000000E+00  0.17648058696E+04  0.17648058696E+04  0.25500000920E-02 0.  1.
       -2   -1    0    0    0  501  0.00000000000E+00  0.00000000000E+00 -0.69015376266E+02  0.69015376313E+02  0.25500000920E-02 0. -1.
    10030    2    1    2    0    0  0.00000000000E+00  0.00000000000E+00  0.16957904933E+04  0.18338212459E+04  0.69799352768E+03 0.  0.
        3    1    3    3  502    0  0.97893990429E+02  0.20031233044E+03  0.15533099807E+04  0.15692291641E+04  0.10100000352E+00 0.  1.
       -3    1    3    3    0  502 -0.97893990429E+02 -0.20031233044E+03  0.14248051267E+03  0.26459208185E+03  0.10100000352E+00 0. -1.
</event>
<event>
 5   0  0.2777999E-02  0.6890980E+03  0.7818609E-02  0.9736060E-01
        1   -1    0    0  501    0  0.00000000000E+00  0.00000000000E+00  0.26358819326E+03  0.26358819330E+03  0.50400001928E-02 0. -1.
       -1   -1    0    0    0  501  0.00000000000E+00  0.00000000000E+00 -0.45037678814E+03  0.45037678817E+03  0.50400001928E-02 0.  1.
    10030    2    1    2    0    0  0.00000000000E+00  0.00000000000E+00 -0.18678859489E+03  0.71396498147E+03  0.68909797242E+03 0.  0.
        5    1    3    3  502    0  0.47061712219E+02  0.20713012842E+03  0.18763964085E+03  0.28345796809E+03  0.46999998093E+01 0. -1.
       -5    1    3    3    0  502 -0.47061712219E+02 -0.20713012842E+03 -0.37442823574E+03  0.43050701339E+03  0.46999998093E+01 0.  1.
</event>
<event>
 5   0  0.2758681E-02  0.7764178E+03  0.7818609E-02  0.9594793E-01
       -1   -1    0    0    0  501  0.00000000000E+00  0.00000000000E+00  0.28684828011E+03  0.28684828015E+03  0.50400001928E-02 0.  1.
        1   -1    0    0  501    0  0.00000000000E+00  0.00000000000E+00 -0.52538624982E+03  0.52538624984E+03  0.50400001928E-02 0. -1.
    10030    2    1    2    0    0  0.00000000000E+00  0.00000000000E+00 -0.23853796971E+03  0.81223452999E+03  0.77641777975E+03 0.  0.
        3    1    3    3  502    0 -0.16476883446E+03 -0.15771240973E+03 -0.44790087033E+03  0.50263025459E+03  0.10100000352E+00 0. -1.
       -3    1    3    3    0  502  0.16476883446E+03  0.15771240973E+03  0.20936290061E+03  0.30960427540E+03  0.10100000352E+00 0.  1.
</event>
<event>
 5   0  0.2684924E-02  0.7028850E+03  0.7818609E-02  0.9712311E-01
       -1   -1    0    0    0  501  0.00000000000E+00  0.00000000000E+00  0.18929826925E+03  0.18929826932E+03  0.50400001928E-02 0.  1.
        1   -1    0    0  501    0  0.00000000000E+00  0.00000000000E+00 -0.65247205005E+03  0.65247205007E+03  0.50400001928E-02 0. -1.
    10030    2    1    2    0    0  0.00000000000E+00  0.00000000000E+00 -0.46317378080E+03  0.84177031939E+03  0.70288499727E+03 0.  0.
        4    1    3    3  502    0 -0.19960833717E+03  0.26592053228E+03 -0.95287314628E+02  0.34588799197E+03  0.12699999809E+01 0.  1.
       -4    1    3    3    0  502  0.19960833717E+03 -0.26592053228E+03 -0.36788646617E+03  0.49588232742E+03  0.12699999809E+01 0. -1.
</event>
<event>
 5   0  0.2777999E-02  0.6931568E+03  0.7818609E-02  0.9729007E-01
        1   -1    0    0  501    0  0.00000000000E+00  0.00000000000E+00  0.75025188809E+03  0.75025188810E+03  0.50400001928E-02 0. -1.
       -1   -1    0    0    0  501  0.00000000000E+00  0.00000000000E+00 -0.16010166741E+03  0.16010166749E+03  0.50400001928E-02 0.  1.
    10030    2    1    2    0    0  0.00000000000E+00  0.00000000000E+00  0.59015022067E+03  0.91035355560E+03  0.69315677392E+03 0.  0.
        5    1    3    3  502    0 -0.20460528020E+03  0.24082653866E+03  0.10825794980E+03  0.33406977729E+03  0.46999998093E+01 0.  1.
       -5    1    3    3    0  502  0.20460528020E+03 -0.24082653866E+03  0.48189227087E+03  0.57628377830E+03  0.46999998093E+01 0. -1.
</event>
<event>
 5   0  0.2684924E-02  0.7030573E+03  0.7818609E-02  0.9712018E-01
        1   -1    0    0  501    0  0.00000000000E+00  0.00000000000E+00  0.82683751989E+03  0.82683751990E+03  0.50400001928E-02 0. -1.
       -1   -1    0    0    0  501  0.00000000000E+00  0.00000000000E+00 -0.14945182442E+03  0.14945182450E+03  0.50400001928E-02 0.  1.
    10030    2    1    2    0    0  0.00000000000E+00  0.00000000000E+00  0.67738569547E+03  0.97628934441E+03  0.70305725483E+03 0.  0.
        4    1    3    3  502    0  0.33278208990E+03  0.98941679525E+02  0.41522395017E+03  0.54124478473E+03  0.12699999809E+01 0. -1.
       -4    1    3    3    0  502 -0.33278208990E+03 -0.98941679525E+02  0.26216174530E+03  0.43504455967E+03  0.12699999809E+01 0.  1.
</event>
<event>
 5   0  0.4299912E-02  0.6901862E+03  0.7818609E-02  0.9734164E-01
       -2   -1    0    0    0  501  0.00000000000E+00  0.00000000000E+00  0.12130862622E+03  0.12130862625E+03  0.25500000920E-02 0. -1.
        2   -1    0    0  501    0  0.00000000000E+00  0.00000000000E+00 -0.98170465085E+03  0.98170465086E+03  0.25500000920E-02 0.  1.
    10030    2    1    2    0    0  0.00000000000E+00  0.00000000000E+00 -0.86039602463E+03  0.11030132771E+04  0.69018618523E+03 0.  0.
        3    1    3    3  502    0 -0.15029442859E+03  0.24641555719E+03 -0.12789964554E+03  0.31570139630E+03  0.10100000352E+00 0. -1.
       -3    1    3    3    0  502  0.15029442859E+03 -0.24641555719E+03 -0.73249637909E+03  0.78731188081E+03  0.10100000352E+00 0.  1.
</event>
<event>
 5   0  0.2684924E-02  0.7017353E+03  0.7818609E-02  0.9714269E-01
        1   -1    0    0  501    0  0.00000000000E+00  0.00000000000E+00  0.34029283900E+03  0.34029283904E+03  0.50400001928E-02 0.  1.
       -1   -1    0    0    0  501  0.00000000000E+00  0.00000000000E+00 -0.36177108013E+03  0.36177108017E+03  0.50400001928E-02 0. -1.
    10030    2    1    2    0    0  0.00000000000E+00  0.00000000000E+00 -0.21478241134E+02  0.70206391920E+03  0.70173530038E+03 0.  0.
        4    1    3    3  502    0  0.29028057302E+03  0.17934434106E+02  0.18562311568E+03  0.34502464980E+03  0.12699999809E+01 0.  1.
       -4    1    3    3    0  502 -0.29028057302E+03 -0.17934434106E+02 -0.20710135681E+03  0.35703926940E+03  0.12699999809E+01 0. -1.
</event>
<event>
 5   0  0.4299912E-02  0.6754196E+03  0.7818609E-02  0.9760217E-01
        2   -1    0    0  501    0  0.00000000000E+00  0.00000000000E+00  0.61523276324E+03  0.61523276324E+03  0.25500000920E-02 0.  1.
       -2   -1    0    0    0  501  0.00000000000E+00  0.00000000000E+00 -0.18537360210E+03  0.18537360212E+03  0.25500000920E-02 0. -1.
    10030    2    1    2    0    0  0.00000000000E+00  0.00000000000E+00  0.42985916114E+03  0.80060636536E+03  0.67541961316E+03 0.  0.
        3    1    3    3  502    0 -0.49627817435E+02 -0.30983056882E+03  0.36293187601E+03  0.47976812990E+03  0.10100000352E+00 0.  1.
       -3    1    3    3    0  502  0.49627817435E+02  0.30983056882E+03  0.66927285125E+02  0.32083823546E+03  0.10100000352E+00 0. -1.
</event>
<event>
 5   0  0.4365492E-02  0.7034778E+03  0.7818609E-02  0.9711303E-01
        2   -1    0    0  501    0  0.00000000000E+00  0.00000000000E+00  0.89457445606E+03  0.89457445606E+03  0.25500000920E-02 0. -1.
       -2   -1    0    0    0  501  0.00000000000E+00  0.00000000000E+00 -0.13830068005E+03  0.13830068007E+03  0.25500000920E-02 0.  1.
    10030    2    1    2    0    0  0.00000000000E+00  0.00000000000E+00  0.75627377601E+03  0.10328751361E+04  0.70347780531E+03 0.  0.
        4    1    3    3  502    0  0.24253961722E+03 -0.15442376955E+03  0.80672237901E+02  0.29863320209E+03  0.12699999809E+01 0.  1.
       -4    1    3    3    0  502 -0.24253961722E+03  0.15442376955E+03  0.67560153811E+03  0.73424193405E+03  0.12699999809E+01 0. -1.
</event>
<event>
 5   0  0.2684924E-02  0.7032027E+03  0.7818609E-02  0.9711771E-01
       -1   -1    0    0    0  501  0.00000000000E+00  0.00000000000E+00  0.66483293365E+03  0.66483293367E+03  0.50400001928E-02 0.  1.
        1   -1    0    0  501    0  0.00000000000E+00  0.00000000000E+00 -0.18594672068E+03  0.18594672075E+03  0.50400001928E-02 0. -1.
    10030    2    1    2    0    0  0.00000000000E+00  0.00000000000E+00  0.47888621297E+03  0.85077965442E+03  0.70320268444E+03 0.  0.
        4    1    3    3  502    0  0.10837198068E+03 -0.28489534120E+03  0.27416201482E+02  0.30604428215E+03  0.12699999809E+01 0. -1.
       -4    1    3    3    0  502 -0.10837198068E+03  0.28489534120E+03  0.45147001148E+03  0.54473537227E+03  0.12699999809E+01 0.  1.
</event>
<event>
 5   0  0.2751729E-02  0.5565995E+03  0.7818609E-02  0.9999779E-01
       -1   -1    0    0    0  501  0.00000000000E+00  0.00000000000E+00  0.90315741969E+02  0.90315742110E+02  0.50400001928E-02 0. -1.
        1   -1    0    0  501    0  0.00000000000E+00  0.00000000000E+00 -0.85755525146E+03  0.85755525148E+03  0.50400001928E-02 0.  1.
    10030    2    1    2    0    0  0.00000000000E+00  0.00000000000E+00 -0.76723950949E+03  0.94787099359E+03  0.55659945702E+03 0.  0.
        1    1    3    3  502    0 -0.57848831341E+02 -0.12330186364E+03 -0.79692167949E+03  0.80847634482E+03  0.50400001928E-02 0.  1.
       -1    1    3    3    0  502  0.57848831341E+02  0.12330186364E+03  0.29682169996E+02  0.13939464877E+03  0.50400001928E-02 0. -1.
</event>
<event>
 5   0  0.4503289E-02  0.7080411E+03  0.7818609E-02  0.9703579E-01
        2   -1    0    0  501    0  0.00000000000E+00  0.00000000000E+00  0.35027874237E+03  0.35027874238E+03  0.25500000920E-02 0.  1.
       -2   -1    0    0    0  501  0.00000000000E+00  0.00000000000E+00 -0.35780235314E+03  0.35780235315E+03  0.25500000920E-02 0. -1.
    10030    2    1    2    0    0  0.00000000000E+00  0.00000000000E+00 -0.75236107653E+01  0.70808109553E+03  0.70804112390E+03 0.  0.
        2    1    3    3  502    0 -0.21092504659E+03  0.27446641209E+03  0.70467526440E+02  0.35325183500E+03  0.25500000920E-02 0. -1.
       -2    1    3    3    0  502  0.21092504659E+03 -0.27446641209E+03 -0.77991137205E+02  0.35482926053E+03  0.25500000920E-02 0.  1.
</event>
<event>
 5   0  0.4299912E-02  0.7013289E+03  0.7818609E-02  0.9714962E-01
       -2   -1    0    0    0  501  0.00000000000E+00  0.00000000000E+00  0.86844016491E+02  0.86844016528E+02  0.25500000920E-02 0.  1.
        2   -1    0    0  501    0  0.00000000000E+00  0.00000000000E+00 -0.14159357757E+04  0.14159357757E+04  0.25500000920E-02 0. -1.
    10030    2    1    2    0    0  0.00000000000E+00  0.00000000000E+00 -0.13290917592E+04  0.15027797922E+04  0.70132888114E+03 0.  0.
        3    1    3    3  502    0 -0.32870681197E+03  0.12130160687E+03 -0.63399432186E+03  0.72436942124E+03  0.10100000352E+00 0.  1.
       -3    1    3    3    0  502  0.32870681197E+03 -0.12130160687E+03 -0.69509743731E+03  0.77841037096E+03  0.10100000352E+00 0. -1.
</event>
<event>
 5   0  0.2684924E-02  0.6844770E+03  0.7818609E-02  0.9744153E-01
       -1   -1    0    0    0  501  0.00000000000E+00  0.00000000000E+00  0.36347125580E+03  0.36347125583E+03  0.50400001928E-02 0.  1.
        1   -1    0    0  501    0  0.00000000000E+00  0.00000000000E+00 -0.32224605445E+03  0.32224605449E+03  0.50400001928E-02 0. -1.
    10030    2    1    2    0    0  0.00000000000E+00  0.00000000000E+00  0.41225201346E+02  0.68571731032E+03  0.68447696269E+03 0.  0.
        4    1    3    3  502    0  0.93022830506E+02  0.57882408947E+02 -0.30420007646E+03  0.32333097544E+03  0.12699999809E+01 0. -1.
       -4    1    3    3    0  502 -0.93022830506E+02 -0.57882408947E+02  0.34542527781E+03  0.36238633488E+03  0.12699999809E+01 0.  1.
</event>
<event>
 5   0  0.2750139E-02  0.6929731E+03  0.7818609E-02  0.9729325E-01
       -1   -1    0    0    0  501  0.00000000000E+00  0.00000000000E+00  0.13300481269E+03  0.13300481278E+03  0.50400001928E-02 0.  1.
        1   -1    0    0  501    0  0.00000000000E+00  0.00000000000E+00 -0.90262098520E+03  0.90262098521E+03  0.50400001928E-02 0. -1.
    10030    2    1    2    0    0  0.00000000000E+00  0.00000000000E+00 -0.76961617251E+03  0.10356257980E+04  0.69297311671E+03 0.  0.
        2    1    3    3  502    0  0.12200569866E+03 -0.30930541145E+03 -0.53045317977E+03  0.62604776495E+03  0.25500000920E-02 0.  1.
       -2    1    3    3    0  502 -0.12200569866E+03  0.30930541145E+03 -0.23916299273E+03  0.40957803305E+03  0.25500000920E-02 0. -1.
</event>
<event>
 5   0  0.2751729E-02  0.6985266E+03  0.7818609E-02  0.9719755E-01
       -1   -1    0    0    0  501  0.00000000000E+00  0.00000000000E+00  0.61533470217E+02  0.61533470423E+02  0.50400001928E-02 0. -1.
        1   -1    0    0  501    0  0.00000000000E+00  0.00000000000E+00 -0.19824147793E+04  0.19824147793E+04  0.50400001928E-02 0.  1.
    10030    2    1    2    0    0  0.00000000000E+00  0.00000000000E+00 -0.19208813091E+04  0.20439482497E+04  0.69852662368E+03 0.  0.
        1    1    3    3  502    0  0.24994414172E+03 -0.20278306411E+03 -0.13572658491E+04  0.13949063160E+04  0.50400001928E-02 0.  1.
       -1    1    3    3    0  502 -0.24994414172E+03  0.20278306411E+03 -0.56361545995E+03  0.64904193377E+03  0.50400001928E-02 0. -1.
</event>
<event>
 5   0  0.4503289E-02  0.6899439E+03  0.7818609E-02  0.9734586E-01
       -2   -1    0    0    0  501  0.00000000000E+00  0.00000000000E+00  0.10474624075E+03  0.10474624078E+03  0.25500000920E-02 0.  1.
        2   -1    0    0  501    0  0.00000000000E+00  0.00000000000E+00 -0.11361330214E+04  0.11361330214E+04  0.25500000920E-02 0. -1.
    10030    2    1    2    0    0  0.00000000000E+00  0.00000000000E+00 -0.10313867806E+04  0.12408792622E+04  0.68994394846E+03 0.  0.
        2    1    3    3  502    0 -0.10224525283E+03  0.30615473738E+03 -0.73464706796E+03  0.80242827057E+03  0.25500000920E-02 0. -1.
       -2    1    3    3    0  502  0.10224525283E+03 -0.30615473738E+03 -0.29673971265E+03  0.43845099158E+03  0.25500000920E-02 0.  1.
</event>
<event>
 5   0  0.1784625E-02  0.7127084E+03  0.7818609E-02  0.9695743E-01
        3   -1    0    0  501    0  0.00000000000E+00  0.00000000000E+00  0.91963448437E+03  0.91963448991E+03  0.10100000352E+00 0. -1.
       -3   -1    0    0    0  501  0.00000000000E+00  0.00000000000E+00 -0.13808563335E+03  0.13808567029E+03  0.10100000352E+00 0.  1.
    10030    2    1    2    0    0  0.00000000000E+00  0.00000000000E+00  0.78154885102E+03  0.10577201602E+04  0.71270844724E+03 0.  0.
        3    1    3    3  502    0 -0.73936832677E+02 -0.16465117606E+03 -0.65232760918E+02  0.19191661810E+03  0.10100000352E+00 0.  1.
       -3    1    3    3    0  502  0.73936832677E+02  0.16465117606E+03  0.84678161194E+03  0.86580354210E+03  0.10100000352E+00 0. -1.
</event>
<event>
 5   0  0.2758681E-02  0.7028630E+03  0.7818609E-02  0.9712349E-01
       -1   -1    0    0    0  501  0.00000000000E+00  0.00000000000E+00  0.51729266449E+02  0.51729266694E+02  0.50400001928E-02 0. -1.
        1   -1    0    0  501    0  0.00000000000E+00  0.00000000000E+00 -0.23875093711E+04  0.23875093711E+04  0.50400001928E-02 0.  1.
    10030    2    1    2    0    0  0.00000000000E+00  0.00000000000E+00 -0.23357801047E+04  0.24392386378E+04  0.70286302709E+03 0.  0.
        3    1    3    3  502    0  0.18465826508E+03 -0.24596005336E+03 -0.17579561950E+04  0.17846582352E+04  0.10100000352E+00 0.  1.
       -3    1    3    3    0  502 -0.18465826508E+03  0.24596005336E+03 -0.57782390966E+03  0.65458040261E+03  0.10100000352E+00 0. -1.
</event>
<event>
 5   0  0.2758681E-02  0.6831877E+03  0.7818609E-02  0.9746423E-01
        1   -1    0    0  501    0  0.00000000000E+00  0.00000000000E+00  0.39034160676E+03  0.39034160679E+03  0.50400001928E-02 0. -1.
       -1   -1    0    0    0  501  0.00000000000E+00  0.00000000000E+00 -0.29893397702E+03  0.29893397706E+03  0.50400001928E-02 0.  1.
    10030    2    1    2    0    0  0.00000000000E+00  0.00000000000E+00  0.91407629737E+02  0.68927558385E+03  0.68318773095E+03 0.  0.
        3    1    3    3  502    0  0.98250113848E+02  0.19460162570E+03  0.31103680933E+03  0.37982467608E+03  0.10100000352E+00 0. -1.
       -3    1    3    3    0  502 -0.98250113848E+02 -0.19460162570E+03 -0.21962917960E+03  0.30945090778E+03  0.10100000352E+00 0.  1.
</event>
<event>
 5   0  0.4299912E-02  0.7080136E+03  0.7818609E-02  0.9703625E-01
        2   -1    0    0  501    0  0.00000000000E+00  0.00000000000E+00  0.17295811662E+04  0.17295811662E+04  0.25500000920E-02 0. -1.
       -2   -1    0    0    0  501  0.00000000000E+00  0.00000000000E+00 -0.72457310061E+02  0.72457310106E+02  0.25500000920E-02 0.  1.
    10030    2    1    2    0    0  0.00000000000E+00  0.00000000000E+00  0.16571238562E+04  0.18020384763E+04  0.70801355602E+03 0.  0.
        3    1    3    3  502    0 -0.29032472512E+03  0.16431896836E+03  0.11300543379E+04  0.11782665175E+04  0.10100000352E+00 0. -1.
       -3    1    3    3    0  502  0.29032472512E+03 -0.16431896836E+03  0.52706951825E+03  0.62377195885E+03  0.10100000352E+00 0.  1.
</event>
<event>
 5   0  0.4299912E-02  0.6976233E+03  0.7818609E-02  0.9721305E-01
        2   -1    0    0  501    0  0.00000000000E+00  0.00000000000E+00  0.14833500035E+04  0.14833500035E+04  0.25500000920E-02 0.  1.
       -2   -1    0    0    0  501  0.00000000000E+00  0.00000000000E+00 -0.82023501101E+02  0.82023501141E+02  0.25500000920E-02 0. -1.
    10030    2    1    2    0    0  0.00000000000E+00  0.00000000000E+00  0.14013265024E+04  0.15653735046E+04  0.69762328137E+03 0.  0.
        3    1    3    3  502    0  0.75172225176E+02 -0.12113371551E+03 -0.13666668371E+02  0.14321671863E+03  0.10100000352E+00 0. -1.
       -3    1    3    3    0  502 -0.75172225176E+02  0.12113371551E+03  0.14149931708E+04  0.14221567860E+04  0.10100000352E+00 0.  1.
</event>
<event>
 5   0  0.2751729E-02  0.6834607E+03  0.7818609E-02  0.9745942E-01
       -1   -1    0    0    0  501  0.00000000000E+00  0.00000000000E+00  0.29988357288E+03  0.29988357292E+03  0.50400001928E-02 0. -1.
        1   -1    0    0  501    0  0.00000000000E+00  0.00000000000E+00 -0.38941651275E+03  0.38941651278E+03  0.50400001928E-02 0.  1.
    10030    2    1    2    0    0  0.00000000000E+00  0.00000000000E+00 -0.89532939875E+02  0.68930008570E+03  0.68346065053E+03 0.  0.
        1    1    3    3  502    0  0.38346706248E+02 -0.22588128194E+02  0.29694827693E+03  0.30026483745E+03  0.50400001928E-02 0. -1.
       -1    1    3    3    0  502 -0.38346706248E+02  0.22588128194E+02 -0.38648121680E+03  0.38903524825E+03  0.50400001928E-02 0.  1.
</event>
<event>
 5   0  0.4526837E-02  0.6996902E+03  0.7818609E-02  0.9717762E-01
        2   -1    0    0  501    0  0.00000000000E+00  0.00000000000E+00  0.17142752735E+03  0.17142752737E+03  0.25500000920E-02 0. -1.
       -2   -1    0    0    0  501  0.00000000000E+00  0.00000000000E+00 -0.71395526449E+03  0.71395526450E+03  0.25500000920E-02 0.  1.
    10030    2    1    2    0    0  0.00000000000E+00  0.00000000000E+00 -0.54252773715E+03  0.88538279187E+03  0.69969017612E+03 0.  0.
        1    1    3    3  502    0  0.34724791340E+03 -0.18063393629E+02 -0.32001329102E+03  0.47256312383E+03  0.50400001928E-02 0. -1.
       -1    1    3    3    0  502 -0.34724791340E+03  0.18063393629E+02 -0.22251444613E+03  0.41281966803E+03  0.50400001928E-02 0.  1.
</event>
<event>
 5   0  0.2750139E-02  0.7168799E+03  0.7818609E-02  0.9688793E-01
       -1   -1    0    0    0  501  0.00000000000E+00  0.00000000000E+00  0.10029162034E+04  0.10029162034E+04  0.50400001928E-02 0. -1.
        1   -1    0    0  501    0  0.00000000000E+00  0.00000000000E+00 -0.12810562229E+03  0.12810562239E+03  0.50400001928E-02 0.  1.
    10030    2    1    2    0    0  0.00000000000E+00  0.00000000000E+00  0.87481058110E+03  0.11310218258E+04  0.71687991855E+03 0.  0.
        2    1    3    3  502    0 -0.18743003888E+03 -0.16482533692E+03  0.84328172452E+03  0.87944384590E+03  0.25500000920E-02 0. -1.
       -2    1    3    3    0  502  0.18743003888E+03  0.16482533692E+03  0.31528856581E+02  0.25157797990E+03  0.25500000920E-02 0.  1.
</event>
<event>
 5   0  0.2751729E-02  0.7076249E+03  0.7818609E-02  0.9704281E-01
       -1   -1    0    0    0  501  0.00000000000E+00  0.00000000000E+00  0.47610425016E+03  0.47610425018E+03  0.50400001928E-02 0.  1.
        1   -1    0    0  501    0  0.00000000000E+00  0.00000000000E+00 -0.26293245266E+03  0.26293245271E+03  0.50400001928E-02 0. -1.
    10030    2    1    2    0    0  0.00000000000E+00  0.00000000000E+00  0.21317179749E+03  0.73903670289E+03  0.70762492394E+03 0.  0.
        1    1    3    3  502    0  0.26212104221E+03 -0.12917932381E+03 -0.10173928683E+03  0.30942789302E+03  0.50400001928E-02 0. -1.
       -1    1    3    3    0  502 -0.26212104221E+03  0.12917932381E+03  0.31491108432E+03  0.42960880987E+03  0.50400001928E-02 0.  1.
</event>
<event>
 5   0  0.4420645E-02  0.6999855E+03  0.7818609E-02  0.9717257E-01
       -2   -1    0    0    0  501  0.00000000000E+00  0.00000000000E+00  0.13881418784E+03  0.13881418786E+03  0.25500000920E-02 0.  1.
        2   -1    0    0  501    0  0.00000000000E+00  0.00000000000E+00 -0.88243805334E+03  0.88243805334E+03  0.25500000920E-02 0. -1.
    10030    2    1    2    0    0  0.00000000000E+00  0.00000000000E+00 -0.74362386550E+03  0.10212522412E+04  0.69998549044E+03 0.  0.
        5    1    3    3  502    0 -0.50698562526E+02 -0.32980342545E+03 -0.52574582519E+03  0.62271294059E+03  0.46999998093E+01 0.  1.
       -5    1    3    3    0  502  0.50698562526E+02  0.32980342545E+03 -0.21787804032E+03  0.39853930061E+03  0.46999998093E+01 0. -1.
</event>
<event>
 5   0  0.4526837E-02  0.7222739E+03  0.7818609E-02  0.9679881E-01
       -2   -1    0    0    0  501  0.00000000000E+00  0.00000000000E+00  0.43079741902E+03  0.43079741903E+03  0.25500000920E-02 0.  1.
        2   -1    0    0  501    0  0.00000000000E+00  0.00000000000E+00 -0.30274064082E+03  0.30274064083E+03  0.25500000920E-02 0. -1.
    10030    2    1    2    0    0  0.00000000000E+00  0.00000000000E+00  0.12805677820E+03  0.73353805986E+03  0.72227387245E+03 0.  0.
        1    1    3    3  502    0  0.13482539857E+03  0.29142821953E+03 -0.10381113944E+03  0.33746858807E+03  0.50400001928E-02 0. -1.
       -1    1    3    3    0  502 -0.13482539857E+03 -0.29142821953E+03  0.23186791764E+03  0.39606947180E+03  0.50400001928E-02 0.  1.
</event>
<event>
 5   0  0.2750139E-02  0.6989618E+03  0.7818609E-02  0.9719009E-01
       -1   -1    0    0    0  501  0.00000000000E+00  0.00000000000E+00  0.98513657783E+03  0.98513657784E+03  0.50400001928E-02 0. -1.
        1   -1    0    0  501    0  0.00000000000E+00  0.00000000000E+00 -0.12397967711E+03  0.12397967721E+03  0.50400001928E-02 0.  1.
    10030    2    1    2    0    0  0.00000000000E+00  0.00000000000E+00  0.86115690072E+03  0.11091162551E+04  0.69896184415E+03 0.  0.
        2    1    3    3  502    0 -0.86945820167E+02  0.29023645965E+03  0.70697484172E+03  0.76916201478E+03  0.25500000920E-02 0. -1.
       -2    1    3    3    0  502  0.86945820167E+02 -0.29023645965E+03  0.15418205900E+03  0.33995424027E+03  0.25500000920E-02 0.  1.
</event>
<event>
 5   0  0.2750139E-02  0.7173954E+03  0.7818609E-02  0.9687938E-01
       -1   -1    0    0    0  501  0.00000000000E+00  0.00000000000E+00  0.21271970536E+03  0.21271970542E+03  0.50400001928E-02 0. -1.
        1   -1    0    0  501    0  0.00000000000E+00  0.00000000000E+00 -0.60485248292E+03  0.60485248295E+03  0.50400001928E-02 0.  1.
    10030    2    1    2    0    0  0.00000000000E+00  0.00000000000E+00 -0.39213277757E+03  0.81757218836E+03  0.71739540558E+03 0.  0.
        2    1    3    3  502    0 -0.22392608777E+03 -0.27399629384E+03 -0.26297769512E+03  0.44087881551E+03  0.25500000920E-02 0. -1.
       -2    1    3    3    0  502  0.22392608777E+03  0.27399629384E+03 -0.12915508245E+03  0.37669337286E+03  0.25500000920E-02 0.  1.
</event>
<event>
 5   0  0.4503289E-02  0.6942390E+03  0.7818609E-02  0.9727135E-01
       -2   -1    0    0    0  501  0.00000000000E+00  0.00000000000E+00  0.80287066553E+02  0.80287066593E+02  0.25500000920E-02 0. -1.
        2   -1    0    0  501    0  0.00000000000E+00  0.00000000000E+00 -0.15007642895E+04  0.15007642895E+04  0.25500000920E-02 0.  1.
    10030    2    1    2    0    0  0.00000000000E+00  0.00000000000E+00 -0.14204772230E+04  0.15810513561E+04  0.69423904363E+03 0.  0.
        2    1    3    3  502    0 -0.16703161420E+03  0.29292862085E+03 -0.89783267073E+03  0.95906738120E+03  0.25500000920E-02 0.  1.
       -2    1    3    3    0  502  0.16703161420E+03 -0.29292862085E+03 -0.52264455223E+03  0.62198397491E+03  0.25500000920E-02 0. -1.
</event>
<event>
 5   0  0.1784625E-02  0.7015137E+03  0.7818609E-02  0.9714647E-01
       -3   -1    0    0    0  501  0.00000000000E+00  0.00000000000E+00  0.21866836364E+04  0.21866836387E+04  0.10100000352E+00 0.  1.
        3   -1    0    0  501    0  0.00000000000E+00  0.00000000000E+00 -0.56263398945E+02  0.56263489599E+02  0.10100000352E+00 0. -1.
    10030    2    1    2    0    0  0.00000000000E+00  0.00000000000E+00  0.21304202374E+04  0.22429471283E+04  0.70151367223E+03 0.  0.
        4    1    3    3  502    0  0.22429105013E+03 -0.16287144355E+03  0.17524069497E+04  0.17741942713E+04  0.12699999809E+01 0.  1.
       -4    1    3    3    0  502 -0.22429105013E+03  0.16287144355E+03  0.37801328774E+03  0.46875285695E+03  0.12699999809E+01 0. -1.
</event>
<event>
 5   0  0.2758681E-02  0.6674403E+03  0.7818609E-02  0.9774593E-01
       -1   -1    0    0    0  501  0.00000000000E+00  0.00000000000E+00  0.83947676606E+02  0.83947676757E+02  0.50400001928E-02 0. -1.
        1   -1    0    0  501    0  0.00000000000E+00  0.00000000000E+00 -0.13266492801E+04  0.13266492801E+04  0.50400001928E-02 0.  1.
    10030    2    1    2    0    0  0.00000000000E+00  0.00000000000E+00 -0.12427016035E+04  0.14105969568E+04  0.66744025904E+03 0.  0.
        3    1    3    3  502    0  0.97866083154E+02  0.59600453675E+02 -0.12837698282E+04  0.12888735261E+04  0.10100000352E+00 0.  1.
       -3    1    3    3    0  502 -0.97866083154E+02 -0.59600453675E+02  0.41068224717E+02  0.12172343075E+03  0.10100000352E+00 0. -1.
</event>
<event>
 5   0  0.4420645E-02  0.7165959E+03  0.7818609E-02  0.9689265E-01
        2   -1    0    0  501    0  0.00000000000E+00  0.00000000000E+00  0.99755992715E+03  0.99755992715E+03  0.25500000920E-02 0.  1.
       -2   -1    0    0    0  501  0.00000000000E+00  0.00000000000E+00 -0.12869142891E+03  0.12869142894E+03  0.25500000920E-02 0. -1.
    10030    2    1    2    0    0  0.00000000000E+00  0.00000000000E+00  0.86886849824E+03  0.11262513561E+04  0.71659587625E+03 0.  0.
        5    1    3    3  502    0  0.16166061035E+02 -0.10511426018E+03  0.97213099188E+03  0.97794228080E+03  0.46999998093E+01 0.  1.
       -5    1    3    3    0  502 -0.16166061035E+02  0.10511426018E+03 -0.10326249364E+03  0.14830907528E+03  0.46999998093E+01 0. -1.
</event>
<event>
 5   0  0.2758681E-02  0.6944986E+03  0.7818609E-02  0.9726687E-01
       -1   -1    0    0    0  501  0.00000000000E+00  0.00000000000E+00  0.52156275674E+03  0.52156275677E+03  0.50400001928E-02 0. -1.
        1   -1    0    0  501    0  0.00000000000E+00  0.00000000000E+00 -0.23119378061E+03  0.23119378066E+03  0.50400001928E-02 0.  1.
    10030    2    1    2    0    0  0.00000000000E+00  0.00000000000E+00  0.29036897614E+03  0.75275653743E+03  0.69449856900E+03 0.  0.
        3    1    3    3  502    0 -0.82346709065E+02  0.16859097559E+03 -0.17152171577E+03  0.25421173601E+03  0.10100000352E+00 0.  1.
       -3    1    3    3    0  502  0.82346709065E+02 -0.16859097559E+03  0.46189069191E+03  0.49854480142E+03  0.10100000352E+00 0. -1.
</event>
<event>
 5   0  0.4503289E-02  0.6898486E+03  0.7818609E-02  0.9734752E-01
       -2   -1    0    0    0  501  0.00000000000E+00  0.00000000000E+00  0.22398288325E+03  0.22398288327E+03  0.25500000920E-02 0. -1.
        2   -1    0    0  501    0  0.00000000000E+00  0.00000000000E+00 -0.53116905581E+03  0.53116905581E+03  0.25500000920E-02 0.  1.
    10030    2    1    2    0    0  0.00000000000E+00  0.00000000000E+00 -0.30718617255E+03  0.75515193908E+03  0.68984861128E+03 0.  0.
        2    1    3    3  502    0 -0.80862218113E+02 -0.87725882195E+02 -0.50786212575E+03  0.52168809408E+03  0.25500000920E-02 0.  1.
       -2    1    3    3    0  502  0.80862218113E+02  0.87725882195E+02  0.20067595320E+03  0.23346384500E+03  0.25500000920E-02 0. -1.
</event>
<event>
 5   0  0.4503289E-02  0.6870287E+03  0.7818609E-02  0.9739676E-01
        2   -1    0    0  501    0  0.00000000000E+00  0.00000000000E+00  0.44276947308E+03  0.44276947309E+03  0.25500000920E-02 0.  1.
       -2   -1    0    0    0  501  0.00000000000E+00  0.00000000000E+00 -0.26650911835E+03  0.26650911836E+03  0.25500000920E-02 0. -1.
    10030    2    1    2    0    0  0.00000000000E+00  0.00000000000E+00  0.17626035473E+03  0.70927859145E+03  0.68702868036E+03 0.  0.
        2    1    3    3  502    0 -0.26254701503E+03 -0.14229181184E+03 -0.87145102355E+02  0.31108224586E+03  0.25500000920E-02 0. -1.
       -2    1    3    3    0  502  0.26254701503E+03  0.14229181184E+03  0.26340545708E+03  0.39819634559E+03  0.25500000920E-02 0.  1.
</event>
<event>
 5   0  0.2751729E-02  0.7237458E+03  0.7818609E-02  0.9677464E-01
       -1   -1    0    0    0  501  0.00000000000E+00  0.00000000000E+00  0.20945868901E+03  0.20945868907E+03  0.50400001928E-02 0. -1.
        1   -1    0    0  501    0  0.00000000000E+00  0.00000000000E+00 -0.62519254398E+03  0.62519254400E+03  0.50400001928E-02 0.  1.
    10030    2    1    2    0    0  0.00000000000E+00  0.00000000000E+00 -0.41573385497E+03  0.83465123307E+03  0.72374584123E+03 0.  0.
        1    1    3    3  502    0 -0.15312984542E+03  0.10809378007E+03  0.14911379622E+03  0.23951605185E+03  0.50400001928E-02 0. -1.
       -1    1    3    3    0  502  0.15312984542E+03 -0.10809378007E+03 -0.56484765119E+03  0.59513518122E+03  0.50400001928E-02 0.  1.
</event>
<event>
 5   0  0.4299912E-02  0.6946514E+03  0.7818609E-02  0.9726423E-01
        2   -1    0    0  501    0  0.00000000000E+00  0.00000000000E+00  0.11836245620E+04  0.11836245620E+04  0.25500000920E-02 0. -1.
       -2   -1    0    0    0  501  0.00000000000E+00  0.00000000000E+00 -0.10192009260E+03  0.10192009263E+03  0.25500000920E-02 0.  1.
    10030    2    1    2    0    0  0.00000000000E+00  0.00000000000E+00  0.10817044694E+04  0.12855446547E+04  0.69465135136E+03 0.  0.
        3    1    3    3  502    0 -0.12033903052E+03  0.92682859671E+02 -0.37195911151E+02  0.15638139516E+03  0.10100000352E+00 0.  1.
       -3    1    3    3    0  502  0.12033903052E+03 -0.92682859671E+02  0.11189003806E+04  0.11291632595E+04  0.10100000352E+00 0. -1.
</event>
<event>
 5   0  0.4503289E-02  0.6967004E+03  0.7818609E-02  0.9722892E-01
       -2   -1    0    0    0  501  0.00000000000E+00  0.00000000000E+00  0.11103538131E+03  0.11103538134E+03  0.25500000920E-02 0. -1.
        2   -1    0    0  501    0  0.00000000000E+00  0.00000000000E+00 -0.10928755264E+04  0.10928755264E+04  0.25500000920E-02 0.  1.
    10030    2    1    2    0    0  0.00000000000E+00  0.00000000000E+00 -0.98184014508E+03  0.12039109077E+04  0.69670036835E+03 0.  0.
        2    1    3    3  502    0  0.75075976399E+02 -0.26799466931E+03 -0.85294011294E+03  0.89719807249E+03  0.25500000920E-02 0.  1.
       -2    1    3    3    0  502 -0.75075976399E+02  0.26799466931E+03 -0.12890003215E+03  0.30671283525E+03  0.25500000920E-02 0. -1.
</event>
<event>
 5   0  0.2758681E-02  0.6904064E+03  0.7818609E-02  0.9733781E-01
       -1   -1    0    0    0  501  0.00000000000E+00  0.00000000000E+00  0.39707752332E+03  0.39707752335E+03  0.50400001928E-02 0.  1.
        1   -1    0    0  501    0  0.00000000000E+00  0.00000000000E+00 -0.30010572112E+03  0.30010572116E+03  0.50400001928E-02 0. -1.
    10030    2    1    2    0    0  0.00000000000E+00  0.00000000000E+00  0.96971802193E+02  0.69718324451E+03  0.69040636295E+03 0.  0.
        3    1    3    3  502    0  0.47843088884E+02 -0.20976337142E+03  0.32109051816E+03  0.38650842707E+03  0.10100000352E+00 0.  1.
       -3    1    3    3    0  502 -0.47843088884E+02  0.20976337142E+03 -0.22411871597E+03  0.31067481744E+03  0.10100000352E+00 0. -1.
</event>
<event>
 5   0  0.2758681E-02  0.7092141E+03  0.7818609E-02  0.9701603E-01
       -1   -1    0    0    0  501  0.00000000000E+00  0.00000000000E+00  0.13163450538E+03  0.13163450547E+03  0.50400001928E-02 0. -1.
        1   -1    0    0  501    0  0.00000000000E+00  0.00000000000E+00 -0.95526742508E+03  0.95526742510E+03  0.50400001928E-02 0.  1.
    10030    2    1    2    0    0  0.00000000000E+00  0.00000000000E+00 -0.82363291971E+03  0.10869019306E+04  0.70921408633E+03 0.  0.
        3    1    3    3  502    0 -0.29051639151E+01  0.87496113040E+02 -0.93844586608E+03  0.94252037832E+03  0.10100000352E+00 0.  1.
       -3    1    3    3    0  502  0.29051639151E+01 -0.87496113040E+02  0.11481294638E+03  0.14438155225E+03  0.10100000352E+00 0. -1.
</event>
<event>
 5   0  0.2684924E-02  0.7067197E+03  0.7818609E-02  0.9705809E-01
       -1   -1    0    0    0  501  0.00000000000E+00  0.00000000000E+00  0.30043567675E+03  0.30043567679E+03  0.50400001928E-02 0.  1.
        1   -1    0    0  501    0  0.00000000000E+00  0.00000000000E+00 -0.41560705179E+03  0.41560705182E+03  0.50400001928E-02 0. -1.
    10030    2    1    2    0    0  0.00000000000E+00  0.00000000000E+00 -0.11517137505E+03  0.71604272861E+03  0.70671970651E+03 0.  0.
        4    1    3    3  502    0  0.17864296821E+03 -0.65371478117E+02 -0.35929723081E+03  0.40654993937E+03  0.12699999809E+01 0. -1.
       -4    1    3    3    0  502 -0.17864296821E+03  0.65371478117E+02  0.24412585576E+03  0.30949278924E+03  0.12699999809E+01 0.  1.
</event>
<event>
 5   0  0.4299912E-02  0.6803887E+03  0.7818609E-02  0.9751371E-01
       -2   -1    0    0    0  501  0.00000000000E+00  0.00000000000E+00  0.22598609056E+03  0.22598609058E+03  0.25500000920E-02 0. -1.
        2   -1    0    0  501    0  0.00000000000E+00  0.00000000000E+00 -0.51212090897E+03  0.51212090898E+03  0.25500000920E-02 0.  1.
    10030    2    1    2    0    0  0.00000000000E+00  0.00000000000E+00 -0.28613481841E+03  0.73810699955E+03  0.68038871866E+03 0.  0.
        3    1    3    3  502    0  0.17367406457E+03  0.19247014939E+03 -0.38203768544E+03  0.46169280090E+03  0.10100000352E+00 0.  1.
       -3    1    3    3    0  502 -0.17367406457E+03 -0.19247014939E+03  0.95902867030E+02  0.27641419865E+03  0.10100000352E+00 0. -1.
</event>
<event>
 5   0  0.4503289E-02  0.6844374E+03  0.7818609E-02  0.9744223E-01
       -2   -1    0    0    0  501  0.00000000000E+00  0.00000000000E+00  0.14931442950E+04  0.14931442950E+04  0.25500000920E-02 0. -1.
        2   -1    0    0  501    0  0.00000000000E+00  0.00000000000E+00 -0.78434245317E+02  0.78434245359E+02  0.25500000920E-02 0.  1.
    10030    2    1    2    0    0  0.00000000000E+00  0.00000000000E+00  0.14147100497E+04  0.15715785404E+04  0.68443742143E+03 0.  0.
        2    1    3    3  502    0  0.24435096377E+03 -0.21462538182E+03  0.46281443546E+03  0.56565771425E+03  0.25500000920E-02 0.  1.
       -2    1    3    3    0  502 -0.24435096377E+03  0.21462538182E+03  0.95189561422E+03  0.10059208261E+04  0.25500000920E-02 0. -1.
</event>
<event>
 5   0  0.4365492E-02  0.7017927E+03  0.7818609E-02  0.9714171E-01
       -2   -1    0    0    0  501  0.00000000000E+00  0.00000000000E+00  0.20848168603E+03  0.20848168605E+03  0.25500000920E-02 0. -1.
        2   -1    0    0  501    0  0.00000000000E+00  0.00000000000E+00 -0.59059500788E+03  0.59059500788E+03  0.25500000920E-02 0.  1.
    10030    2    1    2    0    0  0.00000000000E+00  0.00000000000E+00 -0.38211332185E+03  0.79907669393E+03  0.70179268452E+03 0.  0.
        4    1    3    3  502    0 -0.31037010596E+03  0.53288142358E+02 -0.14818691098E+02  0.31526248634E+03  0.12699999809E+01 0. -1.
       -4    1    3    3    0  502  0.31037010596E+03 -0.53288142358E+02 -0.36729463075E+03  0.48381420759E+03  0.12699999809E+01 0.  1.
</event>
<event>
 5   0  0.2750139E-02  0.6930573E+03  0.7818609E-02  0.9729179E-01
       -1   -1    0    0    0  501  0.00000000000E+00  0.00000000000E+00  0.79325046359E+02  0.79325046519E+02  0.50400001928E-02 0. -1.
        1   -1    0    0  501    0  0.00000000000E+00  0.00000000000E+00 -0.15137981193E+04  0.15137981193E+04  0.50400001928E-02 0.  1.
    10030    2    1    2    0    0  0.00000000000E+00  0.00000000000E+00 -0.14344730729E+04  0.15931231658E+04  0.69305730247E+03 0.  0.
        2    1    3    3  502    0 -0.24137283955E+03  0.17020127917E+03 -0.11338816489E+04  0.11717153736E+04  0.25500000920E-02 0.  1.
       -2    1    3    3    0  502  0.24137283955E+03 -0.17020127917E+03 -0.30059142405E+03  0.42140779220E+03  0.25500000920E-02 0. -1.
</event>
<event>
 5   0  0.2777999E-02  0.7019062E+03  0.7818609E-02  0.9713978E-01
        1   -1    0    0  501    0  0.00000000000E+00  0.00000000000E+00  0.16233315838E+03  0.16233315846E+03  0.50400001928E-02 0. -1.
       -1   -1    0    0    0  501  0.00000000000E+00  0.00000000000E+00 -0.75873638535E+03  0.75873638537E+03  0.50400001928E-02 0.  1.
    10030    2    1    2    0    0  0.00000000000E+00  0.00000000000E+00 -0.59640322697E+03  0.92106954382E+03  0.70190618705E+03 0.  0.
        5    1    3    3  502    0 -0.10784289953E+03 -0.21679802178E+02 -0.73548660800E+03  0.74368188451E+03  0.46999998093E+01 0.  1.
       -5    1    3    3    0  502  0.10784289953E+03  0.21679802178E+02  0.13908338103E+03  0.17738765931E+03  0.46999998093E+01 0. -1.
</event>
<event>
 5   0  0.4526837E-02  0.7021734E+03  0.7818609E-02  0.9713523E-01
       -2   -1    0    0    0  501  0.00000000000E+00  0.00000000000E+00  0.14680399638E+03  0.14680399640E+03  0.25500000920E-02 0. -1.
        2   -1    0    0  501    0  0.00000000000E+00  0.00000000000E+00 -0.83963575151E+03  0.83963575152E+03  0.25500000920E-02 0.  1.
    10030    2    1    2    0    0  0.00000000000E+00  0.00000000000E+00 -0.69283175513E+03  0.98643974792E+03  0.70217343681E+03 0.  0.
        1    1    3    3  502    0 -0.17921296683E+03  0.23891302672E+03 -0.60570326793E+03  0.67533189665E+03  0.50400001928E-02 0. -1.
       -1    1    3    3    0  502  0.17921296683E+03 -0.23891302672E+03 -0.87128487202E+02  0.31110785128E+03  0.50400001928E-02 0.  1.
</event>
<event>
 5   0  0.4503289E-02  0.7024525E+03  0.7818609E-02  0.9713047E-01
       -2   -1    0    0    0  501  0.00000000000E+00  0.00000000000E+00  0.17271260413E+03  0.17271260415E+03  0.25500000920E-02 0.  1.
        2   -1    0    0  501    0  0.00000000000E+00  0.00000000000E+00 -0.71424936778E+03  0.71424936779E+03  0.25500000920E-02 0. -1.
    10030    2    1    2    0    0  0.00000000000E+00  0.00000000000E+00 -0.54153676365E+03  0.88696197193E+03  0.70245247047E+03 0.  0.
        2    1    3    3  502    0  0.21540875125E+03 -0.49943207621E+02 -0.61532692915E+03  0.65385203513E+03  0.25500000920E-02 0. -1.
       -2    1    3    3    0  502 -0.21540875125E+03  0.49943207621E+02  0.73790165499E+02  0.23310993680E+03  0.25500000920E-02 0.  1.
</event>
<event>
 5   0  0.2751729E-02  0.6617466E+03  0.7818609E-02  0.9784984E-01
        1   -1    0    0  501    0  0.00000000000E+00  0.00000000000E+00  0.57319697858E+03  0.57319697860E+03  0.50400001928E-02 0. -1.
       -1   -1    0    0    0  501  0.00000000000E+00  0.00000000000E+00 -0.19099393184E+03  0.19099393190E+03  0.50400001928E-02 0.  1.
    10030    2    1    2    0    0  0.00000000000E+00  0.00000000000E+00  0.38220304674E+03  0.76419091050E+03  0.66174661220E+03 0.  0.
        1    1    3    3  502    0  0.15925720072E+03  0.73686830281E+02 -0.13283121735E+03  0.22008347795E+03  0.50400001928E-02 0.  1.
       -1    1    3    3    0  502 -0.15925720072E+03 -0.73686830281E+02  0.51503426409E+03  0.54410743255E+03  0.50400001928E-02 0. -1.
</event>
<event>
 5   0  0.2758681E-02  0.6986997E+03  0.7818609E-02  0.9719458E-01
       -1   -1    0    0    0  501  0.00000000000E+00  0.00000000000E+00  0.35908878003E+03  0.35908878006E+03  0.50400001928E-02 0. -1.
        1   -1    0    0  501    0  0.00000000000E+00  0.00000000000E+00 -0.33987505623E+03  0.33987505627E+03  0.50400001928E-02 0.  1.
    10030    2    1    2    0    0  0.00000000000E+00  0.00000000000E+00  0.19213723796E+02  0.69896383633E+03  0.69869970468E+03 0.  0.
        3    1    3    3  502    0  0.11163012439E+03  0.29167932170E+03 -0.14700006744E+03  0.34517697115E+03  0.10100000352E+00 0.  1.
       -3    1    3    3    0  502 -0.11163012439E+03 -0.29167932170E+03  0.16621379124E+03  0.35378686519E+03  0.10100000352E+00 0. -1.
</event>
<event>
 5   0  0.2684924E-02  0.6855611E+03  0.7818609E-02  0.9742248E-01
       -1   -1    0    0    0  501  0.00000000000E+00  0.00000000000E+00  0.14987243531E+03  0.14987243539E+03  0.50400001928E-02 0. -1.
        1   -1    0    0  501    0  0.00000000000E+00  0.00000000000E+00 -0.78399007129E+03  0.78399007131E+03  0.50400001928E-02 0.  1.
    10030    2    1    2    0    0  0.00000000000E+00  0.00000000000E+00 -0.63411763598E+03  0.93386250670E+03  0.68556108783E+03 0.  0.
        4    1    3    3  502    0 -0.29087566250E+03  0.16248422189E+03 -0.20734468428E+03  0.39243242017E+03  0.12699999809E+01 0. -1.
       -4    1    3    3    0  502  0.29087566250E+03 -0.16248422189E+03 -0.42677295170E+03  0.54143008653E+03  0.12699999809E+01 0.  1.
</event>
<event>
 5   0  0.1784625E-02  0.7245280E+03  0.7818609E-02  0.9676182E-01
       -3   -1    0    0    0  501  0.00000000000E+00  0.00000000000E+00  0.32987024545E+03  0.32987026091E+03  0.10100000352E+00 0. -1.
        3   -1    0    0  501    0  0.00000000000E+00  0.00000000000E+00 -0.39783880956E+03  0.39783882238E+03  0.10100000352E+00 0.  1.
    10030    2    1    2    0    0  0.00000000000E+00  0.00000000000E+00 -0.67968564116E+02  0.72770908329E+03  0.72452797337E+03 0.  0.
        4    1    3    3  502    0  0.58733090829E+02  0.23001717551E+03 -0.30882068994E+03  0.38952446448E+03  0.12699999809E+01 0.  1.
       -4    1    3    3    0  502 -0.58733090829E+02 -0.23001717551E+03  0.24085212582E+03  0.33818461882E+03  0.12699999809E+01 0. -1.
</event>
<event>
 5   0  0.2751729E-02  0.6853644E+03  0.7818609E-02  0.9742594E-01
        1   -1    0    0  501    0  0.00000000000E+00  0.00000000000E+00  0.46432807329E+03  0.46432807332E+03  0.50400001928E-02 0. -1.
       -1   -1    0    0    0  501  0.00000000000E+00  0.00000000000E+00 -0.25290540875E+03  0.25290540880E+03  0.50400001928E-02 0.  1.
    10030    2    1    2    0    0  0.00000000000E+00  0.00000000000E+00  0.21142266454E+03  0.71723348212E+03  0.68536437374E+03 0.  0.
        1    1    3    3  502    0 -0.13276065142E+03 -0.63793579571E+02  0.42951131943E+03  0.45406495670E+03  0.50400001928E-02 0. -1.
       -1    1    3    3    0  502  0.13276065142E+03  0.63793579571E+02 -0.21808865488E+03  0.26316852542E+03  0.50400001928E-02 0.  1.
</event>
<event>
 5   0  0.4299912E-02  0.7324541E+03  0.7818609E-02  0.9663286E-01
       -2   -1    0    0    0  501  0.00000000000E+00  0.00000000000E+00  0.72297566047E+02  0.72297566092E+02  0.25500000920E-02 0. -1.
        2   -1    0    0  501    0  0.00000000000E+00  0.00000000000E+00 -0.18551419406E+04  0.18551419406E+04  0.25500000920E-02 0.  1.
    10030    2    1    2    0    0  0.00000000000E+00  0.00000000000E+00 -0.17828443745E+04  0.19274395066E+04  0.73245408598E+03 0.  0.
        3    1    3    3  502    0 -0.41271721443E+02 -0.34536677855E+03 -0.58976817472E+03  0.68469560889E+03  0.10100000352E+00 0. -1.
       -3    1    3    3    0  502  0.41271721443E+02  0.34536677855E+03 -0.11930761998E+04  0.12427438978E+04  0.10100000352E+00 0.  1.
</event>
<event>
 5   0  0.2750139E-02  0.6981438E+03  0.7818609E-02  0.9720412E-01
        1   -1    0    0  501    0  0.00000000000E+00  0.00000000000E+00  0.19109672305E+03  0.19109672312E+03  0.50400001928E-02 0.  1.
       -1   -1    0    0    0  501  0.00000000000E+00  0.00000000000E+00 -0.63764147054E+03  0.63764147056E+03  0.50400001928E-02 0. -1.
    10030    2    1    2    0    0  0.00000000000E+00  0.00000000000E+00 -0.44654474748E+03  0.82873819368E+03  0.69814381194E+03 0.  0.
        2    1    3    3  502    0  0.14799260108E+03  0.27272134788E+03 -0.33445083947E+02  0.31208543255E+03  0.25500000920E-02 0.  1.
       -2    1    3    3    0  502 -0.14799260108E+03 -0.27272134788E+03 -0.41309966353E+03  0.51665276113E+03  0.25500000920E-02 0. -1.
</event>
<event>
 5   0  0.4526837E-02  0.7231509E+03  0.7818609E-02  0.9678440E-01
       -2   -1    0    0    0  501  0.00000000000E+00  0.00000000000E+00  0.90077520688E+02  0.90077520724E+02  0.25500000920E-02 0.  1.
        2   -1    0    0  501    0  0.00000000000E+00  0.00000000000E+00 -0.14513809997E+04  0.14513809997E+04  0.25500000920E-02 0. -1.
    10030    2    1    2    0    0  0.00000000000E+00  0.00000000000E+00 -0.13613034790E+04  0.15414585204E+04  0.72315088898E+03 0.  0.
        1    1    3    3  502    0 -0.20827947054E+03  0.32215585151E+02 -0.54391033658E+02  0.21766158675E+03  0.50400001928E-02 0.  1.
       -1    1    3    3    0  502  0.20827947054E+03 -0.32215585151E+02 -0.13069124454E+04  0.13237969337E+04  0.50400001928E-02 0. -1.
</event>
<event>
 5   0  0.2750139E-02  0.7359678E+03  0.7818609E-02  0.9657626E-01
       -1   -1    0    0    0  501  0.00000000000E+00  0.00000000000E+00  0.25346219950E+03  0.25346219955E+03  0.50400001928E-02 0.  1.
        1   -1    0    0  501    0  0.00000000000E+00  0.00000000000E+00 -0.53424984107E+03  0.53424984109E+03  0.50400001928E-02 0. -1.
    10030    2    1    2    0    0  0.00000000000E+00  0.00000000000E+00 -0.28078764157E+03  0.78771204064E+03  0.73596777057E+03 0.  0.
        2    1    3    3  502    0  0.29131837240E+03 -0.21014019601E+03 -0.22593039125E+03  0.42434636533E+03  0.25500000920E-02 0.  1.
       -2    1    3    3    0  502 -0.29131837240E+03  0.21014019601E+03 -0.54857250315E+02  0.36336567531E+03  0.25500000920E-02 0. -1.
</event>
<event>
 5   0  0.2758681E-02  0.7026923E+03  0.7818609E-02  0.9712639E-01
       -1   -1    0    0    0  501  0.00000000000E+00  0.00000000000E+00  0.26622004986E+03  0.26622004991E+03  0.50400001928E-02 0. -1.
        1   -1    0    0  501    0  0.00000000000E+00  0.00000000000E+00 -0.46369205749E+03  0.46369205752E+03  0.50400001928E-02 0.  1.
    10030    2    1    2    0    0  0.00000000000E+00  0.00000000000E+00 -0.19747200763E+03  0.72991210743E+03  0.70269231586E+03 0.  0.
        3    1    3    3  502    0 -0.16565773308E+02  0.15281498176E+03 -0.42691305233E+03  0.45374178554E+03  0.10100000352E+00 0.  1.
       -3    1    3    3    0  502  0.16565773308E+02 -0.15281498176E+03  0.22944104470E+03  0.27617032188E+03  0.10100000352E+00 0. -1.
</event>
<event>
 5   0  0.4365492E-02  0.6977481E+03  0.7818609E-02  0.9721091E-01
        2   -1    0    0  501    0  0.00000000000E+00  0.00000000000E+00  0.12727622765E+04  0.12727622765E+04  0.25500000920E-02 0. -1.
       -2   -1    0    0    0  501  0.00000000000E+00  0.00000000000E+00 -0.95629091235E+02  0.95629091269E+02  0.25500000920E-02 0.  1.
    10030    2    1    2    0    0  0.00000000000E+00  0.00000000000E+00  0.11771331852E+04  0.13683913677E+04  0.69774809174E+03 0.  0.
        4    1    3    3  502    0 -0.33554646470E+03 -0.44950019091E+02  0.75381115026E+03  0.82634423659E+03  0.12699999809E+01 0. -1.
       -4    1    3    3    0  502  0.33554646470E+03  0.44950019091E+02  0.42332203497E+03  0.54204713115E+03  0.12699999809E+01 0.  1.
</event>
<event>
 5   0  0.2684924E-02  0.7005283E+03  0.7818609E-02  0.9716329E-01
        1   -1    0    0  501    0  0.00000000000E+00  0.00000000000E+00  0.10800472703E+04  0.10800472703E+04  0.50400001928E-02 0. -1.
       -1   -1    0    0    0  501  0.00000000000E+00  0.00000000000E+00 -0.11359222281E+03  0.11359222292E+03  0.50400001928E-02 0.  1.
    10030    2    1    2    0    0  0.00000000000E+00  0.00000000000E+00  0.96645504745E+03  0.11936394932E+04  0.70052828707E+03 0.  0.
        4    1    3    3  502    0  0.12363188607E+02  0.17921781939E+02 -0.11243415945E+03  0.11452987301E+03  0.12699999809E+01 0.  1.
       -4    1    3    3    0  502 -0.12363188607E+02 -0.17921781939E+02  0.10788892069E+04  0.10791096202E+04  0.12699999809E+01 0. -1.
</event>
<event>
 5   0  0.4503289E-02  0.7134535E+03  0.7818609E-02  0.9694498E-01
       -2   -1    0    0    0  501  0.00000000000E+00  0.00000000000E+00  0.66701272378E+03  0.66701272378E+03  0.25500000920E-02 0.  1.
        2   -1    0    0  501    0  0.00000000000E+00  0.00000000000E+00 -0.19078194193E+03  0.19078194195E+03  0.25500000920E-02 0. -1.
    10030    2    1    2    0    0  0.00000000000E+00  0.00000000000E+00  0.47623078184E+03  0.85779466573E+03  0.71345352406E+03 0.  0.
        2    1    3    3  502    0 -0.40480673579E+02 -0.25247016102E+03 -0.60954130637E+02  0.26285979758E+03  0.25500000920E-02 0. -1.
       -2    1    3    3    0  502  0.40480673579E+02  0.25247016102E+03  0.53718491248E+03  0.59493486815E+03  0.25500000920E-02 0.  1.
</event>
<event>
 5   0  0.2758681E-02  0.7003275E+03  0.7818609E-02  0.9716672E-01
        1   -1    0    0  501    0  0.00000000000E+00  0.00000000000E+00  0.74158544226E+03  0.74158544228E+03  0.50400001928E-02 0. -1.
       -1   -1    0    0    0  501  0.00000000000E+00  0.00000000000E+00 -0.16534122505E+03  0.16534122512E+03  0.50400001928E-02 0.  1.
    10030    2    1    2    0    0  0.00000000000E+00  0.00000000000E+00  0.57624421722E+03  0.90692666740E+03  0.70032748209E+03 0.  0.
        3    1    3    3  502    0  0.82786293560E+02 -0.29497185082E+02 -0.15082679828E+03  0.17456342002E+03  0.10100000352E+00 0.  1.
       -3    1    3    3    0  502 -0.82786293560E+02  0.29497185082E+02  0.72707101550E+03  0.73236324738E+03  0.10100000352E+00 0. -1.
</event>
<event>
 5   0  0.4299912E-02  0.7037610E+03  0.7818609E-02  0.9710822E-01
       -2   -1    0    0    0  501  0.00000000000E+00  0.00000000000E+00  0.97401340125E+02  0.97401340158E+02  0.25500000920E-02 0. -1.
        2   -1    0    0  501    0  0.00000000000E+00  0.00000000000E+00 -0.12712339783E+04  0.12712339783E+04  0.25500000920E-02 0.  1.
    10030    2    1    2    0    0  0.00000000000E+00  0.00000000000E+00 -0.11738326381E+04  0.13686353184E+04  0.70376101944E+03 0.  0.
        3    1    3    3  502    0  0.14666229948E+03 -0.31111824312E+03 -0.73134540072E+03  0.80818964151E+03  0.10100000352E+00 0.  1.
       -3    1    3    3    0  502 -0.14666229948E+03  0.31111824312E+03 -0.44248723741E+03  0.56044567691E+03  0.10100000352E+00 0. -1.
</event>
<event>
 5   0  0.2750139E-02  0.6916932E+03  0.7818609E-02  0.9731544E-01
       -1   -1    0    0    0  501  0.00000000000E+00  0.00000000000E+00  0.12940489331E+03  0.12940489341E+03  0.50400001928E-02 0.  1.
        1   -1    0    0  501    0  0.00000000000E+00  0.00000000000E+00 -0.92430712878E+03  0.92430712879E+03  0.50400001928E-02 0. -1.
    10030    2    1    2    0    0  0.00000000000E+00  0.00000000000E+00 -0.79490223547E+03  0.10537120222E+04  0.69169318471E+03 0.  0.
        2    1    3    3  502    0  0.33311242531E+03 -0.59136769546E+02 -0.28814051365E+03  0.44439397051E+03  0.25500000920E-02 0. -1.
       -2    1    3    3    0  502 -0.33311242531E+03  0.59136769546E+02 -0.50676172181E+03  0.60931805169E+03  0.25500000920E-02 0.  1.
</event>
<event>
 5   0  0.4503289E-02  0.6887320E+03  0.7818609E-02  0.9736698E-01
       -2   -1    0    0    0  501  0.00000000000E+00  0.00000000000E+00  0.15951719798E+03  0.15951719800E+03  0.25500000920E-02 0. -1.
        2   -1    0    0  501    0  0.00000000000E+00  0.00000000000E+00 -0.74341784500E+03  0.74341784501E+03  0.25500000920E-02 0.  1.
    10030    2    1    2    0    0  0.00000000000E+00  0.00000000000E+00 -0.58390064702E+03  0.90293504301E+03  0.68873196985E+03 0.  0.
        2    1    3    3  502    0  0.32874950815E+03 -0.84437375488E+02 -0.36819235942E+03  0.50077092870E+03  0.25500000920E-02 0. -1.
       -2    1    3    3    0  502 -0.32874950815E+03  0.84437375488E+02 -0.21570828761E+03  0.40216411431E+03  0.25500000920E-02 0.  1.
</event>
<event>
 5   0  0.4526837E-02  0.7119904E+03  0.7818609E-02  0.9696944E-01
       -2   -1    0    0    0  501  0.00000000000E+00  0.00000000000E+00  0.36965277649E+03  0.36965277650E+03  0.25500000920E-02 0.  1.
        2   -1    0    0  501    0  0.00000000000E+00  0.00000000000E+00 -0.34284222294E+03  0.34284222295E+03  0.25500000920E-02 0. -1.
    10030    2    1    2    0    0  0.00000000000E+00  0.00000000000E+00  0.26810553554E+02  0.71249499945E+03  0.71199039211E+03 0.  0.
        1    1    3    3  502    0 -0.20265786867E+03 -0.86941422742E+02 -0.26626292738E+03  0.34572383377E+03  0.50400001928E-02 0. -1.
       -1    1    3    3    0  502  0.20265786867E+03  0.86941422742E+02  0.29307348093E+03  0.36677116567E+03  0.50400001928E-02 0.  1.
</event>
<event>
 5   0  0.2751729E-02  0.7022546E+03  0.7818609E-02  0.9713384E-01
        1   -1    0    0  501    0  0.00000000000E+00  0.00000000000E+00  0.13332138972E+03  0.13332138982E+03  0.50400001928E-02 0. -1.
       -1   -1    0    0    0  501  0.00000000000E+00  0.00000000000E+00 -0.92476064027E+03  0.92476064028E+03  0.50400001928E-02 0.  1.
    10030    2    1    2    0    0  0.00000000000E+00  0.00000000000E+00 -0.79143925054E+03  0.10580820301E+04  0.70225457999E+03 0.  0.
        1    1    3    3  502    0  0.23083171845E+03  0.10265574117E+03 -0.28293802222E+02  0.25420862044E+03  0.50400001928E-02 0. -1.
       -1    1    3    3    0  502 -0.23083171845E+03 -0.10265574117E+03 -0.76314544832E+03  0.80387340966E+03  0.50400001928E-02 0.  1.
</event>
<event>
 5   0  0.2750139E-02  0.6832883E+03  0.7818609E-02  0.9746246E-01
       -1   -1    0    0    0  501  0.00000000000E+00  0.00000000000E+00  0.25938900915E+03  0.25938900920E+03  0.50400001928E-02 0.  1.
        1   -1    0    0  501    0  0.00000000000E+00  0.00000000000E+00 -0.44998327796E+03  0.44998327799E+03  0.50400001928E-02 0. -1.
    10030    2    1    2    0    0  0.00000000000E+00  0.00000000000E+00 -0.19059426882E+03  0.70937228719E+03  0.68328827484E+03 0.  0.
        2    1    3    3  502    0  0.62037426566E+02  0.97910284959E+02  0.23835218561E+03  0.26504118659E+03  0.25500000920E-02 0.  1.
       -2    1    3    3    0  502 -0.62037426566E+02 -0.97910284959E+02 -0.42894645442E+03  0.44433110061E+03  0.25500000920E-02 0. -1.
</event>
<event>
 5   0  0.4503289E-02  0.6960661E+03  0.7818609E-02  0.9723983E-01
        2   -1    0    0  501    0  0.00000000000E+00  0.00000000000E+00  0.14245512790E+04  0.14245512790E+04  0.25500000920E-02 0. -1.
       -2   -1    0    0    0  501  0.00000000000E+00  0.00000000000E+00 -0.85028172542E+02  0.85028172580E+02  0.25500000920E-02 0.  1.
    10030    2    1    2    0    0  0.00000000000E+00  0.00000000000E+00  0.13395231064E+04  0.15095794515E+04  0.69606606575E+03 0.  0.
        2    1    3    3  502    0  0.14745775190E+03  0.32988522778E+02 -0.10179307306E+02  0.15144520308E+03  0.25500000920E-02 0.  1.
       -2    1    3    3    0  502 -0.14745775190E+03 -0.32988522778E+02  0.13497024137E+04  0.13581342485E+04  0.25500000920E-02 0. -1.
</event>
<event>
 5   0  0.4365492E-02  0.6860507E+03  0.7818609E-02  0.9741389E-01
        2   -1    0    0  501    0  0.00000000000E+00  0.00000000000E+00  0.17610902374E+03  0.17610902376E+03  0.25500000920E-02 0.  1.
       -2   -1    0    0    0  501  0.00000000000E+00  0.00000000000E+00 -0.66814522014E+03  0.66814522015E+03  0.25500000920E-02 0. -1.
    10030    2    1    2    0    0  0.00000000000E+00  0.00000000000E+00 -0.49203619640E+03  0.84425424391E+03  0.68605073412E+03 0.  0.
        4    1    3    3  502    0 -0.23542103039E+03  0.13603242625E+03  0.11341904630E+02  0.27213624206E+03  0.12699999809E+01 0.  1.
       -4    1    3    3    0  502  0.23542103039E+03 -0.13603242625E+03 -0.50337810103E+03  0.57211800185E+03  0.12699999809E+01 0. -1.
</event>
<event>
 5   0  0.4299912E-02  0.7055814E+03  0.7818609E-02  0.9707735E-01
        2   -1    0    0  501    0  0.00000000000E+00  0.00000000000E+00  0.52234923245E+03  0.52234923245E+03  0.25500000920E-02 0. -1.
       -2   -1    0    0    0  501  0.00000000000E+00  0.00000000000E+00 -0.23827215167E+03  0.23827215168E+03  0.25500000920E-02 0.  1.
    10030    2    1    2    0    0  0.00000000000E+00  0.00000000000E+00  0.28407708078E+03  0.76062138414E+03  0.70558139302E+03 0.  0.
        3    1    3    3  502    0 -0.23571457019E+03  0.12275415331E+03  0.39215308343E+03  0.47372353942E+03  0.10100000352E+00 0.  1.
       -3    1    3    3    0  502  0.23571457019E+03 -0.12275415331E+03 -0.10807600265E+03  0.28689784472E+03  0.10100000352E+00 0. -1.
</event>
<event>
 5   0  0.4420645E-02  0.7049843E+03  0.7818609E-02  0.9708746E-01
        2   -1    0    0  501    0  0.00000000000E+00  0.00000000000E+00  0.44616555681E+03  0.44616555682E+03  0.25500000920E-02 0. -1.
       -2   -1    0    0    0  501  0.00000000000E+00  0.00000000000E+00 -0.27848565300E+03  0.27848565302E+03  0.25500000920E-02 0.  1.
    10030    2    1    2    0    0  0.00000000000E+00  0.00000000000E+00  0.16767990381E+03  0.72465120983E+03  0.70498427342E+03 0.  0.
        5    1    3    3  502    0  0.28629848048E+03 -0.19906392739E+03  0.31072188293E+02  0.35011546381E+03  0.46999998093E+01 0.  1.
       -5    1    3    3    0  502 -0.28629848048E+03  0.19906392739E+03  0.13660771551E+03  0.37453574603E+03  0.46999998093E+01 0. -1.
</event>
<event>
 5   0  0.2684924E-02  0.7565617E+03  0.7818609E-02  0.9625112E-01
       -1   -1    0    0    0  501  0.00000000000E+00  0.00000000000E+00  0.12938372303E+04  0.12938372303E+04  0.50400001928E-02 0.  1.
        1   -1    0    0  501    0  0.00000000000E+00  0.00000000000E+00 -0.11059845280E+03  0.11059845291E+03  0.50400001928E-02 0. -1.
    10030    2    1    2    0    0  0.00000000000E+00  0.00000000000E+00  0.11832387775E+04  0.14044356832E+04  0.75656168533E+03 0.  0.
        4    1    3    3  502    0 -0.24700434273E+03  0.21402145812E+03  0.23804410994E+03  0.40433023761E+03  0.12699999809E+01 0.  1.
       -4    1    3    3    0  502  0.24700434273E+03 -0.21402145812E+03  0.94519466753E+03  0.10001054456E+04  0.12699999809E+01 0. -1.
</event>
<event>
 5   0  0.2758681E-02  0.7019481E+03  0.7818609E-02  0.9713906E-01
       -1   -1    0    0    0  501  0.00000000000E+00  0.00000000000E+00  0.12513586232E+03  0.12513586242E+03  0.50400001928E-02 0. -1.
        1   -1    0    0  501    0  0.00000000000E+00  0.00000000000E+00 -0.98439246562E+03  0.98439246563E+03  0.50400001928E-02 0.  1.
    10030    2    1    2    0    0  0.00000000000E+00  0.00000000000E+00 -0.85925660330E+03  0.11095283281E+04  0.70194814656E+03 0.  0.
        3    1    3    3  502    0 -0.51005030770E+02  0.56118585659E+02  0.11203143852E+03  0.13528437544E+03  0.10100000352E+00 0. -1.
       -3    1    3    3    0  502  0.51005030770E+02 -0.56118585659E+02 -0.97128804182E+03  0.97424395262E+03  0.10100000352E+00 0.  1.
</event>
<event>
 5   0  0.2684924E-02  0.7010460E+03  0.7818609E-02  0.9715445E-01
       -1   -1    0    0    0  501  0.00000000000E+00  0.00000000000E+00  0.32547011037E+03  0.32547011040E+03  0.50400001928E-02 0. -1.
        1   -1    0    0  501    0  0.00000000000E+00  0.00000000000E+00 -0.37750429657E+03  0.37750429660E+03  0.50400001928E-02 0.  1.
    10030    2    1    2    0    0  0.00000000000E+00  0.00000000000E+00 -0.52034186204E+02  0.70297440701E+03  0.70104597594E+03 0.  0.
        4    1    3    3  502    0 -0.24942548236E+03  0.20094974171E+03 -0.16878458788E+03  0.36205485765E+03  0.12699999809E+01 0.  1.
       -4    1    3    3    0  502  0.24942548236E+03 -0.20094974171E+03  0.11675040168E+03  0.34091954936E+03  0.12699999809E+01 0. -1.
</event>
<event>
 5   0  0.4365492E-02  0.7015054E+03  0.7818609E-02  0.9714661E-01
        2   -1    0    0  501    0  0.00000000000E+00  0.00000000000E+00  0.10742071468E+04  0.10742071468E+04  0.25500000920E-02 0. -1.
       -2   -1    0    0    0  501  0.00000000000E+00  0.00000000000E+00 -0.11452860723E+03  0.11452860726E+03  0.25500000920E-02 0.  1.
    10030    2    1    2    0    0  0.00000000000E+00  0.00000000000E+00  0.95967853957E+03  0.11887357541E+04  0.70150537680E+03 0.  0.
        4    1    3    3  502    0  0.16182300758E+03  0.30665766192E+03  0.56951006634E+03  0.66676002877E+03  0.12699999809E+01 0. -1.
       -4    1    3    3    0  502 -0.16182300758E+03 -0.30665766192E+03  0.39016847323E+03  0.52197572530E+03  0.12699999809E+01 0.  1.
</event>
<event>
 5   0  0.4365492E-02  0.7995796E+03  0.7818609E-02  0.9560626E-01
        2   -1    0    0  501    0  0.00000000000E+00  0.00000000000E+00  0.76829218264E+03  0.76829218265E+03  0.25500000920E-02 0.  1.
       -2   -1    0    0    0  501  0.00000000000E+00  0.00000000000E+00 -0.20803526680E+03  0.20803526682E+03  0.25500000920E-02 0. -1.
    10030    2    1    2    0    0  0.00000000000E+00  0.00000000000E+00  0.56025691584E+03  0.97632744946E+03  0.79957956254E+03 0.  0.
        4    1    3    3  502    0 -0.90229477134E+02 -0.38646933863E+03  0.33907308318E+03  0.52198857927E+03  0.12699999809E+01 0.  1.
       -4    1    3    3    0  502  0.90229477134E+02  0.38646933863E+03  0.22118383266E+03  0.45433887020E+03  0.12699999809E+01 0. -1.
</event>
<event>
 5   0  0.2777999E-02  0.6903068E+03  0.7818609E-02  0.9733954E-01
        1   -1    0    0  501    0  0.00000000000E+00  0.00000000000E+00  0.78834575751E+02  0.78834575912E+02  0.50400001928E-02 0.  1.
       -1   -1    0    0    0  501  0.00000000000E+00  0.00000000000E+00 -0.15111501650E+04  0.15111501650E+04  0.50400001928E-02 0. -1.
    10030    2    1    2    0    0  0.00000000000E+00  0.00000000000E+00 -0.14323155893E+04  0.15899847410E+04  0.69030683697E+03 0.  0.
        5    1    3    3  502    0  0.22288724271E+03 -0.20989646471E+03 -0.10830524135E+04  0.11255042733E+04  0.46999998093E+01 0. -1.
       -5    1    3    3    0  502 -0.22288724271E+03  0.20989646471E+03 -0.34926317578E+03  0.46448046764E+03  0.46999998093E+01 0.  1.
</event>
<event>
 5   0  0.4503289E-02  0.7000039E+03  0.7818609E-02  0.9717226E-01
       -2   -1    0    0    0  501  0.00000000000E+00  0.00000000000E+00  0.81769783342E+03  0.81769783342E+03  0.25500000920E-02 0. -1.
        2   -1    0    0  501    0  0.00000000000E+00  0.00000000000E+00 -0.14981250193E+03  0.14981250195E+03  0.25500000920E-02 0.  1.
    10030    2    1    2    0    0  0.00000000000E+00  0.00000000000E+00  0.66788533149E+03  0.96751033538E+03  0.70000388074E+03 0.  0.
        2    1    3    3  502    0 -0.14892183267E+03 -0.13189729365E+03 -0.64075127763E+02  0.20899815866E+03  0.25500000920E-02 0.  1.
       -2    1    3    3    0  502  0.14892183267E+03  0.13189729365E+03  0.73196045925E+03  0.75851217672E+03  0.25500000920E-02 0. -1.
</event>
<event>
 5   0  0.2750139E-02  0.7073896E+03  0.7818609E-02  0.9704678E-01
        1   -1    0    0  501    0  0.00000000000E+00  0.00000000000E+00  0.84042522542E+03  0.84042522544E+03  0.50400001928E-02 0.  1.
       -1   -1    0    0    0  501  0.00000000000E+00  0.00000000000E+00 -0.14885321500E+03  0.14885321508E+03  0.50400001928E-02 0. -1.
    10030    2    1    2    0    0  0.00000000000E+00  0.00000000000E+00  0.69157201043E+03  0.98927844052E+03  0.70738955836E+03 0.  0.
        2    1    3    3  502    0  0.11648734562E+03 -0.11542852416E+03 -0.92473166228E+02  0.18826665227E+03  0.25500000920E-02 0. -1.
       -2    1    3    3    0  502 -0.11648734562E+03  0.11542852416E+03  0.78404517665E+03  0.80101178825E+03  0.25500000920E-02 0.  1.
</event>
<event>
 5   0  0.2758681E-02  0.6931637E+03  0.7818609E-02  0.9728995E-01
        1   -1    0    0  501    0  0.00000000000E+00  0.00000000000E+00  0.25861123082E+03  0.25861123087E+03  0.50400001928E-02 0.  1.
       -1   -1    0    0    0  501  0.00000000000E+00  0.00000000000E+00 -0.46447704318E+03  0.46447704321E+03  0.50400001928E-02 0. -1.
    10030    2    1    2    0    0  0.00000000000E+00  0.00000000000E+00 -0.20586581236E+03  0.72308827408E+03  0.69316370318E+03 0.  0.
        3    1    3    3  502    0 -0.27680647705E+03 -0.53495442269E+02 -0.31321760691E+03  0.42141294185E+03  0.10100000352E+00 0. -1.
       -3    1    3    3    0  502  0.27680647705E+03  0.53495442269E+02  0.10735179455E+03  0.30167533223E+03  0.10100000352E+00 0.  1.
</event>
<event>
 5   0  0.4420645E-02  0.7006481E+03  0.7818609E-02  0.9716124E-01
        2   -1    0    0  501    0  0.00000000000E+00  0.00000000000E+00  0.14360111459E+04  0.14360111459E+04  0.25500000920E-02 0.  1.
       -2   -1    0    0    0  501  0.00000000000E+00  0.00000000000E+00 -0.85463780992E+02  0.85463781030E+02  0.25500000920E-02 0. -1.
    10030    2    1    2    0    0  0.00000000000E+00  0.00000000000E+00  0.13505473649E+04  0.15214749270E+04  0.70064810599E+03 0.  0.
        5    1    3    3  502    0 -0.28595219229E+03  0.43440898933E+02  0.11043853011E+04  0.11416412533E+04  0.46999998093E+01 0.  1.
       -5    1    3    3    0  502  0.28595219229E+03 -0.43440898933E+02  0.24616206386E+03  0.37983367367E+03  0.46999998093E+01 0. -1.
</event>
<event>
 5   0  0.4526837E-02  0.8134143E+03  0.7818609E-02  0.9540801E-01
        2   -1    0    0  501    0  0.00000000000E+00  0.00000000000E+00  0.36202303665E+03  0.36202303666E+03  0.25500000920E-02 0.  1.
       -2   -1    0    0    0  501  0.00000000000E+00  0.00000000000E+00 -0.45690652431E+03  0.45690652432E+03  0.25500000920E-02 0. -1.
    10030    2    1    2    0    0  0.00000000000E+00  0.00000000000E+00 -0.94883487659E+02  0.81892956098E+03  0.81341425461E+03 0.  0.
        1    1    3    3  502    0  0.10379566374E+03  0.11262274466E+03  0.33187975871E+03  0.36551552182E+03  0.50400001928E-02 0.  1.
       -1    1    3    3    0  502 -0.10379566374E+03 -0.11262274466E+03 -0.42676324637E+03  0.45341403915E+03  0.50400001928E-02 0. -1.
</event>
<event>
 5   0  0.2684924E-02  0.6980705E+03  0.7818609E-02  0.9720538E-01
        1   -1    0    0  501    0  0.00000000000E+00  0.00000000000E+00  0.18254754838E+03  0.18254754845E+03  0.50400001928E-02 0.  1.
       -1   -1    0    0    0  501  0.00000000000E+00  0.00000000000E+00 -0.66736362648E+03  0.66736362650E+03  0.50400001928E-02 0. -1.
    10030    2    1    2    0    0  0.00000000000E+00  0.00000000000E+00 -0.48481607810E+03  0.84991117495E+03  0.69807046615E+03 0.  0.
        4    1    3    3  502    0  0.12939886513E+03  0.31174483438E+03 -0.35058937725E+03  0.48666562689E+03  0.12699999809E+01 0. -1.
       -4    1    3    3    0  502 -0.12939886513E+03 -0.31174483438E+03 -0.13422670085E+03  0.36324554805E+03  0.12699999809E+01 0.  1.
</event>
<event>
 5   0  0.2750139E-02  0.6886914E+03  0.7818609E-02  0.9736769E-01
        1   -1    0    0  501    0  0.00000000000E+00  0.00000000000E+00  0.46856732257E+03  0.46856732260E+03  0.50400001928E-02 0. -1.
       -1   -1    0    0    0  501  0.00000000000E+00  0.00000000000E+00 -0.25305639159E+03  0.25305639164E+03  0.50400001928E-02 0.  1.
    10030    2    1    2    0    0  0.00000000000E+00  0.00000000000E+00  0.21551093098E+03  0.72162371424E+03  0.68869138486E+03 0.  0.
        2    1    3    3  502    0  0.42663494375E+02  0.75651326732E+02  0.45690189488E+03  0.46508347481E+03  0.25500000920E-02 0. -1.
       -2    1    3    3    0  502 -0.42663494375E+02 -0.75651326732E+02 -0.24139096390E+03  0.25654023943E+03  0.25500000920E-02 0.  1.
</event>
<event>
 5   0  0.2758681E-02  0.6101173E+03  0.7818609E-02  0.9884635E-01
       -1   -1    0    0    0  501  0.00000000000E+00  0.00000000000E+00  0.17137936183E+03  0.17137936190E+03  0.50400001928E-02 0. -1.
        1   -1    0    0  501    0  0.00000000000E+00  0.00000000000E+00 -0.54301041875E+03  0.54301041878E+03  0.50400001928E-02 0.  1.
    10030    2    1    2    0    0  0.00000000000E+00  0.00000000000E+00 -0.37163105692E+03  0.71438978068E+03  0.61011729714E+03 0.  0.
        3    1    3    3  502    0  0.30248098766E+03 -0.28365193199E+02 -0.15350538975E+03  0.34038690774E+03  0.10100000352E+00 0. -1.
       -3    1    3    3    0  502 -0.30248098766E+03  0.28365193199E+02 -0.21812566718E+03  0.37400287293E+03  0.10100000352E+00 0.  1.
</event>
<event>
 5   0  0.4365492E-02  0.6919571E+03  0.7818609E-02  0.9731086E-01
       -2   -1    0    0    0  501  0.00000000000E+00  0.00000000000E+00  0.17769183539E+03  0.17769183541E+03  0.25500000920E-02 0. -1.
        2   -1    0    0  501    0  0.00000000000E+00  0.00000000000E+00 -0.67364457119E+03  0.67364457119E+03  0.25500000920E-02 0.  1.
    10030    2    1    2    0    0  0.00000000000E+00  0.00000000000E+00 -0.49595273579E+03  0.85133640660E+03  0.69195705146E+03 0.  0.
        4    1    3    3  502    0 -0.29415359311E+03  0.15169971421E+03 -0.12396051416E+03  0.35342178994E+03  0.12699999809E+01 0. -1.
       -4    1    3    3    0  502  0.29415359311E+03 -0.15169971421E+03 -0.37199222164E+03  0.49791461667E+03  0.12699999809E+01 0.  1.
</event>
<event>
 5   0  0.2777999E-02  0.7166811E+03  0.7818609E-02  0.9689123E-01
        1   -1    0    0  501    0  0.00000000000E+00  0.00000000000E+00  0.13220886287E+03  0.13220886296E+03  0.50400001928E-02 0.  1.
       -1   -1    0    0    0  501  0.00000000000E+00  0.00000000000E+00 -0.97125077447E+03  0.97125077448E+03  0.50400001928E-02 0. -1.
    10030    2    1    2    0    0  0.00000000000E+00  0.00000000000E+00 -0.83904191160E+03  0.11034596374E+04  0.71668112996E+03 0.  0.
        5    1    3    3  502    0 -0.34119237622E+03 -0.65618341548E+02 -0.28469678914E+03  0.44921304087E+03  0.46999998093E+01 0. -1.
       -5    1    3    3    0  502  0.34119237622E+03  0.65618341548E+02 -0.55434512245E+03  0.65424659657E+03  0.46999998093E+01 0.  1.
</event>
<event>
 5   0  0.4299912E-02  0.7097495E+03  0.7818609E-02  0.9700703E-01
       -2   -1    0    0    0  501  0.00000000000E+00  0.00000000000E+00  0.14480296598E+03  0.14480296600E+03  0.25500000920E-02 0.  1.
        2   -1    0    0  501    0  0.00000000000E+00  0.00000000000E+00 -0.86970648681E+03  0.86970648681E+03  0.25500000920E-02 0. -1.
    10030    2    1    2    0    0  0.00000000000E+00  0.00000000000E+00 -0.72490352083E+03  0.10145094528E+04  0.70974947364E+03 0.  0.
        3    1    3    3  502    0  0.19724133663E+03  0.18091799399E+03 -0.29368086813E+02  0.26925445242E+03  0.10100000352E+00 0.  1.
       -3    1    3    3    0  502 -0.19724133663E+03 -0.18091799399E+03 -0.69553543402E+03  0.74525500039E+03  0.10100000352E+00 0. -1.
</event>
<event>
 5   0  0.4299912E-02  0.6919081E+03  0.7818609E-02  0.9731171E-01
       -2   -1    0    0    0  501  0.00000000000E+00  0.00000000000E+00  0.10146272986E+03  0.10146272989E+03  0.25500000920E-02 0. -1.
        2   -1    0    0  501    0  0.00000000000E+00  0.00000000000E+00 -0.11795879558E+04  0.11795879558E+04  0.25500000920E-02 0.  1.
    10030    2    1    2    0    0  0.00000000000E+00  0.00000000000E+00 -0.10781252259E+04  0.12810506857E+04  0.69190812721E+03 0.  0.
        3    1    3    3  502    0  0.59792717204E+02 -0.17202817764E+03  0.55208425258E+01  0.18220689569E+03  0.10100000352E+00 0. -1.
       -3    1    3    3    0  502 -0.59792717204E+02  0.17202817764E+03 -0.10836460684E+04  0.10988437900E+04  0.10100000352E+00 0.  1.
</event>
<event>
 5   0  0.2777999E-02  0.6926908E+03  0.7818609E-02  0.9729814E-01
       -1   -1    0    0    0  501  0.00000000000E+00  0.00000000000E+00  0.43378530583E+03  0.43378530586E+03  0.50400001928E-02 0. -1.
        1   -1    0    0  501    0  0.00000000000E+00  0.00000000000E+00 -0.27653115356E+03  0.27653115360E+03  0.50400001928E-02 0.  1.
    10030    2    1    2    0    0  0.00000000000E+00  0.00000000000E+00  0.15725415227E+03  0.71031645946E+03  0.69269084314E+03 0.  0.
        5    1    3    3  502    0 -0.17404228293E+03 -0.13377113416E+03 -0.19604607310E+03  0.29434942731E+03  0.46999998093E+01 0.  1.
       -5    1    3    3    0  502  0.17404228293E+03  0.13377113416E+03  0.35330022538E+03  0.41596703215E+03  0.46999998093E+01 0. -1.
</event>
<event>
 5   0  0.1784625E-02  0.7029458E+03  0.7818609E-02  0.9712208E-01
       -3   -1    0    0    0  501  0.00000000000E+00  0.00000000000E+00  0.10458581862E+04  0.10458581910E+04  0.10100000352E+00 0. -1.
        3   -1    0    0  501    0  0.00000000000E+00  0.00000000000E+00 -0.11811656653E+03  0.11811660971E+03  0.10100000352E+00 0.  1.
    10030    2    1    2    0    0  0.00000000000E+00  0.00000000000E+00  0.92774161963E+03  0.11639748007E+04  0.70294581865E+03 0.  0.
        5    1    3    3  502    0 -0.21624424952E+03 -0.22605470279E+03  0.72905971631E+03  0.79335519412E+03  0.46999998093E+01 0. -1.
       -5    1    3    3    0  502  0.21624424952E+03  0.22605470279E+03  0.19868190332E+03  0.37061960661E+03  0.46999998093E+01 0.  1.
</event>
<event>
 5   0  0.1784625E-02  0.6968941E+03  0.7818609E-02  0.9722558E-01
        3   -1    0    0  501    0  0.00000000000E+00  0.00000000000E+00  0.35697309504E+03  0.35697310933E+03  0.10100000352E+00 0.  1.
       -3   -1    0    0    0  501  0.00000000000E+00  0.00000000000E+00 -0.34012461273E+03  0.34012462773E+03  0.10100000352E+00 0. -1.
    10030    2    1    2    0    0  0.00000000000E+00  0.00000000000E+00  0.16848482310E+02  0.69709773706E+03  0.69689409788E+03 0.  0.
        1    1    3    3  502    0  0.31612017031E+03 -0.14035397179E+03  0.50675741193E+02  0.34957006486E+03  0.50400001928E-02 0. -1.
       -1    1    3    3    0  502 -0.31612017031E+03  0.14035397179E+03 -0.33827258884E+02  0.34752767220E+03  0.50400001928E-02 0.  1.
</event>
<event>
 5   0  0.2777999E-02  0.7365592E+03  0.7818609E-02  0.9656676E-01
        1   -1    0    0  501    0  0.00000000000E+00  0.00000000000E+00  0.37722560616E+03  0.37722560620E+03  0.50400001928E-02 0. -1.
       -1   -1    0    0    0  501  0.00000000000E+00  0.00000000000E+00 -0.35954576497E+03  0.35954576500E+03  0.50400001928E-02 0.  1.
    10030    2    1    2    0    0  0.00000000000E+00  0.00000000000E+00  0.17679841196E+02  0.73677137120E+03  0.73655921462E+03 0.  0.
        5    1    3    3  502    0 -0.26453388099E+03 -0.61803605055E+02  0.25752753918E+03  0.37435328664E+03  0.46999998093E+01 0. -1.
       -5    1    3    3    0  502  0.26453388099E+03  0.61803605055E+02 -0.23984769798E+03  0.36241808456E+03  0.46999998093E+01 0.  1.
</event>
<event>
 5   0  0.4299912E-02  0.7186326E+03  0.7818609E-02  0.9685888E-01
        2   -1    0    0  501    0  0.00000000000E+00  0.00000000000E+00  0.23784209066E+04  0.23784209066E+04  0.25500000920E-02 0.  1.
       -2   -1    0    0    0  501  0.00000000000E+00  0.00000000000E+00 -0.54283166266E+02  0.54283166326E+02  0.25500000920E-02 0. -1.
    10030    2    1    2    0    0  0.00000000000E+00  0.00000000000E+00  0.23241377403E+04  0.24327040729E+04  0.71863263939E+03 0.  0.
        3    1    3    3  502    0 -0.86468872093E+02 -0.17617877004E+03  0.14317679439E+03  0.24293091509E+03  0.10100000352E+00 0. -1.
       -3    1    3    3    0  502  0.86468872093E+02  0.17617877004E+03  0.21809609459E+04  0.21897731578E+04  0.10100000352E+00 0.  1.
</event>
<event>
 5   0  0.1784625E-02  0.6999875E+03  0.7818609E-02  0.9717254E-01
        3   -1    0    0  501    0  0.00000000000E+00  0.00000000000E+00  0.15817230469E+03  0.15817233694E+03  0.10100000352E+00 0. -1.
       -3   -1    0    0    0  501  0.00000000000E+00  0.00000000000E+00 -0.77444409991E+03  0.77444410649E+03  0.10100000352E+00 0.  1.
    10030    2    1    2    0    0  0.00000000000E+00  0.00000000000E+00 -0.61627179521E+03  0.93261644344E+03  0.69998750345E+03 0.  0.
        2    1    3    3  502    0  0.21324569336E+03  0.13690667943E+03 -0.62977350383E+03  0.67884595509E+03  0.25500000920E-02 0. -1.
       -2    1    3    3    0  502 -0.21324569336E+03 -0.13690667943E+03  0.13501708616E+02  0.25377048834E+03  0.25500000920E-02 0.  1.
</event>
<event>
 5   0  0.4503289E-02  0.7268585E+03  0.7818609E-02  0.9672372E-01
       -2   -1    0    0    0  501  0.00000000000E+00  0.00000000000E+00  0.51109736577E+02  0.51109736641E+02  0.25500000920E-02 0. -1.
        2   -1    0    0  501    0  0.00000000000E+00  0.00000000000E+00 -0.25842596590E+04  0.25842596590E+04  0.25500000920E-02 0.  1.
    10030    2    1    2    0    0  0.00000000000E+00  0.00000000000E+00 -0.25331499224E+04  0.26353693957E+04  0.72685852958E+03 0.  0.
        2    1    3    3  502    0 -0.99130462858E+02 -0.25731432459E+03 -0.21249034654E+04  0.21427207582E+04  0.25500000920E-02 0.  1.
       -2    1    3    3    0  502  0.99130462858E+02  0.25731432459E+03 -0.40824645704E+03  0.49264863747E+03  0.25500000920E-02 0. -1.
</event>
<event>
 5   0  0.4526837E-02  0.7010295E+03  0.7818609E-02  0.9715473E-01
        2   -1    0    0  501    0  0.00000000000E+00  0.00000000000E+00  0.73919432661E+03  0.73919432661E+03  0.25500000920E-02 0. -1.
       -2   -1    0    0    0  501  0.00000000000E+00  0.00000000000E+00 -0.16620878210E+03  0.16620878212E+03  0.25500000920E-02 0.  1.
    10030    2    1    2    0    0  0.00000000000E+00  0.00000000000E+00  0.57298554450E+03  0.90540310873E+03  0.70102949659E+03 0.  0.
        1    1    3    3  502    0 -0.81415363046E+02  0.33849253807E+03  0.23395212928E+03  0.41945113958E+03  0.50400001928E-02 0.  1.
       -1    1    3    3    0  502  0.81415363046E+02 -0.33849253807E+03  0.33903341522E+03  0.48595196916E+03  0.50400001928E-02 0. -1.
</event>
<event>
 5   0  0.2751729E-02  0.6985198E+03  0.7818609E-02  0.9719767E-01
       -1   -1    0    0    0  501  0.00000000000E+00  0.00000000000E+00  0.26632373817E+03  0.26632373822E+03  0.50400001928E-02 0.  1.
        1   -1    0    0  501    0  0.00000000000E+00  0.00000000000E+00 -0.45802333334E+03  0.45802333337E+03  0.50400001928E-02 0. -1.
    10030    2    1    2    0    0  0.00000000000E+00  0.00000000000E+00 -0.19169959516E+03  0.72434707159E+03  0.69851982458E+03 0.  0.
        1    1    3    3  502    0 -0.92730442270E+01  0.33080731311E+03  0.19915820047E+02  0.33153598247E+03  0.50400001928E-02 0.  1.
       -1    1    3    3    0  502  0.92730442270E+01 -0.33080731311E+03 -0.21161541521E+03  0.39281108912E+03  0.50400001928E-02 0. -1.
</event>
<event>
 5   0  0.4365492E-02  0.6976585E+03  0.7818609E-02  0.9721245E-01
        2   -1    0    0  501    0  0.00000000000E+00  0.00000000000E+00  0.78999447179E+03  0.78999447179E+03  0.25500000920E-02 0.  1.
       -2   -1    0    0    0  501  0.00000000000E+00  0.00000000000E+00 -0.15402873473E+03  0.15402873475E+03  0.25500000920E-02 0. -1.
    10030    2    1    2    0    0  0.00000000000E+00  0.00000000000E+00  0.63596573706E+03  0.94402320654E+03  0.69765850942E+03 0.  0.
        4    1    3    3  502    0 -0.35069937759E+02 -0.13134060527E+03  0.75267280233E+03  0.76485176040E+03  0.12699999809E+01 0.  1.
       -4    1    3    3    0  502  0.35069937759E+02  0.13134060527E+03 -0.11670706527E+03  0.17917144614E+03  0.12699999809E+01 0. -1.
</event>
<event>
 5   0  0.4365492E-02  0.6979208E+03  0.7818609E-02  0.9720795E-01
       -2   -1    0    0    0  501  0.00000000000E+00  0.00000000000E+00  0.11525740752E+03  0.11525740755E+03  0.25500000920E-02 0. -1.
        2   -1    0    0  501    0  0.00000000000E+00  0.00000000000E+00 -0.10565338655E+04  0.10565338655E+04  0.25500000920E-02 0.  1.
    10030    2    1    2    0    0  0.00000000000E+00  0.00000000000E+00 -0.94127645793E+03  0.11717912730E+04  0.69792078149E+03 0.  0.
        4    1    3    3  502    0  0.19912423852E+03  0.16122260839E+03 -0.86841190505E+03  0.90541926286E+03  0.12699999809E+01 0.  1.
       -4    1    3    3    0  502 -0.19912423852E+03 -0.16122260839E+03 -0.72864552884E+02  0.26637201015E+03  0.12699999809E+01 0. -1.
</event>
<event>
 5   0  0.4299912E-02  0.7565082E+03  0.7818609E-02  0.9625195E-01
        2   -1    0    0  501    0  0.00000000000E+00  0.00000000000E+00  0.24059968632E+03  0.24059968634E+03  0.25500000920E-02 0. -1.
       -2   -1    0    0    0  501  0.00000000000E+00  0.00000000000E+00 -0.59466472236E+03  0.59466472237E+03  0.25500000920E-02 0.  1.
    10030    2    1    2    0    0  0.00000000000E+00  0.00000000000E+00 -0.35406503604E+03  0.83526440870E+03  0.75650815111E+03 0.  0.
        3    1    3    3  502    0  0.65501599215E+02  0.21344022334E+02 -0.58767958332E+03  0.59170375159E+03  0.10100000352E+00 0.  1.
       -3    1    3    3    0  502 -0.65501599215E+02 -0.21344022334E+02  0.23361454729E+03  0.24356065711E+03  0.10100000352E+00 0. -1.
</event>
<event>
 5   0  0.1784625E-02  0.6881940E+03  0.7818609E-02  0.9737638E-01
        3   -1    0    0  501    0  0.00000000000E+00  0.00000000000E+00  0.11895142408E+04  0.11895142451E+04  0.10100000352E+00 0. -1.
       -3   -1    0    0    0  501  0.00000000000E+00  0.00000000000E+00 -0.99538707091E+02  0.99538758332E+02  0.10100000352E+00 0.  1.
    10030    2    1    2    0    0  0.00000000000E+00  0.00000000000E+00  0.10899755337E+04  0.12890530034E+04  0.68819399994E+03 0.  0.
        5    1    3    3  502    0  0.24930351953E+03 -0.20972150562E+03  0.75226166683E+03  0.81978964384E+03  0.46999998093E+01 0. -1.
       -5    1    3    3    0  502 -0.24930351953E+03  0.20972150562E+03  0.33771386689E+03  0.46926335959E+03  0.46999998093E+01 0.  1.
</event>
<event>
 5   0  0.2684924E-02  0.7292090E+03  0.7818609E-02  0.9668545E-01
        1   -1    0    0  501    0  0.00000000000E+00  0.00000000000E+00  0.11950042137E+04  0.11950042137E+04  0.50400001928E-02 0. -1.
       -1   -1    0    0    0  501  0.00000000000E+00  0.00000000000E+00 -0.11124348311E+03  0.11124348323E+03  0.50400001928E-02 0.  1.
    10030    2    1    2    0    0  0.00000000000E+00  0.00000000000E+00  0.10837607306E+04  0.13062476970E+04  0.72920897184E+03 0.  0.
        4    1    3    3  502    0 -0.10569446322E+03  0.85586091450E+02  0.11478622619E+04  0.11558917266E+04  0.12699999809E+01 0. -1.
       -4    1    3    3    0  502  0.10569446322E+03 -0.85586091450E+02 -0.64101531251E+02  0.15035597033E+03  0.12699999809E+01 0.  1.
</event>
<event>
 5   0  0.2750139E-02  0.6420868E+03  0.7818609E-02  0.9821742E-01
        1   -1    0    0  501    0  0.00000000000E+00  0.00000000000E+00  0.51800837616E+03  0.51800837618E+03  0.50400001928E-02 0.  1.
       -1   -1    0    0    0  501  0.00000000000E+00  0.00000000000E+00 -0.19897139817E+03  0.19897139823E+03  0.50400001928E-02 0. -1.
    10030    2    1    2    0    0  0.00000000000E+00  0.00000000000E+00  0.31903697799E+03  0.71697977441E+03  0.64208675706E+03 0.  0.
        2    1    3    3  502    0 -0.28296919918E+03 -0.14590650688E+02 -0.90327514908E+01  0.28348905689E+03  0.25500000920E-02 0. -1.
       -2    1    3    3    0  502  0.28296919918E+03  0.14590650688E+02  0.32806972948E+03  0.43349071752E+03  0.25500000920E-02 0.  1.
</event>
<event>
 5   0  0.4299912E-02  0.5353146E+03  0.7818609E-02  0.1004951E+00
        2   -1    0    0  501    0  0.00000000000E+00  0.00000000000E+00  0.35654764126E+03  0.35654764127E+03  0.25500000920E-02 0. -1.
       -2   -1    0    0    0  501  0.00000000000E+00  0.00000000000E+00 -0.20092808244E+03  0.20092808246E+03  0.25500000920E-02 0.  1.
    10030    2    1    2    0    0  0.00000000000E+00  0.00000000000E+00  0.15561955882E+03  0.55747572373E+03  0.53531461353E+03 0.  0.
        3    1    3    3  502    0 -0.12480886127E+03  0.20500426542E+03 -0.45570310973E+02  0.24429626304E+03  0.10100000352E+00 0. -1.
       -3    1    3    3    0  502  0.12480886127E+03 -0.20500426542E+03  0.20118986979E+03  0.31317946069E+03  0.10100000352E+00 0.  1.
</event>
<event>
 5   0  0.4365492E-02  0.6996211E+03  0.7818609E-02  0.9717880E-01
       -2   -1    0    0    0  501  0.00000000000E+00  0.00000000000E+00  0.48656895428E+02  0.48656895495E+02  0.25500000920E-02 0. -1.
        2   -1    0    0  501    0  0.00000000000E+00  0.00000000000E+00 -0.25149038865E+04  0.25149038865E+04  0.25500000920E-02 0.  1.
    10030    2    1    2    0    0  0.00000000000E+00  0.00000000000E+00 -0.24662469911E+04  0.25635607820E+04  0.69962108460E+03 0.  0.
        4    1    3    3  502    0 -0.33777608738E+03 -0.77550267047E+02 -0.10589645012E+04  0.11142325417E+04  0.12699999809E+01 0. -1.
       -4    1    3    3    0  502  0.33777608738E+03  0.77550267047E+02 -0.14072824899E+04  0.14493282404E+04  0.12699999809E+01 0.  1.
</event>
<event>
 5   0  0.4365492E-02  0.7232118E+03  0.7818609E-02  0.9678340E-01
       -2   -1    0    0    0  501  0.00000000000E+00  0.00000000000E+00  0.41296794975E+03  0.41296794975E+03  0.25500000920E-02 0.  1.
        2   -1    0    0  501    0  0.00000000000E+00  0.00000000000E+00 -0.31663194040E+03  0.31663194041E+03  0.25500000920E-02 0. -1.
    10030    2    1    2    0    0  0.00000000000E+00  0.00000000000E+00  0.96336009350E+02  0.72959989016E+03  0.72321184519E+03 0.  0.
        4    1    3    3  502    0 -0.49029278115E+02  0.32552650182E+02 -0.31176581823E+03  0.31727446078E+03  0.12699999809E+01 0. -1.
       -4    1    3    3    0  502  0.49029278115E+02 -0.32552650182E+02  0.40810182758E+03  0.41232542938E+03  0.12699999809E+01 0.  1.
</event>
<event>
 5   0  0.2758681E-02  0.7020645E+03  0.7818609E-02  0.9713708E-01
       -1   -1    0    0    0  501  0.00000000000E+00  0.00000000000E+00  0.25870581914E+03  0.25870581919E+03  0.50400001928E-02 0. -1.
        1   -1    0    0  501    0  0.00000000000E+00  0.00000000000E+00 -0.47630801877E+03  0.47630801879E+03  0.50400001928E-02 0.  1.
    10030    2    1    2    0    0  0.00000000000E+00  0.00000000000E+00 -0.21760219963E+03  0.73501383798E+03  0.70206454457E+03 0.  0.
        3    1    3    3  502    0  0.66847015778E+02  0.34259946614E+03 -0.69899041324E+02  0.35598989297E+03  0.10100000352E+00 0.  1.
       -3    1    3    3    0  502 -0.66847015778E+02 -0.34259946614E+03 -0.14770315830E+03  0.37902394501E+03  0.10100000352E+00 0. -1.
</event>
<event>
 5   0  0.2751729E-02  0.7023262E+03  0.7818609E-02  0.9713262E-01
       -1   -1    0    0    0  501  0.00000000000E+00  0.00000000000E+00  0.24928177073E+03  0.24928177078E+03  0.50400001928E-02 0. -1.
        1   -1    0    0  501    0  0.00000000000E+00  0.00000000000E+00 -0.49468326616E+03  0.49468326618E+03  0.50400001928E-02 0.  1.
    10030    2    1    2    0    0  0.00000000000E+00  0.00000000000E+00 -0.24540149543E+03  0.74396503697E+03  0.70232619364E+03 0.  0.
        1    1    3    3  502    0 -0.10403104089E+02  0.29792831256E+03  0.73899093652E+02  0.30713283782E+03  0.50400001928E-02 0. -1.
       -1    1    3    3    0  502  0.10403104089E+02 -0.29792831256E+03 -0.31930058908E+03  0.43683219915E+03  0.50400001928E-02 0.  1.
</event>
<event>
 5   0  0.2750139E-02  0.7057683E+03  0.7818609E-02  0.9707418E-01
        1   -1    0    0  501    0  0.00000000000E+00  0.00000000000E+00  0.41684015350E+03  0.41684015353E+03  0.50400001928E-02 0.  1.
       -1   -1    0    0    0  501  0.00000000000E+00  0.00000000000E+00 -0.29874097669E+03  0.29874097673E+03  0.50400001928E-02 0. -1.
    10030    2    1    2    0    0  0.00000000000E+00  0.00000000000E+00  0.11809917681E+03  0.71558113026E+03  0.70576833198E+03 0.  0.
        2    1    3    3  502    0  0.15904525212E+02  0.35051843083E+03  0.20962550562E+02  0.35150469813E+03  0.25500000920E-02 0. -1.
       -2    1    3    3    0  502 -0.15904525212E+02 -0.35051843083E+03  0.97136626248E+02  0.36407643214E+03  0.25500000920E-02 0.  1.
</event>
<event>
 5   0  0.4526837E-02  0.7035224E+03  0.7818609E-02  0.9711227E-01
       -2   -1    0    0    0  501  0.00000000000E+00  0.00000000000E+00  0.19946945137E+03  0.19946945139E+03  0.25500000920E-02 0.  1.
        2   -1    0    0  501    0  0.00000000000E+00  0.00000000000E+00 -0.62032528506E+03  0.62032528506E+03  0.25500000920E-02 0. -1.
    10030    2    1    2    0    0  0.00000000000E+00  0.00000000000E+00 -0.42085583369E+03  0.81979473645E+03  0.70352240701E+03 0.  0.
        1    1    3    3  502    0  0.24313630437E+03  0.20478043958E+03 -0.34917524531E+02  0.31979606702E+03  0.50400001928E-02 0.  1.
       -1    1    3    3    0  502 -0.24313630437E+03 -0.20478043958E+03 -0.38593830916E+03  0.49999866943E+03  0.50400001928E-02 0. -1.
</event>
<event>
 5   0  0.4365492E-02  0.6901290E+03  0.7818609E-02  0.9734263E-01
        2   -1    0    0  501    0  0.00000000000E+00  0.00000000000E+00  0.26894693246E+03  0.26894693247E+03  0.25500000920E-02 0.  1.
       -2   -1    0    0    0  501  0.00000000000E+00  0.00000000000E+00 -0.44272488940E+03  0.44272488941E+03  0.25500000920E-02 0. -1.
    10030    2    1    2    0    0  0.00000000000E+00  0.00000000000E+00 -0.17377795694E+03  0.71167182188E+03  0.69012897616E+03 0.  0.
        4    1    3    3  502    0  0.24117876805E+03 -0.23227631364E+03 -0.17284811394E+03  0.37682564593E+03  0.12699999809E+01 0. -1.
       -4    1    3    3    0  502 -0.24117876805E+03  0.23227631364E+03 -0.92984299890E+00  0.33484617595E+03  0.12699999809E+01 0.  1.
</event>
<event>
 5   0  0.2777999E-02  0.7047236E+03  0.7818609E-02  0.9709188E-01
       -1   -1    0    0    0  501  0.00000000000E+00  0.00000000000E+00  0.25916920878E+03  0.25916920883E+03  0.50400001928E-02 0.  1.
        1   -1    0    0  501    0  0.00000000000E+00  0.00000000000E+00 -0.47906473777E+03  0.47906473780E+03  0.50400001928E-02 0. -1.
    10030    2    1    2    0    0  0.00000000000E+00  0.00000000000E+00 -0.21989552899E+03  0.73823394663E+03  0.70472357438E+03 0.  0.
        5    1    3    3  502    0  0.23880663050E+03 -0.16973495491E+03 -0.31495267560E+03  0.43018117062E+03  0.46999998093E+01 0. -1.
       -5    1    3    3    0  502 -0.23880663050E+03  0.16973495491E+03  0.95057146604E+02  0.30805277601E+03  0.46999998093E+01 0.  1.
</event>
<event>
 5   0  0.4526837E-02  0.6986529E+03  0.7818609E-02  0.9719539E-01
       -2   -1    0    0    0  501  0.00000000000E+00  0.00000000000E+00  0.18396727416E+03  0.18396727418E+03  0.25500000920E-02 0.  1.
        2   -1    0    0  501    0  0.00000000000E+00  0.00000000000E+00 -0.66331883756E+03  0.66331883756E+03  0.25500000920E-02 0. -1.
    10030    2    1    2    0    0  0.00000000000E+00  0.00000000000E+00 -0.47935156340E+03  0.84728611174E+03  0.69865287076E+03 0.  0.
        1    1    3    3  502    0  0.12356714511E+03  0.56567421437E+02  0.15059422544E+03  0.20284805466E+03  0.50400001928E-02 0.  1.
       -1    1    3    3    0  502 -0.12356714511E+03 -0.56567421437E+02 -0.62994578884E+03  0.64443805708E+03  0.50400001928E-02 0. -1.
</event>
<event>
 5   0  0.2751729E-02  0.6968022E+03  0.7818609E-02  0.9722717E-01
        1   -1    0    0  501    0  0.00000000000E+00  0.00000000000E+00  0.86186859309E+02  0.86186859457E+02  0.50400001928E-02 0.  1.
       -1   -1    0    0    0  501  0.00000000000E+00  0.00000000000E+00 -0.14083737590E+04  0.14083737590E+04  0.50400001928E-02 0. -1.
    10030    2    1    2    0    0  0.00000000000E+00  0.00000000000E+00 -0.13221868997E+04  0.14945606185E+04  0.69680215596E+03 0.  0.
        1    1    3    3  502    0 -0.26348522170E+03 -0.22116137468E+03 -0.54270636878E+03  0.64254728887E+03  0.50400001928E-02 0.  1.
       -1    1    3    3    0  502  0.26348522170E+03  0.22116137468E+03 -0.77948053092E+03  0.85201332960E+03  0.50400001928E-02 0. -1.
</event>
<event>
 5   0  0.2777999E-02  0.7765291E+03  0.7818609E-02  0.9594626E-01
        1   -1    0    0  501    0  0.00000000000E+00  0.00000000000E+00  0.21764085703E+03  0.21764085709E+03  0.50400001928E-02 0.  1.
       -1   -1    0    0    0  501  0.00000000000E+00  0.00000000000E+00 -0.69265191835E+03  0.69265191836E+03  0.50400001928E-02 0. -1.
    10030    2    1    2    0    0  0.00000000000E+00  0.00000000000E+00 -0.47501106131E+03  0.91029277546E+03  0.77652909068E+03 0.  0.
        5    1    3    3  502    0 -0.33378399894E+03  0.19818670420E+03 -0.24468789794E+03  0.45889430708E+03  0.46999998093E+01 0. -1.
       -5    1    3    3    0  502  0.33378399894E+03 -0.19818670420E+03 -0.23032316338E+03  0.45139846838E+03  0.46999998093E+01 0.  1.
</event>
<event>
 5   0  0.2777999E-02  0.6984109E+03  0.7818609E-02  0.9719954E-01
       -1   -1    0    0    0  501  0.00000000000E+00  0.00000000000E+00  0.14703212693E+03  0.14703212702E+03  0.50400001928E-02 0.  1.
        1   -1    0    0  501    0  0.00000000000E+00  0.00000000000E+00 -0.82937271432E+03  0.82937271434E+03  0.50400001928E-02 0. -1.
    10030    2    1    2    0    0  0.00000000000E+00  0.00000000000E+00 -0.68234058739E+03  0.97640484136E+03  0.69841086548E+03 0.  0.
        5    1    3    3  502    0 -0.79080518000E+02 -0.30771569590E+03 -0.13867346496E+03  0.34669164645E+03  0.46999998093E+01 0.  1.
       -5    1    3    3    0  502  0.79080518000E+02  0.30771569590E+03 -0.54366712243E+03  0.62971319491E+03  0.46999998093E+01 0. -1.
</event>
<event>
 5   0  0.4420645E-02  0.6985130E+03  0.7818609E-02  0.9719779E-01
       -2   -1    0    0    0  501  0.00000000000E+00  0.00000000000E+00  0.80628332031E+02  0.80628332071E+02  0.25500000920E-02 0.  1.
        2   -1    0    0  501    0  0.00000000000E+00  0.00000000000E+00 -0.15128689793E+04  0.15128689793E+04  0.25500000920E-02 0. -1.
    10030    2    1    2    0    0  0.00000000000E+00  0.00000000000E+00 -0.14322406473E+04  0.15934973114E+04  0.69851299893E+03 0.  0.
        5    1    3    3  502    0 -0.32285517108E+02 -0.27505868798E+03 -0.23080240599E+03  0.36054330816E+03  0.46999998093E+01 0.  1.
       -5    1    3    3    0  502  0.32285517108E+02  0.27505868798E+03 -0.12014382413E+04  0.12329540033E+04  0.46999998093E+01 0. -1.
</event>
<event>
 5   0  0.4420645E-02  0.7022360E+03  0.7818609E-02  0.9713416E-01
        2   -1    0    0  501    0  0.00000000000E+00  0.00000000000E+00  0.12744844495E+04  0.12744844495E+04  0.25500000920E-02 0.  1.
       -2   -1    0    0    0  501  0.00000000000E+00  0.00000000000E+00 -0.96732334115E+02  0.96732334149E+02  0.25500000920E-02 0. -1.
    10030    2    1    2    0    0  0.00000000000E+00  0.00000000000E+00  0.11777521153E+04  0.13712167836E+04  0.70223601621E+03 0.  0.
        5    1    3    3  502    0  0.13667489503E+03  0.56291340355E+02 -0.32951387689E+02  0.15151444116E+03  0.46999998093E+01 0. -1.
       -5    1    3    3    0  502 -0.13667489503E+03 -0.56291340355E+02  0.12107035030E+04  0.12197023425E+04  0.46999998093E+01 0.  1.
</event>
<event>
 5   0  0.4365492E-02  0.6679296E+03  0.7818609E-02  0.9773705E-01
       -2   -1    0    0    0  501  0.00000000000E+00  0.00000000000E+00  0.56476093154E+02  0.56476093212E+02  0.25500000920E-02 0.  1.
        2   -1    0    0  501    0  0.00000000000E+00  0.00000000000E+00 -0.19748622142E+04  0.19748622142E+04  0.25500000920E-02 0. -1.
    10030    2    1    2    0    0  0.00000000000E+00  0.00000000000E+00 -0.19183861210E+04  0.20313383074E+04  0.66792964430E+03 0.  0.
        4    1    3    3  502    0 -0.13440510118E+03 -0.20978523188E+03 -0.16355289220E+04  0.16543974862E+04  0.12699999809E+01 0. -1.
       -4    1    3    3    0  502  0.13440510118E+03  0.20978523188E+03 -0.28285719898E+03  0.37694082115E+03  0.12699999809E+01 0.  1.
</event>
<event>
 5   0  0.2751729E-02  0.6982009E+03  0.7818609E-02  0.9720314E-01
       -1   -1    0    0    0  501  0.00000000000E+00  0.00000000000E+00  0.48817605026E+03  0.48817605029E+03  0.50400001928E-02 0.  1.
        1   -1    0    0  501    0  0.00000000000E+00  0.00000000000E+00 -0.24964581398E+03  0.24964581403E+03  0.50400001928E-02 0. -1.
    10030    2    1    2    0    0  0.00000000000E+00  0.00000000000E+00  0.23853023628E+03  0.73782186432E+03  0.69820085209E+03 0.  0.
        1    1    3    3  502    0  0.94866591196E+02  0.33538040611E+03  0.98358059579E+02  0.36215189470E+03  0.50400001928E-02 0. -1.
       -1    1    3    3    0  502 -0.94866591196E+02 -0.33538040611E+03  0.14017217670E+03  0.37566996962E+03  0.50400001928E-02 0.  1.
</event>
<event>
 5   0  0.4420645E-02  0.6911316E+03  0.7818609E-02  0.9732520E-01
       -2   -1    0    0    0  501  0.00000000000E+00  0.00000000000E+00  0.52852308484E+03  0.52852308485E+03  0.25500000920E-02 0. -1.
        2   -1    0    0  501    0  0.00000000000E+00  0.00000000000E+00 -0.22594228333E+03  0.22594228335E+03  0.25500000920E-02 0.  1.
    10030    2    1    2    0    0  0.00000000000E+00  0.00000000000E+00  0.30258080151E+03  0.75446536820E+03  0.69113157240E+03 0.  0.
        5    1    3    3  502    0 -0.82642262684E+02 -0.11914761823E+03 -0.19108684039E+03  0.23992117264E+03  0.46999998093E+01 0.  1.
       -5    1    3    3    0  502  0.82642262684E+02  0.11914761823E+03  0.49366764191E+03  0.51454419555E+03  0.46999998093E+01 0. -1.
</event>
<event>
 5   0  0.2758681E-02  0.7028280E+03  0.7818609E-02  0.9712408E-01
       -1   -1    0    0    0  501  0.00000000000E+00  0.00000000000E+00  0.15699223296E+03  0.15699223304E+03  0.50400001928E-02 0.  1.
        1   -1    0    0  501    0  0.00000000000E+00  0.00000000000E+00 -0.78661096257E+03  0.78661096259E+03  0.50400001928E-02 0. -1.
    10030    2    1    2    0    0  0.00000000000E+00  0.00000000000E+00 -0.62961872961E+03  0.94360319563E+03  0.70282803454E+03 0.  0.
        3    1    3    3  502    0  0.32669225172E+03  0.12866559030E+03 -0.29539341054E+03  0.45884631267E+03  0.10100000352E+00 0.  1.
       -3    1    3    3    0  502 -0.32669225172E+03 -0.12866559030E+03 -0.33422531907E+03  0.48475688296E+03  0.10100000352E+00 0. -1.
</event>
<event>
 5   0  0.4299912E-02  0.7049625E+03  0.7818609E-02  0.9708783E-01
        2   -1    0    0  501    0  0.00000000000E+00  0.00000000000E+00  0.24325104473E+03  0.24325104474E+03  0.25500000920E-02 0.  1.
       -2   -1    0    0    0  501  0.00000000000E+00  0.00000000000E+00 -0.51076059062E+03  0.51076059062E+03  0.25500000920E-02 0. -1.
    10030    2    1    2    0    0  0.00000000000E+00  0.00000000000E+00 -0.26750954589E+03  0.75401163536E+03  0.70496254448E+03 0.  0.
        3    1    3    3  502    0  0.29010590221E+03  0.19122053308E+03 -0.70330484764E+02  0.35450403955E+03  0.10100000352E+00 0.  1.
       -3    1    3    3    0  502 -0.29010590221E+03 -0.19122053308E+03 -0.19717906112E+03  0.39950759582E+03  0.10100000352E+00 0. -1.
</event>
<event>
 5   0  0.4420645E-02  0.6825148E+03  0.7818609E-02  0.9747610E-01
        2   -1    0    0  501    0  0.00000000000E+00  0.00000000000E+00  0.11695930841E+04  0.11695930841E+04  0.25500000920E-02 0.  1.
       -2   -1    0    0    0  501  0.00000000000E+00  0.00000000000E+00 -0.99570194173E+02  0.99570194206E+02  0.25500000920E-02 0. -1.
    10030    2    1    2    0    0  0.00000000000E+00  0.00000000000E+00  0.10700228899E+04  0.12691632783E+04  0.68251479255E+03 0.  0.
        5    1    3    3  502    0 -0.22186681578E+03 -0.13200213115E+03  0.94992250101E+03  0.98439031613E+03  0.46999998093E+01 0.  1.
       -5    1    3    3    0  502  0.22186681578E+03  0.13200213115E+03  0.12010038893E+03  0.28477296219E+03  0.46999998093E+01 0. -1.
</event>
<event>
 5   0  0.2684924E-02  0.7035454E+03  0.7818609E-02  0.9711188E-01
        1   -1    0    0  501    0  0.00000000000E+00  0.00000000000E+00  0.37476530066E+03  0.37476530069E+03  0.50400001928E-02 0. -1.
       -1   -1    0    0    0  501  0.00000000000E+00  0.00000000000E+00 -0.33019069625E+03  0.33019069629E+03  0.50400001928E-02 0.  1.
    10030    2    1    2    0    0  0.00000000000E+00  0.00000000000E+00  0.44574604404E+02  0.70495599698E+03  0.70354535200E+03 0.  0.
        4    1    3    3  502    0  0.16150652338E+03 -0.29979958071E+03  0.11065856384E+03  0.35806574304E+03  0.12699999809E+01 0. -1.
       -4    1    3    3    0  502 -0.16150652338E+03  0.29979958071E+03 -0.66083959440E+02  0.34689025394E+03  0.12699999809E+01 0.  1.
</event>
<event>
 5   0  0.4299912E-02  0.7022775E+03  0.7818609E-02  0.9713345E-01
        2   -1    0    0  501    0  0.00000000000E+00  0.00000000000E+00  0.33895666929E+03  0.33895666930E+03  0.25500000920E-02 0. -1.
       -2   -1    0    0    0  501  0.00000000000E+00  0.00000000000E+00 -0.36375867394E+03  0.36375867395E+03  0.25500000920E-02 0.  1.
    10030    2    1    2    0    0  0.00000000000E+00  0.00000000000E+00 -0.24802004657E+02  0.70271534325E+03  0.70227751936E+03 0.  0.
        3    1    3    3  502    0 -0.21909301015E+03 -0.27423318426E+03 -0.22041940305E+02  0.35169794396E+03  0.10100000352E+00 0.  1.
       -3    1    3    3    0  502  0.21909301015E+03  0.27423318426E+03 -0.27600643520E+01  0.35101739929E+03  0.10100000352E+00 0. -1.
</event>
<event>
 5   0  0.4503289E-02  0.7111211E+03  0.7818609E-02  0.9698400E-01
       -2   -1    0    0    0  501  0.00000000000E+00  0.00000000000E+00  0.11223892565E+03  0.11223892568E+03  0.25500000920E-02 0.  1.
        2   -1    0    0  501    0  0.00000000000E+00  0.00000000000E+00 -0.11263767862E+04  0.11263767862E+04  0.25500000920E-02 0. -1.
    10030    2    1    2    0    0  0.00000000000E+00  0.00000000000E+00 -0.10141378606E+04  0.12386157119E+04  0.71112114407E+03 0.  0.
        2    1    3    3  502    0 -0.43196644608E+02 -0.32001687161E+02  0.10511926105E+03  0.11806827320E+03  0.25500000920E-02 0.  1.
       -2    1    3    3    0  502  0.43196644608E+02  0.32001687161E+02 -0.11192571216E+04  0.11205474387E+04  0.25500000920E-02 0. -1.
</event>
<event>
 5   0  0.4365492E-02  0.6877955E+03  0.7818609E-02  0.9738334E-01
        2   -1    0    0  501    0  0.00000000000E+00  0.00000000000E+00  0.17192690004E+04  0.17192690004E+04  0.25500000920E-02 0.  1.
       -2   -1    0    0    0  501  0.00000000000E+00  0.00000000000E+00 -0.68788338293E+02  0.68788338341E+02  0.25500000920E-02 0. -1.
    10030    2    1    2    0    0  0.00000000000E+00  0.00000000000E+00  0.16504806621E+04  0.17880573387E+04  0.68779548606E+03 0.  0.
        4    1    3    3  502    0 -0.15145900761E+03 -0.25358678408E+03  0.12830961235E+04  0.13166561295E+04  0.12699999809E+01 0.  1.
       -4    1    3    3    0  502  0.15145900761E+03  0.25358678408E+03  0.36738453855E+03  0.47140120928E+03  0.12699999809E+01 0. -1.
</event>
<event>
 5   0  0.4299912E-02  0.6925325E+03  0.7818609E-02  0.9730089E-01
        2   -1    0    0  501    0  0.00000000000E+00  0.00000000000E+00  0.81486848961E+03  0.81486848962E+03  0.25500000920E-02 0. -1.
       -2   -1    0    0    0  501  0.00000000000E+00  0.00000000000E+00 -0.14714067973E+03  0.14714067975E+03  0.25500000920E-02 0.  1.
    10030    2    1    2    0    0  0.00000000000E+00  0.00000000000E+00  0.66772780988E+03  0.96200916937E+03  0.69253246412E+03 0.  0.
        3    1    3    3  502    0  0.87279589961E+02 -0.27160884024E+03  0.61259653359E+02  0.29179075423E+03  0.10100000352E+00 0.  1.
       -3    1    3    3    0  502 -0.87279589961E+02  0.27160884024E+03  0.60646815652E+03  0.67021841514E+03  0.10100000352E+00 0. -1.
</event>
<event>
 5   0  0.4526837E-02  0.7042061E+03  0.7818609E-02  0.9710066E-01
       -2   -1    0    0    0  501  0.00000000000E+00  0.00000000000E+00  0.38603043156E+03  0.38603043157E+03  0.25500000920E-02 0.  1.
        2   -1    0    0  501    0  0.00000000000E+00  0.00000000000E+00 -0.32115743233E+03  0.32115743234E+03  0.25500000920E-02 0. -1.
    10030    2    1    2    0    0  0.00000000000E+00  0.00000000000E+00  0.64872999234E+02  0.70718786390E+03  0.70420605566E+03 0.  0.
        1    1    3    3  502    0  0.16123813927E+03 -0.10034857162E+03  0.33018640804E+03  0.38090764952E+03  0.50400001928E-02 0.  1.
       -1    1    3    3    0  502 -0.16123813927E+03  0.10034857162E+03 -0.26531340880E+03  0.32628021439E+03  0.50400001928E-02 0. -1.
</event>
<event>
 5   0  0.4526837E-02  0.6924139E+03  0.7818609E-02  0.9730294E-01
        2   -1    0    0  501    0  0.00000000000E+00  0.00000000000E+00  0.24521348939E+03  0.24521348940E+03  0.25500000920E-02 0. -1.
       -2   -1    0    0    0  501  0.00000000000E+00  0.00000000000E+00 -0.48879548178E+03  0.48879548179E+03  0.25500000920E-02 0.  1.
    10030    2    1    2    0    0  0.00000000000E+00  0.00000000000E+00 -0.24358199240E+03  0.73400897119E+03  0.69241388112E+03 0.  0.
        1    1    3    3  502    0  0.20529989494E+03 -0.22755695369E+03  0.48907128900E+02  0.31035805341E+03  0.50400001928E-02 0. -1.
       -1    1    3    3    0  502 -0.20529989494E+03  0.22755695369E+03 -0.29248912129E+03  0.42365091778E+03  0.50400001928E-02 0.  1.
</event>
<event>
 5   0  0.2751729E-02  0.7057629E+03  0.7818609E-02  0.9707427E-01
       -1   -1    0    0    0  501  0.00000000000E+00  0.00000000000E+00  0.29571530642E+03  0.29571530646E+03  0.50400001928E-02 0. -1.
        1   -1    0    0  501    0  0.00000000000E+00  0.00000000000E+00 -0.42109870682E+03  0.42109870685E+03  0.50400001928E-02 0.  1.
    10030    2    1    2    0    0  0.00000000000E+00  0.00000000000E+00 -0.12538340040E+03  0.71681401331E+03  0.70576294361E+03 0.  0.
        1    1    3    3  502    0  0.27513717760E+03 -0.20619292861E+03  0.17983434236E+02  0.34429550423E+03  0.50400001928E-02 0.  1.
       -1    1    3    3    0  502 -0.27513717760E+03  0.20619292861E+03 -0.14336683464E+03  0.37251850907E+03  0.50400001928E-02 0. -1.
</event>
<event>
 5   0  0.2750139E-02  0.7254714E+03  0.7818609E-02  0.9674638E-01
        1   -1    0    0  501    0  0.00000000000E+00  0.00000000000E+00  0.69451018970E+03  0.69451018972E+03  0.50400001928E-02 0.  1.
       -1   -1    0    0    0  501  0.00000000000E+00  0.00000000000E+00 -0.18945320012E+03  0.18945320019E+03  0.50400001928E-02 0. -1.
    10030    2    1    2    0    0  0.00000000000E+00  0.00000000000E+00  0.50505698958E+03  0.88396338991E+03  0.72547137226E+03 0.  0.
        2    1    3    3  502    0  0.19280015586E+02 -0.16919695389E+02 -0.18834667739E+03  0.19008541759E+03  0.25500000920E-02 0. -1.
       -2    1    3    3    0  502 -0.19280015586E+02  0.16919695389E+02  0.69340366696E+03  0.69387797231E+03  0.25500000920E-02 0.  1.
</event>
<event>
 5   0  0.4526837E-02  0.7014515E+03  0.7818609E-02  0.9714753E-01
       -2   -1    0    0    0  501  0.00000000000E+00  0.00000000000E+00  0.28535768990E+03  0.28535768991E+03  0.25500000920E-02 0. -1.
        2   -1    0    0  501    0  0.00000000000E+00  0.00000000000E+00 -0.43106788005E+03  0.43106788006E+03  0.25500000920E-02 0.  1.
    10030    2    1    2    0    0  0.00000000000E+00  0.00000000000E+00 -0.14571019015E+03  0.71642556996E+03  0.70145145077E+03 0.  0.
        1    1    3    3  502    0 -0.13128155798E+03  0.29229991881E+03  0.72787904753E+02  0.32859118842E+03  0.50400001928E-02 0. -1.
       -1    1    3    3    0  502  0.13128155798E+03 -0.29229991881E+03 -0.21849809491E+03  0.38783438154E+03  0.50400001928E-02 0.  1.
</event>
<event>
 5   0  0.2758681E-02  0.5539519E+03  0.7818609E-02  0.1000583E+00
        1   -1    0    0  501    0  0.00000000000E+00  0.00000000000E+00  0.35840362136E+03  0.35840362139E+03  0.50400001928E-02 0. -1.
       -1   -1    0    0    0  501  0.00000000000E+00  0.00000000000E+00 -0.21404830745E+03  0.21404830751E+03  0.50400001928E-02 0.  1.
    10030    2    1    2    0    0  0.00000000000E+00  0.00000000000E+00  0.14435531391E+03  0.57245192890E+03  0.55395194218E+03 0.  0.
        3    1    3    3  502    0 -0.26886252131E+03  0.39414348152E+02  0.16766675880E+02  0.27225296661E+03  0.10100000352E+00 0. -1.
       -3    1    3    3    0  502  0.26886252131E+03 -0.39414348152E+02  0.12758863803E+03  0.30019896229E+03  0.10100000352E+00 0.  1.
</event>
<event>
 5   0  0.4420645E-02  0.7118873E+03  0.7818609E-02  0.9697117E-01
       -2   -1    0    0    0  501  0.00000000000E+00  0.00000000000E+00  0.14323572924E+03  0.14323572926E+03  0.25500000920E-02 0. -1.
        2   -1    0    0  501    0  0.00000000000E+00  0.00000000000E+00 -0.88452711149E+03  0.88452711149E+03  0.25500000920E-02 0.  1.
    10030    2    1    2    0    0  0.00000000000E+00  0.00000000000E+00 -0.74129138225E+03  0.10277628408E+04  0.71188731091E+03 0.  0.
        5    1    3    3  502    0  0.92566652158E+01 -0.35206702155E+03 -0.44478189253E+03  0.56735341317E+03  0.46999998093E+01 0. -1.
       -5    1    3    3    0  502 -0.92566652158E+01  0.35206702155E+03 -0.29650948972E+03  0.46040942759E+03  0.46999998093E+01 0.  1.
</event>
<event>
 5   0  0.2758681E-02  0.6994788E+03  0.7818609E-02  0.9718124E-01
       -1   -1    0    0    0  501  0.00000000000E+00  0.00000000000E+00  0.11974673226E+04  0.11974673226E+04  0.50400001928E-02 0.  1.
        1   -1    0    0  501    0  0.00000000000E+00  0.00000000000E+00 -0.10214696432E+03  0.10214696444E+03  0.50400001928E-02 0. -1.
    10030    2    1    2    0    0  0.00000000000E+00  0.00000000000E+00  0.10953203583E+04  0.12996142871E+04  0.69947881157E+03 0.  0.
        3    1    3    3  502    0  0.12280596030E+03  0.89162363821E+02 -0.37783092405E+02  0.15639310496E+03  0.10100000352E+00 0. -1.
       -3    1    3    3    0  502 -0.12280596030E+03 -0.89162363821E+02  0.11331034507E+04  0.11432211821E+04  0.10100000352E+00 0.  1.
</event>
<event>
 5   0  0.4503289E-02  0.7004007E+03  0.7818609E-02  0.9716547E-01
       -2   -1    0    0    0  501  0.00000000000E+00  0.00000000000E+00  0.12354354285E+03  0.12354354287E+03  0.25500000920E-02 0.  1.
        2   -1    0    0  501    0  0.00000000000E+00  0.00000000000E+00 -0.99268864865E+03  0.99268864865E+03  0.25500000920E-02 0. -1.
    10030    2    1    2    0    0  0.00000000000E+00  0.00000000000E+00 -0.86914510580E+03  0.11162321915E+04  0.70040066423E+03 0.  0.
        2    1    3    3  502    0 -0.13557922678E+03  0.41963652481E+02 -0.94480119841E+03  0.95540147550E+03  0.25500000920E-02 0. -1.
       -2    1    3    3    0  502  0.13557922678E+03 -0.41963652481E+02  0.75656092606E+02  0.16083071603E+03  0.25500000920E-02 0.  1.
</event>
<event>
 5   0  0.2684924E-02  0.7058245E+03  0.7818609E-02  0.9707323E-01
       -1   -1    0    0    0  501  0.00000000000E+00  0.00000000000E+00  0.13864990292E+03  0.13864990301E+03  0.50400001928E-02 0. -1.
        1   -1    0    0  501    0  0.00000000000E+00  0.00000000000E+00 -0.89828443682E+03  0.89828443684E+03  0.50400001928E-02 0.  1.
    10030    2    1    2    0    0  0.00000000000E+00  0.00000000000E+00 -0.75963453391E+03  0.10369343398E+04  0.70582448247E+03 0.  0.
        4    1    3    3  502    0 -0.21016349546E+03 -0.27060990144E+03 -0.50401599404E+03  0.60945233507E+03  0.12699999809E+01 0.  1.
       -4    1    3    3    0  502  0.21016349546E+03  0.27060990144E+03 -0.25561853987E+03  0.42748200477E+03  0.12699999809E+01 0. -1.
</event>
<event>
 5   0  0.2777999E-02  0.7029053E+03  0.7818609E-02  0.9712277E-01
       -1   -1    0    0    0  501  0.00000000000E+00  0.00000000000E+00  0.73478504729E+03  0.73478504730E+03  0.50400001928E-02 0. -1.
        1   -1    0    0  501    0  0.00000000000E+00  0.00000000000E+00 -0.16810215788E+03  0.16810215796E+03  0.50400001928E-02 0.  1.
    10030    2    1    2    0    0  0.00000000000E+00  0.00000000000E+00  0.56668288941E+03  0.90288720526E+03  0.70290526266E+03 0.  0.
        5    1    3    3  502    0 -0.27171714087E+03  0.16735708354E+03  0.47237918863E+03  0.57009015595E+03  0.46999998093E+01 0. -1.
       -5    1    3    3    0  502  0.27171714087E+03 -0.16735708354E+03  0.94303700775E+02  0.33279704931E+03  0.46999998093E+01 0.  1.
</event>
<event>
 5   0  0.2751729E-02  0.6952875E+03  0.7818609E-02  0.9725325E-01
        1   -1    0    0  501    0  0.00000000000E+00  0.00000000000E+00  0.65410670549E+03  0.65410670551E+03  0.50400001928E-02 0.  1.
       -1   -1    0    0    0  501  0.00000000000E+00  0.00000000000E+00 -0.18476525765E+03  0.18476525772E+03  0.50400001928E-02 0. -1.
    10030    2    1    2    0    0  0.00000000000E+00  0.00000000000E+00  0.46934144784E+03  0.83887196323E+03  0.69528754916E+03 0.  0.
        1    1    3    3  502    0  0.18046322333E+03  0.23411759040E+03  0.45542651290E+03  0.54294689408E+03  0.50400001928E-02 0.  1.
       -1    1    3    3    0  502 -0.18046322333E+03 -0.23411759040E+03  0.13914934939E+02  0.29592506915E+03  0.50400001928E-02 0. -1.
</event>
<event>
 5   0  0.2750139E-02  0.6484244E+03  0.7818609E-02  0.9809740E-01
       -1   -1    0    0    0  501  0.00000000000E+00  0.00000000000E+00  0.59970487860E+03  0.59970487862E+03  0.50400001928E-02 0.  1.
        1   -1    0    0  501    0  0.00000000000E+00  0.00000000000E+00 -0.17527548773E+03  0.17527548780E+03  0.50400001928E-02 0. -1.
    10030    2    1    2    0    0  0.00000000000E+00  0.00000000000E+00  0.42442939087E+03  0.77498036642E+03  0.64842444471E+03 0.  0.
        2    1    3    3  502    0  0.13470831636E+03 -0.19953151971E+03 -0.47318232543E+02  0.24535315974E+03  0.25500000920E-02 0. -1.
       -2    1    3    3    0  502 -0.13470831636E+03  0.19953151971E+03  0.47174762341E+03  0.52962720668E+03  0.25500000920E-02 0.  1.
</event>
<event>
 5   0  0.4299912E-02  0.7166575E+03  0.7818609E-02  0.9689162E-01
       -2   -1    0    0    0  501  0.00000000000E+00  0.00000000000E+00  0.29427573426E+03  0.29427573427E+03  0.25500000920E-02 0. -1.
        2   -1    0    0  501    0  0.00000000000E+00  0.00000000000E+00 -0.43632372495E+03  0.43632372496E+03  0.25500000920E-02 0.  1.
    10030    2    1    2    0    0  0.00000000000E+00  0.00000000000E+00 -0.14204799070E+03  0.73059945923E+03  0.71665747618E+03 0.  0.
        3    1    3    3  502    0 -0.21186575046E+01 -0.18521058165E+03 -0.38373568831E+03  0.42609921022E+03  0.10100000352E+00 0.  1.
       -3    1    3    3    0  502  0.21186575046E+01  0.18521058165E+03  0.24168769762E+03  0.30450024901E+03  0.10100000352E+00 0. -1.
</event>
<event>
 5   0  0.4526837E-02  0.7051083E+03  0.7818609E-02  0.9708536E-01
       -2   -1    0    0    0  501  0.00000000000E+00  0.00000000000E+00  0.18629794642E+03  0.18629794644E+03  0.25500000920E-02 0.  1.
        2   -1    0    0  501    0  0.00000000000E+00  0.00000000000E+00 -0.66718096009E+03  0.66718096009E+03  0.25500000920E-02 0. -1.
    10030    2    1    2    0    0  0.00000000000E+00  0.00000000000E+00 -0.48088301367E+03  0.85347890653E+03  0.70510833995E+03 0.  0.
        1    1    3    3  502    0 -0.25475087674E+02 -0.10275976971E+03  0.16660230377E+03  0.19739523299E+03  0.50400001928E-02 0.  1.
       -1    1    3    3    0  502  0.25475087674E+02  0.10275976971E+03 -0.64748531744E+03  0.65608367354E+03  0.50400001928E-02 0. -1.
</event>
<event>
 5   0  0.1784625E-02  0.6980255E+03  0.7818609E-02  0.9720615E-01
        4   -1    0    0  501    0  0.00000000000E+00  0.00000000000E+00  0.87464633851E+02  0.87473853663E+02  0.12699999809E+01 0. -1.
       -4   -1    0    0    0  501  0.00000000000E+00  0.00000000000E+00 -0.13925931651E+04  0.13925937442E+04  0.12699999809E+01 0.  1.
    10030    2    1    2    0    0  0.00000000000E+00  0.00000000000E+00 -0.13051285313E+04  0.14800675979E+04  0.69802550897E+03 0.  0.
        5    1    3    3  502    0  0.13209643094E+03  0.16441831434E+03 -0.63023356066E+02  0.22017466377E+03  0.46999998093E+01 0. -1.
       -5    1    3    3    0  502 -0.13209643094E+03 -0.16441831434E+03 -0.12421051752E+04  0.12598929341E+04  0.46999998093E+01 0.  1.
</event>
<event>
 5   0  0.2750139E-02  0.6280454E+03  0.7818609E-02  0.9848871E-01
        1   -1    0    0  501    0  0.00000000000E+00  0.00000000000E+00  0.61474258094E+03  0.61474258096E+03  0.50400001928E-02 0.  1.
       -1   -1    0    0    0  501  0.00000000000E+00  0.00000000000E+00 -0.16040901661E+03  0.16040901669E+03  0.50400001928E-02 0. -1.
    10030    2    1    2    0    0  0.00000000000E+00  0.00000000000E+00  0.45433356433E+03  0.77515159764E+03  0.62804538980E+03 0.  0.
        2    1    3    3  502    0 -0.26741332982E+03  0.59841314128E+02  0.37885112239E+02  0.27663360891E+03  0.25500000920E-02 0. -1.
       -2    1    3    3    0  502  0.26741332982E+03 -0.59841314128E+02  0.41644845209E+03  0.49851798874E+03  0.25500000920E-02 0.  1.
</event>
<event>
 5   0  0.2758681E-02  0.6935973E+03  0.7818609E-02  0.9728245E-01
        1   -1    0    0  501    0  0.00000000000E+00  0.00000000000E+00  0.31376546011E+03  0.31376546015E+03  0.50400001928E-02 0.  1.
       -1   -1    0    0    0  501  0.00000000000E+00  0.00000000000E+00 -0.38330960181E+03  0.38330960184E+03  0.50400001928E-02 0. -1.
    10030    2    1    2    0    0  0.00000000000E+00  0.00000000000E+00 -0.69544141698E+02  0.69707506200E+03  0.69359732873E+03 0.  0.
        3    1    3    3  502    0 -0.13370508507E+03 -0.26188931558E+03 -0.21955871116E+03  0.36697288897E+03  0.10100000352E+00 0. -1.
       -3    1    3    3    0  502  0.13370508507E+03  0.26188931558E+03  0.15001456946E+03  0.33010217303E+03  0.10100000352E+00 0.  1.
</event>
<event>
 5   0  0.2684924E-02  0.6970435E+03  0.7818609E-02  0.9722302E-01
       -1   -1    0    0    0  501  0.00000000000E+00  0.00000000000E+00  0.29178057763E+03  0.29178057767E+03  0.50400001928E-02 0. -1.
        1   -1    0    0  501    0  0.00000000000E+00  0.00000000000E+00 -0.41629710461E+03  0.41629710464E+03  0.50400001928E-02 0.  1.
    10030    2    1    2    0    0  0.00000000000E+00  0.00000000000E+00 -0.12451652698E+03  0.70807768231E+03  0.69704349842E+03 0.  0.
        4    1    3    3  502    0 -0.11227197657E+03 -0.12389675507E+02  0.27266890048E+03  0.29514139488E+03  0.12699999809E+01 0. -1.
       -4    1    3    3    0  502  0.11227197657E+03  0.12389675507E+02 -0.39718542746E+03  0.41293628742E+03  0.12699999809E+01 0.  1.
</event>
<event>
 5   0  0.4503289E-02  0.6175804E+03  0.7818609E-02  0.9869589E-01
       -2   -1    0    0    0  501  0.00000000000E+00  0.00000000000E+00  0.44608481332E+03  0.44608481333E+03  0.25500000920E-02 0.  1.
        2   -1    0    0  501    0  0.00000000000E+00  0.00000000000E+00 -0.21375172005E+03  0.21375172007E+03  0.25500000920E-02 0. -1.
    10030    2    1    2    0    0  0.00000000000E+00  0.00000000000E+00  0.23233309327E+03  0.65983653340E+03  0.61758042762E+03 0.  0.
        2    1    3    3  502    0 -0.27552302480E+03 -0.12333100861E+03  0.18563798308E+03  0.35437964904E+03  0.25500000920E-02 0.  1.
       -2    1    3    3    0  502  0.27552302480E+03  0.12333100861E+03  0.46695110188E+02  0.30545688436E+03  0.25500000920E-02 0. -1.
</event>
<event>
 5   0  0.4526837E-02  0.6982681E+03  0.7818609E-02  0.9720199E-01
        2   -1    0    0  501    0  0.00000000000E+00  0.00000000000E+00  0.62503841210E+03  0.62503841211E+03  0.25500000920E-02 0.  1.
       -2   -1    0    0    0  501  0.00000000000E+00  0.00000000000E+00 -0.19501935981E+03  0.19501935982E+03  0.25500000920E-02 0. -1.
    10030    2    1    2    0    0  0.00000000000E+00  0.00000000000E+00  0.43001905230E+03  0.82005777193E+03  0.69826811754E+03 0.  0.
        1    1    3    3  502    0  0.23054919104E+03  0.22688168322E+03  0.36932968913E+03  0.49095075819E+03  0.50400001928E-02 0.  1.
       -1    1    3    3    0  502 -0.23054919104E+03 -0.22688168322E+03  0.60689363168E+02  0.32910701374E+03  0.50400001928E-02 0. -1.
</event>
<event>
 5   0  0.1784625E-02  0.7050317E+03  0.7818609E-02  0.9708666E-01
        3   -1    0    0  501    0  0.00000000000E+00  0.00000000000E+00  0.27311884094E+03  0.27311885962E+03  0.10100000352E+00 0.  1.
       -3   -1    0    0    0  501  0.00000000000E+00  0.00000000000E+00 -0.45499397196E+03  0.45499398317E+03  0.10100000352E+00 0. -1.
    10030    2    1    2    0    0  0.00000000000E+00  0.00000000000E+00 -0.18187513102E+03  0.72811284279E+03  0.70503173585E+03 0.  0.
        4    1    3    3  502    0 -0.33109229862E+03  0.96904550446E+02 -0.16085651883E+02  0.34535917998E+03  0.12699999809E+01 0.  1.
       -4    1    3    3    0  502  0.33109229862E+03 -0.96904550446E+02 -0.16578947914E+03  0.38275366281E+03  0.12699999809E+01 0. -1.
</event>
<event>
 5   0  0.2751729E-02  0.7042985E+03  0.7818609E-02  0.9709909E-01
       -1   -1    0    0    0  501  0.00000000000E+00  0.00000000000E+00  0.71803688743E+03  0.71803688745E+03  0.50400001928E-02 0. -1.
        1   -1    0    0  501    0  0.00000000000E+00  0.00000000000E+00 -0.17270574185E+03  0.17270574193E+03  0.50400001928E-02 0.  1.
    10030    2    1    2    0    0  0.00000000000E+00  0.00000000000E+00  0.54533114558E+03  0.89074262937E+03  0.70429849740E+03 0.  0.
        1    1    3    3  502    0 -0.25121138502E+03  0.22809486529E+03  0.39180938152E+03  0.51831362996E+03  0.50400001928E-02 0.  1.
       -1    1    3    3    0  502  0.25121138502E+03 -0.22809486529E+03  0.15352176406E+03  0.37242899941E+03  0.50400001928E-02 0. -1.
</event>
<event>
 5   0  0.4503289E-02  0.7129481E+03  0.7818609E-02  0.9695342E-01
       -2   -1    0    0    0  501  0.00000000000E+00  0.00000000000E+00  0.27378631692E+03  0.27378631693E+03  0.25500000920E-02 0.  1.
        2   -1    0    0  501    0  0.00000000000E+00  0.00000000000E+00 -0.46413479984E+03  0.46413479985E+03  0.25500000920E-02 0. -1.
    10030    2    1    2    0    0  0.00000000000E+00  0.00000000000E+00 -0.19034848292E+03  0.73792111678E+03  0.71294812549E+03 0.  0.
        2    1    3    3  502    0  0.29198317674E+03 -0.63364481043E+02  0.10607020143E+03  0.31704908231E+03  0.25500000920E-02 0.  1.
       -2    1    3    3    0  502 -0.29198317674E+03  0.63364481043E+02 -0.29641868435E+03  0.42087203447E+03  0.25500000920E-02 0. -1.
</event>
<event>
 5   0  0.2751729E-02  0.7077998E+03  0.7818609E-02  0.9703986E-01
        1   -1    0    0  501    0  0.00000000000E+00  0.00000000000E+00  0.80563464249E+03  0.80563464251E+03  0.50400001928E-02 0. -1.
       -1   -1    0    0    0  501  0.00000000000E+00  0.00000000000E+00 -0.15546146173E+03  0.15546146181E+03  0.50400001928E-02 0.  1.
    10030    2    1    2    0    0  0.00000000000E+00  0.00000000000E+00  0.65017318076E+03  0.96109610432E+03  0.70779979991E+03 0.  0.
        1    1    3    3  502    0 -0.21994457142E+03  0.25481973658E+03  0.17673454252E+03  0.38018917816E+03  0.50400001928E-02 0. -1.
       -1    1    3    3    0  502  0.21994457142E+03 -0.25481973658E+03  0.47343863825E+03  0.58090692616E+03  0.50400001928E-02 0.  1.
</event>
<event>
 5   0  0.4526837E-02  0.6990083E+03  0.7818609E-02  0.9718930E-01
       -2   -1    0    0    0  501  0.00000000000E+00  0.00000000000E+00  0.17045342798E+03  0.17045342800E+03  0.25500000920E-02 0.  1.
        2   -1    0    0  501    0  0.00000000000E+00  0.00000000000E+00 -0.71663647854E+03  0.71663647854E+03  0.25500000920E-02 0. -1.
    10030    2    1    2    0    0  0.00000000000E+00  0.00000000000E+00 -0.54618305056E+03  0.88708990654E+03  0.69900828147E+03 0.  0.
        1    1    3    3  502    0  0.15697681056E+02 -0.18264277053E+02 -0.71558221739E+03  0.71598736782E+03  0.50400001928E-02 0. -1.
       -1    1    3    3    0  502 -0.15697681056E+02  0.18264277053E+02  0.16939916683E+03  0.17110253872E+03  0.50400001928E-02 0.  1.
</event>
<event>
 5   0  0.2758681E-02  0.7149050E+03  0.7818609E-02  0.9692077E-01
        1   -1    0    0  501    0  0.00000000000E+00  0.00000000000E+00  0.85264398389E+03  0.85264398390E+03  0.50400001928E-02 0.  1.
       -1   -1    0    0    0  501  0.00000000000E+00  0.00000000000E+00 -0.14985420345E+03  0.14985420354E+03  0.50400001928E-02 0. -1.
    10030    2    1    2    0    0  0.00000000000E+00  0.00000000000E+00  0.70278978043E+03  0.10024981874E+04  0.71490498693E+03 0.  0.
        3    1    3    3  502    0  0.58004259904E+02 -0.22237509170E+02 -0.14222674377E+03  0.15520134609E+03  0.10100000352E+00 0. -1.
       -3    1    3    3    0  502 -0.58004259904E+02  0.22237509170E+02  0.84501652421E+03  0.84729684135E+03  0.10100000352E+00 0.  1.
</event>
<event>
 5   0  0.4420645E-02  0.6970927E+03  0.7818609E-02  0.9722217E-01
        2   -1    0    0  501    0  0.00000000000E+00  0.00000000000E+00  0.82792838008E+03  0.82792838008E+03  0.25500000920E-02 0. -1.
       -2   -1    0    0    0  501  0.00000000000E+00  0.00000000000E+00 -0.14673315938E+03  0.14673315940E+03  0.25500000920E-02 0.  1.
    10030    2    1    2    0    0  0.00000000000E+00  0.00000000000E+00  0.68119522070E+03  0.97466153948E+03  0.69709266805E+03 0.  0.
        5    1    3    3  502    0  0.91249314803E+02  0.16964860112E+03 -0.65489949699E+02  0.20351439464E+03  0.46999998093E+01 0.  1.
       -5    1    3    3    0  502 -0.91249314803E+02 -0.16964860112E+03  0.74668517040E+03  0.77114714485E+03  0.46999998093E+01 0. -1.
</event>
<event>
 5   0  0.4526837E-02  0.6830768E+03  0.7818609E-02  0.9746619E-01
       -2   -1    0    0    0  501  0.00000000000E+00  0.00000000000E+00  0.12489836851E+03  0.12489836853E+03  0.25500000920E-02 0.  1.
        2   -1    0    0  501    0  0.00000000000E+00  0.00000000000E+00 -0.93394708261E+03  0.93394708261E+03  0.25500000920E-02 0. -1.
    10030    2    1    2    0    0  0.00000000000E+00  0.00000000000E+00 -0.80904871410E+03  0.10588454511E+04  0.68307676553E+03 0.  0.
        1    1    3    3  502    0 -0.70052767398E+02 -0.33365658407E+03 -0.37297051336E+03  0.50531288344E+03  0.50400001928E-02 0.  1.
       -1    1    3    3    0  502  0.70052767398E+02  0.33365658407E+03 -0.43607820074E+03  0.55353256770E+03  0.50400001928E-02 0. -1.
</event>
<event>
 5   0  0.2750139E-02  0.6999018E+03  0.7818609E-02  0.9717400E-01
       -1   -1    0    0    0  501  0.00000000000E+00  0.00000000000E+00  0.62073605741E+03  0.62073605743E+03  0.50400001928E-02 0. -1.
        1   -1    0    0  501    0  0.00000000000E+00  0.00000000000E+00 -0.19729100170E+03  0.19729100177E+03  0.50400001928E-02 0.  1.
    10030    2    1    2    0    0  0.00000000000E+00  0.00000000000E+00  0.42344505571E+03  0.81802705920E+03  0.69990181767E+03 0.  0.
        2    1    3    3  502    0  0.25023119842E+03  0.14475351447E+03  0.44223014729E+03  0.52833392451E+03  0.25500000920E-02 0. -1.
       -2    1    3    3    0  502 -0.25023119842E+03 -0.14475351447E+03 -0.18785091576E+02  0.28969313469E+03  0.25500000920E-02 0.  1.
</event>
<event>
 5   0  0.4503289E-02  0.6478542E+03  0.7818609E-02  0.9810814E-01
       -2   -1    0    0    0  501  0.00000000000E+00  0.00000000000E+00  0.39388404318E+03  0.39388404319E+03  0.25500000920E-02 0. -1.
        2   -1    0    0  501    0  0.00000000000E+00  0.00000000000E+00 -0.26639506296E+03  0.26639506297E+03  0.25500000920E-02 0.  1.
    10030    2    1    2    0    0  0.00000000000E+00  0.00000000000E+00  0.12748898022E+03  0.66027910616E+03  0.64785419498E+03 0.  0.
        2    1    3    3  502    0 -0.94030483103E+02  0.53081931692E+02  0.37500192507E+03  0.39023821832E+03  0.25500000920E-02 0. -1.
       -2    1    3    3    0  502  0.94030483103E+02 -0.53081931692E+02 -0.24751294485E+03  0.27004088783E+03  0.25500000920E-02 0.  1.
</event>
<event>
 5   0  0.4526837E-02  0.7053675E+03  0.7818609E-02  0.9708097E-01
       -2   -1    0    0    0  501  0.00000000000E+00  0.00000000000E+00  0.13909585730E+03  0.13909585732E+03  0.25500000920E-02 0. -1.
        2   -1    0    0  501    0  0.00000000000E+00  0.00000000000E+00 -0.89424543793E+03  0.89424543794E+03  0.25500000920E-02 0.  1.
    10030    2    1    2    0    0  0.00000000000E+00  0.00000000000E+00 -0.75514958064E+03  0.10333412953E+04  0.70536752361E+03 0.  0.
        1    1    3    3  502    0  0.16722667709E+03 -0.30619606484E+03 -0.30194715348E+03  0.46140315905E+03  0.50400001928E-02 0. -1.
       -1    1    3    3    0  502 -0.16722667709E+03  0.30619606484E+03 -0.45320242715E+03  0.57193813622E+03  0.50400001928E-02 0.  1.
</event>
<event>
 5   0  0.2750139E-02  0.6885039E+03  0.7818609E-02  0.9737097E-01
        1   -1    0    0  501    0  0.00000000000E+00  0.00000000000E+00  0.63837917980E+03  0.63837917982E+03  0.50400001928E-02 0.  1.
       -1   -1    0    0    0  501  0.00000000000E+00  0.00000000000E+00 -0.18564107938E+03  0.18564107945E+03  0.50400001928E-02 0. -1.
    10030    2    1    2    0    0  0.00000000000E+00  0.00000000000E+00  0.45273810042E+03  0.82402025927E+03  0.68850388533E+03 0.  0.
        2    1    3    3  502    0 -0.10857180506E+03 -0.59723846021E+02 -0.15802428323E+03  0.20081446346E+03  0.25500000920E-02 0. -1.
       -2    1    3    3    0  502  0.10857180506E+03  0.59723846021E+02  0.61076238365E+03  0.62320579580E+03  0.25500000920E-02 0.  1.
</event>
<event>
 5   0  0.2684924E-02  0.6825655E+03  0.7818609E-02  0.9747521E-01
        1   -1    0    0  501    0  0.00000000000E+00  0.00000000000E+00  0.55531905502E+03  0.55531905504E+03  0.50400001928E-02 0. -1.
       -1   -1    0    0    0  501  0.00000000000E+00  0.00000000000E+00 -0.20974232256E+03  0.20974232262E+03  0.50400001928E-02 0.  1.
    10030    2    1    2    0    0  0.00000000000E+00  0.00000000000E+00  0.34557673246E+03  0.76506137767E+03  0.68256547934E+03 0.  0.
        4    1    3    3  502    0  0.19671024529E+03 -0.91007886617E+02 -0.12269194552E+03  0.24906280819E+03  0.12699999809E+01 0.  1.
       -4    1    3    3    0  502 -0.19671024529E+03  0.91007886617E+02  0.46826867798E+03  0.51599856948E+03  0.12699999809E+01 0. -1.
</event>
<event>
 5   0  0.4420645E-02  0.6989618E+03  0.7818609E-02  0.9719009E-01
       -2   -1    0    0    0  501  0.00000000000E+00  0.00000000000E+00  0.22667681362E+03  0.22667681364E+03  0.25500000920E-02 0. -1.
        2   -1    0    0  501    0  0.00000000000E+00  0.00000000000E+00 -0.53881521848E+03  0.53881521848E+03  0.25500000920E-02 0.  1.
    10030    2    1    2    0    0  0.00000000000E+00  0.00000000000E+00 -0.31213840485E+03  0.76549203212E+03  0.69896184979E+03 0.  0.
        5    1    3    3  502    0  0.29794532576E+03  0.14377258857E+03 -0.27935822019E+03  0.43301856721E+03  0.46999998093E+01 0. -1.
       -5    1    3    3    0  502 -0.29794532576E+03 -0.14377258857E+03 -0.32780184659E+02  0.33247346491E+03  0.46999998093E+01 0.  1.
</event>
<event>
 5   0  0.2758681E-02  0.7255359E+03  0.7818609E-02  0.9674532E-01
       -1   -1    0    0    0  501  0.00000000000E+00  0.00000000000E+00  0.46895408813E+03  0.46895408816E+03  0.50400001928E-02 0. -1.
        1   -1    0    0  501    0  0.00000000000E+00  0.00000000000E+00 -0.28062572351E+03  0.28062572355E+03  0.50400001928E-02 0.  1.
    10030    2    1    2    0    0  0.00000000000E+00  0.00000000000E+00  0.18832836462E+03  0.74957981171E+03  0.72553588553E+03 0.  0.
        3    1    3    3  502    0 -0.28330642895E+03  0.20620593898E+03  0.19117564493E+03  0.39916357470E+03  0.10100000352E+00 0. -1.
       -3    1    3    3    0  502  0.28330642895E+03 -0.20620593898E+03 -0.28472803025E+01  0.35041623701E+03  0.10100000352E+00 0.  1.
</event>
<event>
 5   0  0.2751729E-02  0.7095264E+03  0.7818609E-02  0.9701078E-01
       -1   -1    0    0    0  501  0.00000000000E+00  0.00000000000E+00  0.33881142443E+03  0.33881142447E+03  0.50400001928E-02 0. -1.
        1   -1    0    0  501    0  0.00000000000E+00  0.00000000000E+00 -0.37146598446E+03  0.37146598450E+03  0.50400001928E-02 0.  1.
    10030    2    1    2    0    0  0.00000000000E+00  0.00000000000E+00 -0.32654560033E+02  0.71027740896E+03  0.70952637540E+03 0.  0.
        1    1    3    3  502    0 -0.96003754993E+02 -0.79236464223E+01 -0.35812303649E+03  0.37085255080E+03  0.50400001928E-02 0.  1.
       -1    1    3    3    0  502  0.96003754993E+02  0.79236464223E+01  0.32546847646E+03  0.33942485816E+03  0.50400001928E-02 0. -1.
</event>
<event>
 5   0  0.4299912E-02  0.6920669E+03  0.7818609E-02  0.9730896E-01
        2   -1    0    0  501    0  0.00000000000E+00  0.00000000000E+00  0.14720309949E+04  0.14720309949E+04  0.25500000920E-02 0.  1.
       -2   -1    0    0    0  501  0.00000000000E+00  0.00000000000E+00 -0.81342808699E+02  0.81342808739E+02  0.25500000920E-02 0. -1.
    10030    2    1    2    0    0  0.00000000000E+00  0.00000000000E+00  0.13906881862E+04  0.15533738036E+04  0.69206686280E+03 0.  0.
        3    1    3    3  502    0  0.32083182988E+03  0.11671777604E+03  0.82197736241E+03  0.89005780533E+03  0.10100000352E+00 0.  1.
       -3    1    3    3    0  502 -0.32083182988E+03 -0.11671777604E+03  0.56871082374E+03  0.66331599826E+03  0.10100000352E+00 0. -1.
</event>
<event>
 5   0  0.4420645E-02  0.7057220E+03  0.7818609E-02  0.9707497E-01
        2   -1    0    0  501    0  0.00000000000E+00  0.00000000000E+00  0.67606557524E+03  0.67606557524E+03  0.25500000920E-02 0. -1.
       -2   -1    0    0    0  501  0.00000000000E+00  0.00000000000E+00 -0.18416984778E+03  0.18416984780E+03  0.25500000920E-02 0.  1.
    10030    2    1    2    0    0  0.00000000000E+00  0.00000000000E+00  0.49189572746E+03  0.86023542304E+03  0.70572202486E+03 0.  0.
        5    1    3    3  502    0 -0.17851617297E+02 -0.15957694567E+03  0.62890832357E+03  0.64910033992E+03  0.46999998093E+01 0. -1.
       -5    1    3    3    0  502  0.17851617297E+02  0.15957694567E+03 -0.13701259612E+03  0.21113508312E+03  0.46999998093E+01 0.  1.
</event>
<event>
 5   0  0.2777999E-02  0.5888242E+03  0.7818609E-02  0.9928867E-01
        1   -1    0    0  501    0  0.00000000000E+00  0.00000000000E+00  0.38810548349E+03  0.38810548353E+03  0.50400001928E-02 0.  1.
       -1   -1    0    0    0  501  0.00000000000E+00  0.00000000000E+00 -0.22333742889E+03  0.22333742895E+03  0.50400001928E-02 0. -1.
    10030    2    1    2    0    0  0.00000000000E+00  0.00000000000E+00  0.16476805460E+03  0.61144291247E+03  0.58882418717E+03 0.  0.
        5    1    3    3  502    0 -0.89037920863E+02  0.52881635384E+02  0.36852706664E+03  0.38282960643E+03  0.46999998093E+01 0.  1.
       -5    1    3    3    0  502  0.89037920863E+02 -0.52881635384E+02 -0.20375901204E+03  0.22861330604E+03  0.46999998093E+01 0. -1.
</event>
<event>
 5   0  0.2750139E-02  0.7063365E+03  0.7818609E-02  0.9706457E-01
       -1   -1    0    0    0  501  0.00000000000E+00  0.00000000000E+00  0.58486150350E+03  0.58486150352E+03  0.50400001928E-02 0.  1.
        1   -1    0    0  501    0  0.00000000000E+00  0.00000000000E+00 -0.21326039631E+03  0.21326039637E+03  0.50400001928E-02 0. -1.
    10030    2    1    2    0    0  0.00000000000E+00  0.00000000000E+00  0.37160110719E+03  0.79812189989E+03  0.70633645256E+03 0.  0.
        2    1    3    3  502    0  0.71896159918E+02 -0.18868649108E+03  0.51320445914E+03  0.55149838314E+03  0.25500000920E-02 0.  1.
       -2    1    3    3    0  502 -0.71896159918E+02  0.18868649108E+03 -0.14160335194E+03  0.24662351675E+03  0.25500000920E-02 0. -1.
</event>
<event>
 5   0  0.4365492E-02  0.7002875E+03  0.7818609E-02  0.9716741E-01
        2   -1    0    0  501    0  0.00000000000E+00  0.00000000000E+00  0.69347795608E+03  0.69347795609E+03  0.25500000920E-02 0. -1.
       -2   -1    0    0    0  501  0.00000000000E+00  0.00000000000E+00 -0.17679099089E+03  0.17679099091E+03  0.25500000920E-02 0.  1.
    10030    2    1    2    0    0  0.00000000000E+00  0.00000000000E+00  0.51668696519E+03  0.87026894700E+03  0.70028752675E+03 0.  0.
        4    1    3    3  502    0 -0.67659598070E+02 -0.35510141558E+02  0.68298710493E+03  0.68724943781E+03  0.12699999809E+01 0. -1.
       -4    1    3    3    0  502  0.67659598070E+02  0.35510141558E+02 -0.16630013975E+03  0.18301950919E+03  0.12699999809E+01 0.  1.
</event>
<event>
 5   0  0.4420645E-02  0.7161377E+03  0.7818609E-02  0.9690026E-01
       -2   -1    0    0    0  501  0.00000000000E+00  0.00000000000E+00  0.28037272673E+03  0.28037272674E+03  0.25500000920E-02 0. -1.
        2   -1    0    0  501    0  0.00000000000E+00  0.00000000000E+00 -0.45729592780E+03  0.45729592781E+03  0.25500000920E-02 0.  1.
    10030    2    1    2    0    0  0.00000000000E+00  0.00000000000E+00 -0.17692320107E+03  0.73766865455E+03  0.71613771359E+03 0.  0.
        5    1    3    3  502    0 -0.34914542280E+02 -0.26173857586E+03  0.16060366508E+03  0.30909826041E+03  0.46999998093E+01 0. -1.
       -5    1    3    3    0  502  0.34914542280E+02  0.26173857586E+03 -0.33752686615E+03  0.42857039413E+03  0.46999998093E+01 0.  1.
</event>
<event>
 5   0  0.2684924E-02  0.6927279E+03  0.7818609E-02  0.9729750E-01
       -1   -1    0    0    0  501  0.00000000000E+00  0.00000000000E+00  0.22692793245E+03  0.22692793251E+03  0.50400001928E-02 0. -1.
        1   -1    0    0  501    0  0.00000000000E+00  0.00000000000E+00 -0.52866115961E+03  0.52866115963E+03  0.50400001928E-02 0.  1.
    10030    2    1    2    0    0  0.00000000000E+00  0.00000000000E+00 -0.30173322715E+03  0.75558909214E+03  0.69272789448E+03 0.  0.
        4    1    3    3  502    0  0.19773980972E+03 -0.18889461912E+03  0.80988200502E+02  0.28520678638E+03  0.12699999809E+01 0. -1.
       -4    1    3    3    0  502 -0.19773980972E+03  0.18889461912E+03 -0.38272142766E+03  0.47038230575E+03  0.12699999809E+01 0.  1.
</event>
<event>
 5   0  0.4503289E-02  0.7119723E+03  0.7818609E-02  0.9696974E-01
        2   -1    0    0  501    0  0.00000000000E+00  0.00000000000E+00  0.11589594803E+04  0.11589594803E+04  0.25500000920E-02 0.  1.
       -2   -1    0    0    0  501  0.00000000000E+00  0.00000000000E+00 -0.10934474318E+03  0.10934474321E+03  0.25500000920E-02 0. -1.
    10030    2    1    2    0    0  0.00000000000E+00  0.00000000000E+00  0.10496147372E+04  0.12683042235E+04  0.71197226563E+03 0.  0.
        2    1    3    3  502    0  0.17079810573E+02 -0.14588024753E+03 -0.52852157976E+02  0.15609649951E+03  0.25500000920E-02 0. -1.
       -2    1    3    3    0  502 -0.17079810573E+02  0.14588024753E+03  0.11024668951E+04  0.11122077240E+04  0.25500000920E-02 0.  1.
</event>
<event>
 5   0  0.1784625E-02  0.6832104E+03  0.7818609E-02  0.9746383E-01
        3   -1    0    0  501    0  0.00000000000E+00  0.00000000000E+00  0.53098729945E+03  0.53098730905E+03  0.10100000352E+00 0.  1.
       -3   -1    0    0    0  501  0.00000000000E+00  0.00000000000E+00 -0.21976814361E+03  0.21976816682E+03  0.10100000352E+00 0. -1.
    10030    2    1    2    0    0  0.00000000000E+00  0.00000000000E+00  0.31121915584E+03  0.75075547587E+03  0.68321037872E+03 0.  0.
        3    1    3    3  502    0 -0.19135139514E+03  0.22547088854E+03 -0.32298195783E+02  0.29748220392E+03  0.10100000352E+00 0. -1.
       -3    1    3    3    0  502  0.19135139514E+03 -0.22547088854E+03  0.34351735162E+03  0.45327327195E+03  0.10100000352E+00 0.  1.
</event>
<event>
 5   0  0.2750139E-02  0.6662306E+03  0.7818609E-02  0.9776791E-01
       -1   -1    0    0    0  501  0.00000000000E+00  0.00000000000E+00  0.21915668101E+03  0.21915668106E+03  0.50400001928E-02 0.  1.
        1   -1    0    0  501    0  0.00000000000E+00  0.00000000000E+00 -0.50633093320E+03  0.50633093322E+03  0.50400001928E-02 0. -1.
    10030    2    1    2    0    0  0.00000000000E+00  0.00000000000E+00 -0.28717425219E+03  0.72548761429E+03  0.66623061125E+03 0.  0.
        2    1    3    3  502    0 -0.15506027154E+03  0.69213600925E+02  0.16848900373E+03  0.23921278133E+03  0.25500000920E-02 0.  1.
       -2    1    3    3    0  502  0.15506027154E+03 -0.69213600925E+02 -0.45566325593E+03  0.48627483296E+03  0.25500000920E-02 0. -1.
</event>
<event>
 5   0  0.4526837E-02  0.7162543E+03  0.7818609E-02  0.9689832E-01
       -2   -1    0    0    0  501  0.00000000000E+00  0.00000000000E+00  0.15404744002E+04  0.15404744002E+04  0.25500000920E-02 0.  1.
        2   -1    0    0  501    0  0.00000000000E+00  0.00000000000E+00 -0.83256866341E+02  0.83256866380E+02  0.25500000920E-02 0. -1.
    10030    2    1    2    0    0  0.00000000000E+00  0.00000000000E+00  0.14572175339E+04  0.16237312666E+04  0.71625434385E+03 0.  0.
        1    1    3    3  502    0  0.39567786765E+02 -0.33685187458E+03  0.98926441933E+03  0.10457910339E+04  0.50400001928E-02 0.  1.
       -1    1    3    3    0  502 -0.39567786765E+02  0.33685187458E+03  0.46795311453E+03  0.57794023271E+03  0.50400001928E-02 0. -1.
</event>
<event>
 5   0  0.2751729E-02  0.7232799E+03  0.7818609E-02  0.9678228E-01
        1   -1    0    0  501    0  0.00000000000E+00  0.00000000000E+00  0.10470536231E+04  0.10470536231E+04  0.50400001928E-02 0.  1.
       -1   -1    0    0    0  501  0.00000000000E+00  0.00000000000E+00 -0.12490617064E+03  0.12490617074E+03  0.50400001928E-02 0. -1.
    10030    2    1    2    0    0  0.00000000000E+00  0.00000000000E+00  0.92214745246E+03  0.11719597939E+04  0.72327991423E+03 0.  0.
        1    1    3    3  502    0  0.34984304350E+03 -0.38665038685E+02  0.32649453272E+03  0.48008730479E+03  0.50400001928E-02 0. -1.
       -1    1    3    3    0  502 -0.34984304350E+03  0.38665038685E+02  0.59565291974E+03  0.69187248906E+03  0.50400001928E-02 0.  1.
</event>
<event>
 5   0  0.2758681E-02  0.6959750E+03  0.7818609E-02  0.9724140E-01
       -1   -1    0    0    0  501  0.00000000000E+00  0.00000000000E+00  0.17612150803E+03  0.17612150810E+03  0.50400001928E-02 0. -1.
        1   -1    0    0  501    0  0.00000000000E+00  0.00000000000E+00 -0.68756685404E+03  0.68756685406E+03  0.50400001928E-02 0.  1.
    10030    2    1    2    0    0  0.00000000000E+00  0.00000000000E+00 -0.51144534601E+03  0.86368836216E+03  0.69597503186E+03 0.  0.
        3    1    3    3  502    0 -0.87370813278E+02 -0.22448383438E+03 -0.56737485798E+03  0.61639345436E+03  0.10100000352E+00 0. -1.
       -3    1    3    3    0  502  0.87370813278E+02  0.22448383438E+03  0.55929511973E+02  0.24729490779E+03  0.10100000352E+00 0.  1.
</event>
<event>
 5   0  0.4365492E-02  0.7063998E+03  0.7818609E-02  0.9706350E-01
       -2   -1    0    0    0  501  0.00000000000E+00  0.00000000000E+00  0.18884684996E+03  0.18884684998E+03  0.25500000920E-02 0.  1.
        2   -1    0    0  501    0  0.00000000000E+00  0.00000000000E+00 -0.66058906394E+03  0.66058906394E+03  0.25500000920E-02 0. -1.
    10030    2    1    2    0    0  0.00000000000E+00  0.00000000000E+00 -0.47174221398E+03  0.84943591392E+03  0.70639978441E+03 0.  0.
        4    1    3    3  502    0 -0.18441943703E+03 -0.25121646152E+03 -0.43574553506E+03  0.53572009811E+03  0.12699999809E+01 0. -1.
       -4    1    3    3    0  502  0.18441943703E+03  0.25121646152E+03 -0.35996678914E+02  0.31371581581E+03  0.12699999809E+01 0.  1.
</event>
<event>
 5   0  0.4526837E-02  0.6954391E+03  0.7818609E-02  0.9725064E-01
        2   -1    0    0  501    0  0.00000000000E+00  0.00000000000E+00  0.85663558318E+03  0.85663558318E+03  0.25500000920E-02 0. -1.
       -2   -1    0    0    0  501  0.00000000000E+00  0.00000000000E+00 -0.14114390009E+03  0.14114390011E+03  0.25500000920E-02 0.  1.
    10030    2    1    2    0    0  0.00000000000E+00  0.00000000000E+00  0.71549168309E+03  0.99777948330E+03  0.69543910497E+03 0.  0.
        1    1    3    3  502    0 -0.21331689707E+03 -0.27439723940E+03  0.34263368093E+03  0.48805305337E+03  0.50400001928E-02 0.  1.
       -1    1    3    3    0  502  0.21331689707E+03  0.27439723940E+03  0.37285800216E+03  0.50972642993E+03  0.50400001928E-02 0. -1.
</event>
<event>
 5   0  0.4420645E-02  0.7165258E+03  0.7818609E-02  0.9689381E-01
        2   -1    0    0  501    0  0.00000000000E+00  0.00000000000E+00  0.58014691570E+03  0.58014691571E+03  0.25500000920E-02 0.  1.
       -2   -1    0    0    0  501  0.00000000000E+00  0.00000000000E+00 -0.22124106233E+03  0.22124106234E+03  0.25500000920E-02 0. -1.
    10030    2    1    2    0    0  0.00000000000E+00  0.00000000000E+00  0.35890585337E+03  0.80138797805E+03  0.71652584027E+03 0.  0.
        5    1    3    3  502    0  0.63779806197E+02  0.29740615725E+02  0.57230548543E+03  0.57663508960E+03  0.46999998093E+01 0.  1.
       -5    1    3    3    0  502 -0.63779806197E+02 -0.29740615725E+02 -0.21339963206E+03  0.22475288844E+03  0.46999998093E+01 0. -1.
</event>
<event>
 5   0  0.2684924E-02  0.7022010E+03  0.7818609E-02  0.9713476E-01
        1   -1    0    0  501    0  0.00000000000E+00  0.00000000000E+00  0.90982212968E+03  0.90982212969E+03  0.50400001928E-02 0.  1.
       -1   -1    0    0    0  501  0.00000000000E+00  0.00000000000E+00 -0.13548974430E+03  0.13548974440E+03  0.50400001928E-02 0. -1.
    10030    2    1    2    0    0  0.00000000000E+00  0.00000000000E+00  0.77433238537E+03  0.10453118741E+04  0.70220101899E+03 0.  0.
        4    1    3    3  502    0  0.23955460126E+02 -0.31400513390E+03  0.61824744680E+03  0.69383326999E+03  0.12699999809E+01 0.  1.
       -4    1    3    3    0  502 -0.23955460126E+02  0.31400513390E+03  0.15608493858E+03  0.35147860409E+03  0.12699999809E+01 0. -1.
</event>
<event>
 5   0  0.2777999E-02  0.6915000E+03  0.7818609E-02  0.9731880E-01
        1   -1    0    0  501    0  0.00000000000E+00  0.00000000000E+00  0.61544205997E+03  0.61544205999E+03  0.50400001928E-02 0.  1.
       -1   -1    0    0    0  501  0.00000000000E+00  0.00000000000E+00 -0.19423933763E+03  0.19423933770E+03  0.50400001928E-02 0. -1.
    10030    2    1    2    0    0  0.00000000000E+00  0.00000000000E+00  0.42120272234E+03  0.80968139769E+03  0.69149998731E+03 0.  0.
        5    1    3    3  502    0  0.32678636260E+02  0.16295706236E+03  0.56555790084E+03  0.58949192246E+03  0.46999998093E+01 0.  1.
       -5    1    3    3    0  502 -0.32678636260E+02 -0.16295706236E+03 -0.14435517851E+03  0.22018947523E+03  0.46999998093E+01 0. -1.
</event>
<event>
 5   0  0.4503289E-02  0.6925910E+03  0.7818609E-02  0.9729987E-01
       -2   -1    0    0    0  501  0.00000000000E+00  0.00000000000E+00  0.96023948092E+02  0.96023948126E+02  0.25500000920E-02 0.  1.
        2   -1    0    0  501    0  0.00000000000E+00  0.00000000000E+00 -0.12488609918E+04  0.12488609918E+04  0.25500000920E-02 0. -1.
    10030    2    1    2    0    0  0.00000000000E+00  0.00000000000E+00 -0.11528370437E+04  0.13448849399E+04  0.69259097041E+03 0.  0.
        2    1    3    3  502    0 -0.22236645870E+03  0.46024638353E+02 -0.68732868906E+02  0.23725369663E+03  0.25500000920E-02 0.  1.
       -2    1    3    3    0  502  0.22236645870E+03 -0.46024638353E+02 -0.10841041748E+04  0.11076312433E+04  0.25500000920E-02 0. -1.
</event>
<event>
 5   0  0.2684924E-02  0.7024567E+03  0.7818609E-02  0.9713040E-01
        1   -1    0    0  501    0  0.00000000000E+00  0.00000000000E+00  0.87846398523E+03  0.87846398524E+03  0.50400001928E-02 0.  1.
       -1   -1    0    0    0  501  0.00000000000E+00  0.00000000000E+00 -0.14042848708E+03  0.14042848717E+03  0.50400001928E-02 0. -1.
    10030    2    1    2    0    0  0.00000000000E+00  0.00000000000E+00  0.73803549815E+03  0.10188924724E+04  0.70245674159E+03 0.  0.
        4    1    3    3  502    0  0.78008897157E+02 -0.18671299030E+03 -0.47377386395E+02  0.20783011914E+03  0.12699999809E+01 0. -1.
       -4    1    3    3    0  502 -0.78008897157E+02  0.18671299030E+03  0.78541288455E+03  0.81106235327E+03  0.12699999809E+01 0.  1.
</event>
<event>
 5   0  0.4420645E-02  0.6968732E+03  0.7818609E-02  0.9722594E-01
       -2   -1    0    0    0  501  0.00000000000E+00  0.00000000000E+00  0.47834479488E+03  0.47834479489E+03  0.25500000920E-02 0.  1.
        2   -1    0    0  501    0  0.00000000000E+00  0.00000000000E+00 -0.25380868678E+03  0.25380868680E+03  0.25500000920E-02 0. -1.
    10030    2    1    2    0    0  0.00000000000E+00  0.00000000000E+00  0.22453610810E+03  0.73215348169E+03  0.69687320002E+03 0.  0.
        5    1    3    3  502    0  0.10230921865E+02  0.25414226219E+03 -0.13788922151E+03  0.28935875415E+03  0.46999998093E+01 0. -1.
       -5    1    3    3    0  502 -0.10230921865E+02 -0.25414226219E+03  0.36242532961E+03  0.44279472754E+03  0.46999998093E+01 0.  1.
</event>
<event>
 5   0  0.2777999E-02  0.7049626E+03  0.7818609E-02  0.9708783E-01
       -1   -1    0    0    0  501  0.00000000000E+00  0.00000000000E+00  0.53370360185E+03  0.53370360187E+03  0.50400001928E-02 0. -1.
        1   -1    0    0  501    0  0.00000000000E+00  0.00000000000E+00 -0.23279412244E+03  0.23279412249E+03  0.50400001928E-02 0.  1.
    10030    2    1    2    0    0  0.00000000000E+00  0.00000000000E+00  0.30090947941E+03  0.76649772437E+03  0.70496258529E+03 0.  0.
        5    1    3    3  502    0 -0.35111136963E+02 -0.54729307955E+02 -0.22618188131E+03  0.23538993716E+03  0.46999998093E+01 0.  1.
       -5    1    3    3    0  502  0.35111136963E+02  0.54729307955E+02  0.52709136072E+03  0.53110778720E+03  0.46999998093E+01 0. -1.
</event>
<event>
 5   0  0.2684924E-02  0.6434289E+03  0.7818609E-02  0.9819188E-01
        1   -1    0    0  501    0  0.00000000000E+00  0.00000000000E+00  0.20104627912E+03  0.20104627918E+03  0.50400001928E-02 0.  1.
       -1   -1    0    0    0  501  0.00000000000E+00  0.00000000000E+00 -0.51480775646E+03  0.51480775649E+03  0.50400001928E-02 0. -1.
    10030    2    1    2    0    0  0.00000000000E+00  0.00000000000E+00 -0.31376147735E+03  0.71585403567E+03  0.64342888940E+03 0.  0.
        4    1    3    3  502    0 -0.64770283148E+02 -0.31406303016E+03 -0.18563123536E+03  0.37052846711E+03  0.12699999809E+01 0. -1.
       -4    1    3    3    0  502  0.64770283148E+02  0.31406303016E+03 -0.12813024198E+03  0.34532556856E+03  0.12699999809E+01 0.  1.
</event>
<event>
 5   0  0.4503289E-02  0.6977622E+03  0.7818609E-02  0.9721067E-01
       -2   -1    0    0    0  501  0.00000000000E+00  0.00000000000E+00  0.11264940691E+03  0.11264940694E+03  0.25500000920E-02 0.  1.
        2   -1    0    0  501    0  0.00000000000E+00  0.00000000000E+00 -0.10805030545E+04  0.10805030545E+04  0.25500000920E-02 0. -1.
    10030    2    1    2    0    0  0.00000000000E+00  0.00000000000E+00 -0.96785364757E+03  0.11931524614E+04  0.69776221817E+03 0.  0.
        2    1    3    3  502    0  0.29183156431E+03  0.12894537356E+03 -0.72530201832E+03  0.79237338993E+03  0.25500000920E-02 0.  1.
       -2    1    3    3    0  502 -0.29183156431E+03 -0.12894537356E+03 -0.24255162925E+03  0.40077907149E+03  0.25500000920E-02 0. -1.
</event>
<event>
 5   0  0.2777999E-02  0.7022764E+03  0.7818609E-02  0.9713347E-01
        1   -1    0    0  501    0  0.00000000000E+00  0.00000000000E+00  0.34023061879E+03  0.34023061883E+03  0.50400001928E-02 0. -1.
       -1   -1    0    0    0  501  0.00000000000E+00  0.00000000000E+00 -0.36239545719E+03  0.36239545722E+03  0.50400001928E-02 0.  1.
    10030    2    1    2    0    0  0.00000000000E+00  0.00000000000E+00 -0.22164838396E+02  0.70262607605E+03  0.70227638625E+03 0.  0.
        5    1    3    3  502    0  0.66770344000E+02  0.82439917853E+02  0.32378010305E+03  0.34074956203E+03  0.46999998093E+01 0. -1.
       -5    1    3    3    0  502 -0.66770344000E+02 -0.82439917853E+02 -0.34594494145E+03  0.36187651403E+03  0.46999998093E+01 0.  1.
</event>
<event>
 5   0  0.4526837E-02  0.7183188E+03  0.7818609E-02  0.9686408E-01
        2   -1    0    0  501    0  0.00000000000E+00  0.00000000000E+00  0.19658080285E+04  0.19658080285E+04  0.25500000920E-02 0. -1.
       -2   -1    0    0    0  501  0.00000000000E+00  0.00000000000E+00 -0.65619562953E+02  0.65619563002E+02  0.25500000920E-02 0.  1.
    10030    2    1    2    0    0  0.00000000000E+00  0.00000000000E+00  0.19001884655E+04  0.20314275915E+04  0.71831876971E+03 0.  0.
        1    1    3    3  502    0 -0.43913650799E+01 -0.35179385484E+03  0.11543646660E+04  0.12067874637E+04  0.50400001928E-02 0. -1.
       -1    1    3    3    0  502  0.43913650799E+01  0.35179385484E+03  0.74582379952E+03  0.82464012779E+03  0.50400001928E-02 0.  1.
</event>
<event>
 5   0  0.2751729E-02  0.7282838E+03  0.7818609E-02  0.9670049E-01
       -1   -1    0    0    0  501  0.00000000000E+00  0.00000000000E+00  0.43572883768E+03  0.43572883771E+03  0.50400001928E-02 0. -1.
        1   -1    0    0  501    0  0.00000000000E+00  0.00000000000E+00 -0.30431619060E+03  0.30431619064E+03  0.50400001928E-02 0.  1.
    10030    2    1    2    0    0  0.00000000000E+00  0.00000000000E+00  0.13141264708E+03  0.74004502835E+03  0.72828384589E+03 0.  0.
        1    1    3    3  502    0  0.71057693904E+02 -0.28680333930E+03  0.28196709716E+03  0.40842477300E+03  0.50400001928E-02 0.  1.
       -1    1    3    3    0  502 -0.71057693904E+02  0.28680333930E+03 -0.15055445008E+03  0.33162025535E+03  0.50400001928E-02 0. -1.
</event>
<event>
 5   0  0.2750139E-02  0.7016069E+03  0.7818609E-02  0.9714488E-01
        1   -1    0    0  501    0  0.00000000000E+00  0.00000000000E+00  0.60399374864E+03  0.60399374866E+03  0.50400001928E-02 0.  1.
       -1   -1    0    0    0  501  0.00000000000E+00  0.00000000000E+00 -0.20374892555E+03  0.20374892561E+03  0.50400001928E-02 0. -1.
    10030    2    1    2    0    0  0.00000000000E+00  0.00000000000E+00  0.40024482309E+03  0.80774267427E+03  0.70160694797E+03 0.  0.
        2    1    3    3  502    0  0.13978818647E+03  0.23800652532E+02 -0.16928423186E+03  0.22082653668E+03  0.25500000920E-02 0. -1.
       -2    1    3    3    0  502 -0.13978818647E+03 -0.23800652532E+02  0.56952905495E+03  0.58691613760E+03  0.25500000920E-02 0.  1.
</event>
<event>
 5   0  0.4365492E-02  0.7152517E+03  0.7818609E-02  0.9691499E-01
        2   -1    0    0  501    0  0.00000000000E+00  0.00000000000E+00  0.10939136981E+04  0.10939136981E+04  0.25500000920E-02 0.  1.
       -2   -1    0    0    0  501  0.00000000000E+00  0.00000000000E+00 -0.11691621262E+03  0.11691621264E+03  0.25500000920E-02 0. -1.
    10030    2    1    2    0    0  0.00000000000E+00  0.00000000000E+00  0.97699748545E+03  0.12108299107E+04  0.71525169423E+03 0.  0.
        4    1    3    3  502    0 -0.20515388336E+03  0.25629544202E+03  0.72861922813E+03  0.79916397689E+03  0.12699999809E+01 0.  1.
       -4    1    3    3    0  502  0.20515388336E+03 -0.25629544202E+03  0.24837825732E+03  0.41166593382E+03  0.12699999809E+01 0. -1.
</event>
<event>
 5   0  0.4503289E-02  0.6952213E+03  0.7818609E-02  0.9725439E-01
       -2   -1    0    0    0  501  0.00000000000E+00  0.00000000000E+00  0.46309161533E+03  0.46309161533E+03  0.25500000920E-02 0.  1.
        2   -1    0    0  501    0  0.00000000000E+00  0.00000000000E+00 -0.26092713809E+03  0.26092713810E+03  0.25500000920E-02 0. -1.
    10030    2    1    2    0    0  0.00000000000E+00  0.00000000000E+00  0.20216447724E+03  0.72401875343E+03  0.69522131690E+03 0.  0.
        2    1    3    3  502    0 -0.27716462788E+02 -0.31251774415E+03 -0.54775273903E+02  0.31848998942E+03  0.25500000920E-02 0. -1.
       -2    1    3    3    0  502  0.27716462788E+02  0.31251774415E+03  0.25693975114E+03  0.40552876402E+03  0.25500000920E-02 0.  1.
</event>
<event>
 5   0  0.4365492E-02  0.7160772E+03  0.7818609E-02  0.9690126E-01
       -2   -1    0    0    0  501  0.00000000000E+00  0.00000000000E+00  0.31022804821E+03  0.31022804822E+03  0.25500000920E-02 0.  1.
        2   -1    0    0  501    0  0.00000000000E+00  0.00000000000E+00 -0.41321742994E+03  0.41321742995E+03  0.25500000920E-02 0. -1.
    10030    2    1    2    0    0  0.00000000000E+00  0.00000000000E+00 -0.10298938174E+03  0.72344547816E+03  0.71607719355E+03 0.  0.
        4    1    3    3  502    0  0.83630746194E+02  0.31283947436E+03 -0.20579933498E+03  0.38368948070E+03  0.12699999809E+01 0. -1.
       -4    1    3    3    0  502 -0.83630746194E+02 -0.31283947436E+03  0.10280995324E+03  0.33975599746E+03  0.12699999809E+01 0.  1.
</event>
<event>
 5   0  0.1784625E-02  0.7076716E+03  0.7818609E-02  0.9704202E-01
       -4   -1    0    0    0  501  0.00000000000E+00  0.00000000000E+00  0.11639656086E+04  0.11639663014E+04  0.12699999809E+01 0.  1.
        4   -1    0    0  501    0  0.00000000000E+00  0.00000000000E+00 -0.10755863620E+03  0.10756613371E+03  0.12699999809E+01 0. -1.
    10030    2    1    2    0    0  0.00000000000E+00  0.00000000000E+00  0.10564069724E+04  0.12715324351E+04  0.70767156386E+03 0.  0.
        5    1    3    3  502    0 -0.77807239930E+02  0.34375335743E+03  0.47260956997E+03  0.58957801261E+03  0.46999998093E+01 0. -1.
       -5    1    3    3    0  502  0.77807239930E+02 -0.34375335743E+03  0.58379740242E+03  0.68195442253E+03  0.46999998093E+01 0.  1.
</event>
<event>
 5   0  0.4526837E-02  0.7110777E+03  0.7818609E-02  0.9698473E-01
       -2   -1    0    0    0  501  0.00000000000E+00  0.00000000000E+00  0.35593352597E+03  0.35593352597E+03  0.25500000920E-02 0. -1.
        2   -1    0    0  501    0  0.00000000000E+00  0.00000000000E+00 -0.35514457350E+03  0.35514457351E+03  0.25500000920E-02 0.  1.
    10030    2    1    2    0    0  0.00000000000E+00  0.00000000000E+00  0.78895246185E+00  0.71107809949E+03  0.71107766181E+03 0.  0.
        1    1    3    3  502    0 -0.56389736926E+02  0.23586929150E+03 -0.25959363573E+03  0.35525058880E+03  0.50400001928E-02 0.  1.
       -1    1    3    3    0  502  0.56389736926E+02 -0.23586929150E+03  0.26038258820E+03  0.35582751069E+03  0.50400001928E-02 0. -1.
</event>
<event>
 5   0  0.2684924E-02  0.7000680E+03  0.7818609E-02  0.9717116E-01
        1   -1    0    0  501    0  0.00000000000E+00  0.00000000000E+00  0.65446152753E+03  0.65446152755E+03  0.50400001928E-02 0.  1.
       -1   -1    0    0    0  501  0.00000000000E+00  0.00000000000E+00 -0.18721317196E+03  0.18721317202E+03  0.50400001928E-02 0. -1.
    10030    2    1    2    0    0  0.00000000000E+00  0.00000000000E+00  0.46724835558E+03  0.84167469958E+03  0.70006804963E+03 0.  0.
        4    1    3    3  502    0  0.33318704874E+03 -0.12818706624E+02  0.36167796444E+03  0.49192529061E+03  0.12699999809E+01 0.  1.
       -4    1    3    3    0  502 -0.33318704874E+03  0.12818706624E+02  0.10557039114E+03  0.34974940896E+03  0.12699999809E+01 0. -1.
</event>
<event>
 5   0  0.2750139E-02  0.7020463E+03  0.7818609E-02  0.9713739E-01
       -1   -1    0    0    0  501  0.00000000000E+00  0.00000000000E+00  0.15809083515E+03  0.15809083523E+03  0.50400001928E-02 0.  1.
        1   -1    0    0  501    0  0.00000000000E+00  0.00000000000E+00 -0.77940804225E+03  0.77940804226E+03  0.50400001928E-02 0. -1.
    10030    2    1    2    0    0  0.00000000000E+00  0.00000000000E+00 -0.62131720710E+03  0.93749887749E+03  0.70204634709E+03 0.  0.
        2    1    3    3  502    0  0.18113944417E+03  0.29816655702E+03 -0.25889690576E+03  0.43444493526E+03  0.25500000920E-02 0.  1.
       -2    1    3    3    0  502 -0.18113944417E+03 -0.29816655702E+03 -0.36242030134E+03  0.50305394223E+03  0.25500000920E-02 0. -1.
</event>
<event>
 5   0  0.2684924E-02  0.7168898E+03  0.7818609E-02  0.9688776E-01
       -1   -1    0    0    0  501  0.00000000000E+00  0.00000000000E+00  0.21428874512E+03  0.21428874518E+03  0.50400001928E-02 0. -1.
        1   -1    0    0  501    0  0.00000000000E+00  0.00000000000E+00 -0.59957772986E+03  0.59957772988E+03  0.50400001928E-02 0.  1.
    10030    2    1    2    0    0  0.00000000000E+00  0.00000000000E+00 -0.38528898474E+03  0.81386647506E+03  0.71688983634E+03 0.  0.
        4    1    3    3  502    0  0.17265175296E+03  0.13473872484E+03 -0.51478638891E+03  0.55943703031E+03  0.12699999809E+01 0.  1.
       -4    1    3    3    0  502 -0.17265175296E+03 -0.13473872484E+03  0.12949740417E+03  0.25442944475E+03  0.12699999809E+01 0. -1.
</event>
<event>
 5   0  0.4526837E-02  0.6864681E+03  0.7818609E-02  0.9740658E-01
        2   -1    0    0  501    0  0.00000000000E+00  0.00000000000E+00  0.13425081883E+04  0.13425081883E+04  0.25500000920E-02 0.  1.
       -2   -1    0    0    0  501  0.00000000000E+00  0.00000000000E+00 -0.87753354668E+02  0.87753354705E+02  0.25500000920E-02 0. -1.
    10030    2    1    2    0    0  0.00000000000E+00  0.00000000000E+00  0.12547548337E+04  0.14302615430E+04  0.68646805381E+03 0.  0.
        1    1    3    3  502    0 -0.28664288841E+03 -0.16643551013E+03  0.81308649533E+03  0.87805157788E+03  0.50400001928E-02 0.  1.
       -1    1    3    3    0  502  0.28664288841E+03  0.16643551013E+03  0.44166833833E+03  0.55220996516E+03  0.50400001928E-02 0. -1.
</event>
<event>
 5   0  0.2751729E-02  0.7027622E+03  0.7818609E-02  0.9712520E-01
        1   -1    0    0  501    0  0.00000000000E+00  0.00000000000E+00  0.10014199292E+04  0.10014199292E+04  0.50400001928E-02 0. -1.
       -1   -1    0    0    0  501  0.00000000000E+00  0.00000000000E+00 -0.12329362346E+03  0.12329362356E+03  0.50400001928E-02 0.  1.
    10030    2    1    2    0    0  0.00000000000E+00  0.00000000000E+00  0.87812630569E+03  0.11247135527E+04  0.70276224069E+03 0.  0.
        1    1    3    3  502    0  0.19626143210E+03 -0.12331287198E+03  0.86171928748E+03  0.89234788316E+03  0.50400001928E-02 0. -1.
       -1    1    3    3    0  502 -0.19626143210E+03  0.12331287198E+03  0.16407018210E+02  0.23236566957E+03  0.50400001928E-02 0.  1.
</event>
<event>
 5   0  0.2777999E-02  0.7052538E+03  0.7818609E-02  0.9708289E-01
        1   -1    0    0  501    0  0.00000000000E+00  0.00000000000E+00  0.54788249705E+03  0.54788249707E+03  0.50400001928E-02 0.  1.
       -1   -1    0    0    0  501  0.00000000000E+00  0.00000000000E+00 -0.22695694781E+03  0.22695694786E+03  0.50400001928E-02 0. -1.
    10030    2    1    2    0    0  0.00000000000E+00  0.00000000000E+00  0.32092554924E+03  0.77483944494E+03  0.70525382471E+03 0.  0.
        5    1    3    3  502    0 -0.19461037739E+03  0.11121574751E+03  0.45949719308E+03  0.51127478123E+03  0.46999998093E+01 0.  1.
       -5    1    3    3    0  502  0.19461037739E+03 -0.11121574751E+03 -0.13857164383E+03  0.26356466370E+03  0.46999998093E+01 0. -1.
</event>
<event>
 5   0  0.2758681E-02  0.6978580E+03  0.7818609E-02  0.9720902E-01
       -1   -1    0    0    0  501  0.00000000000E+00  0.00000000000E+00  0.34056755993E+03  0.34056755997E+03  0.50400001928E-02 0. -1.
        1   -1    0    0  501    0  0.00000000000E+00  0.00000000000E+00 -0.35749577360E+03  0.35749577364E+03  0.50400001928E-02 0.  1.
    10030    2    1    2    0    0  0.00000000000E+00  0.00000000000E+00 -0.16928213676E+02  0.69806333361E+03  0.69785804667E+03 0.  0.
        3    1    3    3  502    0  0.65289518986E+02 -0.10147705562E+03  0.31903278250E+03  0.34108978380E+03  0.10100000352E+00 0. -1.
       -3    1    3    3    0  502 -0.65289518986E+02  0.10147705562E+03 -0.33596099617E+03  0.35697354980E+03  0.10100000352E+00 0.  1.
</event>
<event>
 5   0  0.4503289E-02  0.7003848E+03  0.7818609E-02  0.9716574E-01
       -2   -1    0    0    0  501  0.00000000000E+00  0.00000000000E+00  0.23011448592E+03  0.23011448593E+03  0.25500000920E-02 0. -1.
        2   -1    0    0  501    0  0.00000000000E+00  0.00000000000E+00 -0.53292907606E+03  0.53292907606E+03  0.25500000920E-02 0.  1.
    10030    2    1    2    0    0  0.00000000000E+00  0.00000000000E+00 -0.30281459014E+03  0.76304356199E+03  0.70038475248E+03 0.  0.
        2    1    3    3  502    0  0.11298186018E+03 -0.16252470049E+03  0.16332418706E+03  0.25662028191E+03  0.25500000920E-02 0. -1.
       -2    1    3    3    0  502 -0.11298186018E+03  0.16252470049E+03 -0.46613877720E+03  0.50642328009E+03  0.25500000920E-02 0.  1.
</event>
<event>
 5   0  0.4503289E-02  0.5196953E+03  0.7818609E-02  0.1008762E+00
       -2   -1    0    0    0  501  0.00000000000E+00  0.00000000000E+00  0.12913079724E+03  0.12913079726E+03  0.25500000920E-02 0. -1.
        2   -1    0    0  501    0  0.00000000000E+00  0.00000000000E+00 -0.52288695783E+03  0.52288695783E+03  0.25500000920E-02 0.  1.
    10030    2    1    2    0    0  0.00000000000E+00  0.00000000000E+00 -0.39375616059E+03  0.65201775509E+03  0.51969533282E+03 0.  0.
        2    1    3    3  502    0  0.96113895593E+02 -0.20511740723E+03 -0.37143428326E+02  0.22954447488E+03  0.25500000920E-02 0. -1.
       -2    1    3    3    0  502 -0.96113895593E+02  0.20511740723E+03 -0.35661273226E+03  0.42247328021E+03  0.25500000920E-02 0.  1.
</event>
<event>
 5   0  0.1784625E-02  0.7098212E+03  0.7818609E-02  0.9700582E-01
        3   -1    0    0  501    0  0.00000000000E+00  0.00000000000E+00  0.23126467657E+03  0.23126469863E+03  0.10100000352E+00 0. -1.
       -3   -1    0    0    0  501  0.00000000000E+00  0.00000000000E+00 -0.54466395670E+03  0.54466396606E+03  0.10100000352E+00 0.  1.
    10030    2    1    2    0    0  0.00000000000E+00  0.00000000000E+00 -0.31339928012E+03  0.77592866469E+03  0.70982123377E+03 0.  0.
        3    1    3    3  502    0 -0.19391960029E+03  0.24575200803E+03 -0.33949373686E+03  0.46179526675E+03  0.10100000352E+00 0. -1.
       -3    1    3    3    0  502  0.19391960029E+03 -0.24575200803E+03  0.26094456740E+02  0.31413339794E+03  0.10100000352E+00 0.  1.
</event>
<event>
 5   0  0.4365492E-02  0.6906719E+03  0.7818609E-02  0.9733319E-01
       -2   -1    0    0    0  501  0.00000000000E+00  0.00000000000E+00  0.36617045652E+03  0.36617045653E+03  0.25500000920E-02 0. -1.
        2   -1    0    0  501    0  0.00000000000E+00  0.00000000000E+00 -0.32568692343E+03  0.32568692344E+03  0.25500000920E-02 0.  1.
    10030    2    1    2    0    0  0.00000000000E+00  0.00000000000E+00  0.40483533089E+02  0.69185737996E+03  0.69067193208E+03 0.  0.
        4    1    3    3  502    0  0.18472872008E+02  0.34436404848E+03  0.21145289665E+01  0.34486798781E+03  0.12699999809E+01 0. -1.
       -4    1    3    3    0  502 -0.18472872008E+02 -0.34436404848E+03  0.38369004122E+02  0.34698939215E+03  0.12699999809E+01 0.  1.
</event>
<event>
 5   0  0.1784625E-02  0.7069513E+03  0.7818609E-02  0.9705418E-01
       -3   -1    0    0    0  501  0.00000000000E+00  0.00000000000E+00  0.13825370322E+04  0.13825370359E+04  0.10100000352E+00 0. -1.
        3   -1    0    0  501    0  0.00000000000E+00  0.00000000000E+00 -0.90373707423E+02  0.90373763861E+02  0.10100000352E+00 0.  1.
    10030    2    1    2    0    0  0.00000000000E+00  0.00000000000E+00  0.12921633248E+04  0.14729107998E+04  0.70695131808E+03 0.  0.
        3    1    3    3  502    0  0.22586397734E+03 -0.49121570410E+01  0.79675641081E+02  0.23955559590E+03  0.10100000352E+00 0.  1.
       -3    1    3    3    0  502 -0.22586397734E+03  0.49121570410E+01  0.12124876837E+04  0.12333552039E+04  0.10100000352E+00 0. -1.
</event>
<event>
 5   0  0.2777999E-02  0.6964443E+03  0.7818609E-02  0.9723332E-01
       -1   -1    0    0    0  501  0.00000000000E+00  0.00000000000E+00  0.56062221693E+03  0.56062221695E+03  0.50400001928E-02 0.  1.
        1   -1    0    0  501    0  0.00000000000E+00  0.00000000000E+00 -0.21629303763E+03  0.21629303769E+03  0.50400001928E-02 0. -1.
    10030    2    1    2    0    0  0.00000000000E+00  0.00000000000E+00  0.34432917930E+03  0.77691525464E+03  0.69644434751E+03 0.  0.
        5    1    3    3  502    0 -0.16910998168E+03  0.19579805758E+03 -0.87787463750E+02  0.27324676402E+03  0.46999998093E+01 0. -1.
       -5    1    3    3    0  502  0.16910998168E+03 -0.19579805758E+03  0.43211664305E+03  0.50366849063E+03  0.46999998093E+01 0.  1.
</event>
<event>
 5   0  0.2751729E-02  0.7000362E+03  0.7818609E-02  0.9717170E-01
       -1   -1    0    0    0  501  0.00000000000E+00  0.00000000000E+00  0.68608297130E+03  0.68608297132E+03  0.50400001928E-02 0. -1.
        1   -1    0    0  501    0  0.00000000000E+00  0.00000000000E+00 -0.17856832385E+03  0.17856832392E+03  0.50400001928E-02 0.  1.
    10030    2    1    2    0    0  0.00000000000E+00  0.00000000000E+00  0.50751464745E+03  0.86465129524E+03  0.70003624548E+03 0.  0.
        1    1    3    3  502    0  0.47597609222E+02 -0.53242706242E+02  0.67698824829E+03  0.68074474403E+03  0.50400001928E-02 0. -1.
       -1    1    3    3    0  502 -0.47597609222E+02  0.53242706242E+02 -0.16947360084E+03  0.18390655121E+03  0.50400001928E-02 0.  1.
</event>
<event>
 5   0  0.2750139E-02  0.6878939E+03  0.7818609E-02  0.9738162E-01
        1   -1    0    0  501    0  0.00000000000E+00  0.00000000000E+00  0.37541491546E+03  0.37541491549E+03  0.50400001928E-02 0.  1.
       -1   -1    0    0    0  501  0.00000000000E+00  0.00000000000E+00 -0.31511665015E+03  0.31511665019E+03  0.50400001928E-02 0. -1.
    10030    2    1    2    0    0  0.00000000000E+00  0.00000000000E+00  0.60298265307E+02  0.69053156568E+03  0.68789385984E+03 0.  0.
        2    1    3    3  502    0  0.20736515357E+03  0.26764728065E+03 -0.30614924007E+02  0.33995977311E+03  0.25500000920E-02 0. -1.
       -2    1    3    3    0  502 -0.20736515357E+03 -0.26764728065E+03  0.90913189314E+02  0.35057179258E+03  0.25500000920E-02 0.  1.
</event>
<event>
 5   0  0.4420645E-02  0.6994819E+03  0.7818609E-02  0.9718119E-01
       -2   -1    0    0    0  501  0.00000000000E+00  0.00000000000E+00  0.20759229544E+03  0.20759229546E+03  0.25500000920E-02 0.  1.
        2   -1    0    0  501    0  0.00000000000E+00  0.00000000000E+00 -0.58922581624E+03  0.58922581625E+03  0.25500000920E-02 0. -1.
    10030    2    1    2    0    0  0.00000000000E+00  0.00000000000E+00 -0.38163352080E+03  0.79681811170E+03  0.69948192181E+03 0.  0.
        5    1    3    3  502    0 -0.11814426527E+03  0.19202240894E+03 -0.49534836403E+03  0.54426350667E+03  0.46999998093E+01 0. -1.
       -5    1    3    3    0  502  0.11814426527E+03 -0.19202240894E+03  0.11371484323E+03  0.25255460503E+03  0.46999998093E+01 0.  1.
</event>
<event>
 5   0  0.2758681E-02  0.7419644E+03  0.7818609E-02  0.9648042E-01
        1   -1    0    0  501    0  0.00000000000E+00  0.00000000000E+00  0.35073166926E+03  0.35073166930E+03  0.50400001928E-02 0. -1.
       -1   -1    0    0    0  501  0.00000000000E+00  0.00000000000E+00 -0.39240192403E+03  0.39240192406E+03  0.50400001928E-02 0.  1.
    10030    2    1    2    0    0  0.00000000000E+00  0.00000000000E+00 -0.41670254771E+02  0.74313359336E+03  0.74196437074E+03 0.  0.
        3    1    3    3  502    0  0.23920845553E+03 -0.28275772662E+03 -0.42203097285E+02  0.37276497795E+03  0.10100000352E+00 0.  1.
       -3    1    3    3    0  502 -0.23920845553E+03  0.28275772662E+03  0.53284251435E+00  0.37036861541E+03  0.10100000352E+00 0. -1.
</event>
<event>
 5   0  0.2750139E-02  0.6659986E+03  0.7818609E-02  0.9777213E-01
       -1   -1    0    0    0  501  0.00000000000E+00  0.00000000000E+00  0.37174828986E+03  0.37174828990E+03  0.50400001928E-02 0.  1.
        1   -1    0    0  501    0  0.00000000000E+00  0.00000000000E+00 -0.29828933080E+03  0.29828933084E+03  0.50400001928E-02 0. -1.
    10030    2    1    2    0    0  0.00000000000E+00  0.00000000000E+00  0.73458959064E+02  0.67003762074E+03  0.66599864454E+03 0.  0.
        2    1    3    3  502    0 -0.21236402373E+03  0.13745671119E+03 -0.18113802480E+03  0.31113310666E+03  0.25500000920E-02 0. -1.
       -2    1    3    3    0  502  0.21236402373E+03 -0.13745671119E+03  0.25459698386E+03  0.35890451408E+03  0.25500000920E-02 0.  1.
</event>
<event>
 5   0  0.4299912E-02  0.6837534E+03  0.7818609E-02  0.9745427E-01
       -2   -1    0    0    0  501  0.00000000000E+00  0.00000000000E+00  0.19914160118E+03  0.19914160119E+03  0.25500000920E-02 0. -1.
        2   -1    0    0  501    0  0.00000000000E+00  0.00000000000E+00 -0.58691746545E+03  0.58691746545E+03  0.25500000920E-02 0.  1.
    10030    2    1    2    0    0  0.00000000000E+00  0.00000000000E+00 -0.38777586427E+03  0.78605906665E+03  0.68375341706E+03 0.  0.
        3    1    3    3  502    0 -0.13982019924E+03 -0.11799586128E+03  0.13812639408E+03  0.22924140625E+03  0.10100000352E+00 0. -1.
       -3    1    3    3    0  502  0.13982019924E+03  0.11799586128E+03 -0.52590225835E+03  0.55681766040E+03  0.10100000352E+00 0.  1.
</event>
<event>
 5   0  0.2758681E-02  0.6917022E+03  0.7818609E-02  0.9731529E-01
        1   -1    0    0  501    0  0.00000000000E+00  0.00000000000E+00  0.52823117469E+03  0.52823117472E+03  0.50400001928E-02 0. -1.
       -1   -1    0    0    0  501  0.00000000000E+00  0.00000000000E+00 -0.22644061882E+03  0.22644061887E+03  0.50400001928E-02 0.  1.
    10030    2    1    2    0    0  0.00000000000E+00  0.00000000000E+00  0.30179055588E+03  0.75467179359E+03  0.69170223104E+03 0.  0.
        3    1    3    3  502    0  0.24028626933E+03 -0.56806177439E+01  0.42221727198E+03  0.48583659352E+03  0.10100000352E+00 0. -1.
       -3    1    3    3    0  502 -0.24028626933E+03  0.56806177439E+01 -0.12042671610E+03  0.26883520007E+03  0.10100000352E+00 0.  1.
</event>
<event>
 5   0  0.2758681E-02  0.7156465E+03  0.7818609E-02  0.9690842E-01
        1   -1    0    0  501    0  0.00000000000E+00  0.00000000000E+00  0.31626116510E+03  0.31626116514E+03  0.50400001928E-02 0. -1.
       -1   -1    0    0    0  501  0.00000000000E+00  0.00000000000E+00 -0.40484730624E+03  0.40484730627E+03  0.50400001928E-02 0.  1.
    10030    2    1    2    0    0  0.00000000000E+00  0.00000000000E+00 -0.88586141138E+02  0.72110847142E+03  0.71564650712E+03 0.  0.
        3    1    3    3  502    0 -0.14684205732E+03 -0.30994416297E+03  0.58512561152E+02  0.34792485391E+03  0.10100000352E+00 0.  1.
       -3    1    3    3    0  502  0.14684205732E+03  0.30994416297E+03 -0.14709870229E+03  0.37318361750E+03  0.10100000352E+00 0. -1.
</event>
<event>
 5   0  0.2751729E-02  0.7007783E+03  0.7818609E-02  0.9715902E-01
        1   -1    0    0  501    0  0.00000000000E+00  0.00000000000E+00  0.55868433311E+03  0.55868433313E+03  0.50400001928E-02 0.  1.
       -1   -1    0    0    0  501  0.00000000000E+00  0.00000000000E+00 -0.21975299865E+03  0.21975299871E+03  0.50400001928E-02 0. -1.
    10030    2    1    2    0    0  0.00000000000E+00  0.00000000000E+00  0.33893133446E+03  0.77843733184E+03  0.70077830312E+03 0.  0.
        1    1    3    3  502    0 -0.25226945834E+03  0.19011119624E+02  0.43875893197E+03  0.50646885659E+03  0.50400001928E-02 0.  1.
       -1    1    3    3    0  502  0.25226945834E+03 -0.19011119624E+02 -0.99827597517E+02  0.27196847526E+03  0.50400001928E-02 0. -1.
</event>
<event>
 5   0  0.1784625E-02  0.6985844E+03  0.7818609E-02  0.9719656E-01
       -4   -1    0    0    0  501  0.00000000000E+00  0.00000000000E+00  0.44795332304E+03  0.44795512333E+03  0.12699999809E+01 0.  1.
        4   -1    0    0  501    0  0.00000000000E+00  0.00000000000E+00 -0.27235719765E+03  0.27236015863E+03  0.12699999809E+01 0. -1.
    10030    2    1    2    0    0  0.00000000000E+00  0.00000000000E+00  0.17559612539E+03  0.72031528196E+03  0.69858435867E+03 0.  0.
        2    1    3    3  502    0 -0.38101735078E+02 -0.23423233948E+03 -0.17647228045E+03  0.29573467305E+03  0.25500000920E-02 0. -1.
       -2    1    3    3    0  502  0.38101735078E+02  0.23423233948E+03  0.35206840583E+03  0.42458060891E+03  0.25500000920E-02 0.  1.
</event>
<event>
 5   0  0.2684924E-02  0.7112495E+03  0.7818609E-02  0.9698185E-01
       -1   -1    0    0    0  501  0.00000000000E+00  0.00000000000E+00  0.44188529042E+03  0.44188529045E+03  0.50400001928E-02 0. -1.
        1   -1    0    0  501    0  0.00000000000E+00  0.00000000000E+00 -0.28620311684E+03  0.28620311689E+03  0.50400001928E-02 0.  1.
    10030    2    1    2    0    0  0.00000000000E+00  0.00000000000E+00  0.15568217358E+03  0.72808840734E+03  0.71124945675E+03 0.  0.
        4    1    3    3  502    0  0.20344429983E+03 -0.59361643700E+02  0.37017867517E+03  0.42655275444E+03  0.12699999809E+01 0. -1.
       -4    1    3    3    0  502 -0.20344429983E+03  0.59361643700E+02 -0.21449650159E+03  0.30153565290E+03  0.12699999809E+01 0.  1.
</event>
<event>
 5   0  0.2750139E-02  0.7394609E+03  0.7818609E-02  0.9652031E-01
        1   -1    0    0  501    0  0.00000000000E+00  0.00000000000E+00  0.43760640971E+03  0.43760640974E+03  0.50400001928E-02 0. -1.
       -1   -1    0    0    0  501  0.00000000000E+00  0.00000000000E+00 -0.31238253583E+03  0.31238253587E+03  0.50400001928E-02 0.  1.
    10030    2    1    2    0    0  0.00000000000E+00  0.00000000000E+00  0.12522387388E+03  0.74998894561E+03  0.73946088467E+03 0.  0.
        2    1    3    3  502    0 -0.24991640022E+03 -0.27030469808E+02 -0.21237877594E+03  0.32907992627E+03  0.25500000920E-02 0.  1.
       -2    1    3    3    0  502  0.24991640022E+03  0.27030469808E+02  0.33760264982E+03  0.42090901935E+03  0.25500000920E-02 0. -1.
</event>
<event>
 5   0  0.4299912E-02  0.7025141E+03  0.7818609E-02  0.9712942E-01
        2   -1    0    0  501    0  0.00000000000E+00  0.00000000000E+00  0.41070520574E+03  0.41070520575E+03  0.25500000920E-02 0. -1.
       -2   -1    0    0    0  501  0.00000000000E+00  0.00000000000E+00 -0.30041379392E+03  0.30041379393E+03  0.25500000920E-02 0.  1.
    10030    2    1    2    0    0  0.00000000000E+00  0.00000000000E+00  0.11029141182E+03  0.71111899968E+03  0.70251408256E+03 0.  0.
        3    1    3    3  502    0  0.32810945727E+03  0.69040465146E+02  0.16111368076E+03  0.37199466408E+03  0.10100000352E+00 0. -1.
       -3    1    3    3    0  502 -0.32810945727E+03 -0.69040465146E+02 -0.50822268940E+02  0.33912433560E+03  0.10100000352E+00 0.  1.
</event>
<event>
 5   0  0.4365492E-02  0.6949276E+03  0.7818609E-02  0.9725946E-01
        2   -1    0    0  501    0  0.00000000000E+00  0.00000000000E+00  0.18804450613E+03  0.18804450615E+03  0.25500000920E-02 0. -1.
       -2   -1    0    0    0  501  0.00000000000E+00  0.00000000000E+00 -0.64203475468E+03  0.64203475468E+03  0.25500000920E-02 0.  1.
    10030    2    1    2    0    0  0.00000000000E+00  0.00000000000E+00 -0.45399024855E+03  0.83007926083E+03  0.69492764622E+03 0.  0.
        4    1    3    3  502    0  0.33075984127E+03  0.13224229696E+02 -0.10085103092E+03  0.34604840151E+03  0.12699999809E+01 0. -1.
       -4    1    3    3    0  502 -0.33075984127E+03 -0.13224229696E+02 -0.35313921763E+03  0.48403085932E+03  0.12699999809E+01 0.  1.
</event>
<event>
 5   0  0.4365492E-02  0.6957605E+03  0.7818609E-02  0.9724510E-01
        2   -1    0    0  501    0  0.00000000000E+00  0.00000000000E+00  0.18339881306E+03  0.18339881308E+03  0.25500000920E-02 0. -1.
       -2   -1    0    0    0  501  0.00000000000E+00  0.00000000000E+00 -0.65987711837E+03  0.65987711837E+03  0.25500000920E-02 0.  1.
    10030    2    1    2    0    0  0.00000000000E+00  0.00000000000E+00 -0.47647830531E+03  0.84327593145E+03  0.69576053433E+03 0.  0.
        4    1    3    3  502    0 -0.28975304859E+03 -0.16273550814E+03 -0.11357537544E+03  0.35119888038E+03  0.12699999809E+01 0. -1.
       -4    1    3    3    0  502  0.28975304859E+03  0.16273550814E+03 -0.36290292987E+03  0.49207705107E+03  0.12699999809E+01 0.  1.
</event>
<event>
 5   0  0.2777999E-02  0.6977423E+03  0.7818609E-02  0.9721101E-01
       -1   -1    0    0    0  501  0.00000000000E+00  0.00000000000E+00  0.98039641417E+02  0.98039641547E+02  0.50400001928E-02 0.  1.
        1   -1    0    0  501    0  0.00000000000E+00  0.00000000000E+00 -0.12414477021E+04  0.12414477021E+04  0.50400001928E-02 0. -1.
    10030    2    1    2    0    0  0.00000000000E+00  0.00000000000E+00 -0.11434080607E+04  0.13394873436E+04  0.69774232391E+03 0.  0.
        5    1    3    3  502    0  0.93350856487E+02 -0.10674318110E+03  0.40151286692E+02  0.14745407740E+03  0.46999998093E+01 0.  1.
       -5    1    3    3    0  502 -0.93350856487E+02  0.10674318110E+03 -0.11835593474E+04  0.11920332662E+04  0.46999998093E+01 0. -1.
</event>
<event>
 5   0  0.2758681E-02  0.6471803E+03  0.7818609E-02  0.9812085E-01
       -1   -1    0    0    0  501  0.00000000000E+00  0.00000000000E+00  0.54397788066E+02  0.54397788299E+02  0.50400001928E-02 0. -1.
        1   -1    0    0  501    0  0.00000000000E+00  0.00000000000E+00 -0.19249053462E+04  0.19249053462E+04  0.50400001928E-02 0.  1.
    10030    2    1    2    0    0  0.00000000000E+00  0.00000000000E+00 -0.18705075582E+04  0.19793031345E+04  0.64718032513E+03 0.  0.
        3    1    3    3  502    0 -0.24374961850E+03  0.32699112547E+02 -0.29207297011E+03  0.38182422467E+03  0.10100000352E+00 0. -1.
       -3    1    3    3    0  502  0.24374961850E+03 -0.32699112547E+02 -0.15784345880E+04  0.15974789098E+04  0.10100000352E+00 0.  1.
</event>
<event>
 5   0  0.4365492E-02  0.6737657E+03  0.7818609E-02  0.9763179E-01
       -2   -1    0    0    0  501  0.00000000000E+00  0.00000000000E+00  0.95083205214E+02  0.95083205248E+02  0.25500000920E-02 0.  1.
        2   -1    0    0  501    0  0.00000000000E+00  0.00000000000E+00 -0.11935866466E+04  0.11935866466E+04  0.25500000920E-02 0. -1.
    10030    2    1    2    0    0  0.00000000000E+00  0.00000000000E+00 -0.10985034414E+04  0.12886698519E+04  0.67376566872E+03 0.  0.
        4    1    3    3  502    0  0.67028014097E+02  0.18182893696E+03 -0.22203096500E+02  0.19506180401E+03  0.12699999809E+01 0.  1.
       -4    1    3    3    0  502 -0.67028014097E+02 -0.18182893696E+03 -0.10763003449E+04  0.10936080479E+04  0.12699999809E+01 0. -1.
</event>
<event>
 5   0  0.1784625E-02  0.6838560E+03  0.7818609E-02  0.9745246E-01
       -3   -1    0    0    0  501  0.00000000000E+00  0.00000000000E+00  0.57426504526E+03  0.57426505414E+03  0.10100000352E+00 0.  1.
        3   -1    0    0  501    0  0.00000000000E+00  0.00000000000E+00 -0.20359020498E+03  0.20359023004E+03  0.10100000352E+00 0. -1.
    10030    2    1    2    0    0  0.00000000000E+00  0.00000000000E+00  0.37067484028E+03  0.77785528418E+03  0.68385598331E+03 0.  0.
        3    1    3    3  502    0  0.16157795978E+03 -0.48426003844E+02  0.52364605898E+03  0.55014336334E+03  0.10100000352E+00 0.  1.
       -3    1    3    3    0  502 -0.16157795978E+03  0.48426003844E+02 -0.15297121871E+03  0.22771192084E+03  0.10100000352E+00 0. -1.
</event>
<event>
 5   0  0.4420645E-02  0.6662579E+03  0.7818609E-02  0.9776742E-01
        2   -1    0    0  501    0  0.00000000000E+00  0.00000000000E+00  0.94829800170E+03  0.94829800170E+03  0.25500000920E-02 0.  1.
       -2   -1    0    0    0  501  0.00000000000E+00  0.00000000000E+00 -0.11702533077E+03  0.11702533080E+03  0.25500000920E-02 0. -1.
    10030    2    1    2    0    0  0.00000000000E+00  0.00000000000E+00  0.83127267093E+03  0.10653233325E+04  0.66625787000E+03 0.  0.
        5    1    3    3  502    0  0.12512613583E+03 -0.98265919946E+02 -0.52290076319E+02  0.16753830299E+03  0.46999998093E+01 0. -1.
       -5    1    3    3    0  502 -0.12512613583E+03  0.98265919946E+02  0.88356274725E+03  0.89778502951E+03  0.46999998093E+01 0.  1.
</event>
<event>
 5   0  0.2777999E-02  0.7021459E+03  0.7818609E-02  0.9713569E-01
        1   -1    0    0  501    0  0.00000000000E+00  0.00000000000E+00  0.79637384643E+03  0.79637384644E+03  0.50400001928E-02 0. -1.
       -1   -1    0    0    0  501  0.00000000000E+00  0.00000000000E+00 -0.15476678687E+03  0.15476678695E+03  0.50400001928E-02 0.  1.
    10030    2    1    2    0    0  0.00000000000E+00  0.00000000000E+00  0.64160705956E+03  0.95114063339E+03  0.70214591476E+03 0.  0.
        5    1    3    3  502    0 -0.77643275746E+02  0.90438934058E+02  0.76807926211E+03  0.77728728405E+03  0.46999998093E+01 0. -1.
       -5    1    3    3    0  502  0.77643275746E+02 -0.90438934058E+02 -0.12647220255E+03  0.17385334935E+03  0.46999998093E+01 0.  1.
</event>
<event>
 5   0  0.2758681E-02  0.7051119E+03  0.7818609E-02  0.9708530E-01
       -1   -1    0    0    0  501  0.00000000000E+00  0.00000000000E+00  0.11985975008E+03  0.11985975019E+03  0.50400001928E-02 0.  1.
        1   -1    0    0  501    0  0.00000000000E+00  0.00000000000E+00 -0.10370094634E+04  0.10370094634E+04  0.50400001928E-02 0. -1.
    10030    2    1    2    0    0  0.00000000000E+00  0.00000000000E+00 -0.91714971331E+03  0.11568692136E+04  0.70511189235E+03 0.  0.
        3    1    3    3  502    0 -0.19028657444E+03 -0.29264572760E+03 -0.37744478115E+03  0.51411581897E+03  0.10100000352E+00 0.  1.
       -3    1    3    3    0  502  0.19028657444E+03  0.29264572760E+03 -0.53970493216E+03  0.64275339462E+03  0.10100000352E+00 0. -1.
</event>
<event>
 5   0  0.4503289E-02  0.7021051E+03  0.7818609E-02  0.9713639E-01
       -2   -1    0    0    0  501  0.00000000000E+00  0.00000000000E+00  0.25190640800E+03  0.25190640801E+03  0.25500000920E-02 0. -1.
        2   -1    0    0  501    0  0.00000000000E+00  0.00000000000E+00 -0.48922090121E+03  0.48922090122E+03  0.25500000920E-02 0.  1.
    10030    2    1    2    0    0  0.00000000000E+00  0.00000000000E+00 -0.23731449321E+03  0.74112730923E+03  0.70210506322E+03 0.  0.
        2    1    3    3  502    0 -0.11012793134E+03 -0.27782581155E+03 -0.31307453195E+03  0.43281751973E+03  0.25500000920E-02 0.  1.
       -2    1    3    3    0  502  0.11012793134E+03  0.27782581155E+03  0.75760038740E+02  0.30830978950E+03  0.25500000920E-02 0. -1.
</event>
<event>
 5   0  0.4420645E-02  0.7055340E+03  0.7818609E-02  0.9707815E-01
        2   -1    0    0  501    0  0.00000000000E+00  0.00000000000E+00  0.81522733847E+03  0.81522733848E+03  0.25500000920E-02 0.  1.
       -2   -1    0    0    0  501  0.00000000000E+00  0.00000000000E+00 -0.15265013361E+03  0.15265013364E+03  0.25500000920E-02 0. -1.
    10030    2    1    2    0    0  0.00000000000E+00  0.00000000000E+00  0.66257720486E+03  0.96787747211E+03  0.70553401663E+03 0.  0.
        5    1    3    3  502    0  0.12112455970E+03  0.20178311312E+03 -0.29154515323E+02  0.23719118758E+03  0.46999998093E+01 0. -1.
       -5    1    3    3    0  502 -0.12112455970E+03 -0.20178311312E+03  0.69173172018E+03  0.73068628453E+03  0.46999998093E+01 0.  1.
</event>
<event>
 5   0  0.4526837E-02  0.7602843E+03  0.7818609E-02  0.9619353E-01
        2   -1    0    0  501    0  0.00000000000E+00  0.00000000000E+00  0.14739681156E+03  0.14739681158E+03  0.25500000920E-02 0. -1.
       -2   -1    0    0    0  501  0.00000000000E+00  0.00000000000E+00 -0.98040149708E+03  0.98040149708E+03  0.25500000920E-02 0.  1.
    10030    2    1    2    0    0  0.00000000000E+00  0.00000000000E+00 -0.83300468552E+03  0.11277983087E+04  0.76028430138E+03 0.  0.
        1    1    3    3  502    0 -0.11706953999E+03  0.28517845959E+03 -0.86548789014E+02  0.32019169869E+03  0.50400001928E-02 0. -1.
       -1    1    3    3    0  502  0.11706953999E+03 -0.28517845959E+03 -0.74645589651E+03  0.80760660997E+03  0.50400001928E-02 0.  1.
</event>
<event>
 5   0  0.4365492E-02  0.7814068E+03  0.7818609E-02  0.9587327E-01
       -2   -1    0    0    0  501  0.00000000000E+00  0.00000000000E+00  0.10658384519E+03  0.10658384522E+03  0.25500000920E-02 0. -1.
        2   -1    0    0  501    0  0.00000000000E+00  0.00000000000E+00 -0.14321976048E+04  0.14321976048E+04  0.25500000920E-02 0.  1.
    10030    2    1    2    0    0  0.00000000000E+00  0.00000000000E+00 -0.13256137596E+04  0.15387814501E+04  0.78140675149E+03 0.  0.
        4    1    3    3  502    0 -0.62460283513E+02 -0.12949096001E+03  0.52596651435E+02  0.15309218263E+03  0.12699999809E+01 0. -1.
       -4    1    3    3    0  502  0.62460283513E+02  0.12949096001E+03 -0.13782104111E+04  0.13856892674E+04  0.12699999809E+01 0.  1.
</event>
<event>
 5   0  0.4420645E-02  0.6820982E+03  0.7818609E-02  0.9748346E-01
        2   -1    0    0  501    0  0.00000000000E+00  0.00000000000E+00  0.10243577288E+04  0.10243577288E+04  0.25500000920E-02 0.  1.
       -2   -1    0    0    0  501  0.00000000000E+00  0.00000000000E+00 -0.11354868610E+03  0.11354868613E+03  0.25500000920E-02 0. -1.
    10030    2    1    2    0    0  0.00000000000E+00  0.00000000000E+00  0.91080904266E+03  0.11379064149E+04  0.68209815780E+03 0.  0.
        5    1    3    3  502    0  0.20154495763E+03  0.24847219924E+03  0.65232506876E+03  0.72657338863E+03  0.46999998093E+01 0.  1.
       -5    1    3    3    0  502 -0.20154495763E+03 -0.24847219924E+03  0.25848397391E+03  0.41133302627E+03  0.46999998093E+01 0. -1.
</event>
<event>
 5   0  0.4299912E-02  0.7101213E+03  0.7818609E-02  0.9700078E-01
        2   -1    0    0  501    0  0.00000000000E+00  0.00000000000E+00  0.10986033484E+04  0.10986033484E+04  0.25500000920E-02 0. -1.
       -2   -1    0    0    0  501  0.00000000000E+00  0.00000000000E+00 -0.11475302671E+03  0.11475302674E+03  0.25500000920E-02 0.  1.
    10030    2    1    2    0    0  0.00000000000E+00  0.00000000000E+00  0.98385032166E+03  0.12133563751E+04  0.71012128373E+03 0.  0.
        3    1    3    3  502    0  0.40776301241E+02  0.16819845883E+03  0.10216502899E+04  0.10362059416E+04  0.10100000352E+00 0. -1.
       -3    1    3    3    0  502 -0.40776301241E+02 -0.16819845883E+03 -0.37799968264E+02  0.17715043352E+03  0.10100000352E+00 0.  1.
</event>
<event>
 5   0  0.2750139E-02  0.7000404E+03  0.7818609E-02  0.9717163E-01
        1   -1    0    0  501    0  0.00000000000E+00  0.00000000000E+00  0.11412327874E+04  0.11412327874E+04  0.50400001928E-02 0.  1.
       -1   -1    0    0    0  501  0.00000000000E+00  0.00000000000E+00 -0.10735244454E+03  0.10735244466E+03  0.50400001928E-02 0. -1.
    10030    2    1    2    0    0  0.00000000000E+00  0.00000000000E+00  0.10338803429E+04  0.12485852321E+04  0.70004036912E+03 0.  0.
        2    1    3    3  502    0  0.27816654438E+03 -0.62190041851E+02  0.15460388669E+03  0.32426314854E+03  0.25500000920E-02 0.  1.
       -2    1    3    3    0  502 -0.27816654438E+03  0.62190041851E+02  0.87927645619E+03  0.92432208355E+03  0.25500000920E-02 0. -1.
</event>
<event>
 5   0  0.4420645E-02  0.7050828E+03  0.7818609E-02  0.9708579E-01
       -2   -1    0    0    0  501  0.00000000000E+00  0.00000000000E+00  0.25077689688E+03  0.25077689689E+03  0.25500000920E-02 0. -1.
        2   -1    0    0  501    0  0.00000000000E+00  0.00000000000E+00 -0.49560159208E+03  0.49560159209E+03  0.25500000920E-02 0.  1.
    10030    2    1    2    0    0  0.00000000000E+00  0.00000000000E+00 -0.24482469520E+03  0.74637848898E+03  0.70508277346E+03 0.  0.
        5    1    3    3  502    0  0.18181388861E+03 -0.21219085191E+02 -0.44131534172E+03  0.47779478911E+03  0.46999998093E+01 0.  1.
       -5    1    3    3    0  502 -0.18181388861E+03  0.21219085191E+02  0.19649064652E+03  0.26858369987E+03  0.46999998093E+01 0. -1.
</event>
<event>
 5   0  0.2777999E-02  0.7019223E+03  0.7818609E-02  0.9713950E-01
        1   -1    0    0  501    0  0.00000000000E+00  0.00000000000E+00  0.58304101882E+03  0.58304101884E+03  0.50400001928E-02 0. -1.
       -1   -1    0    0    0  501  0.00000000000E+00  0.00000000000E+00 -0.21126082082E+03  0.21126082088E+03  0.50400001928E-02 0.  1.
    10030    2    1    2    0    0  0.00000000000E+00  0.00000000000E+00  0.37178019800E+03  0.79430183973E+03  0.70192228699E+03 0.  0.
        5    1    3    3  502    0 -0.84674481386E+02  0.37754495971E+02 -0.19711657101E+03  0.21788116561E+03  0.46999998093E+01 0.  1.
       -5    1    3    3    0  502  0.84674481386E+02 -0.37754495971E+02  0.56889676900E+03  0.57642067411E+03  0.46999998093E+01 0. -1.
</event>
<event>
 5   0  0.2777999E-02  0.7014327E+03  0.7818609E-02  0.9714785E-01
        1   -1    0    0  501    0  0.00000000000E+00  0.00000000000E+00  0.12672531375E+04  0.12672531375E+04  0.50400001928E-02 0. -1.
       -1   -1    0    0    0  501  0.00000000000E+00  0.00000000000E+00 -0.97061864866E+02  0.97061864997E+02  0.50400001928E-02 0.  1.
    10030    2    1    2    0    0  0.00000000000E+00  0.00000000000E+00  0.11701912727E+04  0.13643150025E+04  0.70143268496E+03 0.  0.
        5    1    3    3  502    0 -0.20915802584E+03  0.26865174224E+03  0.42167721888E+03  0.54199133324E+03  0.46999998093E+01 0.  1.
       -5    1    3    3    0  502  0.20915802584E+03 -0.26865174224E+03  0.74851405377E+03  0.82232366929E+03  0.46999998093E+01 0. -1.
</event>
<event>
 5   0  0.2777999E-02  0.7054585E+03  0.7818609E-02  0.9707943E-01
       -1   -1    0    0    0  501  0.00000000000E+00  0.00000000000E+00  0.92154532435E+03  0.92154532436E+03  0.50400001928E-02 0.  1.
        1   -1    0    0  501    0  0.00000000000E+00  0.00000000000E+00 -0.13501011472E+03  0.13501011481E+03  0.50400001928E-02 0. -1.
    10030    2    1    2    0    0  0.00000000000E+00  0.00000000000E+00  0.78653520964E+03  0.10565554392E+04  0.70545854595E+03 0.  0.
        5    1    3    3  502    0  0.41183611199E+02  0.32529066979E+03  0.58788463651E+03  0.67315714773E+03  0.46999998093E+01 0.  1.
       -5    1    3    3    0  502 -0.41183611199E+02 -0.32529066979E+03  0.19865057312E+03  0.38339829145E+03  0.46999998093E+01 0. -1.
</event>
<event>
 5   0  0.2684924E-02  0.6733360E+03  0.7818609E-02  0.9763950E-01
       -1   -1    0    0    0  501  0.00000000000E+00  0.00000000000E+00  0.25910279093E+03  0.25910279098E+03  0.50400001928E-02 0.  1.
        1   -1    0    0  501    0  0.00000000000E+00  0.00000000000E+00 -0.43745318648E+03  0.43745318651E+03  0.50400001928E-02 0. -1.
    10030    2    1    2    0    0  0.00000000000E+00  0.00000000000E+00 -0.17835039556E+03  0.69655597749E+03  0.67333599798E+03 0.  0.
        4    1    3    3  502    0  0.41613258856E+02  0.18876143278E+03  0.19597733049E+03  0.27526581477E+03  0.12699999809E+01 0.  1.
       -4    1    3    3    0  502 -0.41613258856E+02 -0.18876143278E+03 -0.37432772604E+03  0.42129016272E+03  0.12699999809E+01 0. -1.
</event>
<event>
 5   0  0.4299912E-02  0.7023006E+03  0.7818609E-02  0.9713306E-01
       -2   -1    0    0    0  501  0.00000000000E+00  0.00000000000E+00  0.41782891049E+03  0.41782891050E+03  0.25500000920E-02 0. -1.
        2   -1    0    0  501    0  0.00000000000E+00  0.00000000000E+00 -0.29511252721E+03  0.29511252722E+03  0.25500000920E-02 0.  1.
    10030    2    1    2    0    0  0.00000000000E+00  0.00000000000E+00  0.12271638329E+03  0.71294143772E+03  0.70230063569E+03 0.  0.
        3    1    3    3  502    0 -0.28760235371E+02  0.16685946722E+03  0.37365099245E+03  0.41022470343E+03  0.10100000352E+00 0. -1.
       -3    1    3    3    0  502  0.28760235371E+02 -0.16685946722E+03 -0.25093460917E+03  0.30271673429E+03  0.10100000352E+00 0.  1.
</event>
<event>
 5   0  0.4420645E-02  0.6919510E+03  0.7818609E-02  0.9731097E-01
        2   -1    0    0  501    0  0.00000000000E+00  0.00000000000E+00  0.23914288684E+03  0.23914288686E+03  0.25500000920E-02 0.  1.
       -2   -1    0    0    0  501  0.00000000000E+00  0.00000000000E+00 -0.50053351419E+03  0.50053351419E+03  0.25500000920E-02 0. -1.
    10030    2    1    2    0    0  0.00000000000E+00  0.00000000000E+00 -0.26139062734E+03  0.73967640105E+03  0.69195095072E+03 0.  0.
        5    1    3    3  502    0  0.88116557098E+02 -0.97686577343E+01  0.22675883511E+03  0.24351922636E+03  0.46999998093E+01 0.  1.
       -5    1    3    3    0  502 -0.88116557098E+02  0.97686577343E+01 -0.48814946245E+03  0.49615717469E+03  0.46999998093E+01 0. -1.
</event>
<event>
 5   0  0.2684924E-02  0.7345935E+03  0.7818609E-02  0.9659836E-01
       -1   -1    0    0    0  501  0.00000000000E+00  0.00000000000E+00  0.18092132668E+03  0.18092132675E+03  0.50400001928E-02 0.  1.
        1   -1    0    0  501    0  0.00000000000E+00  0.00000000000E+00 -0.74566614223E+03  0.74566614224E+03  0.50400001928E-02 0. -1.
    10030    2    1    2    0    0  0.00000000000E+00  0.00000000000E+00 -0.56474481555E+03  0.92658746899E+03  0.73459351413E+03 0.  0.
        4    1    3    3  502    0  0.32136582545E+03 -0.14638132759E+03 -0.40977489490E+03  0.54094414150E+03  0.12699999809E+01 0.  1.
       -4    1    3    3    0  502 -0.32136582545E+03  0.14638132759E+03 -0.15496992065E+03  0.38564332749E+03  0.12699999809E+01 0. -1.
</event>
<event>
 5   0  0.4503289E-02  0.7229703E+03  0.7818609E-02  0.9678737E-01
       -2   -1    0    0    0  501  0.00000000000E+00  0.00000000000E+00  0.32394599601E+03  0.32394599602E+03  0.25500000920E-02 0. -1.
        2   -1    0    0  501    0  0.00000000000E+00  0.00000000000E+00 -0.40337441836E+03  0.40337441837E+03  0.25500000920E-02 0.  1.
    10030    2    1    2    0    0  0.00000000000E+00  0.00000000000E+00 -0.79428422353E+02  0.72732041439E+03  0.72297033889E+03 0.  0.
        2    1    3    3  502    0 -0.31692529826E+03 -0.17080496386E+03 -0.70295368925E+01  0.36009081459E+03  0.25500000920E-02 0.  1.
       -2    1    3    3    0  502  0.31692529826E+03  0.17080496386E+03 -0.72398885460E+02  0.36722959981E+03  0.25500000920E-02 0. -1.
</event>
<event>
 5   0  0.4503289E-02  0.6116248E+03  0.7818609E-02  0.9881577E-01
       -2   -1    0    0    0  501  0.00000000000E+00  0.00000000000E+00  0.88332282002E+02  0.88332282038E+02  0.25500000920E-02 0. -1.
        2   -1    0    0  501    0  0.00000000000E+00  0.00000000000E+00 -0.10587435935E+04  0.10587435935E+04  0.25500000920E-02 0.  1.
    10030    2    1    2    0    0  0.00000000000E+00  0.00000000000E+00 -0.97041131150E+03  0.11470758755E+04  0.61162484479E+03 0.  0.
        2    1    3    3  502    0  0.10930172695E+03 -0.19394569634E+03 -0.91987928614E+02  0.24088084121E+03  0.25500000920E-02 0. -1.
       -2    1    3    3    0  502 -0.10930172695E+03  0.19394569634E+03 -0.87842338289E+03  0.90619503434E+03  0.25500000920E-02 0.  1.
</event>
<event>
 5   0  0.2684924E-02  0.6979750E+03  0.7818609E-02  0.9720702E-01
       -1   -1    0    0    0  501  0.00000000000E+00  0.00000000000E+00  0.16882826367E+03  0.16882826375E+03  0.50400001928E-02 0. -1.
        1   -1    0    0  501    0  0.00000000000E+00  0.00000000000E+00 -0.72139736027E+03  0.72139736028E+03  0.50400001928E-02 0.  1.
    10030    2    1    2    0    0  0.00000000000E+00  0.00000000000E+00 -0.55256909659E+03  0.89022562403E+03  0.69797496744E+03 0.  0.
        4    1    3    3  502    0  0.29577713541E+03  0.17706821736E+03 -0.20697067581E+03  0.40208922017E+03  0.12699999809E+01 0.  1.
       -4    1    3    3    0  502 -0.29577713541E+03 -0.17706821736E+03 -0.34559842078E+03  0.48813640386E+03  0.12699999809E+01 0. -1.
</event>
<event>
 5   0  0.4420645E-02  0.6630686E+03  0.7818609E-02  0.9782561E-01
       -2   -1    0    0    0  501  0.00000000000E+00  0.00000000000E+00  0.81461450971E+02  0.81461451011E+02  0.25500000920E-02 0.  1.
        2   -1    0    0  501    0  0.00000000000E+00  0.00000000000E+00 -0.13492884498E+04  0.13492884498E+04  0.25500000920E-02 0. -1.
    10030    2    1    2    0    0  0.00000000000E+00  0.00000000000E+00 -0.12678269988E+04  0.14307499008E+04  0.66306860860E+03 0.  0.
        5    1    3    3  502    0 -0.12570027258E+03  0.18941396320E+03 -0.11329262508E+03  0.25403841615E+03  0.46999998093E+01 0.  1.
       -5    1    3    3    0  502  0.12570027258E+03 -0.18941396320E+03 -0.11545343737E+04  0.11767114846E+04  0.46999998093E+01 0. -1.
</event>
<event>
 5   0  0.1784625E-02  0.7019664E+03  0.7818609E-02  0.9713875E-01
       -3   -1    0    0    0  501  0.00000000000E+00  0.00000000000E+00  0.30222486868E+03  0.30222488556E+03  0.10100000352E+00 0. -1.
        3   -1    0    0  501    0  0.00000000000E+00  0.00000000000E+00 -0.40760768793E+03  0.40760770045E+03  0.10100000352E+00 0.  1.
    10030    2    1    2    0    0  0.00000000000E+00  0.00000000000E+00 -0.10538281925E+03  0.70983258600E+03  0.70196635358E+03 0.  0.
        5    1    3    3  502    0  0.19262640511E+03  0.29260768724E+03 -0.73972667201E+02  0.35807574069E+03  0.46999998093E+01 0. -1.
       -5    1    3    3    0  502 -0.19262640511E+03 -0.29260768724E+03 -0.31410152051E+02  0.35175684532E+03  0.46999998093E+01 0.  1.
</event>
<event>
 5   0  0.2758681E-02  0.7264931E+03  0.7818609E-02  0.9672968E-01
       -1   -1    0    0    0  501  0.00000000000E+00  0.00000000000E+00  0.34160373585E+03  0.34160373589E+03  0.50400001928E-02 0.  1.
        1   -1    0    0  501    0  0.00000000000E+00  0.00000000000E+00 -0.38626057836E+03  0.38626057839E+03  0.50400001928E-02 0. -1.
    10030    2    1    2    0    0  0.00000000000E+00  0.00000000000E+00 -0.44656842505E+02  0.72786431428E+03  0.72649310143E+03 0.  0.
        3    1    3    3  502    0  0.18609626468E+03  0.30273676039E+03  0.53091018055E+02  0.35930492930E+03  0.10100000352E+00 0. -1.
       -3    1    3    3    0  502 -0.18609626468E+03 -0.30273676039E+03 -0.97747860560E+02  0.36855938499E+03  0.10100000352E+00 0.  1.
</event>
<event>
 5   0  0.4365492E-02  0.7015118E+03  0.7818609E-02  0.9714650E-01
        2   -1    0    0  501    0  0.00000000000E+00  0.00000000000E+00  0.36748162731E+03  0.36748162732E+03  0.25500000920E-02 0. -1.
       -2   -1    0    0    0  501  0.00000000000E+00  0.00000000000E+00 -0.33479144049E+03  0.33479144050E+03  0.25500000920E-02 0.  1.
    10030    2    1    2    0    0  0.00000000000E+00  0.00000000000E+00  0.32690186818E+02  0.70227306781E+03  0.70151180565E+03 0.  0.
        4    1    3    3  502    0  0.14429463739E+03  0.16026297131E+02 -0.30329797867E+03  0.33625743314E+03  0.12699999809E+01 0.  1.
       -4    1    3    3    0  502 -0.14429463739E+03 -0.16026297131E+02  0.33598816548E+03  0.36601563467E+03  0.12699999809E+01 0. -1.
</event>
<event>
 5   0  0.1784625E-02  0.6638228E+03  0.7818609E-02  0.9781182E-01
       -3   -1    0    0    0  501  0.00000000000E+00  0.00000000000E+00  0.27947128604E+03  0.27947130429E+03  0.10100000352E+00 0.  1.
        3   -1    0    0  501    0  0.00000000000E+00  0.00000000000E+00 -0.39419131348E+03  0.39419132642E+03  0.10100000352E+00 0. -1.
    10030    2    1    2    0    0  0.00000000000E+00  0.00000000000E+00 -0.11472002744E+03  0.67366263071E+03  0.66382275897E+03 0.  0.
        2    1    3    3  502    0 -0.21639172565E+03 -0.57415265553E+01  0.19797805400E+03  0.29334903090E+03  0.25500000920E-02 0.  1.
       -2    1    3    3    0  502  0.21639172565E+03  0.57415265553E+01 -0.31269808144E+03  0.38031359981E+03  0.25500000920E-02 0. -1.
</event>
<event>
 5   0  0.4420645E-02  0.6639191E+03  0.7818609E-02  0.9781006E-01
        2   -1    0    0  501    0  0.00000000000E+00  0.00000000000E+00  0.37932801803E+03  0.37932801804E+03  0.25500000920E-02 0.  1.
       -2   -1    0    0    0  501  0.00000000000E+00  0.00000000000E+00 -0.29050622171E+03  0.29050622172E+03  0.25500000920E-02 0. -1.
    10030    2    1    2    0    0  0.00000000000E+00  0.00000000000E+00  0.88821796322E+02  0.66983423976E+03  0.66391911951E+03 0.  0.
        5    1    3    3  502    0  0.20730906933E+03 -0.25887405920E+03  0.58030448672E+02  0.33672310839E+03  0.46999998093E+01 0. -1.
       -5    1    3    3    0  502 -0.20730906933E+03  0.25887405920E+03  0.30791347650E+02  0.33311113137E+03  0.46999998093E+01 0.  1.
</event>
<event>
 5   0  0.2751729E-02  0.7021665E+03  0.7818609E-02  0.9713534E-01
        1   -1    0    0  501    0  0.00000000000E+00  0.00000000000E+00  0.85044703104E+03  0.85044703105E+03  0.50400001928E-02 0.  1.
       -1   -1    0    0    0  501  0.00000000000E+00  0.00000000000E+00 -0.14493490003E+03  0.14493490012E+03  0.50400001928E-02 0. -1.
    10030    2    1    2    0    0  0.00000000000E+00  0.00000000000E+00  0.70551213100E+03  0.99538193117E+03  0.70216652007E+03 0.  0.
        1    1    3    3  502    0  0.14605966821E+03 -0.21755975778E+03  0.21532506220E+02  0.26292455902E+03  0.50400001928E-02 0. -1.
       -1    1    3    3    0  502 -0.14605966821E+03  0.21755975778E+03  0.68397962478E+03  0.73245737216E+03  0.50400001928E-02 0.  1.
</event>
<event>
 5   0  0.2751729E-02  0.6955666E+03  0.7818609E-02  0.9724844E-01
       -1   -1    0    0    0  501  0.00000000000E+00  0.00000000000E+00  0.33768177635E+03  0.33768177639E+03  0.50400001928E-02 0.  1.
        1   -1    0    0  501    0  0.00000000000E+00  0.00000000000E+00 -0.35818697595E+03  0.35818697599E+03  0.50400001928E-02 0. -1.
    10030    2    1    2    0    0  0.00000000000E+00  0.00000000000E+00 -0.20505199604E+02  0.69586875237E+03  0.69556657289E+03 0.  0.
        1    1    3    3  502    0  0.13683029549E+03 -0.15471100650E+03 -0.29018693560E+03  0.35618321537E+03  0.50400001928E-02 0. -1.
       -1    1    3    3    0  502 -0.13683029549E+03  0.15471100650E+03  0.26968173599E+03  0.33968553700E+03  0.50400001928E-02 0.  1.
</event>
<event>
 5   0  0.2758681E-02  0.6974670E+03  0.7818609E-02  0.9721574E-01
        1   -1    0    0  501    0  0.00000000000E+00  0.00000000000E+00  0.52289155441E+03  0.52289155443E+03  0.50400001928E-02 0.  1.
       -1   -1    0    0    0  501  0.00000000000E+00  0.00000000000E+00 -0.23258180820E+03  0.23258180825E+03  0.50400001928E-02 0. -1.
    10030    2    1    2    0    0  0.00000000000E+00  0.00000000000E+00  0.29030974621E+03  0.75547336269E+03  0.69746702645E+03 0.  0.
        3    1    3    3  502    0 -0.43345576247E+02 -0.30964163866E+03 -0.22152448631E+02  0.31344461162E+03  0.10100000352E+00 0. -1.
       -3    1    3    3    0  502  0.43345576247E+02  0.30964163866E+03  0.31246219484E+03  0.44202875107E+03  0.10100000352E+00 0.  1.
</event>
<event>
 5   0  0.4365492E-02  0.7040683E+03  0.7818609E-02  0.9710300E-01
       -2   -1    0    0    0  501  0.00000000000E+00  0.00000000000E+00  0.14431322296E+03  0.14431322298E+03  0.25500000920E-02 0. -1.
        2   -1    0    0  501    0  0.00000000000E+00  0.00000000000E+00 -0.85874342886E+03  0.85874342887E+03  0.25500000920E-02 0.  1.
    10030    2    1    2    0    0  0.00000000000E+00  0.00000000000E+00 -0.71443020591E+03  0.10030566518E+04  0.70406826920E+03 0.  0.
        4    1    3    3  502    0 -0.23419454164E+03  0.88594855744E+02 -0.46869231670E+01  0.25043903838E+03  0.12699999809E+01 0. -1.
       -4    1    3    3    0  502  0.23419454164E+03 -0.88594855744E+02 -0.70974328274E+03  0.75261761346E+03  0.12699999809E+01 0.  1.
</event>
<event>
 5   0  0.4526837E-02  0.6908619E+03  0.7818609E-02  0.9732988E-01
       -2   -1    0    0    0  501  0.00000000000E+00  0.00000000000E+00  0.33943661624E+03  0.33943661625E+03  0.25500000920E-02 0. -1.
        2   -1    0    0  501    0  0.00000000000E+00  0.00000000000E+00 -0.35153118422E+03  0.35153118423E+03  0.25500000920E-02 0.  1.
    10030    2    1    2    0    0  0.00000000000E+00  0.00000000000E+00 -0.12094567974E+02  0.69096780048E+03  0.69086194187E+03 0.  0.
        1    1    3    3  502    0  0.17090262771E+03  0.15383055865E+03 -0.26386771072E+03  0.34999673958E+03  0.50400001928E-02 0.  1.
       -1    1    3    3    0  502 -0.17090262771E+03 -0.15383055865E+03  0.25177314275E+03  0.34097106089E+03  0.50400001928E-02 0. -1.
</event>
<event>
 5   0  0.4420645E-02  0.7296652E+03  0.7818609E-02  0.9667804E-01
       -2   -1    0    0    0  501  0.00000000000E+00  0.00000000000E+00  0.84522690659E+02  0.84522690698E+02  0.25500000920E-02 0.  1.
        2   -1    0    0  501    0  0.00000000000E+00  0.00000000000E+00 -0.15747585992E+04  0.15747585992E+04  0.25500000920E-02 0. -1.
    10030    2    1    2    0    0  0.00000000000E+00  0.00000000000E+00 -0.14902359085E+04  0.16592812899E+04  0.72966522180E+03 0.  0.
        5    1    3    3  502    0  0.26514009524E+03 -0.24333378224E+03 -0.88099285936E+03  0.95167279457E+03  0.46999998093E+01 0.  1.
       -5    1    3    3    0  502 -0.26514009524E+03  0.24333378224E+03 -0.60924304918E+03  0.70760849533E+03  0.46999998093E+01 0. -1.
</event>
<event>
 5   0  0.1784625E-02  0.6945577E+03  0.7818609E-02  0.9726585E-01
       -4   -1    0    0    0  501  0.00000000000E+00  0.00000000000E+00  0.42195214908E+03  0.42195406031E+03  0.12699999809E+01 0.  1.
        4   -1    0    0  501    0  0.00000000000E+00  0.00000000000E+00 -0.28581655690E+03  0.28581937845E+03  0.12699999809E+01 0. -1.
    10030    2    1    2    0    0  0.00000000000E+00  0.00000000000E+00  0.13613559218E+03  0.70777343876E+03  0.69455765863E+03 0.  0.
        5    1    3    3  502    0 -0.93097498168E+02  0.12470618273E+03  0.38439622592E+03  0.41473042410E+03  0.46999998093E+01 0.  1.
       -5    1    3    3    0  502  0.93097498168E+02 -0.12470618273E+03 -0.24826063375E+03  0.29304301466E+03  0.46999998093E+01 0. -1.
</event>
<event>
 5   0  0.1784625E-02  0.7033034E+03  0.7818609E-02  0.9711600E-01
       -3   -1    0    0    0  501  0.00000000000E+00  0.00000000000E+00  0.31947072506E+03  0.31947074102E+03  0.10100000352E+00 0. -1.
        3   -1    0    0  501    0  0.00000000000E+00  0.00000000000E+00 -0.38707425108E+03  0.38707426426E+03  0.10100000352E+00 0.  1.
    10030    2    1    2    0    0  0.00000000000E+00  0.00000000000E+00 -0.67603526022E+02  0.70654500528E+03  0.70330335401E+03 0.  0.
        3    1    3    3  502    0 -0.17608798802E+03 -0.19726286589E+03 -0.26668757950E+03  0.37555544603E+03  0.10100000352E+00 0.  1.
       -3    1    3    3    0  502  0.17608798802E+03  0.19726286589E+03  0.19908405348E+03  0.33098955925E+03  0.10100000352E+00 0. -1.
</event>
<event>
 5   0  0.2777999E-02  0.7246582E+03  0.7818609E-02  0.9675968E-01
       -1   -1    0    0    0  501  0.00000000000E+00  0.00000000000E+00  0.43904549808E+03  0.43904549811E+03  0.50400001928E-02 0. -1.
        1   -1    0    0  501    0  0.00000000000E+00  0.00000000000E+00 -0.29901770081E+03  0.29901770086E+03  0.50400001928E-02 0.  1.
    10030    2    1    2    0    0  0.00000000000E+00  0.00000000000E+00  0.14002779727E+03  0.73806319897E+03  0.72465819644E+03 0.  0.
        5    1    3    3  502    0  0.56754822523E+02  0.33679271300E+02  0.43284082325E+03  0.43786832663E+03  0.46999998093E+01 0. -1.
       -5    1    3    3    0  502 -0.56754822523E+02 -0.33679271300E+02 -0.29281302598E+03  0.30019487234E+03  0.46999998093E+01 0.  1.
</event>
<event>
 5   0  0.4365492E-02  0.6490652E+03  0.7818609E-02  0.9808535E-01
       -2   -1    0    0    0  501  0.00000000000E+00  0.00000000000E+00  0.13758884672E+04  0.13758884672E+04  0.25500000920E-02 0. -1.
        2   -1    0    0  501    0  0.00000000000E+00  0.00000000000E+00 -0.76547935354E+02  0.76547935397E+02  0.25500000920E-02 0.  1.
    10030    2    1    2    0    0  0.00000000000E+00  0.00000000000E+00  0.12993405318E+04  0.14524364026E+04  0.64906524009E+03 0.  0.
        4    1    3    3  502    0  0.23804150940E+03 -0.21816524707E+03  0.57681578873E+03  0.66104304115E+03  0.12699999809E+01 0.  1.
       -4    1    3    3    0  502 -0.23804150940E+03  0.21816524707E+03  0.72252474310E+03  0.79139336143E+03  0.12699999809E+01 0. -1.
</event>
<event>
 5   0  0.2758681E-02  0.6780374E+03  0.7818609E-02  0.9755546E-01
        1   -1    0    0  501    0  0.00000000000E+00  0.00000000000E+00  0.17891863300E+04  0.17891863300E+04  0.50400001928E-02 0. -1.
       -1   -1    0    0    0  501  0.00000000000E+00  0.00000000000E+00 -0.64237956063E+02  0.64237956261E+02  0.50400001928E-02 0.  1.
    10030    2    1    2    0    0  0.00000000000E+00  0.00000000000E+00  0.17249483739E+04  0.18534242863E+04  0.67803738258E+03 0.  0.
        3    1    3    3  502    0 -0.13179955137E+03  0.12606951022E+03  0.16436519678E+04  0.16537401382E+04  0.10100000352E+00 0. -1.
       -3    1    3    3    0  502  0.13179955137E+03 -0.12606951022E+03  0.81296406135E+02  0.19968414809E+03  0.10100000352E+00 0.  1.
</event>
<event>
 5   0  0.4365492E-02  0.7473671E+03  0.7818609E-02  0.9639490E-01
        2   -1    0    0  501    0  0.00000000000E+00  0.00000000000E+00  0.49575911534E+03  0.49575911535E+03  0.25500000920E-02 0.  1.
       -2   -1    0    0    0  501  0.00000000000E+00  0.00000000000E+00 -0.28166781750E+03  0.28166781751E+03  0.25500000920E-02 0. -1.
    10030    2    1    2    0    0  0.00000000000E+00  0.00000000000E+00  0.21409129785E+03  0.77742693286E+03  0.74736707990E+03 0.  0.
        4    1    3    3  502    0  0.87467424750E+02 -0.36167310849E+03  0.14277519364E+03  0.39855282789E+03  0.12699999809E+01 0.  1.
       -4    1    3    3    0  502 -0.87467424750E+02  0.36167310849E+03  0.71316104210E+02  0.37887410497E+03  0.12699999809E+01 0. -1.
</event>
<event>
 5   0  0.2751729E-02  0.6995934E+03  0.7818609E-02  0.9717928E-01
        1   -1    0    0  501    0  0.00000000000E+00  0.00000000000E+00  0.66920640905E+03  0.66920640907E+03  0.50400001928E-02 0.  1.
       -1   -1    0    0    0  501  0.00000000000E+00  0.00000000000E+00 -0.18284004008E+03  0.18284004015E+03  0.50400001928E-02 0. -1.
    10030    2    1    2    0    0  0.00000000000E+00  0.00000000000E+00  0.48636636897E+03  0.85204644922E+03  0.69959338674E+03 0.  0.
        1    1    3    3  502    0 -0.17314851781E+03  0.27698050645E+03  0.90777486934E+02  0.33902678704E+03  0.50400001928E-02 0. -1.
       -1    1    3    3    0  502  0.17314851781E+03 -0.27698050645E+03  0.39558888203E+03  0.51301966218E+03  0.50400001928E-02 0.  1.
</event>
<event>
 5   0  0.2751729E-02  0.7003106E+03  0.7818609E-02  0.9716701E-01
        1   -1    0    0  501    0  0.00000000000E+00  0.00000000000E+00  0.16240940973E+04  0.16240940973E+04  0.50400001928E-02 0. -1.
       -1   -1    0    0    0  501  0.00000000000E+00  0.00000000000E+00 -0.75493612513E+02  0.75493612682E+02  0.50400001928E-02 0.  1.
    10030    2    1    2    0    0  0.00000000000E+00  0.00000000000E+00  0.15486004848E+04  0.16995877100E+04  0.70031059000E+03 0.  0.
        1    1    3    3  502    0  0.34300309056E+03 -0.21195706301E+02  0.93725303984E+03  0.99827032352E+03  0.50400001928E-02 0.  1.
       -1    1    3    3    0  502 -0.34300309056E+03  0.21195706301E+02  0.61134744495E+03  0.70131738648E+03  0.50400001928E-02 0. -1.
</event>
<event>
 5   0  0.4365492E-02  0.6984221E+03  0.7818609E-02  0.9719934E-01
       -2   -1    0    0    0  501  0.00000000000E+00  0.00000000000E+00  0.12677604500E+03  0.12677604502E+03  0.25500000920E-02 0. -1.
        2   -1    0    0  501    0  0.00000000000E+00  0.00000000000E+00 -0.96191948964E+03  0.96191948964E+03  0.25500000920E-02 0.  1.
    10030    2    1    2    0    0  0.00000000000E+00  0.00000000000E+00 -0.83514344464E+03  0.10886955347E+04  0.69842207445E+03 0.  0.
        4    1    3    3  502    0  0.74872605256E+02  0.18085509405E+03 -0.86836290213E+03  0.89015179309E+03  0.12699999809E+01 0.  1.
       -4    1    3    3    0  502 -0.74872605256E+02 -0.18085509405E+03  0.33219457490E+02  0.19854374157E+03  0.12699999809E+01 0. -1.
</event>
<event>
 5   0  0.4526837E-02  0.6933377E+03  0.7818609E-02  0.9728694E-01
       -2   -1    0    0    0  501  0.00000000000E+00  0.00000000000E+00  0.20343946301E+03  0.20343946303E+03  0.25500000920E-02 0.  1.
        2   -1    0    0  501    0  0.00000000000E+00  0.00000000000E+00 -0.59073738155E+03  0.59073738156E+03  0.25500000920E-02 0. -1.
    10030    2    1    2    0    0  0.00000000000E+00  0.00000000000E+00 -0.38729791854E+03  0.79417684459E+03  0.69333771192E+03 0.  0.
        1    1    3    3  502    0  0.12811387836E+03 -0.27543358691E+03 -0.23142701898E+01  0.30377982569E+03  0.50400001928E-02 0.  1.
       -1    1    3    3    0  502 -0.12811387836E+03  0.27543358691E+03 -0.38498364835E+03  0.49039701890E+03  0.50400001928E-02 0. -1.
</event>
<event>
 5   0  0.4365492E-02  0.6907537E+03  0.7818609E-02  0.9733177E-01
        2   -1    0    0  501    0  0.00000000000E+00  0.00000000000E+00  0.87698915764E+03  0.87698915764E+03  0.25500000920E-02 0. -1.
       -2   -1    0    0    0  501  0.00000000000E+00  0.00000000000E+00 -0.13601670563E+03  0.13601670566E+03  0.25500000920E-02 0.  1.
    10030    2    1    2    0    0  0.00000000000E+00  0.00000000000E+00  0.74097245201E+03  0.10130058633E+04  0.69075372199E+03 0.  0.
        4    1    3    3  502    0  0.61728129592E+02 -0.89053746341E+01 -0.12768672446E+03  0.14210974697E+03  0.12699999809E+01 0.  1.
       -4    1    3    3    0  502 -0.61728129592E+02  0.89053746341E+01  0.86865917647E+03  0.87089611633E+03  0.12699999809E+01 0. -1.
</event>
<event>
 5   0  0.4365492E-02  0.6996204E+03  0.7818609E-02  0.9717882E-01
        2   -1    0    0  501    0  0.00000000000E+00  0.00000000000E+00  0.57631870882E+03  0.57631870882E+03  0.25500000920E-02 0. -1.
       -2   -1    0    0    0  501  0.00000000000E+00  0.00000000000E+00 -0.21232551396E+03  0.21232551397E+03  0.25500000920E-02 0.  1.
    10030    2    1    2    0    0  0.00000000000E+00  0.00000000000E+00  0.36399319486E+03  0.78864422279E+03  0.69962037152E+03 0.  0.
        4    1    3    3  502    0  0.21923089624E+03 -0.39930308245E+02 -0.12196070353E+03  0.25403275673E+03  0.12699999809E+01 0.  1.
       -4    1    3    3    0  502 -0.21923089624E+03  0.39930308245E+02  0.48595389839E+03  0.53461146607E+03  0.12699999809E+01 0. -1.
</event>
<event>
 5   0  0.2751729E-02  0.6936085E+03  0.7818609E-02  0.9728225E-01
       -1   -1    0    0    0  501  0.00000000000E+00  0.00000000000E+00  0.13767685620E+03  0.13767685630E+03  0.50400001928E-02 0.  1.
        1   -1    0    0  501    0  0.00000000000E+00  0.00000000000E+00 -0.87359037847E+03  0.87359037848E+03  0.50400001928E-02 0. -1.
    10030    2    1    2    0    0  0.00000000000E+00  0.00000000000E+00 -0.73591352226E+03  0.10112672348E+04  0.69360846872E+03 0.  0.
        1    1    3    3  502    0 -0.20425223013E+03 -0.27793658207E+03 -0.42063524859E+03  0.54396850052E+03  0.50400001928E-02 0. -1.
       -1    1    3    3    0  502  0.20425223013E+03  0.27793658207E+03 -0.31527827367E+03  0.46729873426E+03  0.50400001928E-02 0.  1.
</event>
<event>
 5   0  0.2758681E-02  0.6944564E+03  0.7818609E-02  0.9726760E-01
        1   -1    0    0  501    0  0.00000000000E+00  0.00000000000E+00  0.22727142531E+04  0.22727142531E+04  0.50400001928E-02 0.  1.
       -1   -1    0    0    0  501  0.00000000000E+00  0.00000000000E+00 -0.53049974400E+02  0.53049974639E+02  0.50400001928E-02 0. -1.
    10030    2    1    2    0    0  0.00000000000E+00  0.00000000000E+00  0.22196642787E+04  0.23257642277E+04  0.69445642982E+03 0.  0.
        3    1    3    3  502    0 -0.33440210389E+03  0.79450679417E+02  0.12749316382E+04  0.13204498741E+04  0.10100000352E+00 0.  1.
       -3    1    3    3    0  502  0.33440210389E+03 -0.79450679417E+02  0.94473264044E+03  0.10053143537E+04  0.10100000352E+00 0. -1.
</event>
<event>
 5   0  0.4503289E-02  0.6967773E+03  0.7818609E-02  0.9722759E-01
       -2   -1    0    0    0  501  0.00000000000E+00  0.00000000000E+00  0.76481868518E+02  0.76481868561E+02  0.25500000920E-02 0.  1.
        2   -1    0    0  501    0  0.00000000000E+00  0.00000000000E+00 -0.15869730346E+04  0.15869730346E+04  0.25500000920E-02 0. -1.
    10030    2    1    2    0    0  0.00000000000E+00  0.00000000000E+00 -0.15104911661E+04  0.16634549032E+04  0.69677733320E+03 0.  0.
        2    1    3    3  502    0  0.30461254407E+03 -0.16877823058E+03 -0.77909164937E+03  0.85338074225E+03  0.25500000920E-02 0. -1.
       -2    1    3    3    0  502 -0.30461254407E+03  0.16877823058E+03 -0.73139951675E+03  0.81007416095E+03  0.25500000920E-02 0.  1.
</event>
<event>
 5   0  0.1784625E-02  0.7063929E+03  0.7818609E-02  0.9706362E-01
       -3   -1    0    0    0  501  0.00000000000E+00  0.00000000000E+00  0.17093518331E+03  0.17093521315E+03  0.10100000352E+00 0. -1.
        3   -1    0    0  501    0  0.00000000000E+00  0.00000000000E+00 -0.72979537238E+03  0.72979537937E+03  0.10100000352E+00 0.  1.
    10030    2    1    2    0    0  0.00000000000E+00  0.00000000000E+00 -0.55886018906E+03  0.90073059252E+03  0.70639287184E+03 0.  0.
        1    1    3    3  502    0 -0.14899204071E+03  0.15287840752E+02  0.12843736484E+03  0.19730307394E+03  0.50400001928E-02 0. -1.
       -1    1    3    3    0  502  0.14899204071E+03 -0.15287840752E+02 -0.68729755390E+03  0.70342751858E+03  0.50400001928E-02 0.  1.
</event>
<event>
 5   0  0.2750139E-02  0.6960143E+03  0.7818609E-02  0.9724073E-01
        1   -1    0    0  501    0  0.00000000000E+00  0.00000000000E+00  0.14395671749E+04  0.14395671749E+04  0.50400001928E-02 0. -1.
       -1   -1    0    0    0  501  0.00000000000E+00  0.00000000000E+00 -0.84128737249E+02  0.84128737400E+02  0.50400001928E-02 0.  1.
    10030    2    1    2    0    0  0.00000000000E+00  0.00000000000E+00  0.13554384377E+04  0.15236959123E+04  0.69601427782E+03 0.  0.
        2    1    3    3  502    0  0.58402592152E+02 -0.30724779581E+03  0.34357865415E+03  0.46460559875E+03  0.25500000920E-02 0.  1.
       -2    1    3    3    0  502 -0.58402592152E+02  0.30724779581E+03  0.10118597835E+04  0.10590903136E+04  0.25500000920E-02 0. -1.
</event>
<event>
 5   0  0.2750139E-02  0.6993645E+03  0.7818609E-02  0.9718320E-01
        1   -1    0    0  501    0  0.00000000000E+00  0.00000000000E+00  0.88016311617E+03  0.88016311619E+03  0.50400001928E-02 0. -1.
       -1   -1    0    0    0  501  0.00000000000E+00  0.00000000000E+00 -0.13892617198E+03  0.13892617207E+03  0.50400001928E-02 0.  1.
    10030    2    1    2    0    0  0.00000000000E+00  0.00000000000E+00  0.74123694419E+03  0.10190892883E+04  0.69936454730E+03 0.  0.
        2    1    3    3  502    0  0.21676177977E+03  0.13018482503E+03  0.72258914693E+03  0.76555132624E+03  0.25500000920E-02 0. -1.
       -2    1    3    3    0  502 -0.21676177977E+03 -0.13018482503E+03  0.18647797264E+02  0.25353796202E+03  0.25500000920E-02 0.  1.
</event>
<event>
 5   0  0.2684924E-02  0.7004468E+03  0.7818609E-02  0.9716468E-01
        1   -1    0    0  501    0  0.00000000000E+00  0.00000000000E+00  0.32463446557E+03  0.32463446561E+03  0.50400001928E-02 0. -1.
       -1   -1    0    0    0  501  0.00000000000E+00  0.00000000000E+00 -0.37782931182E+03  0.37782931185E+03  0.50400001928E-02 0.  1.
    10030    2    1    2    0    0  0.00000000000E+00  0.00000000000E+00 -0.53194846244E+02  0.70246377746E+03  0.70044676241E+03 0.  0.
        4    1    3    3  502    0 -0.28688272693E+03  0.18651181563E+03  0.48226049404E+02  0.34556579854E+03  0.12699999809E+01 0. -1.
       -4    1    3    3    0  502  0.28688272693E+03 -0.18651181563E+03 -0.10142089565E+03  0.35689797892E+03  0.12699999809E+01 0.  1.
</event>
<event>
 5   0  0.4503289E-02  0.6786151E+03  0.7818609E-02  0.9754519E-01
       -2   -1    0    0    0  501  0.00000000000E+00  0.00000000000E+00  0.38375879085E+03  0.38375879086E+03  0.25500000920E-02 0.  1.
        2   -1    0    0  501    0  0.00000000000E+00  0.00000000000E+00 -0.30000510764E+03  0.30000510765E+03  0.25500000920E-02 0. -1.
    10030    2    1    2    0    0  0.00000000000E+00  0.00000000000E+00  0.83753683218E+02  0.68376389851E+03  0.67861505248E+03 0.  0.
        2    1    3    3  502    0  0.19514801995E+03  0.10249792602E+03  0.30178949009E+03  0.37371843795E+03  0.25500000920E-02 0.  1.
       -2    1    3    3    0  502 -0.19514801995E+03 -0.10249792602E+03 -0.21803580687E+03  0.31004546056E+03  0.25500000920E-02 0. -1.
</event>
<event>
 5   0  0.2751729E-02  0.7819898E+03  0.7818609E-02  0.9586458E-01
        1   -1    0    0  501    0  0.00000000000E+00  0.00000000000E+00  0.22389892969E+03  0.22389892974E+03  0.50400001928E-02 0. -1.
       -1   -1    0    0    0  501  0.00000000000E+00  0.00000000000E+00 -0.68279470805E+03  0.68279470807E+03  0.50400001928E-02 0.  1.
    10030    2    1    2    0    0  0.00000000000E+00  0.00000000000E+00 -0.45889577836E+03  0.90669363781E+03  0.78198978091E+03 0.  0.
        1    1    3    3  502    0 -0.77315176445E+02 -0.38122757739E+03 -0.18358060016E+03  0.43013246687E+03  0.50400001928E-02 0. -1.
       -1    1    3    3    0  502  0.77315176445E+02  0.38122757739E+03 -0.27531517820E+03  0.47656117094E+03  0.50400001928E-02 0.  1.
</event>
<event>
 5   0  0.4503289E-02  0.5301068E+03  0.7818609E-02  0.1006206E+00
        2   -1    0    0  501    0  0.00000000000E+00  0.00000000000E+00  0.13376163078E+03  0.13376163081E+03  0.25500000920E-02 0.  1.
       -2   -1    0    0    0  501  0.00000000000E+00  0.00000000000E+00 -0.52521272050E+03  0.52521272051E+03  0.25500000920E-02 0. -1.
    10030    2    1    2    0    0  0.00000000000E+00  0.00000000000E+00 -0.39145108972E+03  0.65897435132E+03  0.53010681947E+03 0.  0.
        2    1    3    3  502    0  0.92028119890E+02  0.20873359726E+03 -0.27956126182E+02  0.22982696638E+03  0.25500000920E-02 0.  1.
       -2    1    3    3    0  502 -0.92028119890E+02 -0.20873359726E+03 -0.36349496354E+03  0.42914738494E+03  0.25500000920E-02 0. -1.
</event>
<event>
 5   0  0.4503289E-02  0.6971262E+03  0.7818609E-02  0.9722159E-01
       -2   -1    0    0    0  501  0.00000000000E+00  0.00000000000E+00  0.25382275922E+03  0.25382275923E+03  0.25500000920E-02 0.  1.
        2   -1    0    0  501    0  0.00000000000E+00  0.00000000000E+00 -0.47866562260E+03  0.47866562261E+03  0.25500000920E-02 0. -1.
    10030    2    1    2    0    0  0.00000000000E+00  0.00000000000E+00 -0.22484286338E+03  0.73248838184E+03  0.69712618392E+03 0.  0.
        2    1    3    3  502    0 -0.18815429341E+03  0.29200176945E+03 -0.14267717891E+03  0.37553142196E+03  0.25500000920E-02 0. -1.
       -2    1    3    3    0  502  0.18815429341E+03 -0.29200176945E+03 -0.82165684474E+02  0.35695695988E+03  0.25500000920E-02 0.  1.
</event>
<event>
 5   0  0.4503289E-02  0.7240343E+03  0.7818609E-02  0.9676991E-01
       -2   -1    0    0    0  501  0.00000000000E+00  0.00000000000E+00  0.80053942853E+02  0.80053942894E+02  0.25500000920E-02 0.  1.
        2   -1    0    0  501    0  0.00000000000E+00  0.00000000000E+00 -0.16371012030E+04  0.16371012030E+04  0.25500000920E-02 0. -1.
    10030    2    1    2    0    0  0.00000000000E+00  0.00000000000E+00 -0.15570472601E+04  0.17171551459E+04  0.72403427042E+03 0.  0.
        2    1    3    3  502    0 -0.84243384080E+02  0.15300245400E+03 -0.15305634183E+04  0.15404970224E+04  0.25500000920E-02 0. -1.
       -2    1    3    3    0  502  0.84243384080E+02 -0.15300245400E+03 -0.26483841819E+02  0.17665812343E+03  0.25500000920E-02 0.  1.
</event>
<event>
 5   0  0.4526837E-02  0.7308785E+03  0.7818609E-02  0.9665836E-01
        2   -1    0    0  501    0  0.00000000000E+00  0.00000000000E+00  0.95952728086E+03  0.95952728087E+03  0.25500000920E-02 0.  1.
       -2   -1    0    0    0  501  0.00000000000E+00  0.00000000000E+00 -0.13917877749E+03  0.13917877751E+03  0.25500000920E-02 0. -1.
    10030    2    1    2    0    0  0.00000000000E+00  0.00000000000E+00  0.82034850337E+03  0.10987060584E+04  0.73087846851E+03 0.  0.
        1    1    3    3  502    0  0.35789327732E+02 -0.23627815202E+03 -0.54394457657E+01  0.23903520388E+03  0.50400001928E-02 0. -1.
       -1    1    3    3    0  502 -0.35789327732E+02  0.23627815202E+03  0.82578794914E+03  0.85967085450E+03  0.50400001928E-02 0.  1.
</event>
<event>
 5   0  0.2750139E-02  0.6911543E+03  0.7818609E-02  0.9732480E-01
        1   -1    0    0  501    0  0.00000000000E+00  0.00000000000E+00  0.79152873342E+03  0.79152873344E+03  0.50400001928E-02 0.  1.
       -1   -1    0    0    0  501  0.00000000000E+00  0.00000000000E+00 -0.15087711347E+03  0.15087711356E+03  0.50400001928E-02 0. -1.
    10030    2    1    2    0    0  0.00000000000E+00  0.00000000000E+00  0.64065161995E+03  0.94240584700E+03  0.69115431150E+03 0.  0.
        2    1    3    3  502    0  0.15125604607E+03  0.28522993124E+03  0.15227969492E+03  0.35696443890E+03  0.25500000920E-02 0. -1.
       -2    1    3    3    0  502 -0.15125604607E+03 -0.28522993124E+03  0.48837192503E+03  0.58544140810E+03  0.25500000920E-02 0.  1.
</event>
<event>
 5   0  0.4365492E-02  0.6902049E+03  0.7818609E-02  0.9734131E-01
        2   -1    0    0  501    0  0.00000000000E+00  0.00000000000E+00  0.17088599393E+04  0.17088599393E+04  0.25500000920E-02 0. -1.
       -2   -1    0    0    0  501  0.00000000000E+00  0.00000000000E+00 -0.69693070171E+02  0.69693070217E+02  0.25500000920E-02 0.  1.
    10030    2    1    2    0    0  0.00000000000E+00  0.00000000000E+00  0.16391668692E+04  0.17785530096E+04  0.69020488467E+03 0.  0.
        4    1    3    3  502    0  0.29196844504E+03  0.17710781647E+03  0.94794386311E+03  0.10075772586E+04  0.12699999809E+01 0.  1.
       -4    1    3    3    0  502 -0.29196844504E+03 -0.17710781647E+03  0.69122300606E+03  0.77097575095E+03  0.12699999809E+01 0. -1.
</event>
<event>
 5   0  0.4420645E-02  0.6939282E+03  0.7818609E-02  0.9727672E-01
       -2   -1    0    0    0  501  0.00000000000E+00  0.00000000000E+00  0.42640786226E+03  0.42640786227E+03  0.25500000920E-02 0. -1.
        2   -1    0    0  501    0  0.00000000000E+00  0.00000000000E+00 -0.28232144877E+03  0.28232144878E+03  0.25500000920E-02 0.  1.
    10030    2    1    2    0    0  0.00000000000E+00  0.00000000000E+00  0.14408641349E+03  0.70872931105E+03  0.69392819642E+03 0.  0.
        5    1    3    3  502    0  0.22442374633E+03 -0.24713209952E+03 -0.24426229087E+02  0.33475218176E+03  0.46999998093E+01 0.  1.
       -5    1    3    3    0  502 -0.22442374633E+03  0.24713209952E+03  0.16851264258E+03  0.37397712929E+03  0.46999998093E+01 0. -1.
</event>
<event>
 5   0  0.2758681E-02  0.7000926E+03  0.7818609E-02  0.9717074E-01
        1   -1    0    0  501    0  0.00000000000E+00  0.00000000000E+00  0.87157717181E+03  0.87157717182E+03  0.50400001928E-02 0. -1.
       -1   -1    0    0    0  501  0.00000000000E+00  0.00000000000E+00 -0.14058697776E+03  0.14058697785E+03  0.50400001928E-02 0.  1.
    10030    2    1    2    0    0  0.00000000000E+00  0.00000000000E+00  0.73099019405E+03  0.10121641497E+04  0.70009256680E+03 0.  0.
        3    1    3    3  502    0 -0.10228558083E+03 -0.26194573086E+03  0.64116237829E+02  0.28842470094E+03  0.10100000352E+00 0.  1.
       -3    1    3    3    0  502  0.10228558083E+03  0.26194573086E+03  0.66687395622E+03  0.72373944873E+03  0.10100000352E+00 0. -1.
</event>
<event>
 5   0  0.4420645E-02  0.7218650E+03  0.7818609E-02  0.9680554E-01
        2   -1    0    0  501    0  0.00000000000E+00  0.00000000000E+00  0.73528290120E+03  0.73528290121E+03  0.25500000920E-02 0.  1.
       -2   -1    0    0    0  501  0.00000000000E+00  0.00000000000E+00 -0.17717298793E+03  0.17717298795E+03  0.25500000920E-02 0. -1.
    10030    2    1    2    0    0  0.00000000000E+00  0.00000000000E+00  0.55810991327E+03  0.91245588916E+03  0.72186499733E+03 0.  0.
        5    1    3    3  502    0  0.14414830091E+03  0.23552387920E+03 -0.14677925532E+02  0.27656420923E+03  0.46999998093E+01 0. -1.
       -5    1    3    3    0  502 -0.14414830091E+03 -0.23552387920E+03  0.57278783880E+03  0.63589167993E+03  0.46999998093E+01 0.  1.
</event>
<event>
 5   0  0.2758681E-02  0.6995925E+03  0.7818609E-02  0.9717929E-01
        1   -1    0    0  501    0  0.00000000000E+00  0.00000000000E+00  0.79132173906E+03  0.79132173908E+03  0.50400001928E-02 0.  1.
       -1   -1    0    0    0  501  0.00000000000E+00  0.00000000000E+00 -0.15462410101E+03  0.15462410109E+03  0.50400001928E-02 0. -1.
    10030    2    1    2    0    0  0.00000000000E+00  0.00000000000E+00  0.63669763806E+03  0.94594584017E+03  0.69959248868E+03 0.  0.
        3    1    3    3  502    0  0.26264918617E+03 -0.12791738702E+03  0.58224845300E+02  0.29788856256E+03  0.10100000352E+00 0. -1.
       -3    1    3    3    0  502 -0.26264918617E+03  0.12791738702E+03  0.57847279276E+03  0.64805727760E+03  0.10100000352E+00 0.  1.
</event>
<event>
 5   0  0.4420645E-02  0.7018372E+03  0.7818609E-02  0.9714096E-01
       -2   -1    0    0    0  501  0.00000000000E+00  0.00000000000E+00  0.32628571397E+03  0.32628571398E+03  0.25500000920E-02 0.  1.
        2   -1    0    0  501    0  0.00000000000E+00  0.00000000000E+00 -0.37741112621E+03  0.37741112622E+03  0.25500000920E-02 0. -1.
    10030    2    1    2    0    0  0.00000000000E+00  0.00000000000E+00 -0.51125412243E+02  0.70369684020E+03  0.70183718562E+03 0.  0.
        5    1    3    3  502    0  0.44851815022E+02 -0.22870450410E+03 -0.28856353759E+03  0.37095611699E+03  0.46999998093E+01 0. -1.
       -5    1    3    3    0  502 -0.44851815022E+02  0.22870450410E+03  0.23743812535E+03  0.33274072320E+03  0.46999998093E+01 0.  1.
</event>
<event>
 5   0  0.4503289E-02  0.6981933E+03  0.7818609E-02  0.9720327E-01
       -2   -1    0    0    0  501  0.00000000000E+00  0.00000000000E+00  0.94235057527E+02  0.94235057562E+02  0.25500000920E-02 0. -1.
        2   -1    0    0  501    0  0.00000000000E+00  0.00000000000E+00 -0.12932393732E+04  0.12932393732E+04  0.25500000920E-02 0.  1.
    10030    2    1    2    0    0  0.00000000000E+00  0.00000000000E+00 -0.11990043157E+04  0.13874744308E+04  0.69819334502E+03 0.  0.
        2    1    3    3  502    0 -0.24293421121E+03  0.11120669205E+03 -0.15299499409E+03  0.30788216506E+03  0.25500000920E-02 0. -1.
       -2    1    3    3    0  502  0.24293421121E+03 -0.11120669205E+03 -0.10460093216E+04  0.10795922657E+04  0.25500000920E-02 0.  1.
</event>
<event>
 5   0  0.2751729E-02  0.7050670E+03  0.7818609E-02  0.9708606E-01
        1   -1    0    0  501    0  0.00000000000E+00  0.00000000000E+00  0.33649577070E+03  0.33649577074E+03  0.50400001928E-02 0. -1.
       -1   -1    0    0    0  501  0.00000000000E+00  0.00000000000E+00 -0.36933564921E+03  0.36933564925E+03  0.50400001928E-02 0.  1.
    10030    2    1    2    0    0  0.00000000000E+00  0.00000000000E+00 -0.32839878510E+02  0.70583141998E+03  0.70506704349E+03 0.  0.
        1    1    3    3  502    0 -0.20206392861E+03  0.19536706192E+03 -0.22944575612E+03  0.36282705957E+03  0.50400001928E-02 0.  1.
       -1    1    3    3    0  502  0.20206392861E+03 -0.19536706192E+03  0.19660587761E+03  0.34300436042E+03  0.50400001928E-02 0. -1.
</event>
<event>
 5   0  0.2751729E-02  0.8913378E+03  0.7818609E-02  0.9436475E-01
        1   -1    0    0  501    0  0.00000000000E+00  0.00000000000E+00  0.12247250963E+04  0.12247250963E+04  0.50400001928E-02 0.  1.
       -1   -1    0    0    0  501  0.00000000000E+00  0.00000000000E+00 -0.16217579437E+03  0.16217579445E+03  0.50400001928E-02 0. -1.
    10030    2    1    2    0    0  0.00000000000E+00  0.00000000000E+00  0.10625493019E+04  0.13869008907E+04  0.89133779329E+03 0.  0.
        1    1    3    3  502    0 -0.30967505590E+03 -0.15895691371E+03  0.96431398243E+03  0.10252157809E+04  0.50400001928E-02 0.  1.
       -1    1    3    3    0  502  0.30967505590E+03  0.15895691371E+03  0.98235319468E+02  0.36168510984E+03  0.50400001928E-02 0. -1.
</event>
<event>
 5   0  0.4365492E-02  0.6153053E+03  0.7818609E-02  0.9874152E-01
        2   -1    0    0  501    0  0.00000000000E+00  0.00000000000E+00  0.68750593502E+03  0.68750593503E+03  0.25500000920E-02 0.  1.
       -2   -1    0    0    0  501  0.00000000000E+00  0.00000000000E+00 -0.13767174348E+03  0.13767174351E+03  0.25500000920E-02 0. -1.
    10030    2    1    2    0    0  0.00000000000E+00  0.00000000000E+00  0.54983419154E+03  0.82517767854E+03  0.61530525999E+03 0.  0.
        4    1    3    3  502    0  0.16979181138E+03 -0.12025432001E+03  0.57883872039E+03  0.61509855943E+03  0.12699999809E+01 0.  1.
       -4    1    3    3    0  502 -0.16979181138E+03  0.12025432001E+03 -0.29004528850E+02  0.21007911911E+03  0.12699999809E+01 0. -1.
</event>
<event>
 5   0  0.4365492E-02  0.7023612E+03  0.7818609E-02  0.9713203E-01
        2   -1    0    0  501    0  0.00000000000E+00  0.00000000000E+00  0.40485331479E+03  0.40485331480E+03  0.25500000920E-02 0.  1.
       -2   -1    0    0    0  501  0.00000000000E+00  0.00000000000E+00 -0.30462347768E+03  0.30462347769E+03  0.25500000920E-02 0. -1.
    10030    2    1    2    0    0  0.00000000000E+00  0.00000000000E+00  0.10022983712E+03  0.70947679249E+03  0.70236123102E+03 0.  0.
        4    1    3    3  502    0  0.29348085565E+02  0.51116986599E+02  0.39981861629E+03  0.40414204839E+03  0.12699999809E+01 0.  1.
       -4    1    3    3    0  502 -0.29348085565E+02 -0.51116986599E+02 -0.29958877918E+03  0.30533474410E+03  0.12699999809E+01 0. -1.
</event>
<event>
 5   0  0.4526837E-02  0.7056761E+03  0.7818609E-02  0.9707574E-01
        2   -1    0    0  501    0  0.00000000000E+00  0.00000000000E+00  0.36735918767E+03  0.36735918768E+03  0.25500000920E-02 0. -1.
       -2   -1    0    0    0  501  0.00000000000E+00  0.00000000000E+00 -0.33889086592E+03  0.33889086593E+03  0.25500000920E-02 0.  1.
    10030    2    1    2    0    0  0.00000000000E+00  0.00000000000E+00  0.28468321748E+02  0.70625005361E+03  0.70567605378E+03 0.  0.
        1    1    3    3  502    0  0.28220677933E+03 -0.12333423271E+03 -0.15807636259E+03  0.34617934036E+03  0.50400001928E-02 0.  1.
       -1    1    3    3    0  502 -0.28220677933E+03  0.12333423271E+03  0.18654468434E+03  0.36007071325E+03  0.50400001928E-02 0. -1.
</event>
<event>
 5   0  0.4420645E-02  0.7178919E+03  0.7818609E-02  0.9687115E-01
       -2   -1    0    0    0  501  0.00000000000E+00  0.00000000000E+00  0.11649707617E+03  0.11649707620E+03  0.25500000920E-02 0. -1.
        2   -1    0    0  501    0  0.00000000000E+00  0.00000000000E+00 -0.11059693949E+04  0.11059693949E+04  0.25500000920E-02 0.  1.
    10030    2    1    2    0    0  0.00000000000E+00  0.00000000000E+00 -0.98947231874E+03  0.12224664711E+04  0.71789191627E+03 0.  0.
        5    1    3    3  502    0  0.12869308459E+00  0.84171477995E+02  0.99400132205E+02  0.13033545393E+03  0.46999998093E+01 0. -1.
       -5    1    3    3    0  502 -0.12869308459E+00 -0.84171477995E+02 -0.10888724509E+04  0.10921310172E+04  0.46999998093E+01 0.  1.
</event>
<event>
 5   0  0.2758681E-02  0.6977633E+03  0.7818609E-02  0.9721065E-01
        1   -1    0    0  501    0  0.00000000000E+00  0.00000000000E+00  0.48381303351E+03  0.48381303354E+03  0.50400001928E-02 0. -1.
       -1   -1    0    0    0  501  0.00000000000E+00  0.00000000000E+00 -0.25158150499E+03  0.25158150504E+03  0.50400001928E-02 0.  1.
    10030    2    1    2    0    0  0.00000000000E+00  0.00000000000E+00  0.23223152852E+03  0.73539453858E+03  0.69776331556E+03 0.  0.
        3    1    3    3  502    0  0.11638558243E+03  0.29836269476E+03 -0.29740470193E+02  0.32163707372E+03  0.10100000352E+00 0. -1.
       -3    1    3    3    0  502 -0.11638558243E+03 -0.29836269476E+03  0.26197199872E+03  0.41375746487E+03  0.10100000352E+00 0.  1.
</event>
<event>
 5   0  0.2751729E-02  0.6998826E+03  0.7818609E-02  0.9717433E-01
       -1   -1    0    0    0  501  0.00000000000E+00  0.00000000000E+00  0.44317104496E+03  0.44317104499E+03  0.50400001928E-02 0. -1.
        1   -1    0    0  501    0  0.00000000000E+00  0.00000000000E+00 -0.27632423211E+03  0.27632423216E+03  0.50400001928E-02 0.  1.
    10030    2    1    2    0    0  0.00000000000E+00  0.00000000000E+00  0.16684681285E+03  0.71949527715E+03  0.69988255792E+03 0.  0.
        1    1    3    3  502    0  0.12664658714E+03  0.22811246799E+02 -0.25111739388E+03  0.28216955284E+03  0.50400001928E-02 0.  1.
       -1    1    3    3    0  502 -0.12664658714E+03 -0.22811246799E+02  0.41796420673E+03  0.43732572431E+03  0.50400001928E-02 0. -1.
</event>
<event>
 5   0  0.4503289E-02  0.6892671E+03  0.7818609E-02  0.9735765E-01
       -2   -1    0    0    0  501  0.00000000000E+00  0.00000000000E+00  0.16727770649E+03  0.16727770651E+03  0.25500000920E-02 0. -1.
        2   -1    0    0  501    0  0.00000000000E+00  0.00000000000E+00 -0.71003053342E+03  0.71003053342E+03  0.25500000920E-02 0.  1.
    10030    2    1    2    0    0  0.00000000000E+00  0.00000000000E+00 -0.54275282692E+03  0.87730823993E+03  0.68926708664E+03 0.  0.
        2    1    3    3  502    0 -0.13290752710E+03 -0.72200612573E+02  0.12277447813E+03  0.19480993738E+03  0.25500000920E-02 0. -1.
       -2    1    3    3    0  502  0.13290752710E+03  0.72200612573E+02 -0.66552730505E+03  0.68249830255E+03  0.25500000920E-02 0.  1.
</event>
<event>
 5   0  0.2777999E-02  0.6991428E+03  0.7818609E-02  0.9718699E-01
        1   -1    0    0  501    0  0.00000000000E+00  0.00000000000E+00  0.68713974805E+03  0.68713974807E+03  0.50400001928E-02 0. -1.
       -1   -1    0    0    0  501  0.00000000000E+00  0.00000000000E+00 -0.17783889153E+03  0.17783889160E+03  0.50400001928E-02 0.  1.
    10030    2    1    2    0    0  0.00000000000E+00  0.00000000000E+00  0.50930085652E+03  0.86497863967E+03  0.69914282134E+03 0.  0.
        5    1    3    3  502    0  0.15281060249E+03  0.30664989756E+03  0.34030213127E+03  0.48292118451E+03  0.46999998093E+01 0. -1.
       -5    1    3    3    0  502 -0.15281060249E+03 -0.30664989756E+03  0.16899872525E+03  0.38205745516E+03  0.46999998093E+01 0.  1.
</event>
<event>
 5   0  0.2751729E-02  0.7105154E+03  0.7818609E-02  0.9699417E-01
       -1   -1    0    0    0  501  0.00000000000E+00  0.00000000000E+00  0.15623452373E+03  0.15623452382E+03  0.50400001928E-02 0.  1.
        1   -1    0    0  501    0  0.00000000000E+00  0.00000000000E+00 -0.80781133521E+03  0.80781133523E+03  0.50400001928E-02 0. -1.
    10030    2    1    2    0    0  0.00000000000E+00  0.00000000000E+00 -0.65157681148E+03  0.96404585904E+03  0.71051536020E+03 0.  0.
        1    1    3    3  502    0  0.24463063341E+03  0.21003497022E+03 -0.52817477693E+03  0.61881130446E+03  0.50400001928E-02 0. -1.
       -1    1    3    3    0  502 -0.24463063341E+03 -0.21003497022E+03 -0.12340203454E+03  0.34523455458E+03  0.50400001928E-02 0.  1.
</event>
<event>
 5   0  0.2750139E-02  0.6898844E+03  0.7818609E-02  0.9734689E-01
       -1   -1    0    0    0  501  0.00000000000E+00  0.00000000000E+00  0.15681034595E+03  0.15681034604E+03  0.50400001928E-02 0.  1.
        1   -1    0    0  501    0  0.00000000000E+00  0.00000000000E+00 -0.75878357830E+03  0.75878357832E+03  0.50400001928E-02 0. -1.
    10030    2    1    2    0    0  0.00000000000E+00  0.00000000000E+00 -0.60197323235E+03  0.91559392436E+03  0.68988438296E+03 0.  0.
        2    1    3    3  502    0  0.14360328328E+03  0.72424155133E+02  0.10400245280E+03  0.19152981860E+03  0.25500000920E-02 0.  1.
       -2    1    3    3    0  502 -0.14360328328E+03 -0.72424155133E+02 -0.70597568515E+03  0.72406410576E+03  0.25500000920E-02 0. -1.
</event>
<event>
 5   0  0.4503289E-02  0.7219528E+03  0.7818609E-02  0.9680409E-01
        2   -1    0    0  501    0  0.00000000000E+00  0.00000000000E+00  0.15136979183E+04  0.15136979183E+04  0.25500000920E-02 0. -1.
       -2   -1    0    0    0  501  0.00000000000E+00  0.00000000000E+00 -0.86083204848E+02  0.86083204886E+02  0.25500000920E-02 0.  1.
    10030    2    1    2    0    0  0.00000000000E+00  0.00000000000E+00  0.14276147134E+04  0.15997811232E+04  0.72195281843E+03 0.  0.
        2    1    3    3  502    0 -0.19949378807E+03 -0.17466060559E+03  0.12565911905E+04  0.12842606896E+04  0.25500000920E-02 0.  1.
       -2    1    3    3    0  502  0.19949378807E+03  0.17466060559E+03  0.17102352288E+03  0.31552043359E+03  0.25500000920E-02 0. -1.
</event>
<event>
 5   0  0.4299912E-02  0.6775860E+03  0.7818609E-02  0.9756350E-01
       -2   -1    0    0    0  501  0.00000000000E+00  0.00000000000E+00  0.19358761462E+03  0.19358761463E+03  0.25500000920E-02 0.  1.
        2   -1    0    0  501    0  0.00000000000E+00  0.00000000000E+00 -0.59291351747E+03  0.59291351747E+03  0.25500000920E-02 0. -1.
    10030    2    1    2    0    0  0.00000000000E+00  0.00000000000E+00 -0.39932590285E+03  0.78650113211E+03  0.67758604923E+03 0.  0.
        3    1    3    3  502    0  0.26162019606E+03  0.18840692718E+03 -0.32050486856E+03  0.45460496936E+03  0.10100000352E+00 0. -1.
       -3    1    3    3    0  502 -0.26162019606E+03 -0.18840692718E+03 -0.78821034294E+02  0.33189616275E+03  0.10100000352E+00 0.  1.
</event>
<event>
 5   0  0.2777999E-02  0.7023894E+03  0.7818609E-02  0.9713155E-01
        1   -1    0    0  501    0  0.00000000000E+00  0.00000000000E+00  0.57747448947E+03  0.57747448949E+03  0.50400001928E-02 0. -1.
       -1   -1    0    0    0  501  0.00000000000E+00  0.00000000000E+00 -0.21358123225E+03  0.21358123231E+03  0.50400001928E-02 0.  1.
    10030    2    1    2    0    0  0.00000000000E+00  0.00000000000E+00  0.36389325723E+03  0.79105572180E+03  0.70238938798E+03 0.  0.
        5    1    3    3  502    0 -0.31476475413E+03 -0.11520543462E+03  0.29988707568E+03  0.44978160341E+03  0.46999998093E+01 0. -1.
       -5    1    3    3    0  502  0.31476475413E+03  0.11520543462E+03  0.64006181549E+02  0.34127411839E+03  0.46999998093E+01 0.  1.
</event>
<event>
 5   0  0.2751729E-02  0.7050240E+03  0.7818609E-02  0.9708679E-01
        1   -1    0    0  501    0  0.00000000000E+00  0.00000000000E+00  0.95522922552E+03  0.95522922553E+03  0.50400001928E-02 0.  1.
       -1   -1    0    0    0  501  0.00000000000E+00  0.00000000000E+00 -0.13008888630E+03  0.13008888639E+03  0.50400001928E-02 0. -1.
    10030    2    1    2    0    0  0.00000000000E+00  0.00000000000E+00  0.82514033923E+03  0.10853181119E+04  0.70502398871E+03 0.  0.
        1    1    3    3  502    0 -0.24177039931E+03 -0.24777916118E+03  0.31025736177E+03  0.46487317546E+03  0.50400001928E-02 0. -1.
       -1    1    3    3    0  502  0.24177039931E+03  0.24777916118E+03  0.51488297745E+03  0.62044493647E+03  0.50400001928E-02 0.  1.
</event>
<event>
 5   0  0.2758681E-02  0.7008170E+03  0.7818609E-02  0.9715836E-01
       -1   -1    0    0    0  501  0.00000000000E+00  0.00000000000E+00  0.24970424040E+03  0.24970424045E+03  0.50400001928E-02 0. -1.
        1   -1    0    0  501    0  0.00000000000E+00  0.00000000000E+00 -0.49172619402E+03  0.49172619404E+03  0.50400001928E-02 0.  1.
    10030    2    1    2    0    0  0.00000000000E+00  0.00000000000E+00 -0.24202195362E+03  0.74143043449E+03  0.70081699691E+03 0.  0.
        3    1    3    3  502    0  0.18346651777E+03  0.28017352821E+03 -0.23008232715E+03  0.40631890987E+03  0.10100000352E+00 0.  1.
       -3    1    3    3    0  502 -0.18346651777E+03 -0.28017352821E+03 -0.11939626470E+02  0.33511152462E+03  0.10100000352E+00 0. -1.
</event>
<event>
 5   0  0.4420645E-02  0.7020388E+03  0.7818609E-02  0.9713752E-01
       -2   -1    0    0    0  501  0.00000000000E+00  0.00000000000E+00  0.10586405876E+03  0.10586405879E+03  0.25500000920E-02 0.  1.
        2   -1    0    0  501    0  0.00000000000E+00  0.00000000000E+00 -0.11638947976E+04  0.11638947976E+04  0.25500000920E-02 0. -1.
    10030    2    1    2    0    0  0.00000000000E+00  0.00000000000E+00 -0.10580307389E+04  0.12697588564E+04  0.70203882303E+03 0.  0.
        5    1    3    3  502    0 -0.87533302966E+02 -0.23894671036E+03 -0.91799036975E+02  0.27056748272E+03  0.46999998093E+01 0.  1.
       -5    1    3    3    0  502  0.87533302966E+02  0.23894671036E+03 -0.96623170188E+03  0.99919137368E+03  0.46999998093E+01 0. -1.
</event>
<event>
 5   0  0.2777999E-02  0.7034106E+03  0.7818609E-02  0.9711417E-01
       -1   -1    0    0    0  501  0.00000000000E+00  0.00000000000E+00  0.41843867133E+03  0.41843867136E+03  0.50400001928E-02 0. -1.
        1   -1    0    0  501    0  0.00000000000E+00  0.00000000000E+00 -0.29561467484E+03  0.29561467488E+03  0.50400001928E-02 0.  1.
    10030    2    1    2    0    0  0.00000000000E+00  0.00000000000E+00  0.12282399649E+03  0.71405334624E+03  0.70341058221E+03 0.  0.
        5    1    3    3  502    0  0.15712270926E+03 -0.21985945125E+03  0.28986997771E+03  0.39632362792E+03  0.46999998093E+01 0. -1.
       -5    1    3    3    0  502 -0.15712270926E+03  0.21985945125E+03 -0.16704598122E+03  0.31772971833E+03  0.46999998093E+01 0.  1.
</event>
<event>
 5   0  0.4503289E-02  0.6679991E+03  0.7818609E-02  0.9773579E-01
        2   -1    0    0  501    0  0.00000000000E+00  0.00000000000E+00  0.78503184914E+03  0.78503184915E+03  0.25500000920E-02 0.  1.
       -2   -1    0    0    0  501  0.00000000000E+00  0.00000000000E+00 -0.14210340741E+03  0.14210340743E+03  0.25500000920E-02 0. -1.
    10030    2    1    2    0    0  0.00000000000E+00  0.00000000000E+00  0.64292844174E+03  0.92713525657E+03  0.66799910388E+03 0.  0.
        2    1    3    3  502    0 -0.12961531318E+02 -0.32671198815E+03  0.41607757535E+03  0.52917792208E+03  0.25500000920E-02 0.  1.
       -2    1    3    3    0  502  0.12961531318E+02  0.32671198815E+03  0.22685086638E+03  0.39795733450E+03  0.25500000920E-02 0. -1.
</event>
<event>
 5   0  0.4503289E-02  0.6984408E+03  0.7818609E-02  0.9719902E-01
       -2   -1    0    0    0  501  0.00000000000E+00  0.00000000000E+00  0.10470005881E+04  0.10470005881E+04  0.25500000920E-02 0.  1.
        2   -1    0    0  501    0  0.00000000000E+00  0.00000000000E+00 -0.11648025581E+03  0.11648025584E+03  0.25500000920E-02 0. -1.
    10030    2    1    2    0    0  0.00000000000E+00  0.00000000000E+00  0.93052033232E+03  0.11634808440E+04  0.69844082458E+03 0.  0.
        2    1    3    3  502    0 -0.16417795429E+03 -0.98432499874E+02 -0.21296590987E+02  0.19260556197E+03  0.25500000920E-02 0. -1.
       -2    1    3    3    0  502  0.16417795429E+03  0.98432499874E+02  0.95181692331E+03  0.97087528201E+03  0.25500000920E-02 0.  1.
</event>
<event>
 5   0  0.4420645E-02  0.7207070E+03  0.7818609E-02  0.9682461E-01
        2   -1    0    0  501    0  0.00000000000E+00  0.00000000000E+00  0.25386402915E+03  0.25386402917E+03  0.25500000920E-02 0.  1.
       -2   -1    0    0    0  501  0.00000000000E+00  0.00000000000E+00 -0.51151254383E+03  0.51151254383E+03  0.25500000920E-02 0. -1.
    10030    2    1    2    0    0  0.00000000000E+00  0.00000000000E+00 -0.25764851467E+03  0.76537657300E+03  0.72070697331E+03 0.  0.
        5    1    3    3  502    0  0.34570211117E+03 -0.73988700800E+02 -0.20276941558E+03  0.40758042569E+03  0.46999998093E+01 0.  1.
       -5    1    3    3    0  502 -0.34570211117E+03  0.73988700800E+02 -0.54879099091E+02  0.35779614731E+03  0.46999998093E+01 0. -1.
</event>
<event>
 5   0  0.4526837E-02  0.6961184E+03  0.7818609E-02  0.9723893E-01
       -2   -1    0    0    0  501  0.00000000000E+00  0.00000000000E+00  0.87115881012E+02  0.87115881049E+02  0.25500000920E-02 0. -1.
        2   -1    0    0  501    0  0.00000000000E+00  0.00000000000E+00 -0.13906215674E+04  0.13906215674E+04  0.25500000920E-02 0.  1.
    10030    2    1    2    0    0  0.00000000000E+00  0.00000000000E+00 -0.13035056863E+04  0.14777374484E+04  0.69611844688E+03 0.  0.
        1    1    3    3  502    0  0.75982621287E+01  0.33541699592E+03 -0.45508566885E+03  0.56538947704E+03  0.50400001928E-02 0. -1.
       -1    1    3    3    0  502 -0.75982621287E+01 -0.33541699592E+03 -0.84842001750E+03  0.91234797136E+03  0.50400001928E-02 0.  1.
</event>
<event>
 5   0  0.4503289E-02  0.6946293E+03  0.7818609E-02  0.9726461E-01
        2   -1    0    0  501    0  0.00000000000E+00  0.00000000000E+00  0.51920307377E+03  0.51920307378E+03  0.25500000920E-02 0. -1.
       -2   -1    0    0    0  501  0.00000000000E+00  0.00000000000E+00 -0.23233197206E+03  0.23233197207E+03  0.25500000920E-02 0.  1.
    10030    2    1    2    0    0  0.00000000000E+00  0.00000000000E+00  0.28687110171E+03  0.75153504585E+03  0.69462932284E+03 0.  0.
        2    1    3    3  502    0  0.29480102590E+03  0.12423184469E+03 -0.28693193235E+01  0.31992097322E+03  0.25500000920E-02 0.  1.
       -2    1    3    3    0  502 -0.29480102590E+03 -0.12423184469E+03  0.28974042104E+03  0.43161407263E+03  0.25500000920E-02 0. -1.
</event>
<event>
 5   0  0.4526837E-02  0.7004019E+03  0.7818609E-02  0.9716545E-01
        2   -1    0    0  501    0  0.00000000000E+00  0.00000000000E+00  0.69880594495E+03  0.69880594495E+03  0.25500000920E-02 0.  1.
       -2   -1    0    0    0  501  0.00000000000E+00  0.00000000000E+00 -0.17550037441E+03  0.17550037443E+03  0.25500000920E-02 0. -1.
    10030    2    1    2    0    0  0.00000000000E+00  0.00000000000E+00  0.52330557054E+03  0.87430631938E+03  0.70040189888E+03 0.  0.
        1    1    3    3  502    0  0.26358291234E+03  0.14725555096E+03  0.48313430745E+03  0.56971827075E+03  0.50400001928E-02 0.  1.
       -1    1    3    3    0  502 -0.26358291234E+03 -0.14725555096E+03  0.40171263085E+02  0.30458804863E+03  0.50400001928E-02 0. -1.
</event>
<event>
 5   0  0.2750139E-02  0.6932392E+03  0.7818609E-02  0.9728864E-01
        1   -1    0    0  501    0  0.00000000000E+00  0.00000000000E+00  0.56942323902E+03  0.56942323904E+03  0.50400001928E-02 0. -1.
       -1   -1    0    0    0  501  0.00000000000E+00  0.00000000000E+00 -0.21099446859E+03  0.21099446865E+03  0.50400001928E-02 0.  1.
    10030    2    1    2    0    0  0.00000000000E+00  0.00000000000E+00  0.35842877043E+03  0.78041770768E+03  0.69323921917E+03 0.  0.
        2    1    3    3  502    0 -0.15148338400E+03 -0.29370875016E+03  0.61503720139E+02  0.33614692196E+03  0.25500000920E-02 0.  1.
       -2    1    3    3    0  502  0.15148338400E+03  0.29370875016E+03  0.29692505029E+03  0.44427078572E+03  0.25500000920E-02 0. -1.
</event>
<event>
 5   0  0.2684924E-02  0.7053481E+03  0.7818609E-02  0.9708130E-01
       -1   -1    0    0    0  501  0.00000000000E+00  0.00000000000E+00  0.16750460614E+03  0.16750460622E+03  0.50400001928E-02 0. -1.
        1   -1    0    0  501    0  0.00000000000E+00  0.00000000000E+00 -0.74254072412E+03  0.74254072414E+03  0.50400001928E-02 0.  1.
    10030    2    1    2    0    0  0.00000000000E+00  0.00000000000E+00 -0.57503611798E+03  0.91004533036E+03  0.70534811712E+03 0.  0.
        4    1    3    3  502    0  0.71964852828E+02  0.13493365506E+03  0.12249868958E+03  0.19594278032E+03  0.12699999809E+01 0. -1.
       -4    1    3    3    0  502 -0.71964852828E+02 -0.13493365506E+03 -0.69753480756E+03  0.71410255004E+03  0.12699999809E+01 0.  1.
</event>
<event>
 5   0  0.2684924E-02  0.6909075E+03  0.7818609E-02  0.9732909E-01
       -1   -1    0    0    0  501  0.00000000000E+00  0.00000000000E+00  0.17014884999E+03  0.17014885007E+03  0.50400001928E-02 0.  1.
        1   -1    0    0  501    0  0.00000000000E+00  0.00000000000E+00 -0.70137579973E+03  0.70137579975E+03  0.50400001928E-02 0. -1.
    10030    2    1    2    0    0  0.00000000000E+00  0.00000000000E+00 -0.53122694974E+03  0.87152464982E+03  0.69090747797E+03 0.  0.
        4    1    3    3  502    0 -0.99539878228E+02 -0.16119750442E+03  0.98768553325E+02  0.21365781712E+03  0.12699999809E+01 0.  1.
       -4    1    3    3    0  502  0.99539878228E+02  0.16119750442E+03 -0.62999550306E+03  0.65786683270E+03  0.12699999809E+01 0. -1.
</event>
<event>
 5   0  0.4365492E-02  0.6993169E+03  0.7818609E-02  0.9718401E-01
        2   -1    0    0  501    0  0.00000000000E+00  0.00000000000E+00  0.52531240738E+03  0.52531240738E+03  0.25500000920E-02 0. -1.
       -2   -1    0    0    0  501  0.00000000000E+00  0.00000000000E+00 -0.23273965029E+03  0.23273965030E+03  0.25500000920E-02 0.  1.
    10030    2    1    2    0    0  0.00000000000E+00  0.00000000000E+00  0.29257275709E+03  0.75805205769E+03  0.69931688381E+03 0.  0.
        4    1    3    3  502    0  0.26430155976E+03 -0.16557398693E+03  0.31764364566E+03  0.44516194600E+03  0.12699999809E+01 0. -1.
       -4    1    3    3    0  502 -0.26430155976E+03  0.16557398693E+03 -0.25070888567E+02  0.31289011169E+03  0.12699999809E+01 0.  1.
</event>
<event>
 5   0  0.2777999E-02  0.6900829E+03  0.7818609E-02  0.9734344E-01
       -1   -1    0    0    0  501  0.00000000000E+00  0.00000000000E+00  0.44633477084E+03  0.44633477087E+03  0.50400001928E-02 0.  1.
        1   -1    0    0  501    0  0.00000000000E+00  0.00000000000E+00 -0.26673609069E+03  0.26673609074E+03  0.50400001928E-02 0. -1.
    10030    2    1    2    0    0  0.00000000000E+00  0.00000000000E+00  0.17959868014E+03  0.71307086161E+03  0.69008287022E+03 0.  0.
        5    1    3    3  502    0  0.19544934729E+03 -0.14901636659E+03  0.33999140224E+03  0.41955043614E+03  0.46999998093E+01 0.  1.
       -5    1    3    3    0  502 -0.19544934729E+03  0.14901636659E+03 -0.16039272210E+03  0.29352042547E+03  0.46999998093E+01 0. -1.
</event>
<event>
 5   0  0.2750139E-02  0.7022886E+03  0.7818609E-02  0.9713326E-01
       -1   -1    0    0    0  501  0.00000000000E+00  0.00000000000E+00  0.11515154529E+03  0.11515154540E+03  0.50400001928E-02 0. -1.
        1   -1    0    0  501    0  0.00000000000E+00  0.00000000000E+00 -0.10707830660E+04  0.10707830660E+04  0.50400001928E-02 0.  1.
    10030    2    1    2    0    0  0.00000000000E+00  0.00000000000E+00 -0.95563152070E+03  0.11859346114E+04  0.70228861530E+03 0.  0.
        2    1    3    3  502    0  0.26176375560E+03 -0.60352257852E+02 -0.95938270161E+02  0.28524868179E+03  0.25500000920E-02 0. -1.
       -2    1    3    3    0  502 -0.26176375560E+03  0.60352257852E+02 -0.85969325054E+03  0.90068592961E+03  0.25500000920E-02 0.  1.
</event>
<event>
 5   0  0.2684924E-02  0.6932909E+03  0.7818609E-02  0.9728775E-01
       -1   -1    0    0    0  501  0.00000000000E+00  0.00000000000E+00  0.31007460846E+03  0.31007460850E+03  0.50400001928E-02 0. -1.
        1   -1    0    0  501    0  0.00000000000E+00  0.00000000000E+00 -0.38752950538E+03  0.38752950541E+03  0.50400001928E-02 0.  1.
    10030    2    1    2    0    0  0.00000000000E+00  0.00000000000E+00 -0.77454896925E+02  0.69760411391E+03  0.69329087596E+03 0.  0.
        4    1    3    3  502    0  0.31080286415E+03  0.56281269000E+02 -0.18242856511E+03  0.36475717384E+03  0.12699999809E+01 0.  1.
       -4    1    3    3    0  502 -0.31080286415E+03 -0.56281269000E+02  0.10497366818E+03  0.33284694007E+03  0.12699999809E+01 0. -1.
</event>
<event>
 5   0  0.2684924E-02  0.6997495E+03  0.7818609E-02  0.9717661E-01
        1   -1    0    0  501    0  0.00000000000E+00  0.00000000000E+00  0.53545835049E+03  0.53545835051E+03  0.50400001928E-02 0. -1.
       -1   -1    0    0    0  501  0.00000000000E+00  0.00000000000E+00 -0.22861225811E+03  0.22861225816E+03  0.50400001928E-02 0.  1.
    10030    2    1    2    0    0  0.00000000000E+00  0.00000000000E+00  0.30684609238E+03  0.76407060867E+03  0.69974950563E+03 0.  0.
        4    1    3    3  502    0  0.16753330756E+03  0.23214424426E+03  0.37303849224E+03  0.47023152689E+03  0.12699999809E+01 0. -1.
       -4    1    3    3    0  502 -0.16753330756E+03 -0.23214424426E+03 -0.66192399863E+02  0.29383908179E+03  0.12699999809E+01 0.  1.
</event>
<event>
 5   0  0.4299912E-02  0.6993440E+03  0.7818609E-02  0.9718355E-01
       -2   -1    0    0    0  501  0.00000000000E+00  0.00000000000E+00  0.71528529561E+02  0.71528529606E+02  0.25500000920E-02 0.  1.
        2   -1    0    0  501    0  0.00000000000E+00  0.00000000000E+00 -0.17093950412E+04  0.17093950412E+04  0.25500000920E-02 0. -1.
    10030    2    1    2    0    0  0.00000000000E+00  0.00000000000E+00 -0.16378665117E+04  0.17809235708E+04  0.69934401771E+03 0.  0.
        3    1    3    3  502    0  0.12303465998E+03 -0.69076758460E+02 -0.16336797088E+04  0.16397617288E+04  0.10100000352E+00 0. -1.
       -3    1    3    3    0  502 -0.12303465998E+03  0.69076758460E+02 -0.41868028330E+01  0.14116184199E+03  0.10100000352E+00 0.  1.
</event>
<event>
 5   0  0.2750139E-02  0.6584342E+03  0.7818609E-02  0.9791080E-01
        1   -1    0    0  501    0  0.00000000000E+00  0.00000000000E+00  0.15287870989E+03  0.15287870997E+03  0.50400001928E-02 0. -1.
       -1   -1    0    0    0  501  0.00000000000E+00  0.00000000000E+00 -0.70895359957E+03  0.70895359959E+03  0.50400001928E-02 0.  1.
    10030    2    1    2    0    0  0.00000000000E+00  0.00000000000E+00 -0.55607488968E+03  0.86183230956E+03  0.65843423883E+03 0.  0.
        2    1    3    3  502    0  0.59042639733E+02  0.27872549941E+02  0.14431939248E+03  0.15840138698E+03  0.25500000920E-02 0. -1.
       -2    1    3    3    0  502 -0.59042639733E+02 -0.27872549941E+02 -0.70039428216E+03  0.70343092258E+03  0.25500000920E-02 0.  1.
</event>
<event>
 5   0  0.4299912E-02  0.6993783E+03  0.7818609E-02  0.9718296E-01
       -2   -1    0    0    0  501  0.00000000000E+00  0.00000000000E+00  0.86361360083E+02  0.86361360121E+02  0.25500000920E-02 0. -1.
        2   -1    0    0  501    0  0.00000000000E+00  0.00000000000E+00 -0.14159401603E+04  0.14159401603E+04  0.25500000920E-02 0.  1.
    10030    2    1    2    0    0  0.00000000000E+00  0.00000000000E+00 -0.13295788002E+04  0.15023015205E+04  0.69937834703E+03 0.  0.
        3    1    3    3  502    0 -0.31269938762E+03 -0.16950219506E+02 -0.99904662437E+03  0.10469777385E+04  0.10100000352E+00 0.  1.
       -3    1    3    3    0  502  0.31269938762E+03  0.16950219506E+02 -0.33053217587E+03  0.45532378199E+03  0.10100000352E+00 0. -1.
</event>
<event>
 5   0  0.2777999E-02  0.7349147E+03  0.7818609E-02  0.9659319E-01
        1   -1    0    0  501    0  0.00000000000E+00  0.00000000000E+00  0.58058978559E+03  0.58058978561E+03  0.50400001928E-02 0.  1.
       -1   -1    0    0    0  501  0.00000000000E+00  0.00000000000E+00 -0.23256504754E+03  0.23256504759E+03  0.50400001928E-02 0. -1.
    10030    2    1    2    0    0  0.00000000000E+00  0.00000000000E+00  0.34802473806E+03  0.81315483320E+03  0.73491466475E+03 0.  0.
        5    1    3    3  502    0 -0.13115171634E+00  0.28778552387E+03  0.42676625629E+03  0.51475436128E+03  0.46999998093E+01 0.  1.
       -5    1    3    3    0  502  0.13115171634E+00 -0.28778552387E+03 -0.78741518239E+02  0.29840047192E+03  0.46999998093E+01 0. -1.
</event>
<event>
 5   0  0.4299912E-02  0.6948278E+03  0.7818609E-02  0.9726118E-01
       -2   -1    0    0    0  501  0.00000000000E+00  0.00000000000E+00  0.14575940397E+03  0.14575940399E+03  0.25500000920E-02 0.  1.
        2   -1    0    0  501    0  0.00000000000E+00  0.00000000000E+00 -0.82805239592E+03  0.82805239592E+03  0.25500000920E-02 0. -1.
    10030    2    1    2    0    0  0.00000000000E+00  0.00000000000E+00 -0.68229299195E+03  0.97381179991E+03  0.69482781665E+03 0.  0.
        3    1    3    3  502    0  0.57251945067E+02  0.21318273125E+03  0.34845735257E+02  0.22347012682E+03  0.10100000352E+00 0.  1.
       -3    1    3    3    0  502 -0.57251945067E+02 -0.21318273125E+03 -0.71713872720E+03  0.75034167309E+03  0.10100000352E+00 0. -1.
</event>
<event>
 5   0  0.2751729E-02  0.6857293E+03  0.7818609E-02  0.9741953E-01
       -1   -1    0    0    0  501  0.00000000000E+00  0.00000000000E+00  0.36301570610E+03  0.36301570613E+03  0.50400001928E-02 0.  1.
        1   -1    0    0  501    0  0.00000000000E+00  0.00000000000E+00 -0.32383222533E+03  0.32383222537E+03  0.50400001928E-02 0. -1.
    10030    2    1    2    0    0  0.00000000000E+00  0.00000000000E+00  0.39183480768E+02  0.68684793150E+03  0.68572934591E+03 0.  0.
        1    1    3    3  502    0  0.37762593319E+02  0.32476889691E+03  0.12298480176E+03  0.34932236021E+03  0.50400001928E-02 0.  1.
       -1    1    3    3    0  502 -0.37762593319E+02 -0.32476889691E+03 -0.83801320992E+02  0.33752557129E+03  0.50400001928E-02 0. -1.
</event>
<event>
 5   0  0.2777999E-02  0.6937888E+03  0.7818609E-02  0.9727913E-01
        1   -1    0    0  501    0  0.00000000000E+00  0.00000000000E+00  0.47185451820E+03  0.47185451822E+03  0.50400001928E-02 0. -1.
       -1   -1    0    0    0  501  0.00000000000E+00  0.00000000000E+00 -0.25502721119E+03  0.25502721124E+03  0.50400001928E-02 0.  1.
    10030    2    1    2    0    0  0.00000000000E+00  0.00000000000E+00  0.21682730701E+03  0.72688172946E+03  0.69378884941E+03 0.  0.
        5    1    3    3  502    0  0.28819416028E+03  0.13754018106E+03 -0.33473064870E+02  0.32111635196E+03  0.46999998093E+01 0.  1.
       -5    1    3    3    0  502 -0.28819416028E+03 -0.13754018106E+03  0.25030037188E+03  0.40576537751E+03  0.46999998093E+01 0. -1.
</event>
<event>
 5   0  0.4420645E-02  0.6982085E+03  0.7818609E-02  0.9720301E-01
        2   -1    0    0  501    0  0.00000000000E+00  0.00000000000E+00  0.74381229640E+03  0.74381229640E+03  0.25500000920E-02 0.  1.
       -2   -1    0    0    0  501  0.00000000000E+00  0.00000000000E+00 -0.16385017722E+03  0.16385017724E+03  0.25500000920E-02 0. -1.
    10030    2    1    2    0    0  0.00000000000E+00  0.00000000000E+00  0.57996211917E+03  0.90766247365E+03  0.69820849779E+03 0.  0.
        5    1    3    3  502    0  0.25740617738E+03  0.11223260781E+03  0.55954469086E+03  0.62607223982E+03  0.46999998093E+01 0.  1.
       -5    1    3    3    0  502 -0.25740617738E+03 -0.11223260781E+03  0.20417428312E+02  0.28159023382E+03  0.46999998093E+01 0. -1.
</event>
<event>
 5   0  0.2751729E-02  0.7102244E+03  0.7818609E-02  0.9699905E-01
        1   -1    0    0  501    0  0.00000000000E+00  0.00000000000E+00  0.51758674290E+03  0.51758674293E+03  0.50400001928E-02 0. -1.
       -1   -1    0    0    0  501  0.00000000000E+00  0.00000000000E+00 -0.24363967003E+03  0.24363967008E+03  0.50400001928E-02 0.  1.
    10030    2    1    2    0    0  0.00000000000E+00  0.00000000000E+00  0.27394707288E+03  0.76122641301E+03  0.71022436816E+03 0.  0.
        1    1    3    3  502    0 -0.70290572782E+02  0.16148645090E+03  0.46747746468E+03  0.49955361920E+03  0.50400001928E-02 0. -1.
       -1    1    3    3    0  502  0.70290572782E+02 -0.16148645090E+03 -0.19353039180E+03  0.26167279381E+03  0.50400001928E-02 0.  1.
</event>
<event>
 5   0  0.2750139E-02  0.7063621E+03  0.7818609E-02  0.9706414E-01
       -1   -1    0    0    0  501  0.00000000000E+00  0.00000000000E+00  0.75174326795E+03  0.75174326796E+03  0.50400001928E-02 0.  1.
        1   -1    0    0  501    0  0.00000000000E+00  0.00000000000E+00 -0.16593013915E+03  0.16593013923E+03  0.50400001928E-02 0. -1.
    10030    2    1    2    0    0  0.00000000000E+00  0.00000000000E+00  0.58581312879E+03  0.91767340719E+03  0.70636213121E+03 0.  0.
        2    1    3    3  502    0 -0.10303901294E+03 -0.31213321968E+03  0.12505562605E+03  0.35168607398E+03  0.25500000920E-02 0. -1.
       -2    1    3    3    0  502  0.10303901294E+03  0.31213321968E+03  0.46075750274E+03  0.56598733321E+03  0.25500000920E-02 0.  1.
</event>
<event>
 5   0  0.4503289E-02  0.6811042E+03  0.7818609E-02  0.9750103E-01
        2   -1    0    0  501    0  0.00000000000E+00  0.00000000000E+00  0.84295395100E+03  0.84295395100E+03  0.25500000920E-02 0. -1.
       -2   -1    0    0    0  501  0.00000000000E+00  0.00000000000E+00 -0.13758253955E+03  0.13758253957E+03  0.25500000920E-02 0.  1.
    10030    2    1    2    0    0  0.00000000000E+00  0.00000000000E+00  0.70537141145E+03  0.98053649058E+03  0.68110423671E+03 0.  0.
        2    1    3    3  502    0 -0.13256171911E+02 -0.20598776001E+02 -0.13631261917E+03  0.13849608593E+03  0.25500000920E-02 0.  1.
       -2    1    3    3    0  502  0.13256171911E+02  0.20598776001E+02  0.84168403062E+03  0.84204040465E+03  0.25500000920E-02 0. -1.
</event>
<event>
 5   0  0.4503289E-02  0.7034850E+03  0.7818609E-02  0.9711291E-01
        2   -1    0    0  501    0  0.00000000000E+00  0.00000000000E+00  0.27267536968E+03  0.27267536969E+03  0.25500000920E-02 0. -1.
       -2   -1    0    0    0  501  0.00000000000E+00  0.00000000000E+00 -0.45373658907E+03  0.45373658908E+03  0.25500000920E-02 0.  1.
    10030    2    1    2    0    0  0.00000000000E+00  0.00000000000E+00 -0.18106121939E+03  0.72641195878E+03  0.70348501667E+03 0.  0.
        2    1    3    3  502    0 -0.81602304296E+02  0.26813669641E+03 -0.30998116285E+03  0.41790494775E+03  0.25500000920E-02 0.  1.
       -2    1    3    3    0  502  0.81602304296E+02 -0.26813669641E+03  0.12891994346E+03  0.30850701103E+03  0.25500000920E-02 0. -1.
</event>
<event>
 5   0  0.4365492E-02  0.7026030E+03  0.7818609E-02  0.9712791E-01
       -2   -1    0    0    0  501  0.00000000000E+00  0.00000000000E+00  0.14075379965E+03  0.14075379967E+03  0.25500000920E-02 0.  1.
        2   -1    0    0  501    0  0.00000000000E+00  0.00000000000E+00 -0.87679872927E+03  0.87679872928E+03  0.25500000920E-02 0. -1.
    10030    2    1    2    0    0  0.00000000000E+00  0.00000000000E+00 -0.73604492962E+03  0.10175525290E+04  0.70260302501E+03 0.  0.
        4    1    3    3  502    0  0.18716177439E+03 -0.29729041689E+03 -0.36782805751E+03  0.50863564028E+03  0.12699999809E+01 0.  1.
       -4    1    3    3    0  502 -0.18716177439E+03  0.29729041689E+03 -0.36821687211E+03  0.50891688867E+03  0.12699999809E+01 0. -1.
</event>
<event>
 5   0  0.4526837E-02  0.7204483E+03  0.7818609E-02  0.9682888E-01
       -2   -1    0    0    0  501  0.00000000000E+00  0.00000000000E+00  0.11269605904E+03  0.11269605907E+03  0.25500000920E-02 0. -1.
        2   -1    0    0  501    0  0.00000000000E+00  0.00000000000E+00 -0.11514283671E+04  0.11514283671E+04  0.25500000920E-02 0.  1.
    10030    2    1    2    0    0  0.00000000000E+00  0.00000000000E+00 -0.10387323081E+04  0.12641244262E+04  0.72044830283E+03 0.  0.
        1    1    3    3  502    0 -0.20877149762E+03  0.19068947811E+03 -0.91098194703E+03  0.95385330272E+03  0.50400001928E-02 0.  1.
       -1    1    3    3    0  502  0.20877149762E+03 -0.19068947811E+03 -0.12775036105E+03  0.31027112347E+03  0.50400001928E-02 0. -1.
</event>
<event>
 5   0  0.4420645E-02  0.6990037E+03  0.7818609E-02  0.9718938E-01
       -2   -1    0    0    0  501  0.00000000000E+00  0.00000000000E+00  0.30805417297E+03  0.30805417298E+03  0.25500000920E-02 0.  1.
        2   -1    0    0  501    0  0.00000000000E+00  0.00000000000E+00 -0.39652618130E+03  0.39652618131E+03  0.25500000920E-02 0. -1.
    10030    2    1    2    0    0  0.00000000000E+00  0.00000000000E+00 -0.88472008328E+02  0.70458035429E+03  0.69900370485E+03 0.  0.
        5    1    3    3  502    0  0.91766437828E+02  0.91085236023E+02 -0.37149815557E+03  0.39338348837E+03  0.46999998093E+01 0. -1.
       -5    1    3    3    0  502 -0.91766437828E+02 -0.91085236023E+02  0.28302614724E+03  0.31119686591E+03  0.46999998093E+01 0.  1.
</event>
<event>
 5   0  0.4365492E-02  0.6944342E+03  0.7818609E-02  0.9726798E-01
        2   -1    0    0  501    0  0.00000000000E+00  0.00000000000E+00  0.49559032199E+03  0.49559032200E+03  0.25500000920E-02 0.  1.
       -2   -1    0    0    0  501  0.00000000000E+00  0.00000000000E+00 -0.24326489661E+03  0.24326489662E+03  0.25500000920E-02 0. -1.
    10030    2    1    2    0    0  0.00000000000E+00  0.00000000000E+00  0.25232542539E+03  0.73885521862E+03  0.69443424007E+03 0.  0.
        4    1    3    3  502    0 -0.32856697635E+03 -0.63824801085E+02  0.27906902602E+02  0.33587240329E+03  0.12699999809E+01 0.  1.
       -4    1    3    3    0  502  0.32856697635E+03  0.63824801085E+02  0.22441852279E+03  0.40298281533E+03  0.12699999809E+01 0. -1.
</event>
<event>
 5   0  0.4299912E-02  0.6385073E+03  0.7818609E-02  0.9828587E-01
        2   -1    0    0  501    0  0.00000000000E+00  0.00000000000E+00  0.74188257229E+03  0.74188257229E+03  0.25500000920E-02 0. -1.
       -2   -1    0    0    0  501  0.00000000000E+00  0.00000000000E+00 -0.13738413285E+03  0.13738413287E+03  0.25500000920E-02 0.  1.
    10030    2    1    2    0    0  0.00000000000E+00  0.00000000000E+00  0.60449843944E+03  0.87926670516E+03  0.63850730264E+03 0.  0.
        3    1    3    3  502    0 -0.26375534175E+03  0.12498143779E+02  0.54935411276E+03  0.60951869152E+03  0.10100000352E+00 0. -1.
       -3    1    3    3    0  502  0.26375534175E+03 -0.12498143779E+02  0.55144326682E+02  0.26974801365E+03  0.10100000352E+00 0.  1.
</event>
<event>
 5   0  0.2777999E-02  0.7168664E+03  0.7818609E-02  0.9688815E-01
        1   -1    0    0  501    0  0.00000000000E+00  0.00000000000E+00  0.55856851942E+03  0.55856851944E+03  0.50400001928E-02 0.  1.
       -1   -1    0    0    0  501  0.00000000000E+00  0.00000000000E+00 -0.23000643150E+03  0.23000643155E+03  0.50400001928E-02 0. -1.
    10030    2    1    2    0    0  0.00000000000E+00  0.00000000000E+00  0.32856208792E+03  0.78857495099E+03  0.71686638066E+03 0.  0.
        5    1    3    3  502    0  0.18416133806E+03 -0.18919635826E+03 -0.10232970541E+03  0.28320331746E+03  0.46999998093E+01 0. -1.
       -5    1    3    3    0  502 -0.18416133806E+03  0.18919635826E+03  0.43089179333E+03  0.50537163353E+03  0.46999998093E+01 0.  1.
</event>
<event>
 5   0  0.2777999E-02  0.6939566E+03  0.7818609E-02  0.9727623E-01
        1   -1    0    0  501    0  0.00000000000E+00  0.00000000000E+00  0.13477194223E+04  0.13477194224E+04  0.50400001928E-02 0.  1.
       -1   -1    0    0    0  501  0.00000000000E+00  0.00000000000E+00 -0.89331600124E+02  0.89331600267E+02  0.50400001928E-02 0. -1.
    10030    2    1    2    0    0  0.00000000000E+00  0.00000000000E+00  0.12583878222E+04  0.14370510226E+04  0.69395657681E+03 0.  0.
        5    1    3    3  502    0  0.51922158674E+02 -0.15151210475E+03  0.12665186390E+04  0.12766140299E+04  0.46999998093E+01 0.  1.
       -5    1    3    3    0  502 -0.51922158674E+02  0.15151210475E+03 -0.81308167874E+01  0.16043699270E+03  0.46999998093E+01 0. -1.
</event>
<event>
 5   0  0.2758681E-02  0.6932606E+03  0.7818609E-02  0.9728827E-01
       -1   -1    0    0    0  501  0.00000000000E+00  0.00000000000E+00  0.19655825038E+03  0.19655825044E+03  0.50400001928E-02 0. -1.
        1   -1    0    0  501    0  0.00000000000E+00  0.00000000000E+00 -0.61128219204E+03  0.61128219206E+03  0.50400001928E-02 0.  1.
    10030    2    1    2    0    0  0.00000000000E+00  0.00000000000E+00 -0.41472394167E+03  0.80784044251E+03  0.69326058070E+03 0.  0.
        3    1    3    3  502    0  0.92120592978E+02  0.18616044375E+02  0.18142819249E+03  0.20432562245E+03  0.10100000352E+00 0. -1.
       -3    1    3    3    0  502 -0.92120592978E+02 -0.18616044375E+02 -0.59615213416E+03  0.60351482005E+03  0.10100000352E+00 0.  1.
</event>
<event>
 5   0  0.1784625E-02  0.6966978E+03  0.7818609E-02  0.9722896E-01
       -3   -1    0    0    0  501  0.00000000000E+00  0.00000000000E+00  0.33403716740E+03  0.33403718266E+03  0.10100000352E+00 0. -1.
        3   -1    0    0  501    0  0.00000000000E+00  0.00000000000E+00 -0.36327382413E+03  0.36327383817E+03  0.10100000352E+00 0.  1.
    10030    2    1    2    0    0  0.00000000000E+00  0.00000000000E+00 -0.29236656736E+02  0.69731102084E+03  0.69669783815E+03 0.  0.
        5    1    3    3  502    0  0.87064398279E+02 -0.14459369526E+03  0.29034203381E+03  0.33586921971E+03  0.46999998093E+01 0. -1.
       -5    1    3    3    0  502 -0.87064398279E+02  0.14459369526E+03 -0.31957869054E+03  0.36144180113E+03  0.46999998093E+01 0.  1.
</event>
<event>
 5   0  0.4420645E-02  0.6914941E+03  0.7818609E-02  0.9731890E-01
        2   -1    0    0  501    0  0.00000000000E+00  0.00000000000E+00  0.10623344385E+03  0.10623344388E+03  0.25500000920E-02 0. -1.
       -2   -1    0    0    0  501  0.00000000000E+00  0.00000000000E+00 -0.11252673735E+04  0.11252673735E+04  0.25500000920E-02 0.  1.
    10030    2    1    2    0    0  0.00000000000E+00  0.00000000000E+00 -0.10190339296E+04  0.12315008173E+04  0.69149411668E+03 0.  0.
        5    1    3    3  502    0 -0.18249166058E+02 -0.34319442185E+03 -0.57623629311E+03  0.67095886517E+03  0.46999998093E+01 0. -1.
       -5    1    3    3    0  502  0.18249166058E+02  0.34319442185E+03 -0.44279763651E+03  0.56054195217E+03  0.46999998093E+01 0.  1.
</event>
<event>
 5   0  0.2684924E-02  0.7073071E+03  0.7818609E-02  0.9704817E-01
       -1   -1    0    0    0  501  0.00000000000E+00  0.00000000000E+00  0.21564027676E+03  0.21564027682E+03  0.50400001928E-02 0. -1.
        1   -1    0    0  501    0  0.00000000000E+00  0.00000000000E+00 -0.57999751759E+03  0.57999751761E+03  0.50400001928E-02 0.  1.
    10030    2    1    2    0    0  0.00000000000E+00  0.00000000000E+00 -0.36435724082E+03  0.79563779443E+03  0.70730707686E+03 0.  0.
        4    1    3    3  502    0  0.12655855943E+03  0.30921595913E+03 -0.51781258439E+02  0.33810425903E+03  0.12699999809E+01 0. -1.
       -4    1    3    3    0  502 -0.12655855943E+03 -0.30921595913E+03 -0.31257598239E+03  0.45753353540E+03  0.12699999809E+01 0.  1.
</event>
<event>
 5   0  0.4526837E-02  0.7251498E+03  0.7818609E-02  0.9675164E-01
       -2   -1    0    0    0  501  0.00000000000E+00  0.00000000000E+00  0.18030833473E+03  0.18030833475E+03  0.25500000920E-02 0. -1.
        2   -1    0    0  501    0  0.00000000000E+00  0.00000000000E+00 -0.72908743880E+03  0.72908743881E+03  0.25500000920E-02 0.  1.
    10030    2    1    2    0    0  0.00000000000E+00  0.00000000000E+00 -0.54877910407E+03  0.90939577356E+03  0.72514975550E+03 0.  0.
        1    1    3    3  502    0  0.26321677962E+03  0.21848701531E+03 -0.42509267492E+03  0.54564038636E+03  0.50400001928E-02 0.  1.
       -1    1    3    3    0  502 -0.26321677962E+03 -0.21848701531E+03 -0.12368642916E+03  0.36375538720E+03  0.50400001928E-02 0. -1.
</event>
<event>
 5   0  0.1784625E-02  0.8006531E+03  0.7818609E-02  0.9559072E-01
       -3   -1    0    0    0  501  0.00000000000E+00  0.00000000000E+00  0.76951075343E+03  0.76951076006E+03  0.10100000352E+00 0. -1.
        3   -1    0    0  501    0  0.00000000000E+00  0.00000000000E+00 -0.20826390152E+03  0.20826392601E+03  0.10100000352E+00 0.  1.
    10030    2    1    2    0    0  0.00000000000E+00  0.00000000000E+00  0.56124685191E+03  0.97777468607E+03  0.80065305092E+03 0.  0.
        4    1    3    3  502    0  0.38972010297E+03 -0.74642868063E+02  0.34531817502E+03  0.52602240571E+03  0.12699999809E+01 0.  1.
       -4    1    3    3    0  502 -0.38972010297E+03  0.74642868063E+02  0.21592867688E+03  0.45175228036E+03  0.12699999809E+01 0. -1.
</event>
<event>
 5   0  0.4503289E-02  0.5347583E+03  0.7818609E-02  0.1005085E+00
        2   -1    0    0  501    0  0.00000000000E+00  0.00000000000E+00  0.13340987713E+04  0.13340987713E+04  0.25500000920E-02 0. -1.
       -2   -1    0    0    0  501  0.00000000000E+00  0.00000000000E+00 -0.53587942179E+02  0.53587942240E+02  0.25500000920E-02 0.  1.
    10030    2    1    2    0    0  0.00000000000E+00  0.00000000000E+00  0.12805108291E+04  0.13876867135E+04  0.53475829254E+03 0.  0.
        2    1    3    3  502    0 -0.34381208181E+02  0.18275269844E+03  0.14170192728E+03  0.23379489401E+03  0.25500000920E-02 0.  1.
       -2    1    3    3    0  502  0.34381208181E+02 -0.18275269844E+03  0.11388089018E+04  0.11538918195E+04  0.25500000920E-02 0. -1.
</event>
<event>
 5   0  0.2777999E-02  0.6936817E+03  0.7818609E-02  0.9728099E-01
       -1   -1    0    0    0  501  0.00000000000E+00  0.00000000000E+00  0.10293276936E+03  0.10293276949E+03  0.50400001928E-02 0. -1.
        1   -1    0    0  501    0  0.00000000000E+00  0.00000000000E+00 -0.11687101928E+04  0.11687101928E+04  0.50400001928E-02 0.  1.
    10030    2    1    2    0    0  0.00000000000E+00  0.00000000000E+00 -0.10657774235E+04  0.12716429623E+04  0.69368170458E+03 0.  0.
        5    1    3    3  502    0  0.75681429952E+02 -0.20661180864E+03 -0.10243051407E+04  0.10476827905E+04  0.46999998093E+01 0.  1.
       -5    1    3    3    0  502 -0.75681429952E+02  0.20661180864E+03 -0.41472282756E+02  0.22396017179E+03  0.46999998093E+01 0. -1.
</event>
<event>
 5   0  0.4365492E-02  0.6289408E+03  0.7818609E-02  0.9847118E-01
        2   -1    0    0  501    0  0.00000000000E+00  0.00000000000E+00  0.12624512001E+04  0.12624512001E+04  0.25500000920E-02 0. -1.
       -2   -1    0    0    0  501  0.00000000000E+00  0.00000000000E+00 -0.78333044326E+02  0.78333044367E+02  0.25500000920E-02 0.  1.
    10030    2    1    2    0    0  0.00000000000E+00  0.00000000000E+00  0.11841181558E+04  0.13407842445E+04  0.62894084252E+03 0.  0.
        4    1    3    3  502    0  0.13576171305E+03  0.20161079217E+03  0.16670026438E+03  0.29473504253E+03  0.12699999809E+01 0.  1.
       -4    1    3    3    0  502 -0.13576171305E+03 -0.20161079217E+03  0.10174178914E+04  0.10460492020E+04  0.12699999809E+01 0. -1.
</event>
<event>
 5   0  0.4420645E-02  0.6955320E+03  0.7818609E-02  0.9724904E-01
       -2   -1    0    0    0  501  0.00000000000E+00  0.00000000000E+00  0.23893700101E+03  0.23893700102E+03  0.25500000920E-02 0.  1.
        2   -1    0    0  501    0  0.00000000000E+00  0.00000000000E+00 -0.50616355531E+03  0.50616355531E+03  0.25500000920E-02 0. -1.
    10030    2    1    2    0    0  0.00000000000E+00  0.00000000000E+00 -0.26722655430E+03  0.74510055633E+03  0.69553203213E+03 0.  0.
        5    1    3    3  502    0 -0.22456879651E+03 -0.64735460173E+02 -0.40944590227E+03  0.47147625715E+03  0.46999998093E+01 0. -1.
       -5    1    3    3    0  502  0.22456879651E+03  0.64735460173E+02  0.14221934797E+03  0.27362429919E+03  0.46999998093E+01 0.  1.
</event>
<event>
 5   0  0.2684924E-02  0.7030079E+03  0.7818609E-02  0.9712102E-01
        1   -1    0    0  501    0  0.00000000000E+00  0.00000000000E+00  0.15129607830E+04  0.15129607830E+04  0.50400001928E-02 0. -1.
       -1   -1    0    0    0  501  0.00000000000E+00  0.00000000000E+00 -0.81664385781E+02  0.81664385936E+02  0.50400001928E-02 0.  1.
    10030    2    1    2    0    0  0.00000000000E+00  0.00000000000E+00  0.14312963972E+04  0.15946251689E+04  0.70300786108E+03 0.  0.
        4    1    3    3  502    0 -0.30965347708E+02  0.13475428162E+03 -0.17384245197E+02  0.13936066179E+03  0.12699999809E+01 0.  1.
       -4    1    3    3    0  502  0.30965347708E+02 -0.13475428162E+03  0.14486806424E+04  0.14552645071E+04  0.12699999809E+01 0. -1.
</event>
<event>
 5   0  0.4299912E-02  0.6804690E+03  0.7818609E-02  0.9751228E-01
       -2   -1    0    0    0  501  0.00000000000E+00  0.00000000000E+00  0.55591467934E+03  0.55591467935E+03  0.25500000920E-02 0.  1.
        2   -1    0    0  501    0  0.00000000000E+00  0.00000000000E+00 -0.20823252589E+03  0.20823252591E+03  0.25500000920E-02 0. -1.
    10030    2    1    2    0    0  0.00000000000E+00  0.00000000000E+00  0.34768215345E+03  0.76414720526E+03  0.68046900846E+03 0.  0.
        3    1    3    3  502    0 -0.18227120110E+03 -0.12587020620E+03 -0.11616702742E+03  0.25012174640E+03  0.10100000352E+00 0. -1.
       -3    1    3    3    0  502  0.18227120110E+03  0.12587020620E+03  0.46384918087E+03  0.51402545886E+03  0.10100000352E+00 0.  1.
</event>
<event>
 5   0  0.2777999E-02  0.7004194E+03  0.7818609E-02  0.9716515E-01
       -1   -1    0    0    0  501  0.00000000000E+00  0.00000000000E+00  0.24640658651E+03  0.24640658656E+03  0.50400001928E-02 0.  1.
        1   -1    0    0  501    0  0.00000000000E+00  0.00000000000E+00 -0.49774166296E+03  0.49774166299E+03  0.50400001928E-02 0. -1.
    10030    2    1    2    0    0  0.00000000000E+00  0.00000000000E+00 -0.25133507645E+03  0.74414824954E+03  0.70041937198E+03 0.  0.
        5    1    3    3  502    0  0.33909078095E+01 -0.22931503642E+03  0.15548157089E+03  0.27711638903E+03  0.46999998093E+01 0.  1.
       -5    1    3    3    0  502 -0.33909078095E+01  0.22931503642E+03 -0.40681664734E+03  0.46703186052E+03  0.46999998093E+01 0. -1.
</event>
<event>
 5   0  0.2751729E-02  0.7024066E+03  0.7818609E-02  0.9713125E-01
        1   -1    0    0  501    0  0.00000000000E+00  0.00000000000E+00  0.23931758894E+03  0.23931758899E+03  0.50400001928E-02 0.  1.
       -1   -1    0    0    0  501  0.00000000000E+00  0.00000000000E+00 -0.51539783242E+03  0.51539783244E+03  0.50400001928E-02 0. -1.
    10030    2    1    2    0    0  0.00000000000E+00  0.00000000000E+00 -0.27608024348E+03  0.75471542143E+03  0.70240662476E+03 0.  0.
        1    1    3    3  502    0 -0.30545761500E+03  0.16825377970E+03 -0.18273187828E+03  0.39370627162E+03  0.50400001928E-02 0. -1.
       -1    1    3    3    0  502  0.30545761500E+03 -0.16825377970E+03 -0.93348365197E+02  0.36100914982E+03  0.50400001928E-02 0.  1.
</event>
<event>
 5   0  0.2758681E-02  0.6936408E+03  0.7818609E-02  0.9728170E-01
        1   -1    0    0  501    0  0.00000000000E+00  0.00000000000E+00  0.12731398316E+04  0.12731398316E+04  0.50400001928E-02 0.  1.
       -1   -1    0    0    0  501  0.00000000000E+00  0.00000000000E+00 -0.94478534551E+02  0.94478534685E+02  0.50400001928E-02 0. -1.
    10030    2    1    2    0    0  0.00000000000E+00  0.00000000000E+00  0.11786612971E+04  0.13676183663E+04  0.69364078792E+03 0.  0.
        3    1    3    3  502    0 -0.25620303497E+03 -0.10849808110E+03  0.99757477281E+03  0.10356482348E+04  0.10100000352E+00 0.  1.
       -3    1    3    3    0  502  0.25620303497E+03  0.10849808110E+03  0.18108652424E+03  0.33197013148E+03  0.10100000352E+00 0. -1.
</event>
<event>
 5   0  0.2684924E-02  0.6890180E+03  0.7818609E-02  0.9736199E-01
        1   -1    0    0  501    0  0.00000000000E+00  0.00000000000E+00  0.16729142360E+03  0.16729142368E+03  0.50400001928E-02 0. -1.
       -1   -1    0    0    0  501  0.00000000000E+00  0.00000000000E+00 -0.70945929453E+03  0.70945929454E+03  0.50400001928E-02 0.  1.
    10030    2    1    2    0    0  0.00000000000E+00  0.00000000000E+00 -0.54216787093E+03  0.87675071822E+03  0.68901801256E+03 0.  0.
        4    1    3    3  502    0 -0.12581188201E+03  0.73038503779E+02 -0.66845472669E+03  0.68410276072E+03  0.12699999809E+01 0.  1.
       -4    1    3    3    0  502  0.12581188201E+03 -0.73038503779E+02  0.12628685577E+03  0.19264795750E+03  0.12699999809E+01 0. -1.
</event>
<event>
 5   0  0.4299912E-02  0.5344906E+03  0.7818609E-02  0.1005149E+00
       -2   -1    0    0    0  501  0.00000000000E+00  0.00000000000E+00  0.10804874711E+03  0.10804874714E+03  0.25500000920E-02 0. -1.
        2   -1    0    0  501    0  0.00000000000E+00  0.00000000000E+00 -0.66099834701E+03  0.66099834702E+03  0.25500000920E-02 0.  1.
    10030    2    1    2    0    0  0.00000000000E+00  0.00000000000E+00 -0.55294959990E+03  0.76904709416E+03  0.53449057336E+03 0.  0.
        3    1    3    3  502    0 -0.64029401799E+02  0.34310863716E+01  0.96816467075E+02  0.11612482571E+03  0.10100000352E+00 0. -1.
       -3    1    3    3    0  502  0.64029401799E+02 -0.34310863716E+01 -0.64976606697E+03  0.65292226845E+03  0.10100000352E+00 0.  1.
</event>
<event>
 5   0  0.2777999E-02  0.6994368E+03  0.7818609E-02  0.9718196E-01
       -1   -1    0    0    0  501  0.00000000000E+00  0.00000000000E+00  0.18311368483E+03  0.18311368490E+03  0.50400001928E-02 0. -1.
        1   -1    0    0  501    0  0.00000000000E+00  0.00000000000E+00 -0.66790725216E+03  0.66790725218E+03  0.50400001928E-02 0.  1.
    10030    2    1    2    0    0  0.00000000000E+00  0.00000000000E+00 -0.48479356733E+03  0.85102093708E+03  0.69943679659E+03 0.  0.
        5    1    3    3  502    0 -0.13716343302E+02  0.12244328665E+03  0.15579038162E+03  0.19867870928E+03  0.46999998093E+01 0. -1.
       -5    1    3    3    0  502  0.13716343302E+02 -0.12244328665E+03 -0.64058394895E+03  0.65234222780E+03  0.46999998093E+01 0.  1.
</event>
<event>
 5   0  0.4299912E-02  0.7108322E+03  0.7818609E-02  0.9698885E-01
        2   -1    0    0  501    0  0.00000000000E+00  0.00000000000E+00  0.68935237045E+03  0.68935237046E+03  0.25500000920E-02 0.  1.
       -2   -1    0    0    0  501  0.00000000000E+00  0.00000000000E+00 -0.18324533471E+03  0.18324533473E+03  0.25500000920E-02 0. -1.
    10030    2    1    2    0    0  0.00000000000E+00  0.00000000000E+00  0.50610703574E+03  0.87259770518E+03  0.71083220486E+03 0.  0.
        3    1    3    3  502    0 -0.15479236453E+03  0.45514305632E+02  0.64180517372E+03  0.66177497637E+03  0.10100000352E+00 0.  1.
       -3    1    3    3    0  502  0.15479236453E+03 -0.45514305632E+02 -0.13569813798E+03  0.21082272882E+03  0.10100000352E+00 0. -1.
</event>
<event>
 5   0  0.4420645E-02  0.6939332E+03  0.7818609E-02  0.9727664E-01
        2   -1    0    0  501    0  0.00000000000E+00  0.00000000000E+00  0.15305331693E+04  0.15305331693E+04  0.25500000920E-02 0. -1.
       -2   -1    0    0    0  501  0.00000000000E+00  0.00000000000E+00 -0.78656135491E+02  0.78656135532E+02  0.25500000920E-02 0.  1.
    10030    2    1    2    0    0  0.00000000000E+00  0.00000000000E+00  0.14518770338E+04  0.16091893048E+04  0.69393320824E+03 0.  0.
        5    1    3    3  502    0  0.16604097234E+02  0.33286313569E+03  0.50242626938E+03  0.60293267394E+03  0.46999998093E+01 0. -1.
       -5    1    3    3    0  502 -0.16604097234E+02 -0.33286313569E+03  0.94945076444E+03  0.10062566309E+04  0.46999998093E+01 0.  1.
</event>
<event>
 5   0  0.2750139E-02  0.7054994E+03  0.7818609E-02  0.9707873E-01
       -1   -1    0    0    0  501  0.00000000000E+00  0.00000000000E+00  0.23749629658E+03  0.23749629663E+03  0.50400001928E-02 0.  1.
        1   -1    0    0  501    0  0.00000000000E+00  0.00000000000E+00 -0.52393381107E+03  0.52393381109E+03  0.50400001928E-02 0. -1.
    10030    2    1    2    0    0  0.00000000000E+00  0.00000000000E+00 -0.28643751449E+03  0.76143010773E+03  0.70549936871E+03 0.  0.
        2    1    3    3  502    0 -0.27586016737E+02  0.54291598543E+02  0.23177999034E+03  0.23964667726E+03  0.25500000920E-02 0.  1.
       -2    1    3    3    0  502  0.27586016737E+02 -0.54291598543E+02 -0.51821750483E+03  0.52178343047E+03  0.25500000920E-02 0. -1.
</event>
<event>
 5   0  0.2684924E-02  0.6979395E+03  0.7818609E-02  0.9720762E-01
        1   -1    0    0  501    0  0.00000000000E+00  0.00000000000E+00  0.33342960834E+03  0.33342960838E+03  0.50400001928E-02 0.  1.
       -1   -1    0    0    0  501  0.00000000000E+00  0.00000000000E+00 -0.36523421592E+03  0.36523421596E+03  0.50400001928E-02 0. -1.
    10030    2    1    2    0    0  0.00000000000E+00  0.00000000000E+00 -0.31804607579E+02  0.69866382434E+03  0.69793954350E+03 0.  0.
        4    1    3    3  502    0  0.30445542802E+03  0.16685013537E+03 -0.51240685338E+02  0.35094058764E+03  0.12699999809E+01 0. -1.
       -4    1    3    3    0  502 -0.30445542802E+03 -0.16685013537E+03  0.19436077759E+02  0.34772323670E+03  0.12699999809E+01 0.  1.
</event>
<event>
 5   0  0.4503289E-02  0.6738083E+03  0.7818609E-02  0.9763102E-01
       -2   -1    0    0    0  501  0.00000000000E+00  0.00000000000E+00  0.40400576902E+03  0.40400576903E+03  0.25500000920E-02 0. -1.
        2   -1    0    0  501    0  0.00000000000E+00  0.00000000000E+00 -0.28094752085E+03  0.28094752086E+03  0.25500000920E-02 0.  1.
    10030    2    1    2    0    0  0.00000000000E+00  0.00000000000E+00  0.12305824817E+03  0.68495328989E+03  0.67380833839E+03 0.  0.
        2    1    3    3  502    0 -0.33098938214E+03  0.43745548631E+02  0.10740624057E+03  0.35071889689E+03  0.25500000920E-02 0. -1.
       -2    1    3    3    0  502  0.33098938214E+03 -0.43745548631E+02  0.15652007598E+02  0.33423439300E+03  0.25500000920E-02 0.  1.
</event>
<event>
 5   0  0.4299912E-02  0.6043304E+03  0.7818609E-02  0.9896462E-01
        2   -1    0    0  501    0  0.00000000000E+00  0.00000000000E+00  0.44058754115E+03  0.44058754116E+03  0.25500000920E-02 0. -1.
       -2   -1    0    0    0  501  0.00000000000E+00  0.00000000000E+00 -0.20723192546E+03  0.20723192548E+03  0.25500000920E-02 0.  1.
    10030    2    1    2    0    0  0.00000000000E+00  0.00000000000E+00  0.23335561569E+03  0.64781946664E+03  0.60433038810E+03 0.  0.
        3    1    3    3  502    0 -0.11720523854E+03 -0.15210783221E+03  0.36676903880E+03  0.41399685818E+03  0.10100000352E+00 0. -1.
       -3    1    3    3    0  502  0.11720523854E+03  0.15210783221E+03 -0.13341342311E+03  0.23382260846E+03  0.10100000352E+00 0.  1.
</event>
<event>
 5   0  0.2751729E-02  0.6946096E+03  0.7818609E-02  0.9726495E-01
        1   -1    0    0  501    0  0.00000000000E+00  0.00000000000E+00  0.39460623256E+03  0.39460623260E+03  0.50400001928E-02 0.  1.
       -1   -1    0    0    0  501  0.00000000000E+00  0.00000000000E+00 -0.30567339661E+03  0.30567339665E+03  0.50400001928E-02 0. -1.
    10030    2    1    2    0    0  0.00000000000E+00  0.00000000000E+00  0.88932835956E+02  0.70027962924E+03  0.69460960965E+03 0.  0.
        1    1    3    3  502    0  0.77875760687E+02 -0.24137420564E+03  0.28366777305E+03  0.38051747232E+03  0.50400001928E-02 0.  1.
       -1    1    3    3    0  502 -0.77875760687E+02  0.24137420564E+03 -0.19473493709E+03  0.31976215692E+03  0.50400001928E-02 0. -1.
</event>
<event>
 5   0  0.4420645E-02  0.7071340E+03  0.7818609E-02  0.9705109E-01
        2   -1    0    0  501    0  0.00000000000E+00  0.00000000000E+00  0.60707323740E+03  0.60707323741E+03  0.25500000920E-02 0. -1.
       -2   -1    0    0    0  501  0.00000000000E+00  0.00000000000E+00 -0.20592183676E+03  0.20592183677E+03  0.25500000920E-02 0.  1.
    10030    2    1    2    0    0  0.00000000000E+00  0.00000000000E+00  0.40115140065E+03  0.81299507418E+03  0.70713403567E+03 0.  0.
        5    1    3    3  502    0  0.27993593286E+03 -0.10986525800E+03 -0.13136508992E+02  0.30104677260E+03  0.46999998093E+01 0.  1.
       -5    1    3    3    0  502 -0.27993593286E+03  0.10986525800E+03  0.41428790964E+03  0.51194830158E+03  0.46999998093E+01 0. -1.
</event>
<event>
 5   0  0.2684924E-02  0.7242380E+03  0.7818609E-02  0.9676657E-01
        1   -1    0    0  501    0  0.00000000000E+00  0.00000000000E+00  0.45394422371E+03  0.45394422374E+03  0.50400001928E-02 0. -1.
       -1   -1    0    0    0  501  0.00000000000E+00  0.00000000000E+00 -0.28886849607E+03  0.28886849612E+03  0.50400001928E-02 0.  1.
    10030    2    1    2    0    0  0.00000000000E+00  0.00000000000E+00  0.16507572764E+03  0.74281271986E+03  0.72423804162E+03 0.  0.
        4    1    3    3  502    0  0.41965772132E+02 -0.11407472680E+03 -0.26731820355E+03  0.29365763088E+03  0.12699999809E+01 0.  1.
       -4    1    3    3    0  502 -0.41965772132E+02  0.11407472680E+03  0.43239393119E+03  0.44915508898E+03  0.12699999809E+01 0. -1.
</event>
<event>
 5   0  0.2777999E-02  0.6959175E+03  0.7818609E-02  0.9724239E-01
        1   -1    0    0  501    0  0.00000000000E+00  0.00000000000E+00  0.64975261180E+03  0.64975261182E+03  0.50400001928E-02 0. -1.
       -1   -1    0    0    0  501  0.00000000000E+00  0.00000000000E+00 -0.18634058658E+03  0.18634058664E+03  0.50400001928E-02 0.  1.
    10030    2    1    2    0    0  0.00000000000E+00  0.00000000000E+00  0.46341202522E+03  0.83609319846E+03  0.69591747456E+03 0.  0.
        5    1    3    3  502    0  0.52787828831E+02 -0.57718806703E+02 -0.17560245031E+03  0.19229229333E+03  0.46999998093E+01 0.  1.
       -5    1    3    3    0  502 -0.52787828831E+02  0.57718806703E+02  0.63901447553E+03  0.64380090514E+03  0.46999998093E+01 0. -1.
</event>
<event>
 5   0  0.4503289E-02  0.6165510E+03  0.7818609E-02  0.9871651E-01
       -2   -1    0    0    0  501  0.00000000000E+00  0.00000000000E+00  0.18248337069E+03  0.18248337070E+03  0.25500000920E-02 0. -1.
        2   -1    0    0  501    0  0.00000000000E+00  0.00000000000E+00 -0.52078055144E+03  0.52078055145E+03  0.25500000920E-02 0.  1.
    10030    2    1    2    0    0  0.00000000000E+00  0.00000000000E+00 -0.33829718076E+03  0.70326392216E+03  0.61655102116E+03 0.  0.
        2    1    3    3  502    0 -0.81729176658E+02  0.29695902595E+03 -0.15429968434E+03  0.34448906224E+03  0.25500000920E-02 0.  1.
       -2    1    3    3    0  502  0.81729176658E+02 -0.29695902595E+03 -0.18399749642E+03  0.35877485991E+03  0.25500000920E-02 0. -1.
</event>
<event>
 5   0  0.2751729E-02  0.7522580E+03  0.7818609E-02  0.9631815E-01
        1   -1    0    0  501    0  0.00000000000E+00  0.00000000000E+00  0.47219557888E+03  0.47219557891E+03  0.50400001928E-02 0. -1.
       -1   -1    0    0    0  501  0.00000000000E+00  0.00000000000E+00 -0.29960684040E+03  0.29960684044E+03  0.50400001928E-02 0.  1.
    10030    2    1    2    0    0  0.00000000000E+00  0.00000000000E+00  0.17258873848E+03  0.77180241935E+03  0.75225800219E+03 0.  0.
        1    1    3    3  502    0 -0.23564834488E+03 -0.26755141188E+03  0.20923722798E+03  0.41339341800E+03  0.50400001928E-02 0. -1.
       -1    1    3    3    0  502  0.23564834488E+03  0.26755141188E+03 -0.36648489503E+02  0.35840900135E+03  0.50400001928E-02 0.  1.
</event>
<event>
 5   0  0.2750139E-02  0.6993785E+03  0.7818609E-02  0.9718296E-01
        1   -1    0    0  501    0  0.00000000000E+00  0.00000000000E+00  0.38155753269E+03  0.38155753272E+03  0.50400001928E-02 0. -1.
       -1   -1    0    0    0  501  0.00000000000E+00  0.00000000000E+00 -0.32048265032E+03  0.32048265036E+03  0.50400001928E-02 0.  1.
    10030    2    1    2    0    0  0.00000000000E+00  0.00000000000E+00  0.61074882365E+02  0.70204018308E+03  0.69937849367E+03 0.  0.
        2    1    3    3  502    0  0.14526648649E+02  0.15053414008E+02 -0.31985396636E+03  0.32053734353E+03  0.25500000920E-02 0.  1.
       -2    1    3    3    0  502 -0.14526648649E+02 -0.15053414008E+02  0.38092884872E+03  0.38150283956E+03  0.25500000920E-02 0. -1.
</event>
<event>
 5   0  0.4420645E-02  0.7050135E+03  0.7818609E-02  0.9708697E-01
        2   -1    0    0  501    0  0.00000000000E+00  0.00000000000E+00  0.61527500938E+03  0.61527500938E+03  0.25500000920E-02 0. -1.
       -2   -1    0    0    0  501  0.00000000000E+00  0.00000000000E+00 -0.20196010644E+03  0.20196010646E+03  0.25500000920E-02 0.  1.
    10030    2    1    2    0    0  0.00000000000E+00  0.00000000000E+00  0.41331490294E+03  0.81723511584E+03  0.70501349318E+03 0.  0.
        5    1    3    3  502    0  0.92599805484E+02  0.30421882402E+03  0.38289460693E+03  0.49774912042E+03  0.46999998093E+01 0. -1.
       -5    1    3    3    0  502 -0.92599805484E+02 -0.30421882402E+03  0.30420296009E+02  0.31948599542E+03  0.46999998093E+01 0.  1.
</event>
<event>
 5   0  0.4365492E-02  0.6884063E+03  0.7818609E-02  0.9737267E-01
       -2   -1    0    0    0  501  0.00000000000E+00  0.00000000000E+00  0.70938737533E+02  0.70938737579E+02  0.25500000920E-02 0.  1.
        2   -1    0    0  501    0  0.00000000000E+00  0.00000000000E+00 -0.16701145463E+04  0.16701145463E+04  0.25500000920E-02 0. -1.
    10030    2    1    2    0    0  0.00000000000E+00  0.00000000000E+00 -0.15991758088E+04  0.17410532839E+04  0.68840632621E+03 0.  0.
        4    1    3    3  502    0  0.80967601939E+02  0.22554948843E+03 -0.14244661282E+04  0.14444838828E+04  0.12699999809E+01 0. -1.
       -4    1    3    3    0  502 -0.80967601939E+02 -0.22554948843E+03 -0.17470968059E+03  0.29656940113E+03  0.12699999809E+01 0.  1.
</event>
<event>
 5   0  0.2750139E-02  0.6894536E+03  0.7818609E-02  0.9735440E-01
       -1   -1    0    0    0  501  0.00000000000E+00  0.00000000000E+00  0.50701716783E+03  0.50701716785E+03  0.50400001928E-02 0. -1.
        1   -1    0    0  501    0  0.00000000000E+00  0.00000000000E+00 -0.23438369666E+03  0.23438369671E+03  0.50400001928E-02 0.  1.
    10030    2    1    2    0    0  0.00000000000E+00  0.00000000000E+00  0.27263347117E+03  0.74140086456E+03  0.68945357521E+03 0.  0.
        2    1    3    3  502    0  0.67027534578E+02 -0.21425771127E+03 -0.14499971622E+03  0.26725264254E+03  0.25500000920E-02 0.  1.
       -2    1    3    3    0  502 -0.67027534578E+02  0.21425771127E+03  0.41763318739E+03  0.47414822203E+03  0.25500000920E-02 0. -1.
</event>
<event>
 5   0  0.2758681E-02  0.7004727E+03  0.7818609E-02  0.9716424E-01
       -1   -1    0    0    0  501  0.00000000000E+00  0.00000000000E+00  0.18855225978E+03  0.18855225985E+03  0.50400001928E-02 0.  1.
        1   -1    0    0  501    0  0.00000000000E+00  0.00000000000E+00 -0.65056497538E+03  0.65056497540E+03  0.50400001928E-02 0. -1.
    10030    2    1    2    0    0  0.00000000000E+00  0.00000000000E+00 -0.46201271560E+03  0.83911723525E+03  0.70047268692E+03 0.  0.
        3    1    3    3  502    0  0.14937832996E+03 -0.42391584631E+02 -0.60707730550E+03  0.62662093563E+03  0.10100000352E+00 0. -1.
       -3    1    3    3    0  502 -0.14937832996E+03  0.42391584631E+02  0.14506458990E+03  0.21249629962E+03  0.10100000352E+00 0.  1.
</event>
<event>
 5   0  0.2750139E-02  0.6952234E+03  0.7818609E-02  0.9725436E-01
       -1   -1    0    0    0  501  0.00000000000E+00  0.00000000000E+00  0.29551311722E+03  0.29551311726E+03  0.50400001928E-02 0. -1.
        1   -1    0    0  501    0  0.00000000000E+00  0.00000000000E+00 -0.40889521206E+03  0.40889521209E+03  0.50400001928E-02 0.  1.
    10030    2    1    2    0    0  0.00000000000E+00  0.00000000000E+00 -0.11338209484E+03  0.70440832936E+03  0.69522341376E+03 0.  0.
        2    1    3    3  502    0 -0.73720845375E+02  0.28168649885E+03 -0.24907280276E+03  0.38317007681E+03  0.25500000920E-02 0.  1.
       -2    1    3    3    0  502  0.73720845375E+02 -0.28168649885E+03  0.13569070792E+03  0.32123825255E+03  0.25500000920E-02 0. -1.
</event>
<event>
 5   0  0.4299912E-02  0.7240682E+03  0.7818609E-02  0.9676935E-01
       -2   -1    0    0    0  501  0.00000000000E+00  0.00000000000E+00  0.27930370396E+03  0.27930370397E+03  0.25500000920E-02 0. -1.
        2   -1    0    0  501    0  0.00000000000E+00  0.00000000000E+00 -0.46926948943E+03  0.46926948944E+03  0.25500000920E-02 0.  1.
    10030    2    1    2    0    0  0.00000000000E+00  0.00000000000E+00 -0.18996578547E+03  0.74857319341E+03  0.72406824695E+03 0.  0.
        3    1    3    3  502    0  0.24931790743E+03 -0.40950232017E+02 -0.36305025019E+03  0.44231418114E+03  0.10100000352E+00 0.  1.
       -3    1    3    3    0  502 -0.24931790743E+03  0.40950232017E+02  0.17308446472E+03  0.30625901227E+03  0.10100000352E+00 0. -1.
</event>
<event>
 5   0  0.2777999E-02  0.6926142E+03  0.7818609E-02  0.9729947E-01
       -1   -1    0    0    0  501  0.00000000000E+00  0.00000000000E+00  0.24616701267E+03  0.24616701272E+03  0.50400001928E-02 0. -1.
        1   -1    0    0  501    0  0.00000000000E+00  0.00000000000E+00 -0.48718388511E+03  0.48718388514E+03  0.50400001928E-02 0.  1.
    10030    2    1    2    0    0  0.00000000000E+00  0.00000000000E+00 -0.24101687244E+03  0.73335089786E+03  0.69261418307E+03 0.  0.
        5    1    3    3  502    0  0.32367840430E+03 -0.12075416765E+03 -0.14550261960E+03  0.37488982478E+03  0.46999998093E+01 0. -1.
       -5    1    3    3    0  502 -0.32367840430E+03  0.12075416765E+03 -0.95514252840E+02  0.35846107308E+03  0.46999998093E+01 0.  1.
</event>
<event>
 5   0  0.2684924E-02  0.6976530E+03  0.7818609E-02  0.9721254E-01
        1   -1    0    0  501    0  0.00000000000E+00  0.00000000000E+00  0.81029283784E+03  0.81029283785E+03  0.50400001928E-02 0.  1.
       -1   -1    0    0    0  501  0.00000000000E+00  0.00000000000E+00 -0.15016784512E+03  0.15016784520E+03  0.50400001928E-02 0. -1.
    10030    2    1    2    0    0  0.00000000000E+00  0.00000000000E+00  0.66012499272E+03  0.96046068305E+03  0.69765300664E+03 0.  0.
        4    1    3    3  502    0 -0.13895606465E+03  0.31992382879E+03  0.32417761376E+03  0.47618565948E+03  0.12699999809E+01 0.  1.
       -4    1    3    3    0  502  0.13895606465E+03 -0.31992382879E+03  0.33594737896E+03  0.48427502357E+03  0.12699999809E+01 0. -1.
</event>
<event>
 5   0  0.2751729E-02  0.7021219E+03  0.7818609E-02  0.9713610E-01
        1   -1    0    0  501    0  0.00000000000E+00  0.00000000000E+00  0.79943328324E+03  0.79943328326E+03  0.50400001928E-02 0. -1.
       -1   -1    0    0    0  501  0.00000000000E+00  0.00000000000E+00 -0.15416396346E+03  0.15416396354E+03  0.50400001928E-02 0.  1.
    10030    2    1    2    0    0  0.00000000000E+00  0.00000000000E+00  0.64526931978E+03  0.95359724680E+03  0.70212193674E+03 0.  0.
        1    1    3    3  502    0 -0.97177123540E+02 -0.13474032154E+03  0.74266882531E+03  0.76102255663E+03  0.50400001928E-02 0. -1.
       -1    1    3    3    0  502  0.97177123540E+02  0.13474032154E+03 -0.97399505530E+02  0.19257469016E+03  0.50400001928E-02 0.  1.
</event>
<event>
 5   0  0.4526837E-02  0.6941685E+03  0.7818609E-02  0.9727257E-01
       -2   -1    0    0    0  501  0.00000000000E+00  0.00000000000E+00  0.11839284978E+03  0.11839284981E+03  0.25500000920E-02 0.  1.
        2   -1    0    0  501    0  0.00000000000E+00  0.00000000000E+00 -0.10175231050E+04  0.10175231050E+04  0.25500000920E-02 0. -1.
    10030    2    1    2    0    0  0.00000000000E+00  0.00000000000E+00 -0.89913025526E+03  0.11359159549E+04  0.69416845260E+03 0.  0.
        1    1    3    3  502    0 -0.53954706762E+02 -0.24811371994E+03 -0.83678671819E+03  0.87446185747E+03  0.50400001928E-02 0. -1.
       -1    1    3    3    0  502  0.53954706762E+02  0.24811371994E+03 -0.62343537067E+02  0.26145409739E+03  0.50400001928E-02 0.  1.
</event>
<event>
 5   0  0.2751729E-02  0.6987997E+03  0.7818609E-02  0.9719287E-01
        1   -1    0    0  501    0  0.00000000000E+00  0.00000000000E+00  0.12922881211E+04  0.12922881211E+04  0.50400001928E-02 0. -1.
       -1   -1    0    0    0  501  0.00000000000E+00  0.00000000000E+00 -0.94468307590E+02  0.94468307725E+02  0.50400001928E-02 0.  1.
    10030    2    1    2    0    0  0.00000000000E+00  0.00000000000E+00  0.11978198135E+04  0.13867564288E+04  0.69879974763E+03 0.  0.
        1    1    3    3  502    0 -0.27767756429E+03 -0.21129329122E+03  0.63499189378E+03  0.72454426353E+03  0.50400001928E-02 0.  1.
       -1    1    3    3    0  502  0.27767756429E+03  0.21129329122E+03  0.56282791975E+03  0.66221216532E+03  0.50400001928E-02 0. -1.
</event>
<event>
 5   0  0.4299912E-02  0.6865281E+03  0.7818609E-02  0.9740552E-01
        2   -1    0    0  501    0  0.00000000000E+00  0.00000000000E+00  0.44659210232E+03  0.44659210232E+03  0.25500000920E-02 0. -1.
       -2   -1    0    0    0  501  0.00000000000E+00  0.00000000000E+00 -0.26384300047E+03  0.26384300048E+03  0.25500000920E-02 0.  1.
    10030    2    1    2    0    0  0.00000000000E+00  0.00000000000E+00  0.18274910185E+03  0.71043510280E+03  0.68652807741E+03 0.  0.
        3    1    3    3  502    0  0.28429026291E+03 -0.16627537991E+03 -0.87508501640E+01  0.32946174760E+03  0.10100000352E+00 0.  1.
       -3    1    3    3    0  502 -0.28429026291E+03  0.16627537991E+03  0.19149995202E+03  0.38097335520E+03  0.10100000352E+00 0. -1.
</event>
<event>
 5   0  0.4299912E-02  0.6985259E+03  0.7818609E-02  0.9719756E-01
       -2   -1    0    0    0  501  0.00000000000E+00  0.00000000000E+00  0.16927618428E+03  0.16927618430E+03  0.25500000920E-02 0. -1.
        2   -1    0    0  501    0  0.00000000000E+00  0.00000000000E+00 -0.72062477331E+03  0.72062477332E+03  0.25500000920E-02 0.  1.
    10030    2    1    2    0    0  0.00000000000E+00  0.00000000000E+00 -0.55134858903E+03  0.88990095762E+03  0.69852591058E+03 0.  0.
        3    1    3    3  502    0 -0.20408427394E+03  0.28107089944E+03 -0.32219356800E+03  0.47377204101E+03  0.10100000352E+00 0.  1.
       -3    1    3    3    0  502  0.20408427394E+03 -0.28107089944E+03 -0.22915502103E+03  0.41612891662E+03  0.10100000352E+00 0. -1.
</event>
<event>
 5   0  0.4365492E-02  0.7113078E+03  0.7818609E-02  0.9698087E-01
       -2   -1    0    0    0  501  0.00000000000E+00  0.00000000000E+00  0.15414019675E+03  0.15414019677E+03  0.25500000920E-02 0. -1.
        2   -1    0    0  501    0  0.00000000000E+00  0.00000000000E+00 -0.82061451757E+03  0.82061451758E+03  0.25500000920E-02 0.  1.
    10030    2    1    2    0    0  0.00000000000E+00  0.00000000000E+00 -0.66647432083E+03  0.97475471434E+03  0.71130776237E+03 0.  0.
        4    1    3    3  502    0 -0.14028761664E+03 -0.32673055430E+03 -0.32311126698E+03  0.48045392521E+03  0.12699999809E+01 0. -1.
       -4    1    3    3    0  502  0.14028761664E+03  0.32673055430E+03 -0.34336305385E+03  0.49430078914E+03  0.12699999809E+01 0.  1.
</event>
<event>
 5   0  0.2758681E-02  0.7000214E+03  0.7818609E-02  0.9717196E-01
        1   -1    0    0  501    0  0.00000000000E+00  0.00000000000E+00  0.35291245102E+03  0.35291245106E+03  0.50400001928E-02 0. -1.
       -1   -1    0    0    0  501  0.00000000000E+00  0.00000000000E+00 -0.34713285138E+03  0.34713285142E+03  0.50400001928E-02 0.  1.
    10030    2    1    2    0    0  0.00000000000E+00  0.00000000000E+00  0.57795996398E+01  0.70004530247E+03  0.70002144377E+03 0.  0.
        3    1    3    3  502    0  0.33330329582E+03  0.68980311479E+02  0.84489914539E+02  0.35069634477E+03  0.10100000352E+00 0. -1.
       -3    1    3    3    0  502 -0.33330329582E+03 -0.68980311479E+02 -0.78710314899E+02  0.34934895770E+03  0.10100000352E+00 0.  1.
</event>
<event>
 5   0  0.4365492E-02  0.7037020E+03  0.7818609E-02  0.9710922E-01
       -2   -1    0    0    0  501  0.00000000000E+00  0.00000000000E+00  0.11948625396E+03  0.11948625399E+03  0.25500000920E-02 0. -1.
        2   -1    0    0  501    0  0.00000000000E+00  0.00000000000E+00 -0.10360950815E+04  0.10360950815E+04  0.25500000920E-02 0.  1.
    10030    2    1    2    0    0  0.00000000000E+00  0.00000000000E+00 -0.91660882755E+03  0.11555813355E+04  0.70370198254E+03 0.  0.
        4    1    3    3  502    0 -0.63484508732E+02 -0.33675835162E+03 -0.32733324527E+03  0.47390414284E+03  0.12699999809E+01 0.  1.
       -4    1    3    3    0  502  0.63484508732E+02  0.33675835162E+03 -0.58927558228E+03  0.68167719267E+03  0.12699999809E+01 0. -1.
</event>
<event>
 5   0  0.2777999E-02  0.6922663E+03  0.7818609E-02  0.9730550E-01
       -1   -1    0    0    0  501  0.00000000000E+00  0.00000000000E+00  0.14073670595E+04  0.14073670596E+04  0.50400001928E-02 0. -1.
        1   -1    0    0  501    0  0.00000000000E+00  0.00000000000E+00 -0.85129277304E+02  0.85129277453E+02  0.50400001928E-02 0.  1.
    10030    2    1    2    0    0  0.00000000000E+00  0.00000000000E+00  0.13222377822E+04  0.14924963370E+04  0.69226625166E+03 0.  0.
        5    1    3    3  502    0  0.10475760573E+03  0.72160368471E+02 -0.32834020152E+02  0.13145888184E+03  0.46999998093E+01 0.  1.
       -5    1    3    3    0  502 -0.10475760573E+03 -0.72160368471E+02  0.13550718024E+04  0.13610374552E+04  0.46999998093E+01 0. -1.
</event>
<event>
 5   0  0.4526837E-02  0.7196266E+03  0.7818609E-02  0.9684245E-01
        2   -1    0    0  501    0  0.00000000000E+00  0.00000000000E+00  0.76973920017E+03  0.76973920017E+03  0.25500000920E-02 0. -1.
       -2   -1    0    0    0  501  0.00000000000E+00  0.00000000000E+00 -0.16819413520E+03  0.16819413522E+03  0.25500000920E-02 0.  1.
    10030    2    1    2    0    0  0.00000000000E+00  0.00000000000E+00  0.60154506497E+03  0.93793333539E+03  0.71962662294E+03 0.  0.
        1    1    3    3  502    0  0.23930834109E+03  0.30427889977E+02  0.64872669031E+03  0.69212763082E+03  0.50400001928E-02 0. -1.
       -1    1    3    3    0  502 -0.23930834109E+03 -0.30427889977E+02 -0.47181625339E+02  0.24580570457E+03  0.50400001928E-02 0.  1.
</event>
<event>
 5   0  0.2750139E-02  0.6681638E+03  0.7818609E-02  0.9773281E-01
       -1   -1    0    0    0  501  0.00000000000E+00  0.00000000000E+00  0.11446764122E+03  0.11446764133E+03  0.50400001928E-02 0.  1.
        1   -1    0    0  501    0  0.00000000000E+00  0.00000000000E+00 -0.97504165007E+03  0.97504165009E+03  0.50400001928E-02 0. -1.
    10030    2    1    2    0    0  0.00000000000E+00  0.00000000000E+00 -0.86057400886E+03  0.10895092914E+04  0.66816380578E+03 0.  0.
        2    1    3    3  502    0  0.10954745977E+03  0.31376300731E+03 -0.48589142325E+03  0.58867507667E+03  0.25500000920E-02 0.  1.
       -2    1    3    3    0  502 -0.10954745977E+03 -0.31376300731E+03 -0.37468258560E+03  0.50083421474E+03  0.25500000920E-02 0. -1.
</event>
<event>
 5   0  0.4420645E-02  0.6956140E+03  0.7818609E-02  0.9724762E-01
        2   -1    0    0  501    0  0.00000000000E+00  0.00000000000E+00  0.13858218471E+04  0.13858218471E+04  0.25500000920E-02 0. -1.
       -2   -1    0    0    0  501  0.00000000000E+00  0.00000000000E+00 -0.87290954168E+02  0.87290954205E+02  0.25500000920E-02 0.  1.
    10030    2    1    2    0    0  0.00000000000E+00  0.00000000000E+00  0.12985308929E+04  0.14731128013E+04  0.69561400609E+03 0.  0.
        5    1    3    3  502    0 -0.19734285743E+03 -0.26571606634E+03  0.87535965781E+03  0.93585567894E+03  0.46999998093E+01 0. -1.
       -5    1    3    3    0  502  0.19734285743E+03  0.26571606634E+03  0.42317123510E+03  0.53725712234E+03  0.46999998093E+01 0.  1.
</event>
<event>
 5   0  0.2758681E-02  0.7002920E+03  0.7818609E-02  0.9716733E-01
       -1   -1    0    0    0  501  0.00000000000E+00  0.00000000000E+00  0.73034266134E+02  0.73034266308E+02  0.50400001928E-02 0. -1.
        1   -1    0    0  501    0  0.00000000000E+00  0.00000000000E+00 -0.16786944331E+04  0.16786944331E+04  0.50400001928E-02 0.  1.
    10030    2    1    2    0    0  0.00000000000E+00  0.00000000000E+00 -0.16056601670E+04  0.17517286994E+04  0.70029198523E+03 0.  0.
        3    1    3    3  502    0  0.60444196374E+01  0.69856002492E+02  0.55293305992E+02  0.89295890059E+02  0.10100000352E+00 0. -1.
       -3    1    3    3    0  502 -0.60444196374E+01 -0.69856002492E+02 -0.16609534730E+04  0.16624328094E+04  0.10100000352E+00 0.  1.
</event>
<event>
 5   0  0.2751729E-02  0.7026182E+03  0.7818609E-02  0.9712765E-01
       -1   -1    0    0    0  501  0.00000000000E+00  0.00000000000E+00  0.38516419869E+03  0.38516419873E+03  0.50400001928E-02 0. -1.
        1   -1    0    0  501    0  0.00000000000E+00  0.00000000000E+00 -0.32042978121E+03  0.32042978125E+03  0.50400001928E-02 0.  1.
    10030    2    1    2    0    0  0.00000000000E+00  0.00000000000E+00  0.64734417483E+02  0.70559397998E+03  0.70261818918E+03 0.  0.
        1    1    3    3  502    0  0.19373783762E+03  0.23113966121E+03  0.21329180357E+03  0.36939583945E+03  0.50400001928E-02 0. -1.
       -1    1    3    3    0  502 -0.19373783762E+03 -0.23113966121E+03 -0.14855738608E+03  0.33619814053E+03  0.50400001928E-02 0.  1.
</event>
<event>
 5   0  0.1784625E-02  0.6985879E+03  0.7818609E-02  0.9719650E-01
        3   -1    0    0  501    0  0.00000000000E+00  0.00000000000E+00  0.79671240149E+02  0.79671304169E+02  0.10100000352E+00 0. -1.
       -3   -1    0    0    0  501  0.00000000000E+00  0.00000000000E+00 -0.15313706209E+04  0.15313706242E+04  0.10100000352E+00 0.  1.
    10030    2    1    2    0    0  0.00000000000E+00  0.00000000000E+00 -0.14516993807E+04  0.16110419284E+04  0.69858786347E+03 0.  0.
        5    1    3    3  502    0 -0.32737532162E+02  0.31243922283E+03 -0.37387680308E+03  0.48836048965E+03  0.46999998093E+01 0. -1.
       -5    1    3    3    0  502  0.32737532162E+02 -0.31243922283E+03 -0.10778225777E+04  0.11226814387E+04  0.46999998093E+01 0.  1.
</event>
<event>
 5   0  0.2777999E-02  0.7055247E+03  0.7818609E-02  0.9707831E-01
        1   -1    0    0  501    0  0.00000000000E+00  0.00000000000E+00  0.24190900585E+04  0.24190900585E+04  0.50400001928E-02 0.  1.
       -1   -1    0    0    0  501  0.00000000000E+00  0.00000000000E+00 -0.51441360362E+02  0.51441360609E+02  0.50400001928E-02 0. -1.
    10030    2    1    2    0    0  0.00000000000E+00  0.00000000000E+00  0.23676486981E+04  0.24705314191E+04  0.70552472319E+03 0.  0.
        5    1    3    3  502    0  0.28774012380E+03  0.15762350086E+03  0.73022799712E+03  0.80055890767E+03  0.46999998093E+01 0. -1.
       -5    1    3    3    0  502 -0.28774012380E+03 -0.15762350086E+03  0.16374207010E+04  0.16699725114E+04  0.46999998093E+01 0.  1.
</event>
<event>
 5   0  0.2751729E-02  0.7195258E+03  0.7818609E-02  0.9684411E-01
        1   -1    0    0  501    0  0.00000000000E+00  0.00000000000E+00  0.26628511567E+03  0.26628511571E+03  0.50400001928E-02 0. -1.
       -1   -1    0    0    0  501  0.00000000000E+00  0.00000000000E+00 -0.48605546140E+03  0.48605546143E+03  0.50400001928E-02 0.  1.
    10030    2    1    2    0    0  0.00000000000E+00  0.00000000000E+00 -0.21977034573E+03  0.75234057714E+03  0.71952577379E+03 0.  0.
        1    1    3    3  502    0 -0.78386864221E+02  0.74340346539E+02 -0.46869471275E+03  0.48098411761E+03  0.50400001928E-02 0.  1.
       -1    1    3    3    0  502  0.78386864221E+02 -0.74340346539E+02  0.24892436702E+03  0.27135645953E+03  0.50400001928E-02 0. -1.
</event>
<event>
 5   0  0.2750139E-02  0.7794654E+03  0.7818609E-02  0.9590225E-01
        1   -1    0    0  501    0  0.00000000000E+00  0.00000000000E+00  0.44101122676E+03  0.44101122679E+03  0.50400001928E-02 0.  1.
       -1   -1    0    0    0  501  0.00000000000E+00  0.00000000000E+00 -0.34441657617E+03  0.34441657620E+03  0.50400001928E-02 0. -1.
    10030    2    1    2    0    0  0.00000000000E+00  0.00000000000E+00  0.96594650599E+02  0.78542780300E+03  0.77946539833E+03 0.  0.
        2    1    3    3  502    0  0.19404618214E+03  0.11860999905E+03  0.36721368734E+03  0.43193534801E+03  0.25500000920E-02 0.  1.
       -2    1    3    3    0  502 -0.19404618214E+03 -0.11860999905E+03 -0.27061903675E+03  0.35349245499E+03  0.25500000920E-02 0. -1.
</event>
<event>
 5   0  0.2758681E-02  0.7046774E+03  0.7818609E-02  0.9709266E-01
        1   -1    0    0  501    0  0.00000000000E+00  0.00000000000E+00  0.81000389189E+03  0.81000389190E+03  0.50400001928E-02 0.  1.
       -1   -1    0    0    0  501  0.00000000000E+00  0.00000000000E+00 -0.15326168555E+03  0.15326168563E+03  0.50400001928E-02 0. -1.
    10030    2    1    2    0    0  0.00000000000E+00  0.00000000000E+00  0.65674220634E+03  0.96326557753E+03  0.70467740653E+03 0.  0.
        3    1    3    3  502    0  0.66150077553E+02  0.29235729034E+02 -0.14300603900E+03  0.16025385488E+03  0.10100000352E+00 0. -1.
       -3    1    3    3    0  502 -0.66150077553E+02 -0.29235729034E+02  0.79974824533E+03  0.80301172266E+03  0.10100000352E+00 0.  1.
</event>
<event>
 5   0  0.4420645E-02  0.6966998E+03  0.7818609E-02  0.9722893E-01
       -2   -1    0    0    0  501  0.00000000000E+00  0.00000000000E+00  0.30829549999E+03  0.30829550000E+03  0.25500000920E-02 0.  1.
        2   -1    0    0  501    0  0.00000000000E+00  0.00000000000E+00 -0.39360828388E+03  0.39360828389E+03  0.25500000920E-02 0. -1.
    10030    2    1    2    0    0  0.00000000000E+00  0.00000000000E+00 -0.85312783896E+02  0.70190378389E+03  0.69669982829E+03 0.  0.
        5    1    3    3  502    0  0.15437565389E+03 -0.15165641146E+03  0.23231829178E+03  0.31753013770E+03  0.46999998093E+01 0.  1.
       -5    1    3    3    0  502 -0.15437565389E+03  0.15165641146E+03 -0.31763107568E+03  0.38437364619E+03  0.46999998093E+01 0. -1.
</event>
<event>
 5   0  0.2777999E-02  0.7051289E+03  0.7818609E-02  0.9708501E-01
        1   -1    0    0  501    0  0.00000000000E+00  0.00000000000E+00  0.80658289577E+03  0.80658289579E+03  0.50400001928E-02 0.  1.
       -1   -1    0    0    0  501  0.00000000000E+00  0.00000000000E+00 -0.15410903057E+03  0.15410903065E+03  0.50400001928E-02 0. -1.
    10030    2    1    2    0    0  0.00000000000E+00  0.00000000000E+00  0.65247386520E+03  0.96069192644E+03  0.70512894761E+03 0.  0.
        5    1    3    3  502    0  0.24218550615E+03  0.16953767911E+03  0.58789093754E+03  0.65805371245E+03  0.46999998093E+01 0.  1.
       -5    1    3    3    0  502 -0.24218550615E+03 -0.16953767911E+03  0.64582927665E+02  0.30263821400E+03  0.46999998093E+01 0. -1.
</event>
<event>
 5   0  0.4526837E-02  0.7020494E+03  0.7818609E-02  0.9713734E-01
        2   -1    0    0  501    0  0.00000000000E+00  0.00000000000E+00  0.16877845069E+03  0.16877845071E+03  0.25500000920E-02 0. -1.
       -2   -1    0    0    0  501  0.00000000000E+00  0.00000000000E+00 -0.73005976859E+03  0.73005976860E+03  0.25500000920E-02 0.  1.
    10030    2    1    2    0    0  0.00000000000E+00  0.00000000000E+00 -0.56128131791E+03  0.89883821930E+03  0.70204944744E+03 0.  0.
        1    1    3    3  502    0 -0.56779686275E+02 -0.30332642136E+03 -0.66452267949E+02  0.31566874190E+03  0.50400001928E-02 0. -1.
       -1    1    3    3    0  502  0.56779686275E+02  0.30332642136E+03 -0.49482904996E+03  0.58316947740E+03  0.50400001928E-02 0.  1.
</event>
<event>
 5   0  0.2751729E-02  0.6871218E+03  0.7818609E-02  0.9739513E-01
        1   -1    0    0  501    0  0.00000000000E+00  0.00000000000E+00  0.13377611389E+04  0.13377611389E+04  0.50400001928E-02 0. -1.
       -1   -1    0    0    0  501  0.00000000000E+00  0.00000000000E+00 -0.88232558872E+02  0.88232559016E+02  0.50400001928E-02 0.  1.
    10030    2    1    2    0    0  0.00000000000E+00  0.00000000000E+00  0.12495285800E+04  0.14259936979E+04  0.68712178994E+03 0.  0.
        1    1    3    3  502    0 -0.30294580708E+03 -0.32644778304E+02  0.29536904902E+03  0.42436389894E+03  0.50400001928E-02 0.  1.
       -1    1    3    3    0  502  0.30294580708E+03  0.32644778304E+02  0.95415953100E+03  0.10016297990E+04  0.50400001928E-02 0. -1.
</event>
<event>
 5   0  0.4365492E-02  0.6943559E+03  0.7818609E-02  0.9726933E-01
       -2   -1    0    0    0  501  0.00000000000E+00  0.00000000000E+00  0.19778784462E+03  0.19778784464E+03  0.25500000920E-02 0. -1.
        2   -1    0    0  501    0  0.00000000000E+00  0.00000000000E+00 -0.60940312080E+03  0.60940312081E+03  0.25500000920E-02 0.  1.
    10030    2    1    2    0    0  0.00000000000E+00  0.00000000000E+00 -0.41161527618E+03  0.80719096544E+03  0.69435590234E+03 0.  0.
        4    1    3    3  502    0  0.25081264044E+03  0.16145543485E+03  0.69978957644E+00  0.29829002774E+03  0.12699999809E+01 0. -1.
       -4    1    3    3    0  502 -0.25081264044E+03 -0.16145543485E+03 -0.41231506575E+03  0.50890093770E+03  0.12699999809E+01 0.  1.
</event>
<event>
 5   0  0.4299912E-02  0.6950944E+03  0.7818609E-02  0.9725658E-01
       -2   -1    0    0    0  501  0.00000000000E+00  0.00000000000E+00  0.52223776823E+02  0.52223776886E+02  0.25500000920E-02 0.  1.
        2   -1    0    0  501    0  0.00000000000E+00  0.00000000000E+00 -0.23129127463E+04  0.23129127463E+04  0.25500000920E-02 0. -1.
    10030    2    1    2    0    0  0.00000000000E+00  0.00000000000E+00 -0.22606889695E+04  0.23651365232E+04  0.69509435086E+03 0.  0.
        3    1    3    3  502    0 -0.30831295516E+03 -0.43165541917E+02 -0.60465591208E+03  0.68009479085E+03  0.10100000352E+00 0.  1.
       -3    1    3    3    0  502  0.30831295516E+03  0.43165541917E+02 -0.16560330574E+04  0.16850417323E+04  0.10100000352E+00 0. -1.
</event>
<event>
 5   0  0.2751729E-02  0.7067811E+03  0.7818609E-02  0.9705705E-01
       -1   -1    0    0    0  501  0.00000000000E+00  0.00000000000E+00  0.49548416707E+03  0.49548416709E+03  0.50400001928E-02 0.  1.
        1   -1    0    0  501    0  0.00000000000E+00  0.00000000000E+00 -0.25204614827E+03  0.25204614832E+03  0.50400001928E-02 0. -1.
    10030    2    1    2    0    0  0.00000000000E+00  0.00000000000E+00  0.24343801880E+03  0.74753031542E+03  0.70678108596E+03 0.  0.
        1    1    3    3  502    0 -0.96507877342E+02 -0.21672433706E+03 -0.15530105504E+03  0.28355180547E+03  0.50400001928E-02 0. -1.
       -1    1    3    3    0  502  0.96507877342E+02  0.21672433706E+03  0.39873907384E+03  0.46397850995E+03  0.50400001928E-02 0.  1.
</event>
<event>
 5   0  0.2777999E-02  0.6817535E+03  0.7818609E-02  0.9748955E-01
        1   -1    0    0  501    0  0.00000000000E+00  0.00000000000E+00  0.86989464808E+02  0.86989464954E+02  0.50400001928E-02 0.  1.
       -1   -1    0    0    0  501  0.00000000000E+00  0.00000000000E+00 -0.13357589500E+04  0.13357589500E+04  0.50400001928E-02 0. -1.
    10030    2    1    2    0    0  0.00000000000E+00  0.00000000000E+00 -0.12487694852E+04  0.14227484150E+04  0.68175349295E+03 0.  0.
        5    1    3    3  502    0  0.32741531573E+02  0.17447410243E+02  0.82695567689E+02  0.90758288479E+02  0.46999998093E+01 0.  1.
       -5    1    3    3    0  502 -0.32741531573E+02 -0.17447410243E+02 -0.13314650529E+04  0.13319901265E+04  0.46999998093E+01 0. -1.
</event>
<event>
 5   0  0.1784625E-02  0.7113282E+03  0.7818609E-02  0.9698053E-01
        3   -1    0    0  501    0  0.00000000000E+00  0.00000000000E+00  0.14599182030E+03  0.14599185524E+03  0.10100000352E+00 0.  1.
       -3   -1    0    0    0  501  0.00000000000E+00  0.00000000000E+00 -0.86646590060E+03  0.86646590648E+03  0.10100000352E+00 0. -1.
    10030    2    1    2    0    0  0.00000000000E+00  0.00000000000E+00 -0.72047408030E+03  0.10124577617E+04  0.71132820757E+03 0.  0.
        2    1    3    3  502    0 -0.28159700935E+03  0.15759803464E+03 -0.57308589507E+03  0.65769404691E+03  0.25500000920E-02 0. -1.
       -2    1    3    3    0  502  0.28159700935E+03 -0.15759803464E+03 -0.14738818523E+03  0.35476371481E+03  0.25500000920E-02 0.  1.
</event>
<event>
 5   0  0.2750139E-02  0.6942966E+03  0.7818609E-02  0.9727036E-01
       -1   -1    0    0    0  501  0.00000000000E+00  0.00000000000E+00  0.31366676445E+03  0.31366676449E+03  0.50400001928E-02 0.  1.
        1   -1    0    0  501    0  0.00000000000E+00  0.00000000000E+00 -0.38420378933E+03  0.38420378937E+03  0.50400001928E-02 0. -1.
    10030    2    1    2    0    0  0.00000000000E+00  0.00000000000E+00 -0.70537024882E+02  0.69787055386E+03  0.69429664990E+03 0.  0.
        2    1    3    3  502    0  0.14687905353E+03 -0.21409183208E+03 -0.26689600828E+03  0.37234694597E+03  0.25500000920E-02 0.  1.
       -2    1    3    3    0  502 -0.14687905353E+03  0.21409183208E+03  0.19635898339E+03  0.32552360789E+03  0.25500000920E-02 0. -1.
</event>
<event>
 5   0  0.4299912E-02  0.7024716E+03  0.7818609E-02  0.9713015E-01
       -2   -1    0    0    0  501  0.00000000000E+00  0.00000000000E+00  0.58264760344E+02  0.58264760400E+02  0.25500000920E-02 0. -1.
        2   -1    0    0  501    0  0.00000000000E+00  0.00000000000E+00 -0.21173445280E+04  0.21173445280E+04  0.25500000920E-02 0.  1.
    10030    2    1    2    0    0  0.00000000000E+00  0.00000000000E+00 -0.20590797676E+04  0.21756092884E+04  0.70247155544E+03 0.  0.
        3    1    3    3  502    0 -0.12442203050E+03 -0.16725842319E+03 -0.19050348409E+04  0.19164065271E+04  0.10100000352E+00 0.  1.
       -3    1    3    3    0  502  0.12442203050E+03  0.16725842319E+03 -0.15404492670E+03  0.25920276126E+03  0.10100000352E+00 0. -1.
</event>
<event>
 5   0  0.4503289E-02  0.7120402E+03  0.7818609E-02  0.9696861E-01
        2   -1    0    0  501    0  0.00000000000E+00  0.00000000000E+00  0.15216336765E+04  0.15216336765E+04  0.25500000920E-02 0. -1.
       -2   -1    0    0    0  501  0.00000000000E+00  0.00000000000E+00 -0.83298832129E+02  0.83298832168E+02  0.25500000920E-02 0.  1.
    10030    2    1    2    0    0  0.00000000000E+00  0.00000000000E+00  0.14383348444E+04  0.16049325087E+04  0.71204019048E+03 0.  0.
        2    1    3    3  502    0 -0.10866270704E+02 -0.34946433315E+03  0.87048584867E+03  0.93807729358E+03  0.25500000920E-02 0.  1.
       -2    1    3    3    0  502  0.10866270704E+02  0.34946433315E+03  0.56784899572E+03  0.66685521512E+03  0.25500000920E-02 0. -1.
</event>
<event>
 5   0  0.4299912E-02  0.6910417E+03  0.7818609E-02  0.9732676E-01
        2   -1    0    0  501    0  0.00000000000E+00  0.00000000000E+00  0.91475532481E+03  0.91475532482E+03  0.25500000920E-02 0. -1.
       -2   -1    0    0    0  501  0.00000000000E+00  0.00000000000E+00 -0.13050994786E+03  0.13050994788E+03  0.25500000920E-02 0.  1.
    10030    2    1    2    0    0  0.00000000000E+00  0.00000000000E+00  0.78424537695E+03  0.10452652727E+04  0.69104173465E+03 0.  0.
        3    1    3    3  502    0 -0.14714637827E+03 -0.30060724945E+03  0.52195824669E+03  0.62004612454E+03  0.10100000352E+00 0. -1.
       -3    1    3    3    0  502  0.14714637827E+03  0.30060724945E+03  0.26228713026E+03  0.42521914816E+03  0.10100000352E+00 0.  1.
</event>
<event>
 5   0  0.4503289E-02  0.7092088E+03  0.7818609E-02  0.9701612E-01
       -2   -1    0    0    0  501  0.00000000000E+00  0.00000000000E+00  0.13253564125E+03  0.13253564127E+03  0.25500000920E-02 0.  1.
        2   -1    0    0  501    0  0.00000000000E+00  0.00000000000E+00 -0.94875810743E+03  0.94875810743E+03  0.25500000920E-02 0. -1.
    10030    2    1    2    0    0  0.00000000000E+00  0.00000000000E+00 -0.81622246618E+03  0.10812937487E+04  0.70920875396E+03 0.  0.
        2    1    3    3  502    0 -0.50497289573E+02  0.22522201617E+03 -0.81854844778E+03  0.85046839694E+03  0.25500000920E-02 0. -1.
       -2    1    3    3    0  502  0.50497289573E+02 -0.22522201617E+03  0.23259815995E+01  0.23082535177E+03  0.25500000920E-02 0.  1.
</event>
<event>
 5   0  0.4299912E-02  0.6941937E+03  0.7818609E-02  0.9727214E-01
       -2   -1    0    0    0  501  0.00000000000E+00  0.00000000000E+00  0.79235863308E+02  0.79235863349E+02  0.25500000920E-02 0.  1.
        2   -1    0    0  501    0  0.00000000000E+00  0.00000000000E+00 -0.15204759040E+04  0.15204759040E+04  0.25500000920E-02 0. -1.
    10030    2    1    2    0    0  0.00000000000E+00  0.00000000000E+00 -0.14412400407E+04  0.15997117673E+04  0.69419369322E+03 0.  0.
        3    1    3    3  502    0 -0.14092036380E+03  0.15152346279E+03 -0.78442615197E+02  0.22129429001E+03  0.10100000352E+00 0.  1.
       -3    1    3    3    0  502  0.14092036380E+03 -0.15152346279E+03 -0.13627974255E+04  0.13784174773E+04  0.10100000352E+00 0. -1.
</event>
<event>
 5   0  0.4420645E-02  0.6675220E+03  0.7818609E-02  0.9774445E-01
       -2   -1    0    0    0  501  0.00000000000E+00  0.00000000000E+00  0.15767930404E+03  0.15767930406E+03  0.25500000920E-02 0. -1.
        2   -1    0    0  501    0  0.00000000000E+00  0.00000000000E+00 -0.70647447806E+03  0.70647447806E+03  0.25500000920E-02 0.  1.
    10030    2    1    2    0    0  0.00000000000E+00  0.00000000000E+00 -0.54879517402E+03  0.86415378213E+03  0.66752199675E+03 0.  0.
        5    1    3    3  502    0  0.23260219850E+03  0.77541175404E+02  0.18695683669E+02  0.24594315444E+03  0.46999998093E+01 0. -1.
       -5    1    3    3    0  502 -0.23260219850E+03 -0.77541175404E+02 -0.56749085768E+03  0.61821062769E+03  0.46999998093E+01 0.  1.
</event>
<event>
 5   0  0.4365492E-02  0.6905405E+03  0.7818609E-02  0.9733547E-01
        2   -1    0    0  501    0  0.00000000000E+00  0.00000000000E+00  0.28073475564E+04  0.28073475564E+04  0.25500000920E-02 0.  1.
       -2   -1    0    0    0  501  0.00000000000E+00  0.00000000000E+00 -0.42464125647E+02  0.42464125723E+02  0.25500000920E-02 0. -1.
    10030    2    1    2    0    0  0.00000000000E+00  0.00000000000E+00  0.27648834307E+04  0.28498116821E+04  0.69054054038E+03 0.  0.
        4    1    3    3  502    0 -0.16467352459E+03 -0.14326230787E+03  0.27839384782E+03  0.35376009662E+03  0.12699999809E+01 0. -1.
       -4    1    3    3    0  502  0.16467352459E+03  0.14326230787E+03  0.24864895829E+04  0.24960515855E+04  0.12699999809E+01 0.  1.
</event>
<event>
 5   0  0.4365492E-02  0.7307508E+03  0.7818609E-02  0.9666043E-01
        2   -1    0    0  501    0  0.00000000000E+00  0.00000000000E+00  0.77715218883E+03  0.77715218883E+03  0.25500000920E-02 0.  1.
       -2   -1    0    0    0  501  0.00000000000E+00  0.00000000000E+00 -0.17177999623E+03  0.17177999625E+03  0.25500000920E-02 0. -1.
    10030    2    1    2    0    0  0.00000000000E+00  0.00000000000E+00  0.60537219259E+03  0.94893218508E+03  0.73075084695E+03 0.  0.
        4    1    3    3  502    0  0.17074110607E+03 -0.12432104012E+03  0.68984628462E+03  0.72145530397E+03  0.12699999809E+01 0.  1.
       -4    1    3    3    0  502 -0.17074110607E+03  0.12432104012E+03 -0.84474092028E+02  0.22747688111E+03  0.12699999809E+01 0. -1.
</event>
<event>
 5   0  0.2751729E-02  0.6984251E+03  0.7818609E-02  0.9719929E-01
       -1   -1    0    0    0  501  0.00000000000E+00  0.00000000000E+00  0.27937730812E+03  0.27937730817E+03  0.50400001928E-02 0.  1.
        1   -1    0    0  501    0  0.00000000000E+00  0.00000000000E+00 -0.43650437531E+03  0.43650437534E+03  0.50400001928E-02 0. -1.
    10030    2    1    2    0    0  0.00000000000E+00  0.00000000000E+00 -0.15712706719E+03  0.71588168351E+03  0.69842513524E+03 0.  0.
        1    1    3    3  502    0  0.15999875811E+03  0.11130045733E+03 -0.37556790201E+03  0.42312958233E+03  0.50400001928E-02 0. -1.
       -1    1    3    3    0  502 -0.15999875811E+03 -0.11130045733E+03  0.21844083482E+03  0.29275210118E+03  0.50400001928E-02 0.  1.
</event>
<event>
 5   0  0.4503289E-02  0.6975147E+03  0.7818609E-02  0.9721492E-01
        2   -1    0    0  501    0  0.00000000000E+00  0.00000000000E+00  0.71762522658E+03  0.71762522658E+03  0.25500000920E-02 0. -1.
       -2   -1    0    0    0  501  0.00000000000E+00  0.00000000000E+00 -0.16949195498E+03  0.16949195500E+03  0.25500000920E-02 0.  1.
    10030    2    1    2    0    0  0.00000000000E+00  0.00000000000E+00  0.54813327159E+03  0.88711718158E+03  0.69751473850E+03 0.  0.
        2    1    3    3  502    0  0.59398339809E+02  0.23516093337E+03 -0.44659271106E+02  0.24662375769E+03  0.25500000920E-02 0.  1.
       -2    1    3    3    0  502 -0.59398339809E+02 -0.23516093337E+03  0.59279254270E+03  0.64049342389E+03  0.25500000920E-02 0. -1.
</event>
<event>
 5   0  0.2777999E-02  0.6964426E+03  0.7818609E-02  0.9723335E-01
        1   -1    0    0  501    0  0.00000000000E+00  0.00000000000E+00  0.11327681653E+03  0.11327681664E+03  0.50400001928E-02 0.  1.
       -1   -1    0    0    0  501  0.00000000000E+00  0.00000000000E+00 -0.10704580364E+04  0.10704580364E+04  0.50400001928E-02 0. -1.
    10030    2    1    2    0    0  0.00000000000E+00  0.00000000000E+00 -0.95718121988E+03  0.11837348531E+04  0.69644261406E+03 0.  0.
        5    1    3    3  502    0 -0.20112673382E+03  0.28295064425E+03 -0.52429161927E+03  0.62882177298E+03  0.46999998093E+01 0. -1.
       -5    1    3    3    0  502  0.20112673382E+03 -0.28295064425E+03 -0.43288960061E+03  0.55491308009E+03  0.46999998093E+01 0.  1.
</event>
<event>
 5   0  0.2684924E-02  0.7614193E+03  0.7818609E-02  0.9617604E-01
       -1   -1    0    0    0  501  0.00000000000E+00  0.00000000000E+00  0.24050072282E+03  0.24050072287E+03  0.50400001928E-02 0.  1.
        1   -1    0    0  501    0  0.00000000000E+00  0.00000000000E+00 -0.60265865861E+03  0.60265865863E+03  0.50400001928E-02 0. -1.
    10030    2    1    2    0    0  0.00000000000E+00  0.00000000000E+00 -0.36215793579E+03  0.84315938151E+03  0.76141931428E+03 0.  0.
        4    1    3    3  502    0  0.17050716531E+03 -0.23592109835E+02 -0.55710446546E+03  0.58309199909E+03  0.12699999809E+01 0. -1.
       -4    1    3    3    0  502 -0.17050716531E+03  0.23592109835E+02  0.19494652967E+03  0.26006738242E+03  0.12699999809E+01 0.  1.
</event>
<event>
 5   0  0.2777999E-02  0.6913832E+03  0.7818609E-02  0.9732083E-01
        1   -1    0    0  501    0  0.00000000000E+00  0.00000000000E+00  0.49817250462E+03  0.49817250464E+03  0.50400001928E-02 0. -1.
       -1   -1    0    0    0  501  0.00000000000E+00  0.00000000000E+00 -0.23988215149E+03  0.23988215154E+03  0.50400001928E-02 0.  1.
    10030    2    1    2    0    0  0.00000000000E+00  0.00000000000E+00  0.25829035313E+03  0.73805465619E+03  0.69138322875E+03 0.  0.
        5    1    3    3  502    0  0.26448617325E+03 -0.14409607093E+03 -0.51903035007E+02  0.30566751306E+03  0.46999998093E+01 0.  1.
       -5    1    3    3    0  502 -0.26448617325E+03  0.14409607093E+03  0.31019338813E+03  0.43238714312E+03  0.46999998093E+01 0. -1.
</event>
<event>
 5   0  0.4526837E-02  0.6931971E+03  0.7818609E-02  0.9728937E-01
       -2   -1    0    0    0  501  0.00000000000E+00  0.00000000000E+00  0.23652425077E+03  0.23652425079E+03  0.25500000920E-02 0. -1.
        2   -1    0    0  501    0  0.00000000000E+00  0.00000000000E+00 -0.50789957082E+03  0.50789957082E+03  0.25500000920E-02 0.  1.
    10030    2    1    2    0    0  0.00000000000E+00  0.00000000000E+00 -0.27137532004E+03  0.74442382161E+03  0.69319713058E+03 0.  0.
        1    1    3    3  502    0 -0.33977001833E+02  0.24593090994E+03  0.12404083437E+03  0.27752941779E+03  0.50400001928E-02 0. -1.
       -1    1    3    3    0  502  0.33977001833E+02 -0.24593090994E+03 -0.39541615442E+03  0.46689440382E+03  0.50400001928E-02 0.  1.
</event>
<event>
 5   0  0.4299912E-02  0.6608091E+03  0.7818609E-02  0.9786705E-01
       -2   -1    0    0    0  501  0.00000000000E+00  0.00000000000E+00  0.31927034077E+03  0.31927034078E+03  0.25500000920E-02 0. -1.
        2   -1    0    0  501    0  0.00000000000E+00  0.00000000000E+00 -0.34192707093E+03  0.34192707094E+03  0.25500000920E-02 0.  1.
    10030    2    1    2    0    0  0.00000000000E+00  0.00000000000E+00 -0.22656730160E+02  0.66119741173E+03  0.66080911756E+03 0.  0.
        3    1    3    3  502    0  0.15496797203E+03  0.21975430889E+03 -0.20343111023E+03  0.33718133910E+03  0.10100000352E+00 0.  1.
       -3    1    3    3    0  502 -0.15496797203E+03 -0.21975430889E+03  0.18077438007E+03  0.32401607262E+03  0.10100000352E+00 0. -1.
</event>
<event>
 5   0  0.4420645E-02  0.6925683E+03  0.7818609E-02  0.9730026E-01
        2   -1    0    0  501    0  0.00000000000E+00  0.00000000000E+00  0.28231154133E+03  0.28231154134E+03  0.25500000920E-02 0.  1.
       -2   -1    0    0    0  501  0.00000000000E+00  0.00000000000E+00 -0.42475318771E+03  0.42475318772E+03  0.25500000920E-02 0. -1.
    10030    2    1    2    0    0  0.00000000000E+00  0.00000000000E+00 -0.14244164638E+03  0.70706472906E+03  0.69256834208E+03 0.  0.
        5    1    3    3  502    0  0.18321746859E+03 -0.13921072098E+03  0.19292702956E+03  0.30031848822E+03  0.46999998093E+01 0.  1.
       -5    1    3    3    0  502 -0.18321746859E+03  0.13921072098E+03 -0.33536867595E+03  0.40674624084E+03  0.46999998093E+01 0. -1.
</event>
<event>
 5   0  0.2777999E-02  0.7035835E+03  0.7818609E-02  0.9711123E-01
        1   -1    0    0  501    0  0.00000000000E+00  0.00000000000E+00  0.14769459583E+03  0.14769459591E+03  0.50400001928E-02 0. -1.
       -1   -1    0    0    0  501  0.00000000000E+00  0.00000000000E+00 -0.83792808350E+03  0.83792808352E+03  0.50400001928E-02 0.  1.
    10030    2    1    2    0    0  0.00000000000E+00  0.00000000000E+00 -0.69023348768E+03  0.98562267943E+03  0.70358354066E+03 0.  0.
        5    1    3    3  502    0 -0.14918892062E+03 -0.19655680363E+03 -0.69629290056E+03  0.73874068824E+03  0.46999998093E+01 0.  1.
       -5    1    3    3    0  502  0.14918892062E+03  0.19655680363E+03  0.60594128854E+01  0.24688199119E+03  0.46999998093E+01 0. -1.
</event>
<event>
 5   0  0.4299912E-02  0.6970956E+03  0.7818609E-02  0.9722212E-01
       -2   -1    0    0    0  501  0.00000000000E+00  0.00000000000E+00  0.15774840947E+03  0.15774840950E+03  0.25500000920E-02 0. -1.
        2   -1    0    0  501    0  0.00000000000E+00  0.00000000000E+00 -0.77012235702E+03  0.77012235702E+03  0.25500000920E-02 0.  1.
    10030    2    1    2    0    0  0.00000000000E+00  0.00000000000E+00 -0.61237394755E+03  0.92787076652E+03  0.69709562309E+03 0.  0.
        3    1    3    3  502    0  0.23314724445E+03  0.22972057247E+03 -0.14670275126E+03  0.35867936439E+03  0.10100000352E+00 0. -1.
       -3    1    3    3    0  502 -0.23314724445E+03 -0.22972057247E+03 -0.46567119628E+03  0.56919140213E+03  0.10100000352E+00 0.  1.
</event>
<event>
 5   0  0.4365492E-02  0.6971989E+03  0.7818609E-02  0.9722034E-01
       -2   -1    0    0    0  501  0.00000000000E+00  0.00000000000E+00  0.15898563551E+03  0.15898563554E+03  0.25500000920E-02 0. -1.
        2   -1    0    0  501    0  0.00000000000E+00  0.00000000000E+00 -0.76435574080E+03  0.76435574080E+03  0.25500000920E-02 0.  1.
    10030    2    1    2    0    0  0.00000000000E+00  0.00000000000E+00 -0.60537010528E+03  0.92334137633E+03  0.69719891916E+03 0.  0.
        4    1    3    3  502    0  0.78290469157E+02  0.23783646415E+03 -0.62389153771E+03  0.67226322595E+03  0.12699999809E+01 0.  1.
       -4    1    3    3    0  502 -0.78290469157E+02 -0.23783646415E+03  0.18521432428E+02  0.25107815038E+03  0.12699999809E+01 0. -1.
</event>
<event>
 5   0  0.4420645E-02  0.7270230E+03  0.7818609E-02  0.9672104E-01
        2   -1    0    0  501    0  0.00000000000E+00  0.00000000000E+00  0.11338845743E+04  0.11338845743E+04  0.25500000920E-02 0.  1.
       -2   -1    0    0    0  501  0.00000000000E+00  0.00000000000E+00 -0.11653797789E+03  0.11653797792E+03  0.25500000920E-02 0. -1.
    10030    2    1    2    0    0  0.00000000000E+00  0.00000000000E+00  0.10173465964E+04  0.12504225522E+04  0.72702301332E+03 0.  0.
        5    1    3    3  502    0 -0.26099648338E+02 -0.35170524255E+03  0.35735190399E+03  0.50209584998E+03  0.46999998093E+01 0.  1.
       -5    1    3    3    0  502  0.26099648338E+02  0.35170524255E+03  0.65999469241E+03  0.74832670224E+03  0.46999998093E+01 0. -1.
</event>
<event>
 5   0  0.2777999E-02  0.7012064E+03  0.7818609E-02  0.9715171E-01
        1   -1    0    0  501    0  0.00000000000E+00  0.00000000000E+00  0.24739975757E+03  0.24739975762E+03  0.50400001928E-02 0.  1.
       -1   -1    0    0    0  501  0.00000000000E+00  0.00000000000E+00 -0.49685824695E+03  0.49685824698E+03  0.50400001928E-02 0. -1.
    10030    2    1    2    0    0  0.00000000000E+00  0.00000000000E+00 -0.24945848938E+03  0.74425800460E+03  0.70120641717E+03 0.  0.
        5    1    3    3  502    0  0.29290575954E+03 -0.19056145745E+03 -0.15461969966E+03  0.38214760834E+03  0.46999998093E+01 0.  1.
       -5    1    3    3    0  502 -0.29290575954E+03  0.19056145745E+03 -0.94838789728E+02  0.36211039626E+03  0.46999998093E+01 0. -1.
</event>
<event>
 5   0  0.4299912E-02  0.7096866E+03  0.7818609E-02  0.9700809E-01
       -2   -1    0    0    0  501  0.00000000000E+00  0.00000000000E+00  0.23722315205E+03  0.23722315206E+03  0.25500000920E-02 0. -1.
        2   -1    0    0  501    0  0.00000000000E+00  0.00000000000E+00 -0.53078190997E+03  0.53078190998E+03  0.25500000920E-02 0.  1.
    10030    2    1    2    0    0  0.00000000000E+00  0.00000000000E+00 -0.29355875792E+03  0.76800506205E+03  0.70968657235E+03 0.  0.
        3    1    3    3  502    0 -0.89650659844E+02  0.27309382109E+03  0.78396954905E+02  0.29793215447E+03  0.10100000352E+00 0. -1.
       -3    1    3    3    0  502  0.89650659844E+02 -0.27309382109E+03 -0.37195571283E+03  0.47007290757E+03  0.10100000352E+00 0.  1.
</event>
<event>
 5   0  0.4526837E-02  0.6949321E+03  0.7818609E-02  0.9725938E-01
       -2   -1    0    0    0  501  0.00000000000E+00  0.00000000000E+00  0.11772950716E+03  0.11772950719E+03  0.25500000920E-02 0. -1.
        2   -1    0    0  501    0  0.00000000000E+00  0.00000000000E+00 -0.10255089704E+04  0.10255089704E+04  0.25500000920E-02 0.  1.
    10030    2    1    2    0    0  0.00000000000E+00  0.00000000000E+00 -0.90777946328E+03  0.11432384776E+04  0.69493212820E+03 0.  0.
        1    1    3    3  502    0  0.14973450474E+03 -0.27272343813E+03 -0.19938044792E+03  0.36952815678E+03  0.50400001928E-02 0. -1.
       -1    1    3    3    0  502 -0.14973450474E+03  0.27272343813E+03 -0.70839901535E+03  0.77371032085E+03  0.50400001928E-02 0.  1.
</event>
<event>
 5   0  0.4365492E-02  0.6948499E+03  0.7818609E-02  0.9726080E-01
        2   -1    0    0  501    0  0.00000000000E+00  0.00000000000E+00  0.91040931602E+02  0.91040931638E+02  0.25500000920E-02 0. -1.
       -2   -1    0    0    0  501  0.00000000000E+00  0.00000000000E+00 -0.13258223205E+04  0.13258223205E+04  0.25500000920E-02 0.  1.
    10030    2    1    2    0    0  0.00000000000E+00  0.00000000000E+00 -0.12347813889E+04  0.14168632522E+04  0.69484990962E+03 0.  0.
        4    1    3    3  502    0 -0.67420611745E+02  0.17445534360E+03 -0.20377692608E+02  0.18814108816E+03  0.12699999809E+01 0. -1.
       -4    1    3    3    0  502  0.67420611745E+02 -0.17445534360E+03 -0.12144036963E+04  0.12287221640E+04  0.12699999809E+01 0.  1.
</event>
<event>
 5   0  0.4526837E-02  0.6966948E+03  0.7818609E-02  0.9722901E-01
        2   -1    0    0  501    0  0.00000000000E+00  0.00000000000E+00  0.42494251180E+03  0.42494251181E+03  0.25500000920E-02 0.  1.
       -2   -1    0    0    0  501  0.00000000000E+00  0.00000000000E+00 -0.28555844815E+03  0.28555844816E+03  0.25500000920E-02 0. -1.
    10030    2    1    2    0    0  0.00000000000E+00  0.00000000000E+00  0.13938406366E+03  0.71050095997E+03  0.69669483773E+03 0.  0.
        1    1    3    3  502    0  0.17883377032E+02 -0.30539469275E+03 -0.10022358595E+03  0.32191691590E+03  0.50400001928E-02 0. -1.
       -1    1    3    3    0  502 -0.17883377032E+02  0.30539469275E+03  0.23960764961E+03  0.38858404408E+03  0.50400001928E-02 0.  1.
</event>
<event>
 5   0  0.4299912E-02  0.7039419E+03  0.7818609E-02  0.9710515E-01
        2   -1    0    0  501    0  0.00000000000E+00  0.00000000000E+00  0.40646402937E+03  0.40646402937E+03  0.25500000920E-02 0. -1.
       -2   -1    0    0    0  501  0.00000000000E+00  0.00000000000E+00 -0.30478352224E+03  0.30478352225E+03  0.25500000920E-02 0.  1.
    10030    2    1    2    0    0  0.00000000000E+00  0.00000000000E+00  0.10168050712E+03  0.71124755163E+03  0.70394186846E+03 0.  0.
        3    1    3    3  502    0  0.23997873394E+02 -0.34859343474E+03  0.80898177272E+01  0.34951214002E+03  0.10100000352E+00 0.  1.
       -3    1    3    3    0  502 -0.23997873394E+02  0.34859343474E+03  0.93590689394E+02  0.36173541161E+03  0.10100000352E+00 0. -1.
</event>
<event>
 5   0  0.4503289E-02  0.7010993E+03  0.7818609E-02  0.9715354E-01
        2   -1    0    0  501    0  0.00000000000E+00  0.00000000000E+00  0.99405317786E+03  0.99405317786E+03  0.25500000920E-02 0.  1.
       -2   -1    0    0    0  501  0.00000000000E+00  0.00000000000E+00 -0.12362019515E+03  0.12362019518E+03  0.25500000920E-02 0. -1.
    10030    2    1    2    0    0  0.00000000000E+00  0.00000000000E+00  0.87043298271E+03  0.11176733730E+04  0.70109927359E+03 0.  0.
        2    1    3    3  502    0 -0.12614451240E+03 -0.32377959055E+03  0.50895256726E+03  0.61626161409E+03  0.25500000920E-02 0.  1.
       -2    1    3    3    0  502  0.12614451240E+03  0.32377959055E+03  0.36148041544E+03  0.50141175896E+03  0.25500000920E-02 0. -1.
</event>
<event>
 5   0  0.4526837E-02  0.6963821E+03  0.7818609E-02  0.9723439E-01
       -2   -1    0    0    0  501  0.00000000000E+00  0.00000000000E+00  0.94557691148E+02  0.94557691182E+02  0.25500000920E-02 0.  1.
        2   -1    0    0  501    0  0.00000000000E+00  0.00000000000E+00 -0.12821486014E+04  0.12821486014E+04  0.25500000920E-02 0. -1.
    10030    2    1    2    0    0  0.00000000000E+00  0.00000000000E+00 -0.11875909102E+04  0.13767062925E+04  0.69638211200E+03 0.  0.
        1    1    3    3  502    0 -0.32808553332E+02  0.20001815534E+02  0.90353328523E+02  0.98184508946E+02  0.50400001928E-02 0.  1.
       -1    1    3    3    0  502  0.32808553332E+02 -0.20001815534E+02 -0.12779442387E+04  0.12785217836E+04  0.50400001928E-02 0. -1.
</event>
<event>
 5   0  0.4503289E-02  0.5990256E+03  0.7818609E-02  0.9907430E-01
        2   -1    0    0  501    0  0.00000000000E+00  0.00000000000E+00  0.30077699538E+03  0.30077699539E+03  0.25500000920E-02 0.  1.
       -2   -1    0    0    0  501  0.00000000000E+00  0.00000000000E+00 -0.29825389352E+03  0.29825389353E+03  0.25500000920E-02 0. -1.
    10030    2    1    2    0    0  0.00000000000E+00  0.00000000000E+00  0.25231018537E+01  0.59903088892E+03  0.59902557528E+03 0.  0.
        2    1    3    3  502    0  0.18972272593E+03  0.18094639007E+03  0.14607858444E+03  0.30012540988E+03  0.25500000920E-02 0. -1.
       -2    1    3    3    0  502 -0.18972272593E+03 -0.18094639007E+03 -0.14355548258E+03  0.29890547904E+03  0.25500000920E-02 0.  1.
</event>
<event>
 5   0  0.2684924E-02  0.6889641E+03  0.7818609E-02  0.9736293E-01
        1   -1    0    0  501    0  0.00000000000E+00  0.00000000000E+00  0.57552834754E+03  0.57552834756E+03  0.50400001928E-02 0. -1.
       -1   -1    0    0    0  501  0.00000000000E+00  0.00000000000E+00 -0.20618944560E+03  0.20618944566E+03  0.50400001928E-02 0.  1.
    10030    2    1    2    0    0  0.00000000000E+00  0.00000000000E+00  0.36933890194E+03  0.78171779322E+03  0.68896406564E+03 0.  0.
        4    1    3    3  502    0  0.82706751260E+02 -0.18781244689E+03 -0.12926042657E+03  0.24253616779E+03  0.12699999809E+01 0.  1.
       -4    1    3    3    0  502 -0.82706751260E+02  0.18781244689E+03  0.49859932851E+03  0.53918162543E+03  0.12699999809E+01 0. -1.
</event>
<event>
 5   0  0.2750139E-02  0.6833226E+03  0.7818609E-02  0.9746186E-01
       -1   -1    0    0    0  501  0.00000000000E+00  0.00000000000E+00  0.74055315230E+03  0.74055315232E+03  0.50400001928E-02 0.  1.
        1   -1    0    0  501    0  0.00000000000E+00  0.00000000000E+00 -0.15762870617E+03  0.15762870625E+03  0.50400001928E-02 0. -1.
    10030    2    1    2    0    0  0.00000000000E+00  0.00000000000E+00  0.58292444612E+03  0.89818185857E+03  0.68332257476E+03 0.  0.
        2    1    3    3  502    0 -0.26727448573E+03  0.21180623797E+03  0.26405063004E+03  0.43130067053E+03  0.25500000920E-02 0.  1.
       -2    1    3    3    0  502  0.26727448573E+03 -0.21180623797E+03  0.31887381608E+03  0.46688118804E+03  0.25500000920E-02 0. -1.
</event>
<event>
 5   0  0.2684924E-02  0.6940809E+03  0.7818609E-02  0.9727409E-01
       -1   -1    0    0    0  501  0.00000000000E+00  0.00000000000E+00  0.61199176786E+02  0.61199176993E+02  0.50400001928E-02 0. -1.
        1   -1    0    0  501    0  0.00000000000E+00  0.00000000000E+00 -0.19679524821E+04  0.19679524821E+04  0.50400001928E-02 0.  1.
    10030    2    1    2    0    0  0.00000000000E+00  0.00000000000E+00 -0.19067533053E+04  0.20291516591E+04  0.69408089463E+03 0.  0.
        4    1    3    3  502    0  0.18040830356E+02 -0.19441536569E+03 -0.11461663983E+03  0.22640978999E+03  0.12699999809E+01 0. -1.
       -4    1    3    3    0  502 -0.18040830356E+02  0.19441536569E+03 -0.17921366655E+04  0.18027418691E+04  0.12699999809E+01 0.  1.
</event>
<event>
 5   0  0.2777999E-02  0.6946806E+03  0.7818609E-02  0.9726373E-01
        1   -1    0    0  501    0  0.00000000000E+00  0.00000000000E+00  0.39495365665E+03  0.39495365668E+03  0.50400001928E-02 0.  1.
       -1   -1    0    0    0  501  0.00000000000E+00  0.00000000000E+00 -0.30546691612E+03  0.30546691616E+03  0.50400001928E-02 0. -1.
    10030    2    1    2    0    0  0.00000000000E+00  0.00000000000E+00  0.89486740525E+02  0.70042057284E+03  0.69468057561E+03 0.  0.
        5    1    3    3  502    0  0.64028523707E+02  0.34083219715E+03  0.25694218014E+02  0.34777653931E+03  0.46999998093E+01 0.  1.
       -5    1    3    3    0  502 -0.64028523707E+02 -0.34083219715E+03  0.63792522510E+02  0.35264403353E+03  0.46999998093E+01 0. -1.
</event>
<event>
 5   0  0.4299912E-02  0.7020688E+03  0.7818609E-02  0.9713701E-01
       -2   -1    0    0    0  501  0.00000000000E+00  0.00000000000E+00  0.13426801508E+03  0.13426801511E+03  0.25500000920E-02 0.  1.
        2   -1    0    0  501    0  0.00000000000E+00  0.00000000000E+00 -0.91775505570E+03  0.91775505570E+03  0.25500000920E-02 0. -1.
    10030    2    1    2    0    0  0.00000000000E+00  0.00000000000E+00 -0.78348704062E+03  0.10520230708E+04  0.70206879912E+03 0.  0.
        3    1    3    3  502    0  0.46975773670E+02  0.34520438650E+03 -0.32725137163E+03  0.47798144546E+03  0.10100000352E+00 0. -1.
       -3    1    3    3    0  502 -0.46975773670E+02 -0.34520438650E+03 -0.45623566899E+03  0.57404162535E+03  0.10100000352E+00 0.  1.
</event>
<event>
 5   0  0.1784625E-02  0.6975365E+03  0.7818609E-02  0.9721454E-01
        3   -1    0    0  501    0  0.00000000000E+00  0.00000000000E+00  0.10587873076E+03  0.10587877894E+03  0.10100000352E+00 0. -1.
       -3   -1    0    0    0  501  0.00000000000E+00  0.00000000000E+00 -0.11488545794E+04  0.11488545838E+04  0.10100000352E+00 0.  1.
    10030    2    1    2    0    0  0.00000000000E+00  0.00000000000E+00 -0.10429758486E+04  0.12547333628E+04  0.69753651576E+03 0.  0.
        2    1    3    3  502    0 -0.37954414249E+02 -0.31082394658E+03 -0.24522474257E+03  0.39772759234E+03  0.25500000920E-02 0. -1.
       -2    1    3    3    0  502  0.37954414249E+02  0.31082394658E+03 -0.79775110605E+03  0.85700577042E+03  0.25500000920E-02 0.  1.
</event>
<event>
 5   0  0.4299912E-02  0.5580762E+03  0.7818609E-02  0.9996417E-01
        2   -1    0    0  501    0  0.00000000000E+00  0.00000000000E+00  0.69578584864E+03  0.69578584864E+03  0.25500000920E-02 0.  1.
       -2   -1    0    0    0  501  0.00000000000E+00  0.00000000000E+00 -0.11190549762E+03  0.11190549765E+03  0.25500000920E-02 0. -1.
    10030    2    1    2    0    0  0.00000000000E+00  0.00000000000E+00  0.58388035102E+03  0.80769134629E+03  0.55807620140E+03 0.  0.
        3    1    3    3  502    0 -0.15194262757E+03 -0.23379236908E+03  0.30758266732E+03  0.41515363583E+03  0.10100000352E+00 0.  1.
       -3    1    3    3    0  502  0.15194262757E+03  0.23379236908E+03  0.27629768370E+03  0.39253771046E+03  0.10100000352E+00 0. -1.
</event>
<event>
 5   0  0.2758681E-02  0.7064098E+03  0.7818609E-02  0.9706333E-01
       -1   -1    0    0    0  501  0.00000000000E+00  0.00000000000E+00  0.21135171809E+03  0.21135171815E+03  0.50400001928E-02 0.  1.
        1   -1    0    0  501    0  0.00000000000E+00  0.00000000000E+00 -0.59026580451E+03  0.59026580453E+03  0.50400001928E-02 0. -1.
    10030    2    1    2    0    0  0.00000000000E+00  0.00000000000E+00 -0.37891408642E+03  0.80161752269E+03  0.70640977328E+03 0.  0.
        3    1    3    3  502    0 -0.51969514485E+01 -0.33234720737E+03 -0.32502374517E+03  0.46488936284E+03  0.10100000352E+00 0. -1.
       -3    1    3    3    0  502  0.51969514485E+01  0.33234720737E+03 -0.53890341246E+02  0.33672815985E+03  0.10100000352E+00 0.  1.
</event>
<event>
 5   0  0.2750139E-02  0.5898581E+03  0.7818609E-02  0.9926674E-01
        1   -1    0    0  501    0  0.00000000000E+00  0.00000000000E+00  0.10028134927E+04  0.10028134927E+04  0.50400001928E-02 0. -1.
       -1   -1    0    0    0  501  0.00000000000E+00  0.00000000000E+00 -0.86739092207E+02  0.86739092353E+02  0.50400001928E-02 0.  1.
    10030    2    1    2    0    0  0.00000000000E+00  0.00000000000E+00  0.91607440045E+03  0.10895525850E+04  0.58985805782E+03 0.  0.
        2    1    3    3  502    0  0.94702523089E+01  0.13283547752E+03  0.94411397214E+03  0.95346008945E+03  0.25500000920E-02 0. -1.
       -2    1    3    3    0  502 -0.94702523089E+01 -0.13283547752E+03 -0.28039571687E+02  0.13609249558E+03  0.25500000920E-02 0.  1.
</event>
<event>
 5   0  0.2777999E-02  0.6976247E+03  0.7818609E-02  0.9721303E-01
        1   -1    0    0  501    0  0.00000000000E+00  0.00000000000E+00  0.63269346337E+03  0.63269346339E+03  0.50400001928E-02 0.  1.
       -1   -1    0    0    0  501  0.00000000000E+00  0.00000000000E+00 -0.19230492661E+03  0.19230492667E+03  0.50400001928E-02 0. -1.
    10030    2    1    2    0    0  0.00000000000E+00  0.00000000000E+00  0.44038853677E+03  0.82499839007E+03  0.69762474175E+03 0.  0.
        5    1    3    3  502    0 -0.13900310955E+03 -0.24142581146E+03 -0.27978067565E+02  0.28002347967E+03  0.46999998093E+01 0. -1.
       -5    1    3    3    0  502  0.13900310955E+03  0.24142581146E+03  0.46836660433E+03  0.54497491039E+03  0.46999998093E+01 0.  1.
</event>
<event>
 5   0  0.4365492E-02  0.6384751E+03  0.7818609E-02  0.9828648E-01
       -2   -1    0    0    0  501  0.00000000000E+00  0.00000000000E+00  0.15072661346E+03  0.15072661348E+03  0.25500000920E-02 0. -1.
        2   -1    0    0  501    0  0.00000000000E+00  0.00000000000E+00 -0.67614207083E+03  0.67614207083E+03  0.25500000920E-02 0.  1.
    10030    2    1    2    0    0  0.00000000000E+00  0.00000000000E+00 -0.52541545736E+03  0.82686868431E+03  0.63847507255E+03 0.  0.
        4    1    3    3  502    0 -0.27554880541E+03  0.73254589412E+02 -0.76751047718E+02  0.29527227310E+03  0.12699999809E+01 0. -1.
       -4    1    3    3    0  502  0.27554880541E+03 -0.73254589412E+02 -0.44866440965E+03  0.53159641122E+03  0.12699999809E+01 0.  1.
</event>
<event>
 5   0  0.4365492E-02  0.7031325E+03  0.7818609E-02  0.9711890E-01
        2   -1    0    0  501    0  0.00000000000E+00  0.00000000000E+00  0.96276230615E+03  0.96276230615E+03  0.25500000920E-02 0.  1.
       -2   -1    0    0    0  501  0.00000000000E+00  0.00000000000E+00 -0.12837938450E+03  0.12837938453E+03  0.25500000920E-02 0. -1.
    10030    2    1    2    0    0  0.00000000000E+00  0.00000000000E+00  0.83438292164E+03  0.10911416907E+04  0.70313251184E+03 0.  0.
        4    1    3    3  502    0  0.23035423386E+03  0.20306454757E+03  0.15156588201E+03  0.34245016137E+03  0.12699999809E+01 0. -1.
       -4    1    3    3    0  502 -0.23035423386E+03 -0.20306454757E+03  0.68281703963E+03  0.74869152930E+03  0.12699999809E+01 0.  1.
</event>
<event>
 5   0  0.4299912E-02  0.6916089E+03  0.7818609E-02  0.9731691E-01
        2   -1    0    0  501    0  0.00000000000E+00  0.00000000000E+00  0.69296623653E+03  0.69296623653E+03  0.25500000920E-02 0. -1.
       -2   -1    0    0    0  501  0.00000000000E+00  0.00000000000E+00 -0.17256356268E+03  0.17256356270E+03  0.25500000920E-02 0.  1.
    10030    2    1    2    0    0  0.00000000000E+00  0.00000000000E+00  0.52040267385E+03  0.86552979923E+03  0.69160891435E+03 0.  0.
        3    1    3    3  502    0  0.19391575974E+03  0.27574151704E+03  0.35668661948E+03  0.49077699703E+03  0.10100000352E+00 0.  1.
       -3    1    3    3    0  502 -0.19391575974E+03 -0.27574151704E+03  0.16371605436E+03  0.37475280220E+03  0.10100000352E+00 0. -1.
</event>
<event>
 5   0  0.2684924E-02  0.6958708E+03  0.7818609E-02  0.9724320E-01
       -1   -1    0    0    0  501  0.00000000000E+00  0.00000000000E+00  0.11655146948E+03  0.11655146959E+03  0.50400001928E-02 0.  1.
        1   -1    0    0  501    0  0.00000000000E+00  0.00000000000E+00 -0.10386745186E+04  0.10386745186E+04  0.50400001928E-02 0. -1.
    10030    2    1    2    0    0  0.00000000000E+00  0.00000000000E+00 -0.92212304914E+03  0.11552259882E+04  0.69587079700E+03 0.  0.
        4    1    3    3  502    0 -0.19926439793E+03 -0.16041500641E+03 -0.69548130330E+02  0.26509966031E+03  0.12699999809E+01 0.  1.
       -4    1    3    3    0  502  0.19926439793E+03  0.16041500641E+03 -0.85257491881E+03  0.89012632792E+03  0.12699999809E+01 0. -1.
</event>
<event>
 5   0  0.4365492E-02  0.5923745E+03  0.7818609E-02  0.9921354E-01
       -2   -1    0    0    0  501  0.00000000000E+00  0.00000000000E+00  0.11344230208E+03  0.11344230211E+03  0.25500000920E-02 0. -1.
        2   -1    0    0  501    0  0.00000000000E+00  0.00000000000E+00 -0.77331731699E+03  0.77331731699E+03  0.25500000920E-02 0.  1.
    10030    2    1    2    0    0  0.00000000000E+00  0.00000000000E+00 -0.65987501491E+03  0.88675961911E+03  0.59237453252E+03 0.  0.
        4    1    3    3  502    0  0.14347243834E+03 -0.28002395004E+02 -0.71555104866E+03  0.73033101455E+03  0.12699999809E+01 0.  1.
       -4    1    3    3    0  502 -0.14347243834E+03  0.28002395004E+02  0.55676033750E+02  0.15642860455E+03  0.12699999809E+01 0. -1.
</event>
<event>
 5   0  0.2684924E-02  0.7194138E+03  0.7818609E-02  0.9684596E-01
        1   -1    0    0  501    0  0.00000000000E+00  0.00000000000E+00  0.20257698665E+03  0.20257698672E+03  0.50400001928E-02 0. -1.
       -1   -1    0    0    0  501  0.00000000000E+00  0.00000000000E+00 -0.63871546685E+03  0.63871546687E+03  0.50400001928E-02 0.  1.
    10030    2    1    2    0    0  0.00000000000E+00  0.00000000000E+00 -0.43613848020E+03  0.84129245359E+03  0.71941380203E+03 0.  0.
        4    1    3    3  502    0  0.13155690203E+03  0.11430573959E+03 -0.58604351164E+03  0.61140954443E+03  0.12699999809E+01 0.  1.
       -4    1    3    3    0  502 -0.13155690203E+03 -0.11430573959E+03  0.14990503144E+03  0.22988290916E+03  0.12699999809E+01 0. -1.
</event>
<event>
 5   0  0.4526837E-02  0.7167249E+03  0.7818609E-02  0.9689050E-01
        2   -1    0    0  501    0  0.00000000000E+00  0.00000000000E+00  0.11393588890E+03  0.11393588893E+03  0.25500000920E-02 0.  1.
       -2   -1    0    0    0  501  0.00000000000E+00  0.00000000000E+00 -0.11271570563E+04  0.11271570563E+04  0.25500000920E-02 0. -1.
    10030    2    1    2    0    0  0.00000000000E+00  0.00000000000E+00 -0.10132211674E+04  0.12410929452E+04  0.71672488770E+03 0.  0.
        1    1    3    3  502    0  0.23888396118E+03  0.20050010393E+03 -0.81226820719E+03  0.87008360461E+03  0.50400001928E-02 0. -1.
       -1    1    3    3    0  502 -0.23888396118E+03 -0.20050010393E+03 -0.20095296023E+03  0.37100934063E+03  0.50400001928E-02 0.  1.
</event>
<event>
 5   0  0.4420645E-02  0.6771633E+03  0.7818609E-02  0.9757103E-01
        2   -1    0    0  501    0  0.00000000000E+00  0.00000000000E+00  0.52981524926E+03  0.52981524927E+03  0.25500000920E-02 0.  1.
       -2   -1    0    0    0  501  0.00000000000E+00  0.00000000000E+00 -0.21637264427E+03  0.21637264428E+03  0.25500000920E-02 0. -1.
    10030    2    1    2    0    0  0.00000000000E+00  0.00000000000E+00  0.31344260499E+03  0.74618789355E+03  0.67716327858E+03 0.  0.
        5    1    3    3  502    0  0.84254617489E+02  0.66565236123E+02  0.51051813346E+03  0.52170933077E+03  0.46999998093E+01 0.  1.
       -5    1    3    3    0  502 -0.84254617489E+02 -0.66565236123E+02 -0.19707552846E+03  0.22447856278E+03  0.46999998093E+01 0. -1.
</event>
<event>
 5   0  0.2684924E-02  0.7005040E+03  0.7818609E-02  0.9716371E-01
       -1   -1    0    0    0  501  0.00000000000E+00  0.00000000000E+00  0.54860608200E+03  0.54860608202E+03  0.50400001928E-02 0. -1.
        1   -1    0    0  501    0  0.00000000000E+00  0.00000000000E+00 -0.22361483589E+03  0.22361483595E+03  0.50400001928E-02 0.  1.
    10030    2    1    2    0    0  0.00000000000E+00  0.00000000000E+00  0.32499124610E+03  0.77222091797E+03  0.70050398722E+03 0.  0.
        4    1    3    3  502    0  0.19842890991E+03  0.45337176019E+02 -0.15172176813E+03  0.25387122649E+03  0.12699999809E+01 0.  1.
       -4    1    3    3    0  502 -0.19842890991E+03 -0.45337176019E+02  0.47671301423E+03  0.51834969148E+03  0.12699999809E+01 0. -1.
</event>
<event>
 5   0  0.2684924E-02  0.7179939E+03  0.7818609E-02  0.9686946E-01
       -1   -1    0    0    0  501  0.00000000000E+00  0.00000000000E+00  0.95860323639E+02  0.95860323772E+02  0.50400001928E-02 0.  1.
        1   -1    0    0  501    0  0.00000000000E+00  0.00000000000E+00 -0.13444438878E+04  0.13444438878E+04  0.50400001928E-02 0. -1.
    10030    2    1    2    0    0  0.00000000000E+00  0.00000000000E+00 -0.12485835642E+04  0.14403042116E+04  0.71799394511E+03 0.  0.
        4    1    3    3  502    0 -0.15216617543E+03  0.18464656833E+03 -0.87413531162E+02  0.25473837259E+03  0.12699999809E+01 0.  1.
       -4    1    3    3    0  502  0.15216617543E+03 -0.18464656833E+03 -0.11611700330E+04  0.11855658390E+04  0.12699999809E+01 0. -1.
</event>
<event>
 5   0  0.2684924E-02  0.5100328E+03  0.7818609E-02  0.1011193E+00
        1   -1    0    0  501    0  0.00000000000E+00  0.00000000000E+00  0.39406113976E+03  0.39406113979E+03  0.50400001928E-02 0.  1.
       -1   -1    0    0    0  501  0.00000000000E+00  0.00000000000E+00 -0.16503368474E+03  0.16503368482E+03  0.50400001928E-02 0. -1.
    10030    2    1    2    0    0  0.00000000000E+00  0.00000000000E+00  0.22902745502E+03  0.55909482461E+03  0.51003279086E+03 0.  0.
        4    1    3    3  502    0 -0.17846493310E+03  0.81562842980E+02  0.29306052479E+03  0.35268727478E+03  0.12699999809E+01 0.  1.
       -4    1    3    3    0  502  0.17846493310E+03 -0.81562842980E+02 -0.64033069768E+02  0.20640754983E+03  0.12699999809E+01 0. -1.
</event>
<event>
 5   0  0.4365492E-02  0.6985103E+03  0.7818609E-02  0.9719783E-01
       -2   -1    0    0    0  501  0.00000000000E+00  0.00000000000E+00  0.96237806616E+03  0.96237806617E+03  0.25500000920E-02 0. -1.
        2   -1    0    0  501    0  0.00000000000E+00  0.00000000000E+00 -0.12674765051E+03  0.12674765053E+03  0.25500000920E-02 0.  1.
    10030    2    1    2    0    0  0.00000000000E+00  0.00000000000E+00  0.83563041566E+03  0.10891257167E+04  0.69851029714E+03 0.  0.
        4    1    3    3  502    0  0.12229915034E+03  0.27924693544E+03  0.68352989809E+03  0.74843213962E+03  0.12699999809E+01 0. -1.
       -4    1    3    3    0  502 -0.12229915034E+03 -0.27924693544E+03  0.15210051756E+03  0.34069357709E+03  0.12699999809E+01 0.  1.
</event>
<event>
 5   0  0.2751729E-02  0.6843891E+03  0.7818609E-02  0.9744308E-01
       -1   -1    0    0    0  501  0.00000000000E+00  0.00000000000E+00  0.32596894090E+03  0.32596894094E+03  0.50400001928E-02 0.  1.
        1   -1    0    0  501    0  0.00000000000E+00  0.00000000000E+00 -0.35922784488E+03  0.35922784492E+03  0.50400001928E-02 0. -1.
    10030    2    1    2    0    0  0.00000000000E+00  0.00000000000E+00 -0.33258903983E+02  0.68519678586E+03  0.68438912955E+03 0.  0.
        1    1    3    3  502    0 -0.11262798837E+03  0.28213610973E+03 -0.17433128048E+03  0.35025311356E+03  0.50400001928E-02 0. -1.
       -1    1    3    3    0  502  0.11262798837E+03 -0.28213610973E+03  0.14107237650E+03  0.33494367230E+03  0.50400001928E-02 0.  1.
</event>
<event>
 5   0  0.4526837E-02  0.7018496E+03  0.7818609E-02  0.9714074E-01
       -2   -1    0    0    0  501  0.00000000000E+00  0.00000000000E+00  0.60595770608E+02  0.60595770662E+02  0.25500000920E-02 0. -1.
        2   -1    0    0  501    0  0.00000000000E+00  0.00000000000E+00 -0.20322908079E+04  0.20322908079E+04  0.25500000920E-02 0.  1.
    10030    2    1    2    0    0  0.00000000000E+00  0.00000000000E+00 -0.19716950373E+04  0.20928865786E+04  0.70184963536E+03 0.  0.
        1    1    3    3  502    0 -0.24516650112E+03  0.11940925903E+03 -0.16444692542E+04  0.16669266068E+04  0.50400001928E-02 0.  1.
       -1    1    3    3    0  502  0.24516650112E+03 -0.11940925903E+03 -0.32722578314E+03  0.42595997182E+03  0.50400001928E-02 0. -1.
</event>
<event>
 5   0  0.2777999E-02  0.6942989E+03  0.7818609E-02  0.9727032E-01
       -1   -1    0    0    0  501  0.00000000000E+00  0.00000000000E+00  0.80555715802E+02  0.80555715960E+02  0.50400001928E-02 0.  1.
        1   -1    0    0  501    0  0.00000000000E+00  0.00000000000E+00 -0.14960174053E+04  0.14960174053E+04  0.50400001928E-02 0. -1.
    10030    2    1    2    0    0  0.00000000000E+00  0.00000000000E+00 -0.14154616895E+04  0.15765731213E+04  0.69429893581E+03 0.  0.
        5    1    3    3  502    0  0.32546975776E+03 -0.10591461983E+03 -0.57645543226E+03  0.67042630116E+03  0.46999998093E+01 0.  1.
       -5    1    3    3    0  502 -0.32546975776E+03  0.10591461983E+03 -0.83900625723E+03  0.90614682010E+03  0.46999998093E+01 0. -1.
</event>
<event>
 5   0  0.2777999E-02  0.6736686E+03  0.7818609E-02  0.9763353E-01
       -1   -1    0    0    0  501  0.00000000000E+00  0.00000000000E+00  0.40052723239E+03  0.40052723243E+03  0.50400001928E-02 0.  1.
        1   -1    0    0  501    0  0.00000000000E+00  0.00000000000E+00 -0.28326997077E+03  0.28326997081E+03  0.50400001928E-02 0. -1.
    10030    2    1    2    0    0  0.00000000000E+00  0.00000000000E+00  0.11725726163E+03  0.68379720324E+03  0.67366857560E+03 0.  0.
        5    1    3    3  502    0  0.65844349690E+02  0.26684664539E+03 -0.13895840449E+03  0.30801645852E+03  0.46999998093E+01 0. -1.
       -5    1    3    3    0  502 -0.65844349690E+02 -0.26684664539E+03  0.25621566611E+03  0.37578074472E+03  0.46999998093E+01 0.  1.
</event>
<event>
 5   0  0.4299912E-02  0.6926861E+03  0.7818609E-02  0.9729822E-01
        2   -1    0    0  501    0  0.00000000000E+00  0.00000000000E+00  0.75343022683E+03  0.75343022684E+03  0.25500000920E-02 0.  1.
       -2   -1    0    0    0  501  0.00000000000E+00  0.00000000000E+00 -0.15920982728E+03  0.15920982730E+03  0.25500000920E-02 0. -1.
    10030    2    1    2    0    0  0.00000000000E+00  0.00000000000E+00  0.59422039955E+03  0.91264005414E+03  0.69268606538E+03 0.  0.
        3    1    3    3  502    0  0.67991031343E+02 -0.61070939616E+02  0.73725665329E+03  0.74289960494E+03  0.10100000352E+00 0.  1.
       -3    1    3    3    0  502 -0.67991031343E+02  0.61070939616E+02 -0.14303625373E+03  0.16974044919E+03  0.10100000352E+00 0. -1.
</event>
<event>
 5   0  0.2751729E-02  0.7371428E+03  0.7818609E-02  0.9655740E-01
       -1   -1    0    0    0  501  0.00000000000E+00  0.00000000000E+00  0.23528687873E+03  0.23528687878E+03  0.50400001928E-02 0. -1.
        1   -1    0    0  501    0  0.00000000000E+00  0.00000000000E+00 -0.57735852078E+03  0.57735852080E+03  0.50400001928E-02 0.  1.
    10030    2    1    2    0    0  0.00000000000E+00  0.00000000000E+00 -0.34207164205E+03  0.81264539958E+03  0.73714282006E+03 0.  0.
        1    1    3    3  502    0 -0.36346252840E+03 -0.17986522674E+02 -0.10659942565E+03  0.37919910617E+03  0.50400001928E-02 0. -1.
       -1    1    3    3    0  502  0.36346252840E+03  0.17986522674E+02 -0.23547221640E+03  0.43344629341E+03  0.50400001928E-02 0.  1.
</event>
<event>
 5   0  0.2777999E-02  0.7154126E+03  0.7818609E-02  0.9691232E-01
        1   -1    0    0  501    0  0.00000000000E+00  0.00000000000E+00  0.10072562757E+04  0.10072562757E+04  0.50400001928E-02 0. -1.
       -1   -1    0    0    0  501  0.00000000000E+00  0.00000000000E+00 -0.12703201083E+03  0.12703201093E+03  0.50400001928E-02 0.  1.
    10030    2    1    2    0    0  0.00000000000E+00  0.00000000000E+00  0.88022426485E+03  0.11342882866E+04  0.71541258077E+03 0.  0.
        5    1    3    3  502    0 -0.17542017850E+03  0.23375689335E+03  0.76703784538E+03  0.82084326790E+03  0.46999998093E+01 0. -1.
       -5    1    3    3    0  502  0.17542017850E+03 -0.23375689335E+03  0.11318641947E+03  0.31344501872E+03  0.46999998093E+01 0.  1.
</event>
<event>
 5   0  0.1784625E-02  0.7136113E+03  0.7818609E-02  0.9694234E-01
        3   -1    0    0  501    0  0.00000000000E+00  0.00000000000E+00  0.27329589429E+04  0.27329589448E+04  0.10100000352E+00 0.  1.
       -3   -1    0    0    0  501  0.00000000000E+00  0.00000000000E+00 -0.46583256988E+02  0.46583366480E+02  0.10100000352E+00 0. -1.
    10030    2    1    2    0    0  0.00000000000E+00  0.00000000000E+00  0.26863756859E+04  0.27795423113E+04  0.71361133269E+03 0.  0.
        4    1    3    3  502    0  0.12772960401E+03 -0.11740204003E+03  0.12876950092E+03  0.21605852913E+03  0.12699999809E+01 0. -1.
       -4    1    3    3    0  502 -0.12772960401E+03  0.11740204003E+03  0.25576061850E+04  0.25634837821E+04  0.12699999809E+01 0.  1.
</event>
<event>
 5   0  0.4420645E-02  0.6830588E+03  0.7818609E-02  0.9746651E-01
       -2   -1    0    0    0  501  0.00000000000E+00  0.00000000000E+00  0.68091121243E+03  0.68091121243E+03  0.25500000920E-02 0.  1.
        2   -1    0    0  501    0  0.00000000000E+00  0.00000000000E+00 -0.17130327973E+03  0.17130327975E+03  0.25500000920E-02 0. -1.
    10030    2    1    2    0    0  0.00000000000E+00  0.00000000000E+00  0.50960793270E+03  0.85221449218E+03  0.68305877904E+03 0.  0.
        5    1    3    3  502    0  0.96732061295E+01  0.19180856833E+03  0.60710866149E+03  0.63677870148E+03  0.46999998093E+01 0.  1.
       -5    1    3    3    0  502 -0.96732061295E+01 -0.19180856833E+03 -0.97500728796E+02  0.21543579070E+03  0.46999998093E+01 0. -1.
</event>
<event>
 5   0  0.2751729E-02  0.6993150E+03  0.7818609E-02  0.9718404E-01
        1   -1    0    0  501    0  0.00000000000E+00  0.00000000000E+00  0.12336817849E+04  0.12336817849E+04  0.50400001928E-02 0. -1.
       -1   -1    0    0    0  501  0.00000000000E+00  0.00000000000E+00 -0.99102035589E+02  0.99102035718E+02  0.50400001928E-02 0.  1.
    10030    2    1    2    0    0  0.00000000000E+00  0.00000000000E+00  0.11345797493E+04  0.13327838206E+04  0.69931502556E+03 0.  0.
        1    1    3    3  502    0 -0.94055260935E+02  0.45914351679E+00 -0.74539740281E+02  0.12001156540E+03  0.50400001928E-02 0.  1.
       -1    1    3    3    0  502  0.94055260935E+02 -0.45914351679E+00  0.12091194896E+04  0.12127722552E+04  0.50400001928E-02 0. -1.
</event>
<event>
 5   0  0.2777999E-02  0.6943521E+03  0.7818609E-02  0.9726940E-01
       -1   -1    0    0    0  501  0.00000000000E+00  0.00000000000E+00  0.72932250031E+03  0.72932250033E+03  0.50400001928E-02 0.  1.
        1   -1    0    0  501    0  0.00000000000E+00  0.00000000000E+00 -0.16526462494E+03  0.16526462502E+03  0.50400001928E-02 0. -1.
    10030    2    1    2    0    0  0.00000000000E+00  0.00000000000E+00  0.56405787537E+03  0.89458712534E+03  0.69435209949E+03 0.  0.
        5    1    3    3  502    0 -0.18190775718E+03 -0.17061939775E+02  0.66232402083E+03  0.68707840926E+03  0.46999998093E+01 0.  1.
       -5    1    3    3    0  502  0.18190775718E+03  0.17061939775E+02 -0.98266145455E+02  0.20750871608E+03  0.46999998093E+01 0. -1.
</event>
<event>
 5   0  0.2758681E-02  0.6980809E+03  0.7818609E-02  0.9720520E-01
        1   -1    0    0  501    0  0.00000000000E+00  0.00000000000E+00  0.50754421564E+03  0.50754421566E+03  0.50400001928E-02 0. -1.
       -1   -1    0    0    0  501  0.00000000000E+00  0.00000000000E+00 -0.24003668790E+03  0.24003668795E+03  0.50400001928E-02 0.  1.
    10030    2    1    2    0    0  0.00000000000E+00  0.00000000000E+00  0.26750752774E+03  0.74758090361E+03  0.69808089076E+03 0.  0.
        3    1    3    3  502    0 -0.26333733122E+03  0.22406159431E+03  0.82628956257E+02  0.35549641724E+03  0.10100000352E+00 0.  1.
       -3    1    3    3    0  502  0.26333733122E+03 -0.22406159431E+03  0.18487857149E+03  0.39208448637E+03  0.10100000352E+00 0. -1.
</event>
<event>
 5   0  0.4365492E-02  0.6896164E+03  0.7818609E-02  0.9735156E-01
        2   -1    0    0  501    0  0.00000000000E+00  0.00000000000E+00  0.40878007481E+03  0.40878007481E+03  0.25500000920E-02 0.  1.
       -2   -1    0    0    0  501  0.00000000000E+00  0.00000000000E+00 -0.29084754750E+03  0.29084754751E+03  0.25500000920E-02 0. -1.
    10030    2    1    2    0    0  0.00000000000E+00  0.00000000000E+00  0.11793252730E+03  0.69962762233E+03  0.68961636359E+03 0.  0.
        4    1    3    3  502    0  0.14231009194E+03  0.25720736595E+03  0.24181388452E+03  0.38063546736E+03  0.12699999809E+01 0.  1.
       -4    1    3    3    0  502 -0.14231009194E+03 -0.25720736595E+03 -0.12388135721E+03  0.31899215497E+03  0.12699999809E+01 0. -1.
</event>
<event>
 5   0  0.2750139E-02  0.6975298E+03  0.7818609E-02  0.9721466E-01
       -1   -1    0    0    0  501  0.00000000000E+00  0.00000000000E+00  0.22097745002E+03  0.22097745008E+03  0.50400001928E-02 0.  1.
        1   -1    0    0  501    0  0.00000000000E+00  0.00000000000E+00 -0.55044955774E+03  0.55044955776E+03  0.50400001928E-02 0. -1.
    10030    2    1    2    0    0  0.00000000000E+00  0.00000000000E+00 -0.32947210771E+03  0.77142700784E+03  0.69752975468E+03 0.  0.
        2    1    3    3  502    0 -0.28061424864E+03  0.11095919896E+03 -0.35813556921E+03  0.46831334202E+03  0.25500000920E-02 0. -1.
       -2    1    3    3    0  502  0.28061424864E+03 -0.11095919896E+03  0.28663461498E+02  0.30311366582E+03  0.25500000920E-02 0.  1.
</event>
<event>
 5   0  0.2777999E-02  0.7164831E+03  0.7818609E-02  0.9689452E-01
        1   -1    0    0  501    0  0.00000000000E+00  0.00000000000E+00  0.13193716868E+04  0.13193716868E+04  0.50400001928E-02 0. -1.
       -1   -1    0    0    0  501  0.00000000000E+00  0.00000000000E+00 -0.97271293529E+02  0.97271293660E+02  0.50400001928E-02 0.  1.
    10030    2    1    2    0    0  0.00000000000E+00  0.00000000000E+00  0.12221003932E+04  0.14166429804E+04  0.71648305135E+03 0.  0.
        5    1    3    3  502    0  0.16568619155E+03  0.97927624561E+02  0.13704069224E+02  0.19300680101E+03  0.46999998093E+01 0.  1.
       -5    1    3    3    0  502 -0.16568619155E+03 -0.97927624561E+02  0.12083963240E+04  0.12236361794E+04  0.46999998093E+01 0. -1.
</event>
<event>
 5   0  0.4526837E-02  0.7090292E+03  0.7818609E-02  0.9701914E-01
        2   -1    0    0  501    0  0.00000000000E+00  0.00000000000E+00  0.12922309685E+03  0.12922309688E+03  0.25500000920E-02 0.  1.
       -2   -1    0    0    0  501  0.00000000000E+00  0.00000000000E+00 -0.97258631951E+03  0.97258631951E+03  0.25500000920E-02 0. -1.
    10030    2    1    2    0    0  0.00000000000E+00  0.00000000000E+00 -0.84336322266E+03  0.11018094164E+04  0.70902924109E+03 0.  0.
        1    1    3    3  502    0  0.84754819795E+02 -0.29683482463E+03 -0.15079882226E+03  0.34356160643E+03  0.50400001928E-02 0.  1.
       -1    1    3    3    0  502 -0.84754819795E+02  0.29683482463E+03 -0.69256440039E+03  0.75824780996E+03  0.50400001928E-02 0. -1.
</event>
<event>
 5   0  0.4365492E-02  0.6830960E+03  0.7818609E-02  0.9746585E-01
       -2   -1    0    0    0  501  0.00000000000E+00  0.00000000000E+00  0.20440873228E+03  0.20440873230E+03  0.25500000920E-02 0. -1.
        2   -1    0    0  501    0  0.00000000000E+00  0.00000000000E+00 -0.57069503214E+03  0.57069503214E+03  0.25500000920E-02 0.  1.
    10030    2    1    2    0    0  0.00000000000E+00  0.00000000000E+00 -0.36628629985E+03  0.77510376444E+03  0.68309603439E+03 0.  0.
        4    1    3    3  502    0 -0.73849768986E+02 -0.64494662763E+02  0.18809389343E+03  0.21211854127E+03  0.12699999809E+01 0. -1.
       -4    1    3    3    0  502  0.73849768986E+02  0.64494662763E+02 -0.55438019329E+03  0.56298522317E+03  0.12699999809E+01 0.  1.
</event>
<event>
 5   0  0.4365492E-02  0.6852101E+03  0.7818609E-02  0.9742865E-01
        2   -1    0    0  501    0  0.00000000000E+00  0.00000000000E+00  0.45523136822E+03  0.45523136823E+03  0.25500000920E-02 0. -1.
       -2   -1    0    0    0  501  0.00000000000E+00  0.00000000000E+00 -0.25784301110E+03  0.25784301111E+03  0.25500000920E-02 0.  1.
    10030    2    1    2    0    0  0.00000000000E+00  0.00000000000E+00  0.19738835712E+03  0.71307437934E+03  0.68521011883E+03 0.  0.
        4    1    3    3  502    0 -0.23496624825E+02 -0.33069987437E+03  0.18859052668E+03  0.38142167996E+03  0.12699999809E+01 0.  1.
       -4    1    3    3    0  502  0.23496624825E+02  0.33069987437E+03  0.87978304471E+01  0.33165269939E+03  0.12699999809E+01 0. -1.
</event>
<event>
 5   0  0.4503289E-02  0.7080047E+03  0.7818609E-02  0.9703640E-01
       -2   -1    0    0    0  501  0.00000000000E+00  0.00000000000E+00  0.12130876351E+03  0.12130876354E+03  0.25500000920E-02 0. -1.
        2   -1    0    0  501    0  0.00000000000E+00  0.00000000000E+00 -0.10330469841E+04  0.10330469841E+04  0.25500000920E-02 0.  1.
    10030    2    1    2    0    0  0.00000000000E+00  0.00000000000E+00 -0.91173822054E+03  0.11543557476E+04  0.70800466750E+03 0.  0.
        2    1    3    3  502    0 -0.84204026170E+01 -0.31073535419E+03 -0.17970260219E+03  0.35905485481E+03  0.25500000920E-02 0. -1.
       -2    1    3    3    0  502  0.84204026170E+01  0.31073535419E+03 -0.73203561835E+03  0.79530089278E+03  0.25500000920E-02 0.  1.
</event>
<event>
 5   0  0.4299912E-02  0.7012489E+03  0.7818609E-02  0.9715099E-01
       -2   -1    0    0    0  501  0.00000000000E+00  0.00000000000E+00  0.45055473377E+02  0.45055473449E+02  0.25500000920E-02 0.  1.
        2   -1    0    0  501    0  0.00000000000E+00  0.00000000000E+00 -0.27285809363E+04  0.27285809363E+04  0.25500000920E-02 0. -1.
    10030    2    1    2    0    0  0.00000000000E+00  0.00000000000E+00 -0.26835254630E+04  0.27736364098E+04  0.70124890256E+03 0.  0.
        3    1    3    3  502    0 -0.26846143659E+03 -0.21002166656E+03 -0.16668871190E+04  0.17013798286E+04  0.10100000352E+00 0. -1.
       -3    1    3    3    0  502  0.26846143659E+03  0.21002166656E+03 -0.10166383440E+04  0.10722565812E+04  0.10100000352E+00 0.  1.
</event>
<event>
 5   0  0.2758681E-02  0.7000550E+03  0.7818609E-02  0.9717138E-01
        1   -1    0    0  501    0  0.00000000000E+00  0.00000000000E+00  0.12779463006E+04  0.12779463006E+04  0.50400001928E-02 0. -1.
       -1   -1    0    0    0  501  0.00000000000E+00  0.00000000000E+00 -0.95871988924E+02  0.95871989056E+02  0.50400001928E-02 0.  1.
    10030    2    1    2    0    0  0.00000000000E+00  0.00000000000E+00  0.11820743117E+04  0.13738182897E+04  0.70005500834E+03 0.  0.
        3    1    3    3  502    0  0.21003365520E+03 -0.24576088217E+03  0.32769878610E+03  0.46032494190E+03  0.10100000352E+00 0.  1.
       -3    1    3    3    0  502 -0.21003365520E+03  0.24576088217E+03  0.85437552558E+03  0.91349334778E+03  0.10100000352E+00 0. -1.
</event>
<event>
 5   0  0.2684924E-02  0.6996761E+03  0.7818609E-02  0.9717786E-01
        1   -1    0    0  501    0  0.00000000000E+00  0.00000000000E+00  0.11884970234E+04  0.11884970234E+04  0.50400001928E-02 0.  1.
       -1   -1    0    0    0  501  0.00000000000E+00  0.00000000000E+00 -0.10297598118E+03  0.10297598131E+03  0.50400001928E-02 0. -1.
    10030    2    1    2    0    0  0.00000000000E+00  0.00000000000E+00  0.10855210422E+04  0.12914730047E+04  0.69967605991E+03 0.  0.
        4    1    3    3  502    0  0.14274219286E+03  0.25441666553E+03  0.18636100177E+03  0.34617222477E+03  0.12699999809E+01 0. -1.
       -4    1    3    3    0  502 -0.14274219286E+03 -0.25441666553E+03  0.89916004044E+03  0.94530077994E+03  0.12699999809E+01 0.  1.
</event>
<event>
 5   0  0.4299912E-02  0.6991840E+03  0.7818609E-02  0.9718629E-01
       -2   -1    0    0    0  501  0.00000000000E+00  0.00000000000E+00  0.87763880637E+02  0.87763880674E+02  0.25500000920E-02 0. -1.
        2   -1    0    0  501    0  0.00000000000E+00  0.00000000000E+00 -0.13925382587E+04  0.13925382587E+04  0.25500000920E-02 0.  1.
    10030    2    1    2    0    0  0.00000000000E+00  0.00000000000E+00 -0.13047743780E+04  0.14803021394E+04  0.69918398593E+03 0.  0.
        3    1    3    3  502    0 -0.24089212423E+03  0.46820224146E+02 -0.12524032107E+03  0.27551097460E+03  0.10100000352E+00 0. -1.
       -3    1    3    3    0  502  0.24089212423E+03 -0.46820224146E+02 -0.11795340570E+04  0.12047911647E+04  0.10100000352E+00 0.  1.
</event>
<event>
 5   0  0.4503289E-02  0.6553840E+03  0.7818609E-02  0.9796729E-01
        2   -1    0    0  501    0  0.00000000000E+00  0.00000000000E+00  0.10484560812E+04  0.10484560812E+04  0.25500000920E-02 0. -1.
       -2   -1    0    0    0  501  0.00000000000E+00  0.00000000000E+00 -0.10241921691E+03  0.10241921694E+03  0.25500000920E-02 0.  1.
    10030    2    1    2    0    0  0.00000000000E+00  0.00000000000E+00  0.94603686428E+03  0.11508752981E+04  0.65538401207E+03 0.  0.
        2    1    3    3  502    0  0.41146783050E+02 -0.27619438889E+03  0.17189272208E+03  0.32790777075E+03  0.25500000920E-02 0.  1.
       -2    1    3    3    0  502 -0.41146783050E+02  0.27619438889E+03  0.77414414220E+03  0.82296752738E+03  0.25500000920E-02 0. -1.
</event>
<event>
 5   0  0.2751729E-02  0.6918412E+03  0.7818609E-02  0.9731287E-01
       -1   -1    0    0    0  501  0.00000000000E+00  0.00000000000E+00  0.78604255478E+02  0.78604255639E+02  0.50400001928E-02 0. -1.
        1   -1    0    0  501    0  0.00000000000E+00  0.00000000000E+00 -0.15223228657E+04  0.15223228657E+04  0.50400001928E-02 0.  1.
    10030    2    1    2    0    0  0.00000000000E+00  0.00000000000E+00 -0.14437186102E+04  0.16009271213E+04  0.69184118290E+03 0.  0.
        1    1    3    3  502    0  0.33868468761E+03 -0.37720314384E+02 -0.85936124766E+03  0.92446302995E+03  0.50400001928E-02 0.  1.
       -1    1    3    3    0  502 -0.33868468761E+03  0.37720314384E+02 -0.58435736252E+03  0.67646409135E+03  0.50400001928E-02 0. -1.
</event>
<event>
 5   0  0.4526837E-02  0.6941928E+03  0.7818609E-02  0.9727215E-01
       -2   -1    0    0    0  501  0.00000000000E+00  0.00000000000E+00  0.82266587814E+02  0.82266587854E+02  0.25500000920E-02 0.  1.
        2   -1    0    0  501    0  0.00000000000E+00  0.00000000000E+00 -0.14644571766E+04  0.14644571766E+04  0.25500000920E-02 0. -1.
    10030    2    1    2    0    0  0.00000000000E+00  0.00000000000E+00 -0.13821905887E+04  0.15467237644E+04  0.69419275406E+03 0.  0.
        1    1    3    3  502    0 -0.39110926932E+02  0.24796776349E+03 -0.15701228687E+03  0.29609210491E+03  0.50400001928E-02 0.  1.
       -1    1    3    3    0  502  0.39110926932E+02 -0.24796776349E+03 -0.12251783019E+04  0.12506316595E+04  0.50400001928E-02 0. -1.
</event>
<event>
 5   0  0.2750139E-02  0.7722829E+03  0.7818609E-02  0.9601026E-01
        1   -1    0    0  501    0  0.00000000000E+00  0.00000000000E+00  0.12821354400E+04  0.12821354400E+04  0.50400001928E-02 0. -1.
       -1   -1    0    0    0  501  0.00000000000E+00  0.00000000000E+00 -0.11629442838E+03  0.11629442849E+03  0.50400001928E-02 0.  1.
    10030    2    1    2    0    0  0.00000000000E+00  0.00000000000E+00  0.11658410116E+04  0.13984298685E+04  0.77228287092E+03 0.  0.
        2    1    3    3  502    0  0.15980745101E+03 -0.12656557133E+03  0.11767548933E+04  0.11942819366E+04  0.25500000920E-02 0. -1.
       -2    1    3    3    0  502 -0.15980745101E+03  0.12656557133E+03 -0.10913881738E+02  0.20414793182E+03  0.25500000920E-02 0.  1.
</event>
<event>
 5   0  0.4420645E-02  0.6470834E+03  0.7818609E-02  0.9812267E-01
        2   -1    0    0  501    0  0.00000000000E+00  0.00000000000E+00  0.52480411218E+03  0.52480411219E+03  0.25500000920E-02 0.  1.
       -2   -1    0    0    0  501  0.00000000000E+00  0.00000000000E+00 -0.19946342489E+03  0.19946342490E+03  0.25500000920E-02 0. -1.
    10030    2    1    2    0    0  0.00000000000E+00  0.00000000000E+00  0.32534068730E+03  0.72426753709E+03  0.64708338139E+03 0.  0.
        5    1    3    3  502    0 -0.20992920730E+03  0.81270092726E+02  0.42272426211E+03  0.47894988446E+03  0.46999998093E+01 0. -1.
       -5    1    3    3    0  502  0.20992920730E+03 -0.81270092726E+02 -0.97383574815E+02  0.24531765263E+03  0.46999998093E+01 0.  1.
</event>
<event>
 5   0  0.1784625E-02  0.6928062E+03  0.7818609E-02  0.9729614E-01
        4   -1    0    0  501    0  0.00000000000E+00  0.00000000000E+00  0.25115131414E+03  0.25115452513E+03  0.12699999809E+01 0.  1.
       -4   -1    0    0    0  501  0.00000000000E+00  0.00000000000E+00 -0.47777295965E+03  0.47777464758E+03  0.12699999809E+01 0. -1.
    10030    2    1    2    0    0  0.00000000000E+00  0.00000000000E+00 -0.22662164552E+03  0.72892917271E+03  0.69280615515E+03 0.  0.
        5    1    3    3  502    0  0.10891692177E+03 -0.15760199708E+03  0.19030356871E+03  0.27007188598E+03  0.46999998093E+01 0.  1.
       -5    1    3    3    0  502 -0.10891692177E+03  0.15760199708E+03 -0.41692521423E+03  0.45885728674E+03  0.46999998093E+01 0. -1.
</event>
<event>
 5   0  0.2751729E-02  0.6949588E+03  0.7818609E-02  0.9725892E-01
        1   -1    0    0  501    0  0.00000000000E+00  0.00000000000E+00  0.11074437070E+04  0.11074437070E+04  0.50400001928E-02 0.  1.
       -1   -1    0    0    0  501  0.00000000000E+00  0.00000000000E+00 -0.10902761522E+03  0.10902761534E+03  0.50400001928E-02 0. -1.
    10030    2    1    2    0    0  0.00000000000E+00  0.00000000000E+00  0.99841609182E+03  0.12164713224E+04  0.69495883748E+03 0.  0.
        1    1    3    3  502    0 -0.23935927942E+02 -0.30054614811E+03  0.80158570625E+03  0.85641144334E+03  0.50400001928E-02 0.  1.
       -1    1    3    3    0  502  0.23935927942E+02  0.30054614811E+03  0.19683038557E+03  0.36005987905E+03  0.50400001928E-02 0. -1.
</event>
<event>
 5   0  0.2777999E-02  0.7018509E+03  0.7818609E-02  0.9714072E-01
        1   -1    0    0  501    0  0.00000000000E+00  0.00000000000E+00  0.33186582535E+03  0.33186582539E+03  0.50400001928E-02 0. -1.
       -1   -1    0    0    0  501  0.00000000000E+00  0.00000000000E+00 -0.37107972406E+03  0.37107972410E+03  0.50400001928E-02 0.  1.
    10030    2    1    2    0    0  0.00000000000E+00  0.00000000000E+00 -0.39213898711E+02  0.70294554949E+03  0.70185092127E+03 0.  0.
        5    1    3    3  502    0 -0.17241972211E+03 -0.28411976492E+03  0.93147437887E+02  0.34518275822E+03  0.46999998093E+01 0. -1.
       -5    1    3    3    0  502  0.17241972211E+03  0.28411976492E+03 -0.13236133660E+03  0.35776279127E+03  0.46999998093E+01 0.  1.
</event>
<event>
 5   0  0.4526837E-02  0.7038807E+03  0.7818609E-02  0.9710619E-01
        2   -1    0    0  501    0  0.00000000000E+00  0.00000000000E+00  0.19161885104E+04  0.19161885104E+04  0.25500000920E-02 0. -1.
       -2   -1    0    0    0  501  0.00000000000E+00  0.00000000000E+00 -0.64639776729E+02  0.64639776780E+02  0.25500000920E-02 0.  1.
    10030    2    1    2    0    0  0.00000000000E+00  0.00000000000E+00  0.18515487337E+04  0.19808282872E+04  0.70388066470E+03 0.  0.
        1    1    3    3  502    0  0.15412291505E+03 -0.30045410755E+03  0.12048648295E+04  0.12512896552E+04  0.50400001928E-02 0. -1.
       -1    1    3    3    0  502 -0.15412291505E+03  0.30045410755E+03  0.64668390414E+03  0.72953863201E+03  0.50400001928E-02 0.  1.
</event>
<event>
 5   0  0.2758681E-02  0.6490058E+03  0.7818609E-02  0.9808647E-01
       -1   -1    0    0    0  501  0.00000000000E+00  0.00000000000E+00  0.47033638363E+03  0.47033638366E+03  0.50400001928E-02 0.  1.
        1   -1    0    0  501    0  0.00000000000E+00  0.00000000000E+00 -0.22388685388E+03  0.22388685393E+03  0.50400001928E-02 0. -1.
    10030    2    1    2    0    0  0.00000000000E+00  0.00000000000E+00  0.24644952976E+03  0.69422323759E+03  0.64900580344E+03 0.  0.
        3    1    3    3  502    0  0.93639016755E+02  0.18067207705E+03  0.39360314775E+03  0.44309605393E+03  0.10100000352E+00 0.  1.
       -3    1    3    3    0  502 -0.93639016755E+02 -0.18067207705E+03 -0.14715361800E+03  0.25112718366E+03  0.10100000352E+00 0. -1.
</event>
<event>
 5   0  0.4503289E-02  0.7024262E+03  0.7818609E-02  0.9713092E-01
        2   -1    0    0  501    0  0.00000000000E+00  0.00000000000E+00  0.20304842168E+04  0.20304842168E+04  0.25500000920E-02 0.  1.
       -2   -1    0    0    0  501  0.00000000000E+00  0.00000000000E+00 -0.60749365209E+02  0.60749365262E+02  0.25500000920E-02 0. -1.
    10030    2    1    2    0    0  0.00000000000E+00  0.00000000000E+00  0.19697348516E+04  0.20912335820E+04  0.70242615923E+03 0.  0.
        2    1    3    3  502    0 -0.48862777193E+02 -0.12577709285E+03  0.19500490298E+02  0.13633677863E+03  0.25500000920E-02 0. -1.
       -2    1    3    3    0  502  0.48862777193E+02  0.12577709285E+03  0.19502343613E+04  0.19548968034E+04  0.25500000920E-02 0.  1.
</event>
<event>
 5   0  0.2684924E-02  0.7068255E+03  0.7818609E-02  0.9705630E-01
        1   -1    0    0  501    0  0.00000000000E+00  0.00000000000E+00  0.54289793672E+03  0.54289793674E+03  0.50400001928E-02 0. -1.
       -1   -1    0    0    0  501  0.00000000000E+00  0.00000000000E+00 -0.23006272054E+03  0.23006272060E+03  0.50400001928E-02 0.  1.
    10030    2    1    2    0    0  0.00000000000E+00  0.00000000000E+00  0.31283521617E+03  0.77296065734E+03  0.70682551263E+03 0.  0.
        4    1    3    3  502    0  0.10133108147E+03 -0.43970952890E+02 -0.21069759731E+03  0.23790023788E+03  0.12699999809E+01 0.  1.
       -4    1    3    3    0  502 -0.10133108147E+03  0.43970952890E+02  0.52353281349E+03  0.53506041946E+03  0.12699999809E+01 0. -1.
</event>
<event>
 5   0  0.2777999E-02  0.7029567E+03  0.7818609E-02  0.9712189E-01
        1   -1    0    0  501    0  0.00000000000E+00  0.00000000000E+00  0.22969304462E+03  0.22969304468E+03  0.50400001928E-02 0. -1.
       -1   -1    0    0    0  501  0.00000000000E+00  0.00000000000E+00 -0.53783537974E+03  0.53783537976E+03  0.50400001928E-02 0.  1.
    10030    2    1    2    0    0  0.00000000000E+00  0.00000000000E+00 -0.30814233512E+03  0.76752842444E+03  0.70295674378E+03 0.  0.
        5    1    3    3  502    0  0.65530888006E+02 -0.34516413859E+03 -0.16398100111E+03  0.38774274794E+03  0.46999998093E+01 0. -1.
       -5    1    3    3    0  502 -0.65530888006E+02  0.34516413859E+03 -0.14416133401E+03  0.37978567650E+03  0.46999998093E+01 0.  1.
</event>
<event>
 5   0  0.4420645E-02  0.7012739E+03  0.7818609E-02  0.9715056E-01
       -2   -1    0    0    0  501  0.00000000000E+00  0.00000000000E+00  0.92536649619E+02  0.92536649654E+02  0.25500000920E-02 0.  1.
        2   -1    0    0  501    0  0.00000000000E+00  0.00000000000E+00 -0.13286224463E+04  0.13286224463E+04  0.25500000920E-02 0. -1.
    10030    2    1    2    0    0  0.00000000000E+00  0.00000000000E+00 -0.12360857967E+04  0.14211590959E+04  0.70127389746E+03 0.  0.
        5    1    3    3  502    0  0.22617956469E+01 -0.26264256482E+03 -0.10886974164E+04  0.11199421356E+04  0.46999998093E+01 0. -1.
       -5    1    3    3    0  502 -0.22617956469E+01  0.26264256482E+03 -0.14738838028E+03  0.30121696037E+03  0.46999998093E+01 0.  1.
</event>
<event>
 5   0  0.2777999E-02  0.7069185E+03  0.7818609E-02  0.9705473E-01
        1   -1    0    0  501    0  0.00000000000E+00  0.00000000000E+00  0.49955189942E+03  0.49955189945E+03  0.50400001928E-02 0. -1.
       -1   -1    0    0    0  501  0.00000000000E+00  0.00000000000E+00 -0.25009102641E+03  0.25009102646E+03  0.50400001928E-02 0.  1.
    10030    2    1    2    0    0  0.00000000000E+00  0.00000000000E+00  0.24946087302E+03  0.74964292591E+03  0.70691851666E+03 0.  0.
        5    1    3    3  502    0 -0.28373943820E+02  0.32079258818E+03 -0.29665742706E+02  0.32344259399E+03  0.46999998093E+01 0.  1.
       -5    1    3    3    0  502  0.28373943820E+02 -0.32079258818E+03  0.27912661572E+03  0.42620033191E+03  0.46999998093E+01 0. -1.
</event>
<event>
 5   0  0.1784625E-02  0.6881509E+03  0.7818609E-02  0.9737713E-01
        4   -1    0    0  501    0  0.00000000000E+00  0.00000000000E+00  0.37729087500E+03  0.37729301247E+03  0.12699999809E+01 0. -1.
       -4   -1    0    0    0  501  0.00000000000E+00  0.00000000000E+00 -0.31377990665E+03  0.31378247675E+03  0.12699999809E+01 0.  1.
    10030    2    1    2    0    0  0.00000000000E+00  0.00000000000E+00  0.63510968356E+02  0.69107548923E+03  0.68815092001E+03 0.  0.
        1    1    3    3  502    0  0.29515757147E+02  0.33998928132E+03  0.75805676295E+02  0.34958602935E+03  0.50400001928E-02 0.  1.
       -1    1    3    3    0  502 -0.29515757147E+02 -0.33998928132E+03 -0.12294707939E+02  0.34148945987E+03  0.50400001928E-02 0. -1.
</event>
<event>
 5   0  0.4526837E-02  0.7070211E+03  0.7818609E-02  0.9705300E-01
       -2   -1    0    0    0  501  0.00000000000E+00  0.00000000000E+00  0.10925991627E+03  0.10925991630E+03  0.25500000920E-02 0.  1.
        2   -1    0    0  501    0  0.00000000000E+00  0.00000000000E+00 -0.11437835180E+04  0.11437835180E+04  0.25500000920E-02 0. -1.
    10030    2    1    2    0    0  0.00000000000E+00  0.00000000000E+00 -0.10345236017E+04  0.12530434343E+04  0.70702105041E+03 0.  0.
        1    1    3    3  502    0  0.23901015111E+03  0.16577284759E+03 -0.87332458789E+03  0.92049026348E+03  0.50400001928E-02 0. -1.
       -1    1    3    3    0  502 -0.23901015111E+03 -0.16577284759E+03 -0.16119901382E+03  0.33255317081E+03  0.50400001928E-02 0.  1.
</event>
<event>
 5   0  0.2684924E-02  0.6924324E+03  0.7818609E-02  0.9730262E-01
        1   -1    0    0  501    0  0.00000000000E+00  0.00000000000E+00  0.43384443693E+03  0.43384443696E+03  0.50400001928E-02 0.  1.
       -1   -1    0    0    0  501  0.00000000000E+00  0.00000000000E+00 -0.27628717330E+03  0.27628717335E+03  0.50400001928E-02 0. -1.
    10030    2    1    2    0    0  0.00000000000E+00  0.00000000000E+00  0.15755726363E+03  0.71013161031E+03  0.69243238850E+03 0.  0.
        4    1    3    3  502    0 -0.11420099703E+03 -0.26520502273E+03  0.27468082075E+03  0.39853072402E+03  0.12699999809E+01 0. -1.
       -4    1    3    3    0  502  0.11420099703E+03  0.26520502273E+03 -0.11712355712E+03  0.31160088629E+03  0.12699999809E+01 0.  1.
</event>
<event>
 5   0  0.4526837E-02  0.6988369E+03  0.7818609E-02  0.9719223E-01
       -2   -1    0    0    0  501  0.00000000000E+00  0.00000000000E+00  0.19089843812E+03  0.19089843813E+03  0.25500000920E-02 0.  1.
        2   -1    0    0  501    0  0.00000000000E+00  0.00000000000E+00 -0.63957175547E+03  0.63957175547E+03  0.25500000920E-02 0. -1.
    10030    2    1    2    0    0  0.00000000000E+00  0.00000000000E+00 -0.44867331735E+03  0.83047019360E+03  0.69883688852E+03 0.  0.
        1    1    3    3  502    0 -0.45595965611E+02  0.24249156833E+03 -0.51834987639E+03  0.57407991357E+03  0.50400001928E-02 0. -1.
       -1    1    3    3    0  502  0.45595965611E+02 -0.24249156833E+03  0.69676559040E+02  0.25639028003E+03  0.50400001928E-02 0.  1.
</event>
<event>
 5   0  0.4526837E-02  0.7063575E+03  0.7818609E-02  0.9706421E-01
        2   -1    0    0  501    0  0.00000000000E+00  0.00000000000E+00  0.85951182505E+03  0.85951182505E+03  0.25500000920E-02 0. -1.
       -2   -1    0    0    0  501  0.00000000000E+00  0.00000000000E+00 -0.14512333309E+03  0.14512333311E+03  0.25500000920E-02 0.  1.
    10030    2    1    2    0    0  0.00000000000E+00  0.00000000000E+00  0.71438849196E+03  0.10046351582E+04  0.70635747577E+03 0.  0.
        1    1    3    3  502    0  0.21814064610E+03  0.98143864902E+01  0.75199699970E+03  0.78305884278E+03  0.50400001928E-02 0. -1.
       -1    1    3    3    0  502 -0.21814064610E+03 -0.98143864902E+01 -0.37608507747E+02  0.22157631539E+03  0.50400001928E-02 0.  1.
</event>
<event>
 5   0  0.2684924E-02  0.7231406E+03  0.7818609E-02  0.9678457E-01
       -1   -1    0    0    0  501  0.00000000000E+00  0.00000000000E+00  0.13449431303E+03  0.13449431313E+03  0.50400001928E-02 0.  1.
        1   -1    0    0  501    0  0.00000000000E+00  0.00000000000E+00 -0.97203424835E+03  0.97203424836E+03  0.50400001928E-02 0. -1.
    10030    2    1    2    0    0  0.00000000000E+00  0.00000000000E+00 -0.83753993532E+03  0.11065285615E+04  0.72314059085E+03 0.  0.
        4    1    3    3  502    0 -0.62284618323E+02  0.32701267917E+03 -0.63470736322E+03  0.71670894779E+03  0.12699999809E+01 0. -1.
       -4    1    3    3    0  502  0.62284618323E+02 -0.32701267917E+03 -0.20283257209E+03  0.38981961369E+03  0.12699999809E+01 0.  1.
</event>
<event>
 5   0  0.2758681E-02  0.6799368E+03  0.7818609E-02  0.9752172E-01
        1   -1    0    0  501    0  0.00000000000E+00  0.00000000000E+00  0.11515064827E+04  0.11515064827E+04  0.50400001928E-02 0. -1.
       -1   -1    0    0    0  501  0.00000000000E+00  0.00000000000E+00 -0.10037157465E+03  0.10037157477E+03  0.50400001928E-02 0.  1.
    10030    2    1    2    0    0  0.00000000000E+00  0.00000000000E+00  0.10511349080E+04  0.12518780574E+04  0.67993681755E+03 0.  0.
        3    1    3    3  502    0 -0.58052680127E+02 -0.46014704388E+01 -0.91120074049E+02  0.10813956397E+03  0.10100000352E+00 0.  1.
       -3    1    3    3    0  502  0.58052680127E+02  0.46014704388E+01  0.11422549821E+04  0.11437384935E+04  0.10100000352E+00 0. -1.
</event>
<event>
 5   0  0.1784625E-02  0.7152793E+03  0.7818609E-02  0.9691454E-01
       -3   -1    0    0    0  501  0.00000000000E+00  0.00000000000E+00  0.13482973999E+03  0.13482977782E+03  0.10100000352E+00 0. -1.
        3   -1    0    0  501    0  0.00000000000E+00  0.00000000000E+00 -0.94864885521E+03  0.94864886059E+03  0.10100000352E+00 0.  1.
    10030    2    1    2    0    0  0.00000000000E+00  0.00000000000E+00 -0.81381911523E+03  0.10834786384E+04  0.71527925146E+03 0.  0.
        1    1    3    3  502    0  0.93714493365E+02 -0.87543804718E+02  0.98803086790E+02  0.16189000585E+03  0.50400001928E-02 0. -1.
       -1    1    3    3    0  502 -0.93714493365E+02  0.87543804718E+02 -0.91262220202E+03  0.92158863255E+03  0.50400001928E-02 0.  1.
</event>
<event>
 5   0  0.4365492E-02  0.7024226E+03  0.7818609E-02  0.9713098E-01
        2   -1    0    0  501    0  0.00000000000E+00  0.00000000000E+00  0.47956567724E+03  0.47956567725E+03  0.25500000920E-02 0. -1.
       -2   -1    0    0    0  501  0.00000000000E+00  0.00000000000E+00 -0.25721063570E+03  0.25721063571E+03  0.25500000920E-02 0.  1.
    10030    2    1    2    0    0  0.00000000000E+00  0.00000000000E+00  0.22235504155E+03  0.73677631296E+03  0.70242264403E+03 0.  0.
        4    1    3    3  502    0  0.16129311054E+03 -0.29573024488E+03  0.69394767459E+01  0.33692968774E+03  0.12699999809E+01 0.  1.
       -4    1    3    3    0  502 -0.16129311054E+03  0.29573024488E+03  0.21541556480E+03  0.39984662522E+03  0.12699999809E+01 0. -1.
</event>
<event>
 5   0  0.2684924E-02  0.7021426E+03  0.7818609E-02  0.9713575E-01
        1   -1    0    0  501    0  0.00000000000E+00  0.00000000000E+00  0.53970058175E+03  0.53970058178E+03  0.50400001928E-02 0. -1.
       -1   -1    0    0    0  501  0.00000000000E+00  0.00000000000E+00 -0.22836931418E+03  0.22836931424E+03  0.50400001928E-02 0.  1.
    10030    2    1    2    0    0  0.00000000000E+00  0.00000000000E+00  0.31133126757E+03  0.76806989602E+03  0.70214258310E+03 0.  0.
        4    1    3    3  502    0 -0.18702617221E+03 -0.21752558971E+03 -0.65704848081E+02  0.29430411351E+03  0.12699999809E+01 0.  1.
       -4    1    3    3    0  502  0.18702617221E+03  0.21752558971E+03  0.37703611565E+03  0.47376578250E+03  0.12699999809E+01 0. -1.
</event>
<event>
 5   0  0.2751729E-02  0.6904265E+03  0.7818609E-02  0.9733746E-01
       -1   -1    0    0    0  501  0.00000000000E+00  0.00000000000E+00  0.11216126879E+03  0.11216126890E+03  0.50400001928E-02 0. -1.
        1   -1    0    0  501    0  0.00000000000E+00  0.00000000000E+00 -0.10625076055E+04  0.10625076055E+04  0.50400001928E-02 0.  1.
    10030    2    1    2    0    0  0.00000000000E+00  0.00000000000E+00 -0.95034633674E+03  0.11746688744E+04  0.69042653833E+03 0.  0.
        1    1    3    3  502    0 -0.57915357117E+02 -0.30241964286E+03 -0.74071927902E+03  0.80217010622E+03  0.50400001928E-02 0.  1.
       -1    1    3    3    0  502  0.57915357117E+02  0.30241964286E+03 -0.20962705772E+03  0.37249876822E+03  0.50400001928E-02 0. -1.
</event>
<event>
 5   0  0.2777999E-02  0.6773778E+03  0.7818609E-02  0.9756721E-01
       -1   -1    0    0    0  501  0.00000000000E+00  0.00000000000E+00  0.18113307695E+03  0.18113307702E+03  0.50400001928E-02 0.  1.
        1   -1    0    0  501    0  0.00000000000E+00  0.00000000000E+00 -0.63329229866E+03  0.63329229868E+03  0.50400001928E-02 0. -1.
    10030    2    1    2    0    0  0.00000000000E+00  0.00000000000E+00 -0.45215922171E+03  0.81442537571E+03  0.67737783461E+03 0.  0.
        5    1    3    3  502    0 -0.31772181574E+03  0.50946715588E+02 -0.99148636732E+02  0.33674213011E+03  0.46999998093E+01 0.  1.
       -5    1    3    3    0  502  0.31772181574E+03 -0.50946715588E+02 -0.35301058497E+03  0.47768324560E+03  0.46999998093E+01 0. -1.
</event>
<event>
 5   0  0.4365492E-02  0.7050909E+03  0.7818609E-02  0.9708565E-01
        2   -1    0    0  501    0  0.00000000000E+00  0.00000000000E+00  0.10820960245E+04  0.10820960245E+04  0.25500000920E-02 0.  1.
       -2   -1    0    0    0  501  0.00000000000E+00  0.00000000000E+00 -0.11485883785E+03  0.11485883787E+03  0.25500000920E-02 0. -1.
    10030    2    1    2    0    0  0.00000000000E+00  0.00000000000E+00  0.96723718667E+03  0.11969548624E+04  0.70509089296E+03 0.  0.
        4    1    3    3  502    0  0.28787569199E+03 -0.65592107445E+02  0.81065002730E+03  0.86274551187E+03  0.12699999809E+01 0.  1.
       -4    1    3    3    0  502 -0.28787569199E+03  0.65592107445E+02  0.15658715937E+03  0.33420935052E+03  0.12699999809E+01 0. -1.
</event>
<event>
 5   0  0.4503289E-02  0.6971680E+03  0.7818609E-02  0.9722088E-01
       -2   -1    0    0    0  501  0.00000000000E+00  0.00000000000E+00  0.20164804625E+04  0.20164804625E+04  0.25500000920E-02 0.  1.
        2   -1    0    0  501    0  0.00000000000E+00  0.00000000000E+00 -0.60258852610E+02  0.60258852664E+02  0.25500000920E-02 0. -1.
    10030    2    1    2    0    0  0.00000000000E+00  0.00000000000E+00  0.19562216099E+04  0.20767393152E+04  0.69716798274E+03 0.  0.
        2    1    3    3  502    0  0.21631174041E+02  0.10432909118E+03  0.19667850626E+04  0.19696689949E+04  0.25500000920E-02 0.  1.
       -2    1    3    3    0  502 -0.21631174041E+02 -0.10432909118E+03 -0.10563452655E+02  0.10707032033E+03  0.25500000920E-02 0. -1.
</event>
<event>
 5   0  0.2777999E-02  0.6758173E+03  0.7818609E-02  0.9759505E-01
       -1   -1    0    0    0  501  0.00000000000E+00  0.00000000000E+00  0.56535572983E+03  0.56535572985E+03  0.50400001928E-02 0. -1.
        1   -1    0    0  501    0  0.00000000000E+00  0.00000000000E+00 -0.20196535628E+03  0.20196535634E+03  0.50400001928E-02 0.  1.
    10030    2    1    2    0    0  0.00000000000E+00  0.00000000000E+00  0.36339037354E+03  0.76732108619E+03  0.67581734643E+03 0.  0.
        5    1    3    3  502    0  0.12579848397E+03 -0.26055824641E+03  0.37980270584E+03  0.47748093543E+03  0.46999998093E+01 0. -1.
       -5    1    3    3    0  502 -0.12579848397E+03  0.26055824641E+03 -0.16412332292E+02  0.28984015076E+03  0.46999998093E+01 0.  1.
</event>
<event>
 5   0  0.2751729E-02  0.6368366E+03  0.7818609E-02  0.9831798E-01
        1   -1    0    0  501    0  0.00000000000E+00  0.00000000000E+00  0.53833018786E+03  0.53833018789E+03  0.50400001928E-02 0. -1.
       -1   -1    0    0    0  501  0.00000000000E+00  0.00000000000E+00 -0.18834206140E+03  0.18834206147E+03  0.50400001928E-02 0.  1.
    10030    2    1    2    0    0  0.00000000000E+00  0.00000000000E+00  0.34998812646E+03  0.72667224936E+03  0.63683661117E+03 0.  0.
        1    1    3    3  502    0  0.22358263840E+03 -0.12894078937E+03  0.38778148750E+03  0.46582121616E+03  0.50400001928E-02 0. -1.
       -1    1    3    3    0  502 -0.22358263840E+03  0.12894078937E+03 -0.37793361037E+02  0.26085103320E+03  0.50400001928E-02 0.  1.
</event>
<event>
 5   0  0.4299912E-02  0.6893740E+03  0.7818609E-02  0.9735579E-01
       -2   -1    0    0    0  501  0.00000000000E+00  0.00000000000E+00  0.15654362167E+03  0.15654362169E+03  0.25500000920E-02 0. -1.
        2   -1    0    0  501    0  0.00000000000E+00  0.00000000000E+00 -0.75895221850E+03  0.75895221850E+03  0.25500000920E-02 0.  1.
    10030    2    1    2    0    0  0.00000000000E+00  0.00000000000E+00 -0.60240859683E+03  0.91549584019E+03  0.68937400289E+03 0.  0.
        3    1    3    3  502    0  0.24115035961E+03  0.18059680862E+03 -0.78825337652E+02  0.31141956792E+03  0.10100000352E+00 0. -1.
       -3    1    3    3    0  502 -0.24115035961E+03 -0.18059680862E+03 -0.52358325918E+03  0.60407627227E+03  0.10100000352E+00 0.  1.
</event>
<event>
 5   0  0.4365492E-02  0.6981970E+03  0.7818609E-02  0.9720321E-01
       -2   -1    0    0    0  501  0.00000000000E+00  0.00000000000E+00  0.69810976589E+02  0.69810976636E+02  0.25500000920E-02 0. -1.
        2   -1    0    0  501    0  0.00000000000E+00  0.00000000000E+00 -0.17457104672E+04  0.17457104672E+04  0.25500000920E-02 0.  1.
    10030    2    1    2    0    0  0.00000000000E+00  0.00000000000E+00 -0.16758994906E+04  0.18155214438E+04  0.69819697106E+03 0.  0.
        4    1    3    3  502    0 -0.14828866482E+03  0.84187626928E+02 -0.16300432990E+04  0.16389386365E+04  0.12699999809E+01 0.  1.
       -4    1    3    3    0  502  0.14828866482E+03 -0.84187626928E+02 -0.45856191604E+02  0.17658280735E+03  0.12699999809E+01 0. -1.
</event>
<event>
 5   0  0.4365492E-02  0.8248657E+03  0.7818609E-02  0.9524706E-01
       -2   -1    0    0    0  501  0.00000000000E+00  0.00000000000E+00  0.35325271834E+03  0.35325271835E+03  0.25500000920E-02 0. -1.
        2   -1    0    0  501    0  0.00000000000E+00  0.00000000000E+00 -0.48152733956E+03  0.48152733957E+03  0.25500000920E-02 0.  1.
    10030    2    1    2    0    0  0.00000000000E+00  0.00000000000E+00 -0.12827462122E+03  0.83478005791E+03  0.82486566581E+03 0.  0.
        4    1    3    3  502    0  0.39193891699E+02  0.30041363203E+03  0.21907395906E+03  0.37387099900E+03  0.12699999809E+01 0. -1.
       -4    1    3    3    0  502 -0.39193891699E+02 -0.30041363203E+03 -0.34734858029E+03  0.46090905891E+03  0.12699999809E+01 0.  1.
</event>
<event>
 5   0  0.2758681E-02  0.6976406E+03  0.7818609E-02  0.9721276E-01
        1   -1    0    0  501    0  0.00000000000E+00  0.00000000000E+00  0.56563814829E+03  0.56563814832E+03  0.50400001928E-02 0.  1.
       -1   -1    0    0    0  501  0.00000000000E+00  0.00000000000E+00 -0.21511209948E+03  0.21511209954E+03  0.50400001928E-02 0. -1.
    10030    2    1    2    0    0  0.00000000000E+00  0.00000000000E+00  0.35052604881E+03  0.78075024786E+03  0.69764062284E+03 0.  0.
        3    1    3    3  502    0  0.27181510418E+03 -0.64076312348E+02  0.40917549355E+03  0.49539259117E+03  0.10100000352E+00 0.  1.
       -3    1    3    3    0  502 -0.27181510418E+03  0.64076312348E+02 -0.58649444735E+02  0.28535765669E+03  0.10100000352E+00 0. -1.
</event>
<event>
 5   0  0.2758681E-02  0.6989409E+03  0.7818609E-02  0.9719045E-01
       -1   -1    0    0    0  501  0.00000000000E+00  0.00000000000E+00  0.33324147184E+03  0.33324147188E+03  0.50400001928E-02 0.  1.
        1   -1    0    0  501    0  0.00000000000E+00  0.00000000000E+00 -0.36648976514E+03  0.36648976518E+03  0.50400001928E-02 0. -1.
    10030    2    1    2    0    0  0.00000000000E+00  0.00000000000E+00 -0.33248293304E+02  0.69973123705E+03  0.69894088097E+03 0.  0.
        3    1    3    3  502    0 -0.16634442888E+03 -0.82719457338E+02  0.27971158373E+03  0.33578498762E+03  0.10100000352E+00 0.  1.
       -3    1    3    3    0  502  0.16634442888E+03  0.82719457338E+02 -0.31295987703E+03  0.36394624943E+03  0.10100000352E+00 0. -1.
</event>
<event>
 5   0  0.2751729E-02  0.6807120E+03  0.7818609E-02  0.9750798E-01
        1   -1    0    0  501    0  0.00000000000E+00  0.00000000000E+00  0.93341025290E+03  0.93341025291E+03  0.50400001928E-02 0.  1.
       -1   -1    0    0    0  501  0.00000000000E+00  0.00000000000E+00 -0.12410640431E+03  0.12410640441E+03  0.50400001928E-02 0. -1.
    10030    2    1    2    0    0  0.00000000000E+00  0.00000000000E+00  0.80930384859E+03  0.10575166573E+04  0.68071195170E+03 0.  0.
        1    1    3    3  502    0  0.31731604981E+03 -0.24558283914E+01  0.59584960477E+03  0.67507944576E+03  0.50400001928E-02 0.  1.
       -1    1    3    3    0  502 -0.31731604981E+03  0.24558283914E+01  0.21345424382E+03  0.38243721156E+03  0.50400001928E-02 0. -1.
</event>
<event>
 5   0  0.1784625E-02  0.7064857E+03  0.7818609E-02  0.9706205E-01
       -4   -1    0    0    0  501  0.00000000000E+00  0.00000000000E+00  0.42114475213E+03  0.42114666703E+03  0.12699999809E+01 0.  1.
        4   -1    0    0  501    0  0.00000000000E+00  0.00000000000E+00 -0.29628490159E+03  0.29628762346E+03  0.12699999809E+01 0. -1.
    10030    2    1    2    0    0  0.00000000000E+00  0.00000000000E+00  0.12485985054E+03  0.71743429048E+03  0.70648565370E+03 0.  0.
        1    1    3    3  502    0  0.29813062522E+03 -0.90143478290E+01  0.25461763383E+03  0.39216484754E+03  0.50400001928E-02 0.  1.
       -1    1    3    3    0  502 -0.29813062522E+03  0.90143478290E+01 -0.12975778329E+03  0.32526944294E+03  0.50400001928E-02 0. -1.
</event>
<event>
 5   0  0.4299912E-02  0.6926218E+03  0.7818609E-02  0.9729934E-01
       -2   -1    0    0    0  501  0.00000000000E+00  0.00000000000E+00  0.50826136952E+03  0.50826136953E+03  0.25500000920E-02 0.  1.
        2   -1    0    0  501    0  0.00000000000E+00  0.00000000000E+00 -0.23596372301E+03  0.23596372303E+03  0.25500000920E-02 0. -1.
    10030    2    1    2    0    0  0.00000000000E+00  0.00000000000E+00  0.27229764651E+03  0.74422509255E+03  0.69262181607E+03 0.  0.
        3    1    3    3  502    0  0.97816723623E+02  0.27406086708E+03  0.33789759145E+03  0.44592854001E+03  0.10100000352E+00 0.  1.
       -3    1    3    3    0  502 -0.97816723623E+02 -0.27406086708E+03 -0.65599944942E+02  0.29829655255E+03  0.10100000352E+00 0. -1.
</event>
<event>
 5   0  0.4299912E-02  0.6965962E+03  0.7818609E-02  0.9723071E-01
       -2   -1    0    0    0  501  0.00000000000E+00  0.00000000000E+00  0.37030806758E+03  0.37030806759E+03  0.25500000920E-02 0. -1.
        2   -1    0    0  501    0  0.00000000000E+00  0.00000000000E+00 -0.32759635600E+03  0.32759635601E+03  0.25500000920E-02 0.  1.
    10030    2    1    2    0    0  0.00000000000E+00  0.00000000000E+00  0.42711711581E+02  0.69790442360E+03  0.69659622033E+03 0.  0.
        3    1    3    3  502    0 -0.17174750950E+03 -0.31939648882E+02 -0.28053080720E+03  0.33047676496E+03  0.10100000352E+00 0.  1.
       -3    1    3    3    0  502  0.17174750950E+03  0.31939648882E+02  0.32324251878E+03  0.36742765864E+03  0.10100000352E+00 0. -1.
</event>
<event>
 5   0  0.1784625E-02  0.7015430E+03  0.7818609E-02  0.9714597E-01
       -3   -1    0    0    0  501  0.00000000000E+00  0.00000000000E+00  0.16997757472E+04  0.16997757502E+04  0.10100000352E+00 0.  1.
        3   -1    0    0  501    0  0.00000000000E+00  0.00000000000E+00 -0.72386370060E+02  0.72386440522E+02  0.10100000352E+00 0. -1.
    10030    2    1    2    0    0  0.00000000000E+00  0.00000000000E+00  0.16273893771E+04  0.17721621907E+04  0.70154304600E+03 0.  0.
        3    1    3    3  502    0  0.28250004331E+03 -0.20563614998E+03  0.73591113488E+03  0.81465189455E+03  0.10100000352E+00 0.  1.
       -3    1    3    3    0  502 -0.28250004331E+03  0.20563614998E+03  0.89147824221E+03  0.95751029613E+03  0.10100000352E+00 0. -1.
</event>
<event>
 5   0  0.2758681E-02  0.5777544E+03  0.7818609E-02  0.9952665E-01
        1   -1    0    0  501    0  0.00000000000E+00  0.00000000000E+00  0.40207729439E+03  0.40207729442E+03  0.50400001928E-02 0.  1.
       -1   -1    0    0    0  501  0.00000000000E+00  0.00000000000E+00 -0.20754722027E+03  0.20754722034E+03  0.50400001928E-02 0. -1.
    10030    2    1    2    0    0  0.00000000000E+00  0.00000000000E+00  0.19453007411E+03  0.60962451475E+03  0.57775435892E+03 0.  0.
        3    1    3    3  502    0  0.18984085950E+03  0.19799262409E+03  0.16613891373E+01  0.27430530717E+03  0.10100000352E+00 0. -1.
       -3    1    3    3    0  502 -0.18984085950E+03 -0.19799262409E+03  0.19286868498E+03  0.33531920758E+03  0.10100000352E+00 0.  1.
</event>
<event>
 5   0  0.4503289E-02  0.6931609E+03  0.7818609E-02  0.9729000E-01
       -2   -1    0    0    0  501  0.00000000000E+00  0.00000000000E+00  0.51893769492E+03  0.51893769493E+03  0.25500000920E-02 0.  1.
        2   -1    0    0  501    0  0.00000000000E+00  0.00000000000E+00 -0.23146901852E+03  0.23146901854E+03  0.25500000920E-02 0. -1.
    10030    2    1    2    0    0  0.00000000000E+00  0.00000000000E+00  0.28746867640E+03  0.75040671347E+03  0.69316087289E+03 0.  0.
        2    1    3    3  502    0 -0.90555271617E+02 -0.28748402689E+03 -0.41481894732E+02  0.30425001320E+03  0.25500000920E-02 0. -1.
       -2    1    3    3    0  502  0.90555271617E+02  0.28748402689E+03  0.32895057113E+03  0.44615670026E+03  0.25500000920E-02 0.  1.
</event>
<event>
 5   0  0.4526837E-02  0.7380520E+03  0.7818609E-02  0.9654284E-01
       -2   -1    0    0    0  501  0.00000000000E+00  0.00000000000E+00  0.23356963733E+03  0.23356963734E+03  0.25500000920E-02 0.  1.
        2   -1    0    0  501    0  0.00000000000E+00  0.00000000000E+00 -0.58303896514E+03  0.58303896515E+03  0.25500000920E-02 0. -1.
    10030    2    1    2    0    0  0.00000000000E+00  0.00000000000E+00 -0.34946932781E+03  0.81660860249E+03  0.73805202973E+03 0.  0.
        1    1    3    3  502    0 -0.83866226969E+02 -0.85739702532E+02  0.21140315723E+03  0.24305582801E+03  0.50400001928E-02 0.  1.
       -1    1    3    3    0  502  0.83866226969E+02  0.85739702532E+02 -0.56087248504E+03  0.57355277449E+03  0.50400001928E-02 0. -1.
</event>
<event>
 5   0  0.4365492E-02  0.7204905E+03  0.7818609E-02  0.9682818E-01
        2   -1    0    0  501    0  0.00000000000E+00  0.00000000000E+00  0.73421409109E+03  0.73421409110E+03  0.25500000920E-02 0. -1.
       -2   -1    0    0    0  501  0.00000000000E+00  0.00000000000E+00 -0.17675586702E+03  0.17675586704E+03  0.25500000920E-02 0.  1.
    10030    2    1    2    0    0  0.00000000000E+00  0.00000000000E+00  0.55745822407E+03  0.91096995814E+03  0.72049052252E+03 0.  0.
        4    1    3    3  502    0  0.16682553440E+03 -0.18160857113E+03 -0.53304925562E+02  0.25230033695E+03  0.12699999809E+01 0.  1.
       -4    1    3    3    0  502 -0.16682553440E+03  0.18160857113E+03  0.61076314963E+03  0.65866962119E+03  0.12699999809E+01 0. -1.
</event>
<event>
 5   0  0.1784625E-02  0.7001741E+03  0.7818609E-02  0.9716934E-01
        3   -1    0    0  501    0  0.00000000000E+00  0.00000000000E+00  0.23030811285E+03  0.23030813500E+03  0.10100000352E+00 0.  1.
       -3   -1    0    0    0  501  0.00000000000E+00  0.00000000000E+00 -0.53216074434E+03  0.53216075392E+03  0.10100000352E+00 0. -1.
    10030    2    1    2    0    0  0.00000000000E+00  0.00000000000E+00 -0.30185263148E+03  0.76246888892E+03  0.70017411795E+03 0.  0.
        3    1    3    3  502    0  0.99848949173E+02 -0.10478528627E+03 -0.49805204125E+03  0.51865751211E+03  0.10100000352E+00 0. -1.
       -3    1    3    3    0  502 -0.99848949173E+02  0.10478528627E+03  0.19619940977E+03  0.24381137681E+03  0.10100000352E+00 0.  1.
</event>
<event>
 5   0  0.2777999E-02  0.6989445E+03  0.7818609E-02  0.9719039E-01
        1   -1    0    0  501    0  0.00000000000E+00  0.00000000000E+00  0.92836705448E+03  0.92836705450E+03  0.50400001928E-02 0.  1.
       -1   -1    0    0    0  501  0.00000000000E+00  0.00000000000E+00 -0.13155450577E+03  0.13155450586E+03  0.50400001928E-02 0. -1.
    10030    2    1    2    0    0  0.00000000000E+00  0.00000000000E+00  0.79681254872E+03  0.10599215604E+04  0.69894454453E+03 0.  0.
        5    1    3    3  502    0  0.11105949425E+02 -0.77982128598E+02  0.91468073294E+03  0.91807814901E+03  0.46999998093E+01 0.  1.
       -5    1    3    3    0  502 -0.11105949425E+02  0.77982128598E+02 -0.11786818422E+03  0.14184341135E+03  0.46999998093E+01 0. -1.
</event>
<event>
 5   0  0.4526837E-02  0.7982796E+03  0.7818609E-02  0.9562511E-01
        2   -1    0    0  501    0  0.00000000000E+00  0.00000000000E+00  0.76052456893E+03  0.76052456893E+03  0.25500000920E-02 0. -1.
       -2   -1    0    0    0  501  0.00000000000E+00  0.00000000000E+00 -0.20947721436E+03  0.20947721438E+03  0.25500000920E-02 0.  1.
    10030    2    1    2    0    0  0.00000000000E+00  0.00000000000E+00  0.55104735457E+03  0.97000178331E+03  0.79827957049E+03 0.  0.
        1    1    3    3  502    0  0.97973786556E+02  0.10565155571E+03 -0.17677265050E+03  0.22805631775E+03  0.50400001928E-02 0.  1.
       -1    1    3    3    0  502 -0.97973786556E+02 -0.10565155571E+03  0.72782000506E+03  0.74194546556E+03  0.50400001928E-02 0. -1.
</event>
<event>
 5   0  0.4299912E-02  0.6990608E+03  0.7818609E-02  0.9718840E-01
        2   -1    0    0  501    0  0.00000000000E+00  0.00000000000E+00  0.13805204646E+03  0.13805204648E+03  0.25500000920E-02 0. -1.
       -2   -1    0    0    0  501  0.00000000000E+00  0.00000000000E+00 -0.88496700713E+03  0.88496700714E+03  0.25500000920E-02 0.  1.
    10030    2    1    2    0    0  0.00000000000E+00  0.00000000000E+00 -0.74691496067E+03  0.10230190536E+04  0.69906081681E+03 0.  0.
        3    1    3    3  502    0 -0.20003970866E+03  0.25401821184E+03 -0.17914560517E+03  0.36964076485E+03  0.10100000352E+00 0. -1.
       -3    1    3    3    0  502  0.20003970866E+03 -0.25401821184E+03 -0.56776935550E+03  0.65337828877E+03  0.10100000352E+00 0.  1.
</event>
<event>
 5   0  0.2684924E-02  0.6796844E+03  0.7818609E-02  0.9752620E-01
       -1   -1    0    0    0  501  0.00000000000E+00  0.00000000000E+00  0.18896808588E+03  0.18896808595E+03  0.50400001928E-02 0. -1.
        1   -1    0    0  501    0  0.00000000000E+00  0.00000000000E+00 -0.61117572007E+03  0.61117572009E+03  0.50400001928E-02 0.  1.
    10030    2    1    2    0    0  0.00000000000E+00  0.00000000000E+00 -0.42220763419E+03  0.80014380604E+03  0.67968435613E+03 0.  0.
        4    1    3    3  502    0  0.15737658907E+03  0.74482780871E+02  0.13246950885E+03  0.21878039014E+03  0.12699999809E+01 0. -1.
       -4    1    3    3    0  502 -0.15737658907E+03 -0.74482780871E+02 -0.55467714305E+03  0.58136341590E+03  0.12699999809E+01 0.  1.
</event>
<event>
 5   0  0.4420645E-02  0.6972528E+03  0.7818609E-02  0.9721942E-01
       -2   -1    0    0    0  501  0.00000000000E+00  0.00000000000E+00  0.88956845262E+03  0.88956845262E+03  0.25500000920E-02 0. -1.
        2   -1    0    0  501    0  0.00000000000E+00  0.00000000000E+00 -0.13662847300E+03  0.13662847303E+03  0.25500000920E-02 0.  1.
    10030    2    1    2    0    0  0.00000000000E+00  0.00000000000E+00  0.75293997962E+03  0.10261969256E+04  0.69725283600E+03 0.  0.
        5    1    3    3  502    0 -0.60207795815E+02  0.22800671283E+03 -0.13663444474E+01  0.23587284004E+03  0.46999998093E+01 0.  1.
       -5    1    3    3    0  502  0.60207795815E+02 -0.22800671283E+03  0.75430632406E+03  0.79032408561E+03  0.46999998093E+01 0. -1.
</event>
<event>
 5   0  0.4503289E-02  0.6826683E+03  0.7818609E-02  0.9747339E-01
       -2   -1    0    0    0  501  0.00000000000E+00  0.00000000000E+00  0.24015940428E+03  0.24015940429E+03  0.25500000920E-02 0.  1.
        2   -1    0    0  501    0  0.00000000000E+00  0.00000000000E+00 -0.48513198503E+03  0.48513198504E+03  0.25500000920E-02 0. -1.
    10030    2    1    2    0    0  0.00000000000E+00  0.00000000000E+00 -0.24497258075E+03  0.72529138933E+03  0.68266831926E+03 0.  0.
        2    1    3    3  502    0 -0.28430623738E+03  0.18702597475E+03 -0.94371723203E+02  0.35314978974E+03  0.25500000920E-02 0. -1.
       -2    1    3    3    0  502  0.28430623738E+03 -0.18702597475E+03 -0.15060085755E+03  0.37214159959E+03  0.25500000920E-02 0.  1.
</event>
<event>
 5   0  0.4503289E-02  0.6752924E+03  0.7818609E-02  0.9760444E-01
        2   -1    0    0  501    0  0.00000000000E+00  0.00000000000E+00  0.56779651040E+03  0.56779651040E+03  0.25500000920E-02 0. -1.
       -2   -1    0    0    0  501  0.00000000000E+00  0.00000000000E+00 -0.20078487707E+03  0.20078487709E+03  0.25500000920E-02 0.  1.
    10030    2    1    2    0    0  0.00000000000E+00  0.00000000000E+00  0.36701163333E+03  0.76858138749E+03  0.67529238867E+03 0.  0.
        2    1    3    3  502    0 -0.14017730072E+03  0.16150045999E+02 -0.16561843603E+03  0.21757749420E+03  0.25500000920E-02 0.  1.
       -2    1    3    3    0  502  0.14017730072E+03 -0.16150045999E+02  0.53263006936E+03  0.55100389329E+03  0.25500000920E-02 0. -1.
</event>
<event>
 5   0  0.2758681E-02  0.6927136E+03  0.7818609E-02  0.9729775E-01
       -1   -1    0    0    0  501  0.00000000000E+00  0.00000000000E+00  0.28128724783E+03  0.28128724787E+03  0.50400001928E-02 0.  1.
        1   -1    0    0  501    0  0.00000000000E+00  0.00000000000E+00 -0.42647871302E+03  0.42647871305E+03  0.50400001928E-02 0. -1.
    10030    2    1    2    0    0  0.00000000000E+00  0.00000000000E+00 -0.14519146519E+03  0.70776596093E+03  0.69271357276E+03 0.  0.
        3    1    3    3  502    0  0.14773963932E+03  0.13048580161E+03  0.21839003707E+03  0.29419001332E+03  0.10100000352E+00 0.  1.
       -3    1    3    3    0  502 -0.14773963932E+03 -0.13048580161E+03 -0.36358150226E+03  0.41357594760E+03  0.10100000352E+00 0. -1.
</event>
<event>
 5   0  0.2750139E-02  0.7344683E+03  0.7818609E-02  0.9660037E-01
       -1   -1    0    0    0  501  0.00000000000E+00  0.00000000000E+00  0.29822947226E+03  0.29822947230E+03  0.50400001928E-02 0. -1.
        1   -1    0    0  501    0  0.00000000000E+00  0.00000000000E+00 -0.45220525777E+03  0.45220525780E+03  0.50400001928E-02 0.  1.
    10030    2    1    2    0    0  0.00000000000E+00  0.00000000000E+00 -0.15397578551E+03  0.75043473010E+03  0.73446833942E+03 0.  0.
        2    1    3    3  502    0  0.25586077154E+03  0.26132640423E+03 -0.11094762599E+03  0.38218529496E+03  0.25500000920E-02 0. -1.
       -2    1    3    3    0  502 -0.25586077154E+03 -0.26132640423E+03 -0.43028159524E+02  0.36824943514E+03  0.25500000920E-02 0.  1.
</event>
<event>
 5   0  0.4526837E-02  0.7634799E+03  0.7818609E-02  0.9614437E-01
       -2   -1    0    0    0  501  0.00000000000E+00  0.00000000000E+00  0.66982231310E+03  0.66982231310E+03  0.25500000920E-02 0.  1.
        2   -1    0    0  501    0  0.00000000000E+00  0.00000000000E+00 -0.21755827767E+03  0.21755827769E+03  0.25500000920E-02 0. -1.
    10030    2    1    2    0    0  0.00000000000E+00  0.00000000000E+00  0.45226403543E+03  0.88738059079E+03  0.76347989834E+03 0.  0.
        1    1    3    3  502    0 -0.22567670231E+03 -0.19392909775E+02  0.58327553814E+03  0.62571272348E+03  0.50400001928E-02 0.  1.
       -1    1    3    3    0  502  0.22567670231E+03  0.19392909775E+02 -0.13101150271E+03  0.26166786731E+03  0.50400001928E-02 0. -1.
</event>
<event>
 5   0  0.1784625E-02  0.7016365E+03  0.7818609E-02  0.9714438E-01
        4   -1    0    0  501    0  0.00000000000E+00  0.00000000000E+00  0.25759064746E+03  0.25759377818E+03  0.12699999809E+01 0. -1.
       -4   -1    0    0    0  501  0.00000000000E+00  0.00000000000E+00 -0.47778008934E+03  0.47778177725E+03  0.12699999809E+01 0.  1.
    10030    2    1    2    0    0  0.00000000000E+00  0.00000000000E+00 -0.22018944188E+03  0.73537555543E+03  0.70163652784E+03 0.  0.
        4    1    3    3  502    0  0.11262772331E+03  0.31828946027E+02  0.23652523364E+03  0.26390127872E+03  0.12699999809E+01 0. -1.
       -4    1    3    3    0  502 -0.11262772331E+03 -0.31828946027E+02 -0.45671467552E+03  0.47147427671E+03  0.12699999809E+01 0.  1.
</event>
<event>
 5   0  0.2777999E-02  0.6996183E+03  0.7818609E-02  0.9717885E-01
        1   -1    0    0  501    0  0.00000000000E+00  0.00000000000E+00  0.59967749913E+03  0.59967749915E+03  0.50400001928E-02 0. -1.
       -1   -1    0    0    0  501  0.00000000000E+00  0.00000000000E+00 -0.20405372724E+03  0.20405372731E+03  0.50400001928E-02 0.  1.
    10030    2    1    2    0    0  0.00000000000E+00  0.00000000000E+00  0.39562377189E+03  0.80373122646E+03  0.69961826413E+03 0.  0.
        5    1    3    3  502    0  0.22640523878E+03  0.25593248513E+03  0.11196872966E+03  0.35961069994E+03  0.46999998093E+01 0.  1.
       -5    1    3    3    0  502 -0.22640523878E+03 -0.25593248513E+03  0.28365504223E+03  0.44412052652E+03  0.46999998093E+01 0. -1.
</event>
<event>
 5   0  0.4420645E-02  0.7098256E+03  0.7818609E-02  0.9700575E-01
        2   -1    0    0  501    0  0.00000000000E+00  0.00000000000E+00  0.19347073845E+04  0.19347073845E+04  0.25500000920E-02 0.  1.
       -2   -1    0    0    0  501  0.00000000000E+00  0.00000000000E+00 -0.65107048770E+02  0.65107048820E+02  0.25500000920E-02 0. -1.
    10030    2    1    2    0    0  0.00000000000E+00  0.00000000000E+00  0.18696003357E+04  0.19998144333E+04  0.70982557883E+03 0.  0.
        5    1    3    3  502    0 -0.20300277730E+03  0.26713865064E+03  0.60906232565E+03  0.69537917195E+03  0.46999998093E+01 0.  1.
       -5    1    3    3    0  502  0.20300277730E+03 -0.26713865064E+03  0.12605380101E+04  0.13044352614E+04  0.46999998093E+01 0. -1.
</event>
<event>
 5   0  0.1784625E-02  0.6983617E+03  0.7818609E-02  0.9720038E-01
        4   -1    0    0  501    0  0.00000000000E+00  0.00000000000E+00  0.14763390974E+03  0.14763937214E+03  0.12699999809E+01 0. -1.
       -4   -1    0    0    0  501  0.00000000000E+00  0.00000000000E+00 -0.82585445637E+03  0.82585543288E+03  0.12699999809E+01 0.  1.
    10030    2    1    2    0    0  0.00000000000E+00  0.00000000000E+00 -0.67822054663E+03  0.97349480502E+03  0.69836167243E+03 0.  0.
        1    1    3    3  502    0 -0.26586612251E+03 -0.21872911780E+03 -0.42039236855E+03  0.54337552911E+03  0.50400001928E-02 0. -1.
       -1    1    3    3    0  502  0.26586612251E+03  0.21872911780E+03 -0.25782817807E+03  0.43011927591E+03  0.50400001928E-02 0.  1.
</event>
<event>
 5   0  0.2758681E-02  0.6879695E+03  0.7818609E-02  0.9738030E-01
        1   -1    0    0  501    0  0.00000000000E+00  0.00000000000E+00  0.44192894179E+03  0.44192894182E+03  0.50400001928E-02 0. -1.
       -1   -1    0    0    0  501  0.00000000000E+00  0.00000000000E+00 -0.26774783076E+03  0.26774783080E+03  0.50400001928E-02 0.  1.
    10030    2    1    2    0    0  0.00000000000E+00  0.00000000000E+00  0.17418111103E+03  0.70967677262E+03  0.68796952124E+03 0.  0.
        3    1    3    3  502    0  0.25972752068E+03  0.17240533814E+02 -0.14488240921E+03  0.29790358122E+03  0.10100000352E+00 0.  1.
       -3    1    3    3    0  502 -0.25972752068E+03 -0.17240533814E+02  0.31906352024E+03  0.41177319140E+03  0.10100000352E+00 0. -1.
</event>
<event>
 5   0  0.2758681E-02  0.6734219E+03  0.7818609E-02  0.9763796E-01
       -1   -1    0    0    0  501  0.00000000000E+00  0.00000000000E+00  0.79909372342E+02  0.79909372501E+02  0.50400001928E-02 0. -1.
        1   -1    0    0  501    0  0.00000000000E+00  0.00000000000E+00 -0.14187856158E+04  0.14187856158E+04  0.50400001928E-02 0.  1.
    10030    2    1    2    0    0  0.00000000000E+00  0.00000000000E+00 -0.13388762434E+04  0.14986949883E+04  0.67342191283E+03 0.  0.
        3    1    3    3  502    0 -0.25460313889E+03  0.10306230259E+03 -0.23601158865E+03  0.36214096251E+03  0.10100000352E+00 0. -1.
       -3    1    3    3    0  502  0.25460313889E+03 -0.10306230259E+03 -0.11028646548E+04  0.11365540258E+04  0.10100000352E+00 0.  1.
</event>
<event>
 5   0  0.4503289E-02  0.6979913E+03  0.7818609E-02  0.9720674E-01
        2   -1    0    0  501    0  0.00000000000E+00  0.00000000000E+00  0.10853371183E+04  0.10853371183E+04  0.25500000920E-02 0.  1.
       -2   -1    0    0    0  501  0.00000000000E+00  0.00000000000E+00 -0.11222131237E+03  0.11222131240E+03  0.25500000920E-02 0. -1.
    10030    2    1    2    0    0  0.00000000000E+00  0.00000000000E+00  0.97311580591E+03  0.11975584307E+04  0.69799127731E+03 0.  0.
        2    1    3    3  502    0 -0.31014893295E+03 -0.66725949027E+02  0.73609504422E+03  0.80154889247E+03  0.25500000920E-02 0.  1.
       -2    1    3    3    0  502  0.31014893295E+03  0.66725949027E+02  0.23702076169E+03  0.39600953823E+03  0.25500000920E-02 0. -1.
</event>
<event>
 5   0  0.4526837E-02  0.7149733E+03  0.7818609E-02  0.9691963E-01
        2   -1    0    0  501    0  0.00000000000E+00  0.00000000000E+00  0.73482597141E+03  0.73482597141E+03  0.25500000920E-02 0.  1.
       -2   -1    0    0    0  501  0.00000000000E+00  0.00000000000E+00 -0.17391424708E+03  0.17391424710E+03  0.25500000920E-02 0. -1.
    10030    2    1    2    0    0  0.00000000000E+00  0.00000000000E+00  0.56091172433E+03  0.90874021851E+03  0.71497330177E+03 0.  0.
        1    1    3    3  502    0  0.30251239783E+03 -0.14042794827E+03  0.11688018838E+03  0.35340449623E+03  0.50400001928E-02 0. -1.
       -1    1    3    3    0  502 -0.30251239783E+03  0.14042794827E+03  0.44403153595E+03  0.55533572228E+03  0.50400001928E-02 0.  1.
</event>
<event>
 5   0  0.2751729E-02  0.7231149E+03  0.7818609E-02  0.9678499E-01
       -1   -1    0    0    0  501  0.00000000000E+00  0.00000000000E+00  0.33752601081E+03  0.33752601084E+03  0.50400001928E-02 0.  1.
        1   -1    0    0  501    0  0.00000000000E+00  0.00000000000E+00 -0.38729985856E+03  0.38729985860E+03  0.50400001928E-02 0. -1.
    10030    2    1    2    0    0  0.00000000000E+00  0.00000000000E+00 -0.49773847758E+02  0.72482586944E+03  0.72311486300E+03 0.  0.
        1    1    3    3  502    0  0.20131072198E+03 -0.16947688226E+03 -0.27341583819E+03  0.37947943423E+03  0.50400001928E-02 0. -1.
       -1    1    3    3    0  502 -0.20131072198E+03  0.16947688226E+03  0.22364199043E+03  0.34534643521E+03  0.50400001928E-02 0.  1.
</event>
<event>
 5   0  0.4526837E-02  0.7014144E+03  0.7818609E-02  0.9714816E-01
        2   -1    0    0  501    0  0.00000000000E+00  0.00000000000E+00  0.13456219486E+03  0.13456219488E+03  0.25500000920E-02 0. -1.
       -2   -1    0    0    0  501  0.00000000000E+00  0.00000000000E+00 -0.91404231002E+03  0.91404231002E+03  0.25500000920E-02 0.  1.
    10030    2    1    2    0    0  0.00000000000E+00  0.00000000000E+00 -0.77948011516E+03  0.10486045049E+04  0.70141439803E+03 0.  0.
        1    1    3    3  502    0  0.70753687252E+02 -0.18920678614E+03  0.38855027162E+02  0.20570611401E+03  0.50400001928E-02 0. -1.
       -1    1    3    3    0  502 -0.70753687252E+02  0.18920678614E+03 -0.81833514232E+03  0.84289839089E+03  0.50400001928E-02 0.  1.
</event>
<event>
 5   0  0.4526837E-02  0.6887917E+03  0.7818609E-02  0.9736594E-01
       -2   -1    0    0    0  501  0.00000000000E+00  0.00000000000E+00  0.12444095850E+03  0.12444095853E+03  0.25500000920E-02 0.  1.
        2   -1    0    0  501    0  0.00000000000E+00  0.00000000000E+00 -0.95313077328E+03  0.95313077329E+03  0.25500000920E-02 0. -1.
    10030    2    1    2    0    0  0.00000000000E+00  0.00000000000E+00 -0.82868981478E+03  0.10775717318E+04  0.68879171604E+03 0.  0.
        1    1    3    3  502    0 -0.12351458759E+03 -0.11825311109E+03 -0.88202767967E+03  0.89845004277E+03  0.50400001928E-02 0. -1.
       -1    1    3    3    0  502  0.12351458759E+03  0.11825311109E+03  0.53337864887E+02  0.17912168904E+03  0.50400001928E-02 0.  1.
</event>
<event>
 5   0  0.4420645E-02  0.6929600E+03  0.7818609E-02  0.9729348E-01
       -2   -1    0    0    0  501  0.00000000000E+00  0.00000000000E+00  0.30410516265E+03  0.30410516266E+03  0.25500000920E-02 0.  1.
        2   -1    0    0  501    0  0.00000000000E+00  0.00000000000E+00 -0.39475946867E+03  0.39475946868E+03  0.25500000920E-02 0. -1.
    10030    2    1    2    0    0  0.00000000000E+00  0.00000000000E+00 -0.90654306024E+02  0.69886463134E+03  0.69296000587E+03 0.  0.
        5    1    3    3  502    0 -0.76647787651E+02 -0.30372225671E+03 -0.19458895752E+03  0.36879404138E+03  0.46999998093E+01 0. -1.
       -5    1    3    3    0  502  0.76647787651E+02  0.30372225671E+03  0.10393465149E+03  0.33007058996E+03  0.46999998093E+01 0.  1.
</event>
<event>
 5   0  0.4299912E-02  0.6980612E+03  0.7818609E-02  0.9720554E-01
        2   -1    0    0  501    0  0.00000000000E+00  0.00000000000E+00  0.12579431301E+04  0.12579431301E+04  0.25500000920E-02 0.  1.
       -2   -1    0    0    0  501  0.00000000000E+00  0.00000000000E+00 -0.96842494758E+02  0.96842494792E+02  0.25500000920E-02 0. -1.
    10030    2    1    2    0    0  0.00000000000E+00  0.00000000000E+00  0.11611006353E+04  0.13547856249E+04  0.69806117499E+03 0.  0.
        3    1    3    3  502    0  0.24404281608E+03 -0.11604235077E+03  0.15181890481E+03  0.30995437295E+03  0.10100000352E+00 0. -1.
       -3    1    3    3    0  502 -0.24404281608E+03  0.11604235077E+03  0.10092817305E+04  0.10448312519E+04  0.10100000352E+00 0.  1.
</event>
<event>
 5   0  0.2684924E-02  0.6998989E+03  0.7818609E-02  0.9717405E-01
        1   -1    0    0  501    0  0.00000000000E+00  0.00000000000E+00  0.32213082912E+03  0.32213082916E+03  0.50400001928E-02 0. -1.
       -1   -1    0    0    0  501  0.00000000000E+00  0.00000000000E+00 -0.38017044634E+03  0.38017044637E+03  0.50400001928E-02 0.  1.
    10030    2    1    2    0    0  0.00000000000E+00  0.00000000000E+00 -0.58039617222E+02  0.70230127553E+03  0.69989891016E+03 0.  0.
        4    1    3    3  502    0 -0.27916412898E+02 -0.18086579598E+03 -0.32832412233E+03  0.37588575986E+03  0.12699999809E+01 0.  1.
       -4    1    3    3    0  502  0.27916412898E+02  0.18086579598E+03  0.27028450511E+03  0.32641551567E+03  0.12699999809E+01 0. -1.
</event>
<event>
 5   0  0.2751729E-02  0.6982816E+03  0.7818609E-02  0.9720175E-01
        1   -1    0    0  501    0  0.00000000000E+00  0.00000000000E+00  0.21767395151E+03  0.21767395157E+03  0.50400001928E-02 0. -1.
       -1   -1    0    0    0  501  0.00000000000E+00  0.00000000000E+00 -0.56000862751E+03  0.56000862753E+03  0.50400001928E-02 0.  1.
    10030    2    1    2    0    0  0.00000000000E+00  0.00000000000E+00 -0.34233467600E+03  0.77768257910E+03  0.69828157891E+03 0.  0.
        1    1    3    3  502    0 -0.33088761954E+03  0.64697483757E+02 -0.70151342166E+02  0.34437420345E+03  0.50400001928E-02 0. -1.
       -1    1    3    3    0  502  0.33088761954E+03 -0.64697483757E+02 -0.27218333383E+03  0.43330837565E+03  0.50400001928E-02 0.  1.
</event>
<event>
 5   0  0.2751729E-02  0.7000587E+03  0.7818609E-02  0.9717132E-01
        1   -1    0    0  501    0  0.00000000000E+00  0.00000000000E+00  0.15762133859E+04  0.15762133859E+04  0.50400001928E-02 0.  1.
       -1   -1    0    0    0  501  0.00000000000E+00  0.00000000000E+00 -0.77730946269E+02  0.77730946433E+02  0.50400001928E-02 0. -1.
    10030    2    1    2    0    0  0.00000000000E+00  0.00000000000E+00  0.14984824396E+04  0.16539443323E+04  0.70005873511E+03 0.  0.
        1    1    3    3  502    0 -0.27380042991E+02  0.49690036571E+02  0.15652782979E+04  0.15663061375E+04  0.50400001928E-02 0.  1.
       -1    1    3    3    0  502  0.27380042991E+02 -0.49690036571E+02 -0.66795858262E+02  0.87638194841E+02  0.50400001928E-02 0. -1.
</event>
<event>
 5   0  0.4420645E-02  0.6889038E+03  0.7818609E-02  0.9736399E-01
        2   -1    0    0  501    0  0.00000000000E+00  0.00000000000E+00  0.91137271573E+03  0.91137271574E+03  0.25500000920E-02 0.  1.
       -2   -1    0    0    0  501  0.00000000000E+00  0.00000000000E+00 -0.13018505387E+03  0.13018505389E+03  0.25500000920E-02 0. -1.
    10030    2    1    2    0    0  0.00000000000E+00  0.00000000000E+00  0.78118766187E+03  0.10415577696E+04  0.68890378459E+03 0.  0.
        5    1    3    3  502    0  0.16604344981E+03 -0.28355211916E+03  0.54664116921E+03  0.63781728526E+03  0.46999998093E+01 0. -1.
       -5    1    3    3    0  502 -0.16604344981E+03  0.28355211916E+03  0.23454649265E+03  0.40374048437E+03  0.46999998093E+01 0.  1.
</event>
<event>
 5   0  0.4526837E-02  0.7486513E+03  0.7818609E-02  0.9637469E-01
       -2   -1    0    0    0  501  0.00000000000E+00  0.00000000000E+00  0.62879288962E+02  0.62879289014E+02  0.25500000920E-02 0.  1.
        2   -1    0    0  501    0  0.00000000000E+00  0.00000000000E+00 -0.22283916069E+04  0.22283916069E+04  0.25500000920E-02 0. -1.
    10030    2    1    2    0    0  0.00000000000E+00  0.00000000000E+00 -0.21655123179E+04  0.22912708959E+04  0.74865126683E+03 0.  0.
        1    1    3    3  502    0 -0.14307077866E+03 -0.96508908494E+02 -0.66141416927E+02  0.18481857099E+03  0.50400001928E-02 0.  1.
       -1    1    3    3    0  502  0.14307077866E+03  0.96508908494E+02 -0.20993709010E+04  0.21064523249E+04  0.50400001928E-02 0. -1.
</event>
<event>
 5   0  0.2758681E-02  0.6999279E+03  0.7818609E-02  0.9717355E-01
       -1   -1    0    0    0  501  0.00000000000E+00  0.00000000000E+00  0.50865094565E+03  0.50865094567E+03  0.50400001928E-02 0. -1.
        1   -1    0    0  501    0  0.00000000000E+00  0.00000000000E+00 -0.24078353915E+03  0.24078353920E+03  0.50400001928E-02 0.  1.
    10030    2    1    2    0    0  0.00000000000E+00  0.00000000000E+00  0.26786740650E+03  0.74943448487E+03  0.69992792461E+03 0.  0.
        3    1    3    3  502    0 -0.22576988885E+03  0.26636839493E+03  0.15905826688E+03  0.38369741593E+03  0.10100000352E+00 0. -1.
       -3    1    3    3    0  502  0.22576988885E+03 -0.26636839493E+03  0.10880913962E+03  0.36573706894E+03  0.10100000352E+00 0.  1.
</event>
<event>
 5   0  0.2758681E-02  0.7021471E+03  0.7818609E-02  0.9713567E-01
       -1   -1    0    0    0  501  0.00000000000E+00  0.00000000000E+00  0.20647620980E+03  0.20647620986E+03  0.50400001928E-02 0. -1.
        1   -1    0    0  501    0  0.00000000000E+00  0.00000000000E+00 -0.59693382540E+03  0.59693382542E+03  0.50400001928E-02 0.  1.
    10030    2    1    2    0    0  0.00000000000E+00  0.00000000000E+00 -0.39045761560E+03  0.80341003528E+03  0.70214708944E+03 0.  0.
        3    1    3    3  502    0 -0.20525840060E+03 -0.28029529340E+03 -0.13737882137E+03  0.37358989987E+03  0.10100000352E+00 0. -1.
       -3    1    3    3    0  502  0.20525840060E+03  0.28029529340E+03 -0.25307879422E+03  0.42982013541E+03  0.10100000352E+00 0.  1.
</event>
<event>
 5   0  0.4526837E-02  0.6850277E+03  0.7818609E-02  0.9743185E-01
       -2   -1    0    0    0  501  0.00000000000E+00  0.00000000000E+00  0.49846119904E+03  0.49846119904E+03  0.25500000920E-02 0.  1.
        2   -1    0    0  501    0  0.00000000000E+00  0.00000000000E+00 -0.23535581945E+03  0.23535581946E+03  0.25500000920E-02 0. -1.
    10030    2    1    2    0    0  0.00000000000E+00  0.00000000000E+00  0.26310537959E+03  0.73381701850E+03  0.68502771906E+03 0.  0.
        1    1    3    3  502    0  0.18770175599E+03 -0.22342561228E+03 -0.60566168925E+02  0.29802552620E+03  0.50400001928E-02 0. -1.
       -1    1    3    3    0  502 -0.18770175599E+03  0.22342561228E+03  0.32367154851E+03  0.43579149230E+03  0.50400001928E-02 0.  1.
</event>
<event>
 5   0  0.2751729E-02  0.6806845E+03  0.7818609E-02  0.9750847E-01
       -1   -1    0    0    0  501  0.00000000000E+00  0.00000000000E+00  0.80660122662E+02  0.80660122819E+02  0.50400001928E-02 0.  1.
        1   -1    0    0  501    0  0.00000000000E+00  0.00000000000E+00 -0.14360607518E+04  0.14360607518E+04  0.50400001928E-02 0. -1.
    10030    2    1    2    0    0  0.00000000000E+00  0.00000000000E+00 -0.13554006291E+04  0.15167208746E+04  0.68068446879E+03 0.  0.
        1    1    3    3  502    0 -0.40074996282E+02 -0.24779133914E+03 -0.16556484998E+03  0.30069631300E+03  0.50400001928E-02 0.  1.
       -1    1    3    3    0  502  0.40074996282E+02  0.24779133914E+03 -0.11898357791E+04  0.12160245616E+04  0.50400001928E-02 0. -1.
</event>
<event>
 5   0  0.2750139E-02  0.7022662E+03  0.7818609E-02  0.9713364E-01
        1   -1    0    0  501    0  0.00000000000E+00  0.00000000000E+00  0.85453450622E+03  0.85453450623E+03  0.50400001928E-02 0.  1.
       -1   -1    0    0    0  501  0.00000000000E+00  0.00000000000E+00 -0.14428260147E+03  0.14428260156E+03  0.50400001928E-02 0. -1.
    10030    2    1    2    0    0  0.00000000000E+00  0.00000000000E+00  0.71025190475E+03  0.99881710779E+03  0.70226622204E+03 0.  0.
        2    1    3    3  502    0 -0.11876581858E+03  0.29031423195E+03  0.57958807249E+03  0.65902200776E+03  0.25500000920E-02 0.  1.
       -2    1    3    3    0  502  0.11876581858E+03 -0.29031423195E+03  0.13066383226E+03  0.33979510003E+03  0.25500000920E-02 0. -1.
</event>
<event>
 5   0  0.2684924E-02  0.7111246E+03  0.7818609E-02  0.9698395E-01
        1   -1    0    0  501    0  0.00000000000E+00  0.00000000000E+00  0.12064597716E+04  0.12064597716E+04  0.50400001928E-02 0.  1.
       -1   -1    0    0    0  501  0.00000000000E+00  0.00000000000E+00 -0.10478969208E+03  0.10478969220E+03  0.50400001928E-02 0. -1.
    10030    2    1    2    0    0  0.00000000000E+00  0.00000000000E+00  0.11016700795E+04  0.13112494638E+04  0.71112459683E+03 0.  0.
        4    1    3    3  502    0 -0.22603170701E+03  0.21002542505E+03  0.22502125852E+03  0.38188635930E+03  0.12699999809E+01 0. -1.
       -4    1    3    3    0  502  0.22603170701E+03 -0.21002542505E+03  0.87664882099E+03  0.92936310449E+03  0.12699999809E+01 0.  1.
</event>
<event>
 5   0  0.2750139E-02  0.7050832E+03  0.7818609E-02  0.9708579E-01
        1   -1    0    0  501    0  0.00000000000E+00  0.00000000000E+00  0.32652562269E+03  0.32652562273E+03  0.50400001928E-02 0.  1.
       -1   -1    0    0    0  501  0.00000000000E+00  0.00000000000E+00 -0.38063039253E+03  0.38063039256E+03  0.50400001928E-02 0. -1.
    10030    2    1    2    0    0  0.00000000000E+00  0.00000000000E+00 -0.54104769837E+02  0.70715601529E+03  0.70508318930E+03 0.  0.
        2    1    3    3  502    0 -0.99335830351E+02 -0.33725064559E+03 -0.89947523990E+00  0.35157703879E+03  0.25500000920E-02 0.  1.
       -2    1    3    3    0  502  0.99335830351E+02  0.33725064559E+03 -0.53205294597E+02  0.35557897649E+03  0.25500000920E-02 0. -1.
</event>
<event>
 5   0  0.2684924E-02  0.6734471E+03  0.7818609E-02  0.9763751E-01
       -1   -1    0    0    0  501  0.00000000000E+00  0.00000000000E+00  0.59098815402E+02  0.59098815617E+02  0.50400001928E-02 0.  1.
        1   -1    0    0  501    0  0.00000000000E+00  0.00000000000E+00 -0.19185282684E+04  0.19185282684E+04  0.50400001928E-02 0. -1.
    10030    2    1    2    0    0  0.00000000000E+00  0.00000000000E+00 -0.18594294530E+04  0.19776270840E+04  0.67344709724E+03 0.  0.
        4    1    3    3  502    0 -0.24908828953E+03 -0.81348056487E+02 -0.15507056788E+04  0.15726894791E+04  0.12699999809E+01 0. -1.
       -4    1    3    3    0  502  0.24908828953E+03  0.81348056487E+02 -0.30872377415E+03  0.40493760495E+03  0.12699999809E+01 0.  1.
</event>
<event>
 5   0  0.2758681E-02  0.7000746E+03  0.7818609E-02  0.9717105E-01
        1   -1    0    0  501    0  0.00000000000E+00  0.00000000000E+00  0.90876813637E+03  0.90876813638E+03  0.50400001928E-02 0.  1.
       -1   -1    0    0    0  501  0.00000000000E+00  0.00000000000E+00 -0.13482659664E+03  0.13482659673E+03  0.50400001928E-02 0. -1.
    10030    2    1    2    0    0  0.00000000000E+00  0.00000000000E+00  0.77394153973E+03  0.10435947331E+04  0.70007461036E+03 0.  0.
        3    1    3    3  502    0 -0.20430792365E+03 -0.21448206612E+03  0.10895866507E+03  0.31562047660E+03  0.10100000352E+00 0. -1.
       -3    1    3    3    0  502  0.20430792365E+03  0.21448206612E+03  0.66498287466E+03  0.72797425652E+03  0.10100000352E+00 0.  1.
</event>
<event>
 5   0  0.2684924E-02  0.6515297E+03  0.7818609E-02  0.9803913E-01
        1   -1    0    0  501    0  0.00000000000E+00  0.00000000000E+00  0.55594220668E+03  0.55594220671E+03  0.50400001928E-02 0.  1.
       -1   -1    0    0    0  501  0.00000000000E+00  0.00000000000E+00 -0.19088807527E+03  0.19088807533E+03  0.50400001928E-02 0. -1.
    10030    2    1    2    0    0  0.00000000000E+00  0.00000000000E+00  0.36505413142E+03  0.74683028204E+03  0.65152970101E+03 0.  0.
        4    1    3    3  502    0 -0.28701464430E+03 -0.11395855317E+03  0.63639439169E+02  0.31530231367E+03  0.12699999809E+01 0. -1.
       -4    1    3    3    0  502  0.28701464430E+03  0.11395855317E+03  0.30141469225E+03  0.43152796837E+03  0.12699999809E+01 0.  1.
</event>
<event>
 5   0  0.4299912E-02  0.7009189E+03  0.7818609E-02  0.9715662E-01
       -2   -1    0    0    0  501  0.00000000000E+00  0.00000000000E+00  0.41539660768E+03  0.41539660769E+03  0.25500000920E-02 0.  1.
        2   -1    0    0  501    0  0.00000000000E+00  0.00000000000E+00 -0.29567363277E+03  0.29567363278E+03  0.25500000920E-02 0. -1.
    10030    2    1    2    0    0  0.00000000000E+00  0.00000000000E+00  0.11972297491E+03  0.71107024047E+03  0.70091889414E+03 0.  0.
        3    1    3    3  502    0 -0.26050266258E+03  0.11702275099E+03  0.26594352807E+03  0.39023317617E+03  0.10100000352E+00 0.  1.
       -3    1    3    3    0  502  0.26050266258E+03 -0.11702275099E+03 -0.14622055316E+03  0.32083706430E+03  0.10100000352E+00 0. -1.
</event>
<event>
 5   0  0.2750139E-02  0.7014260E+03  0.7818609E-02  0.9714797E-01
       -1   -1    0    0    0  501  0.00000000000E+00  0.00000000000E+00  0.14765948195E+03  0.14765948204E+03  0.50400001928E-02 0. -1.
        1   -1    0    0  501    0  0.00000000000E+00  0.00000000000E+00 -0.83299492614E+03  0.83299492616E+03  0.50400001928E-02 0.  1.
    10030    2    1    2    0    0  0.00000000000E+00  0.00000000000E+00 -0.68533544419E+03  0.98065440820E+03  0.70142597418E+03 0.  0.
        2    1    3    3  502    0  0.17196851809E+03 -0.19721292383E+03 -0.66915464451E+03  0.71849429143E+03  0.25500000920E-02 0.  1.
       -2    1    3    3    0  502 -0.17196851809E+03  0.19721292383E+03 -0.16180799683E+02  0.26216011677E+03  0.25500000920E-02 0. -1.
</event>
<event>
 5   0  0.2758681E-02  0.6974056E+03  0.7818609E-02  0.9721679E-01
       -1   -1    0    0    0  501  0.00000000000E+00  0.00000000000E+00  0.58566526202E+03  0.58566526204E+03  0.50400001928E-02 0.  1.
        1   -1    0    0  501    0  0.00000000000E+00  0.00000000000E+00 -0.20761630639E+03  0.20761630645E+03  0.50400001928E-02 0. -1.
    10030    2    1    2    0    0  0.00000000000E+00  0.00000000000E+00  0.37804895563E+03  0.79328156850E+03  0.69740564528E+03 0.  0.
        3    1    3    3  502    0 -0.11106129588E+03 -0.12194232358E+03 -0.16043984357E+03  0.23009888163E+03  0.10100000352E+00 0. -1.
       -3    1    3    3    0  502  0.11106129588E+03  0.12194232358E+03  0.53848879920E+03  0.56318268687E+03  0.10100000352E+00 0.  1.
</event>
<event>
 5   0  0.1784625E-02  0.6844098E+03  0.7818609E-02  0.9744271E-01
        4   -1    0    0  501    0  0.00000000000E+00  0.00000000000E+00  0.17967902185E+03  0.17968351007E+03  0.12699999809E+01 0. -1.
       -4   -1    0    0    0  501  0.00000000000E+00  0.00000000000E+00 -0.65172787070E+03  0.65172910810E+03  0.12699999809E+01 0.  1.
    10030    2    1    2    0    0  0.00000000000E+00  0.00000000000E+00 -0.47204884885E+03  0.83141261817E+03  0.68440983771E+03 0.  0.
        1    1    3    3  502    0  0.11707362366E+03  0.74214742141E+02 -0.61609990578E+03  0.63150071673E+03  0.50400001928E-02 0.  1.
       -1    1    3    3    0  502 -0.11707362366E+03 -0.74214742141E+02  0.14405105693E+03  0.19991190144E+03  0.50400001928E-02 0. -1.
</event>
<event>
 5   0  0.4526837E-02  0.7065936E+03  0.7818609E-02  0.9706022E-01
        2   -1    0    0  501    0  0.00000000000E+00  0.00000000000E+00  0.83791928533E+02  0.83791928572E+02  0.25500000920E-02 0. -1.
       -2   -1    0    0    0  501  0.00000000000E+00  0.00000000000E+00 -0.14896260351E+04  0.14896260351E+04  0.25500000920E-02 0.  1.
    10030    2    1    2    0    0  0.00000000000E+00  0.00000000000E+00 -0.14058341066E+04  0.15734179637E+04  0.70659362666E+03 0.  0.
        1    1    3    3  502    0 -0.25469114702E+03 -0.21874034168E+03 -0.94789886244E+03  0.10055979171E+04  0.50400001928E-02 0.  1.
       -1    1    3    3    0  502  0.25469114702E+03  0.21874034168E+03 -0.45793524415E+03  0.56782004659E+03  0.50400001928E-02 0. -1.
</event>
<event>
 5   0  0.1784625E-02  0.7097447E+03  0.7818609E-02  0.9700711E-01
       -3   -1    0    0    0  501  0.00000000000E+00  0.00000000000E+00  0.21794075691E+03  0.21794078032E+03  0.10100000352E+00 0. -1.
        3   -1    0    0  501    0  0.00000000000E+00  0.00000000000E+00 -0.57783764529E+03  0.57783765411E+03  0.10100000352E+00 0.  1.
    10030    2    1    2    0    0  0.00000000000E+00  0.00000000000E+00 -0.35989688837E+03  0.79577843443E+03  0.70974470512E+03 0.  0.
        1    1    3    3  502    0  0.28724933579E+03 -0.19219671770E+03 -0.89673852260E+02  0.35706184200E+03  0.50400001928E-02 0. -1.
       -1    1    3    3    0  502 -0.28724933579E+03  0.19219671770E+03 -0.27022303611E+03  0.43871659243E+03  0.50400001928E-02 0.  1.
</event>
<event>
 5   0  0.2751729E-02  0.7069986E+03  0.7818609E-02  0.9705338E-01
        1   -1    0    0  501    0  0.00000000000E+00  0.00000000000E+00  0.12610423569E+03  0.12610423579E+03  0.50400001928E-02 0. -1.
       -1   -1    0    0    0  501  0.00000000000E+00  0.00000000000E+00 -0.99094012133E+03  0.99094012134E+03  0.50400001928E-02 0.  1.
    10030    2    1    2    0    0  0.00000000000E+00  0.00000000000E+00 -0.86483588564E+03  0.11170443571E+04  0.70699857618E+03 0.  0.
        1    1    3    3  502    0  0.98905901303E+02  0.21288124822E+03 -0.14809660651E+02  0.23520231553E+03  0.50400001928E-02 0. -1.
       -1    1    3    3    0  502 -0.98905901303E+02 -0.21288124822E+03 -0.85002622499E+03  0.88184204161E+03  0.50400001928E-02 0.  1.
</event>
<event>
 5   0  0.4503289E-02  0.7005316E+03  0.7818609E-02  0.9716324E-01
        2   -1    0    0  501    0  0.00000000000E+00  0.00000000000E+00  0.17840601798E+04  0.17840601798E+04  0.25500000920E-02 0.  1.
       -2   -1    0    0    0  501  0.00000000000E+00  0.00000000000E+00 -0.68767933705E+02  0.68767933753E+02  0.25500000920E-02 0. -1.
    10030    2    1    2    0    0  0.00000000000E+00  0.00000000000E+00  0.17152922461E+04  0.18528281135E+04  0.70053160447E+03 0.  0.
        2    1    3    3  502    0  0.34114227502E+03 -0.71107418221E+02  0.95122494142E+03  0.10130464974E+04  0.25500000920E-02 0.  1.
       -2    1    3    3    0  502 -0.34114227502E+03  0.71107418221E+02  0.76406730466E+03  0.83978161613E+03  0.25500000920E-02 0. -1.
</event>
<event>
 5   0  0.2777999E-02  0.6913623E+03  0.7818609E-02  0.9732119E-01
       -1   -1    0    0    0  501  0.00000000000E+00  0.00000000000E+00  0.18567887416E+03  0.18567887423E+03  0.50400001928E-02 0. -1.
        1   -1    0    0  501    0  0.00000000000E+00  0.00000000000E+00 -0.64355973115E+03  0.64355973117E+03  0.50400001928E-02 0.  1.
    10030    2    1    2    0    0  0.00000000000E+00  0.00000000000E+00 -0.45788085698E+03  0.82923860540E+03  0.69136226791E+03 0.  0.
        5    1    3    3  502    0  0.89979437560E+02 -0.25849347919E+03  0.24244327095E+02  0.27481822240E+03  0.46999998093E+01 0. -1.
       -5    1    3    3    0  502 -0.89979437560E+02  0.25849347919E+03 -0.48212518408E+03  0.55442038300E+03  0.46999998093E+01 0.  1.
</event>
<event>
 5   0  0.2684924E-02  0.7046724E+03  0.7818609E-02  0.9709275E-01
       -1   -1    0    0    0  501  0.00000000000E+00  0.00000000000E+00  0.24694462054E+03  0.24694462059E+03  0.50400001928E-02 0. -1.
        1   -1    0    0  501    0  0.00000000000E+00  0.00000000000E+00 -0.50270697741E+03  0.50270697744E+03  0.50400001928E-02 0.  1.
    10030    2    1    2    0    0  0.00000000000E+00  0.00000000000E+00 -0.25576235687E+03  0.74965159803E+03  0.70467236021E+03 0.  0.
        4    1    3    3  502    0 -0.10252045451E+03 -0.81213045142E+02  0.22016063684E+03  0.25608264527E+03  0.12699999809E+01 0. -1.
       -4    1    3    3    0  502  0.10252045451E+03  0.81213045142E+02 -0.47592299371E+03  0.49356895276E+03  0.12699999809E+01 0.  1.
</event>
<event>
 5   0  0.2758681E-02  0.6756342E+03  0.7818609E-02  0.9759833E-01
        1   -1    0    0  501    0  0.00000000000E+00  0.00000000000E+00  0.57580415266E+03  0.57580415268E+03  0.50400001928E-02 0.  1.
       -1   -1    0    0    0  501  0.00000000000E+00  0.00000000000E+00 -0.19819309643E+03  0.19819309650E+03  0.50400001928E-02 0. -1.
    10030    2    1    2    0    0  0.00000000000E+00  0.00000000000E+00  0.37761105622E+03  0.77399724917E+03  0.67563424421E+03 0.  0.
        3    1    3    3  502    0 -0.33705666691E+03 -0.17125879159E+02  0.17181739500E+03  0.37871060174E+03  0.10100000352E+00 0.  1.
       -3    1    3    3    0  502  0.33705666691E+03  0.17125879159E+02  0.20579366122E+03  0.39528664744E+03  0.10100000352E+00 0. -1.
</event>
<event>
 5   0  0.1784625E-02  0.6740303E+03  0.7818609E-02  0.9762704E-01
        3   -1    0    0  501    0  0.00000000000E+00  0.00000000000E+00  0.38174358985E+03  0.38174360321E+03  0.10100000352E+00 0. -1.
       -3   -1    0    0    0  501  0.00000000000E+00  0.00000000000E+00 -0.29752750494E+03  0.29752752208E+03  0.10100000352E+00 0.  1.
    10030    2    1    2    0    0  0.00000000000E+00  0.00000000000E+00  0.84216084910E+02  0.67927112529E+03  0.67403034998E+03 0.  0.
        4    1    3    3  502    0 -0.30165248243E+03  0.13116052453E+01  0.19354845223E+03  0.35841115597E+03  0.12699999809E+01 0. -1.
       -4    1    3    3    0  502  0.30165248243E+03 -0.13116052453E+01 -0.10933236732E+03  0.32085996932E+03  0.12699999809E+01 0.  1.
</event>
<event>
 5   0  0.4299912E-02  0.7066571E+03  0.7818609E-02  0.9705915E-01
       -2   -1    0    0    0  501  0.00000000000E+00  0.00000000000E+00  0.14912920115E+03  0.14912920118E+03  0.25500000920E-02 0. -1.
        2   -1    0    0  501    0  0.00000000000E+00  0.00000000000E+00 -0.83713361651E+03  0.83713361651E+03  0.25500000920E-02 0.  1.
    10030    2    1    2    0    0  0.00000000000E+00  0.00000000000E+00 -0.68800441536E+03  0.98626281769E+03  0.70665710922E+03 0.  0.
        3    1    3    3  502    0  0.13277672350E+03 -0.21663588121E+02 -0.79998848690E+03  0.81122164587E+03  0.10100000352E+00 0.  1.
       -3    1    3    3    0  502 -0.13277672350E+03  0.21663588121E+02  0.11198407154E+03  0.17504117182E+03  0.10100000352E+00 0. -1.
</event>
<event>
 5   0  0.4365492E-02  0.7169516E+03  0.7818609E-02  0.9688674E-01
        2   -1    0    0  501    0  0.00000000000E+00  0.00000000000E+00  0.35168669237E+03  0.35168669238E+03  0.25500000920E-02 0. -1.
       -2   -1    0    0    0  501  0.00000000000E+00  0.00000000000E+00 -0.36539601031E+03  0.36539601032E+03  0.25500000920E-02 0.  1.
    10030    2    1    2    0    0  0.00000000000E+00  0.00000000000E+00 -0.13709317938E+02  0.71708270270E+03  0.71695164210E+03 0.  0.
        4    1    3    3  502    0  0.22894808179E+03 -0.17098953941E+03 -0.22333972614E+03  0.36268015236E+03  0.12699999809E+01 0.  1.
       -4    1    3    3    0  502 -0.22894808179E+03  0.17098953941E+03  0.20963040820E+03  0.35440255034E+03  0.12699999809E+01 0. -1.
</event>
<event>
 5   0  0.2684924E-02  0.6927939E+03  0.7818609E-02  0.9729635E-01
        1   -1    0    0  501    0  0.00000000000E+00  0.00000000000E+00  0.15029903456E+04  0.15029903456E+04  0.50400001928E-02 0.  1.
       -1   -1    0    0    0  501  0.00000000000E+00  0.00000000000E+00 -0.79834749575E+02  0.79834749734E+02  0.50400001928E-02 0. -1.
    10030    2    1    2    0    0  0.00000000000E+00  0.00000000000E+00  0.14231555960E+04  0.15828250953E+04  0.69279393181E+03 0.  0.
        4    1    3    3  502    0  0.23034297381E+03  0.14345107923E+03  0.21968726261E+03  0.34914209710E+03  0.12699999809E+01 0. -1.
       -4    1    3    3    0  502 -0.23034297381E+03 -0.14345107923E+03  0.12034683334E+04  0.12336829982E+04  0.12699999809E+01 0.  1.
</event>
<event>
 5   0  0.2777999E-02  0.7146205E+03  0.7818609E-02  0.9692551E-01
       -1   -1    0    0    0  501  0.00000000000E+00  0.00000000000E+00  0.43768353371E+03  0.43768353374E+03  0.50400001928E-02 0. -1.
        1   -1    0    0  501    0  0.00000000000E+00  0.00000000000E+00 -0.29169620070E+03  0.29169620074E+03  0.50400001928E-02 0.  1.
    10030    2    1    2    0    0  0.00000000000E+00  0.00000000000E+00  0.14598733301E+03  0.72937973448E+03  0.71462052564E+03 0.  0.
        5    1    3    3  502    0 -0.11628385891E+03 -0.33638537235E+03  0.41181372181E+02  0.35832255021E+03  0.46999998093E+01 0.  1.
       -5    1    3    3    0  502  0.11628385891E+03  0.33638537235E+03  0.10480596083E+03  0.37105718427E+03  0.46999998093E+01 0. -1.
</event>
<event>
 5   0  0.4299912E-02  0.6998319E+03  0.7818609E-02  0.9717520E-01
       -2   -1    0    0    0  501  0.00000000000E+00  0.00000000000E+00  0.13662287987E+03  0.13662287989E+03  0.25500000920E-02 0.  1.
        2   -1    0    0  501    0  0.00000000000E+00  0.00000000000E+00 -0.89619821510E+03  0.89619821510E+03  0.25500000920E-02 0. -1.
    10030    2    1    2    0    0  0.00000000000E+00  0.00000000000E+00 -0.75957533523E+03  0.10328210950E+04  0.69983192580E+03 0.  0.
        3    1    3    3  502    0 -0.30272782880E+03 -0.16873349383E+03 -0.45096471957E+03  0.56875681866E+03  0.10100000352E+00 0. -1.
       -3    1    3    3    0  502  0.30272782880E+03  0.16873349383E+03 -0.30861061566E+03  0.46406427633E+03  0.10100000352E+00 0.  1.
</event>
<event>
 5   0  0.2750139E-02  0.7040961E+03  0.7818609E-02  0.9710253E-01
        1   -1    0    0  501    0  0.00000000000E+00  0.00000000000E+00  0.47474381015E+03  0.47474381018E+03  0.50400001928E-02 0.  1.
       -1   -1    0    0    0  501  0.00000000000E+00  0.00000000000E+00 -0.26106258487E+03  0.26106258492E+03  0.50400001928E-02 0. -1.
    10030    2    1    2    0    0  0.00000000000E+00  0.00000000000E+00  0.21368122528E+03  0.73580639510E+03  0.70409614757E+03 0.  0.
        2    1    3    3  502    0  0.90802117448E+02 -0.33200156528E+03  0.18411528992E+03  0.39034408395E+03  0.25500000920E-02 0.  1.
       -2    1    3    3    0  502 -0.90802117448E+02  0.33200156528E+03  0.29565935356E+02  0.34546231115E+03  0.25500000920E-02 0. -1.
</event>
<event>
 5   0  0.4299912E-02  0.7136744E+03  0.7818609E-02  0.9694129E-01
       -2   -1    0    0    0  501  0.00000000000E+00  0.00000000000E+00  0.33870717622E+03  0.33870717623E+03  0.25500000920E-02 0.  1.
        2   -1    0    0  501    0  0.00000000000E+00  0.00000000000E+00 -0.37593769019E+03  0.37593769020E+03  0.25500000920E-02 0. -1.
    10030    2    1    2    0    0  0.00000000000E+00  0.00000000000E+00 -0.37230513970E+02  0.71464486644E+03  0.71367441733E+03 0.  0.
        3    1    3    3  502    0  0.22585172804E+03 -0.27159381659E+03  0.32055715612E+02  0.35468265164E+03  0.10100000352E+00 0.  1.
       -3    1    3    3    0  502 -0.22585172804E+03  0.27159381659E+03 -0.69286229583E+02  0.35996221480E+03  0.10100000352E+00 0. -1.
</event>
<event>
 5   0  0.2777999E-02  0.6873857E+03  0.7818609E-02  0.9739051E-01
        1   -1    0    0  501    0  0.00000000000E+00  0.00000000000E+00  0.10745786080E+03  0.10745786091E+03  0.50400001928E-02 0. -1.
       -1   -1    0    0    0  501  0.00000000000E+00  0.00000000000E+00 -0.10992659282E+04  0.10992659282E+04  0.50400001928E-02 0.  1.
    10030    2    1    2    0    0  0.00000000000E+00  0.00000000000E+00 -0.99180806740E+03  0.12067237891E+04  0.68738567098E+03 0.  0.
        5    1    3    3  502    0 -0.23634551969E+03 -0.23940161813E+03 -0.37263736864E+03  0.50204884020E+03  0.46999998093E+01 0.  1.
       -5    1    3    3    0  502  0.23634551969E+03  0.23940161813E+03 -0.61917069876E+03  0.70467494892E+03  0.46999998093E+01 0. -1.
</event>
<event>
 5   0  0.2750139E-02  0.7028161E+03  0.7818609E-02  0.9712428E-01
        1   -1    0    0  501    0  0.00000000000E+00  0.00000000000E+00  0.14850510553E+04  0.14850510554E+04  0.50400001928E-02 0. -1.
       -1   -1    0    0    0  501  0.00000000000E+00  0.00000000000E+00 -0.83153774833E+02  0.83153774986E+02  0.50400001928E-02 0.  1.
    10030    2    1    2    0    0  0.00000000000E+00  0.00000000000E+00  0.14018972805E+04  0.15682048303E+04  0.70281605331E+03 0.  0.
        2    1    3    3  502    0 -0.34167955738E+03 -0.81018551950E+02  0.73077454434E+03  0.81076529301E+03  0.25500000920E-02 0.  1.
       -2    1    3    3    0  502  0.34167955738E+03  0.81018551950E+02  0.67112273617E+03  0.75743953733E+03  0.25500000920E-02 0. -1.
</event>
<event>
 5   0  0.4420645E-02  0.6991888E+03  0.7818609E-02  0.9718620E-01
       -2   -1    0    0    0  501  0.00000000000E+00  0.00000000000E+00  0.33757962257E+03  0.33757962258E+03  0.25500000920E-02 0.  1.
        2   -1    0    0  501    0  0.00000000000E+00  0.00000000000E+00 -0.36203678543E+03  0.36203678544E+03  0.25500000920E-02 0. -1.
    10030    2    1    2    0    0  0.00000000000E+00  0.00000000000E+00 -0.24457162861E+02  0.69961640802E+03  0.69918879107E+03 0.  0.
        5    1    3    3  502    0  0.25676882543E+03  0.10458706602E+03 -0.22525657365E+03  0.35725522818E+03  0.46999998093E+01 0. -1.
       -5    1    3    3    0  502 -0.25676882543E+03 -0.10458706602E+03  0.20079941079E+03  0.34236117984E+03  0.46999998093E+01 0.  1.
</event>
<event>
 5   0  0.2751729E-02  0.7025397E+03  0.7818609E-02  0.9712899E-01
        1   -1    0    0  501    0  0.00000000000E+00  0.00000000000E+00  0.12700682709E+04  0.12700682709E+04  0.50400001928E-02 0. -1.
       -1   -1    0    0    0  501  0.00000000000E+00  0.00000000000E+00 -0.97152646980E+02  0.97152647111E+02  0.50400001928E-02 0.  1.
    10030    2    1    2    0    0  0.00000000000E+00  0.00000000000E+00  0.11729156239E+04  0.13672209180E+04  0.70253966282E+03 0.  0.
        1    1    3    3  502    0  0.24942100947E+03  0.18725535492E+03  0.90095269298E+03  0.95341028048E+03  0.50400001928E-02 0. -1.
       -1    1    3    3    0  502 -0.24942100947E+03 -0.18725535492E+03  0.27196293095E+03  0.41381063755E+03  0.50400001928E-02 0.  1.
</event>
<event>
 5   0  0.2751729E-02  0.6694706E+03  0.7818609E-02  0.9770915E-01
       -1   -1    0    0    0  501  0.00000000000E+00  0.00000000000E+00  0.12972623399E+03  0.12972623409E+03  0.50400001928E-02 0. -1.
        1   -1    0    0  501    0  0.00000000000E+00  0.00000000000E+00 -0.86372437084E+03  0.86372437086E+03  0.50400001928E-02 0.  1.
    10030    2    1    2    0    0  0.00000000000E+00  0.00000000000E+00 -0.73399813686E+03  0.99345060494E+03  0.66947056661E+03 0.  0.
        1    1    3    3  502    0 -0.27179831359E+03  0.18707975227E+03 -0.28338948230E+03  0.43495144061E+03  0.50400001928E-02 0. -1.
       -1    1    3    3    0  502  0.27179831359E+03 -0.18707975227E+03 -0.45060865455E+03  0.55849916434E+03  0.50400001928E-02 0.  1.
</event>
<event>
 5   0  0.4299912E-02  0.6819848E+03  0.7818609E-02  0.9748546E-01
        2   -1    0    0  501    0  0.00000000000E+00  0.00000000000E+00  0.20506642851E+03  0.20506642853E+03  0.25500000920E-02 0.  1.
       -2   -1    0    0    0  501  0.00000000000E+00  0.00000000000E+00 -0.56701544320E+03  0.56701544320E+03  0.25500000920E-02 0. -1.
    10030    2    1    2    0    0  0.00000000000E+00  0.00000000000E+00 -0.36194901468E+03  0.77208187173E+03  0.68198484399E+03 0.  0.
        3    1    3    3  502    0  0.26870454246E+03 -0.11673479729E+03 -0.37851611622E+03  0.47864768304E+03  0.10100000352E+00 0. -1.
       -3    1    3    3    0  502 -0.26870454246E+03  0.11673479729E+03  0.16567101542E+02  0.29343418869E+03  0.10100000352E+00 0.  1.
</event>
<event>
 5   0  0.2750139E-02  0.7058002E+03  0.7818609E-02  0.9707364E-01
        1   -1    0    0  501    0  0.00000000000E+00  0.00000000000E+00  0.23303093291E+03  0.23303093297E+03  0.50400001928E-02 0.  1.
       -1   -1    0    0    0  501  0.00000000000E+00  0.00000000000E+00 -0.53442899520E+03  0.53442899522E+03  0.50400001928E-02 0. -1.
    10030    2    1    2    0    0  0.00000000000E+00  0.00000000000E+00 -0.30139806228E+03  0.76745992819E+03  0.70580021920E+03 0.  0.
        2    1    3    3  502    0 -0.29060830448E+03  0.19674539222E+03 -0.11035585103E+03  0.36788632736E+03  0.25500000920E-02 0.  1.
       -2    1    3    3    0  502  0.29060830448E+03 -0.19674539222E+03 -0.19104221126E+03  0.39957360083E+03  0.25500000920E-02 0. -1.
</event>
<event>
 5   0  0.2751729E-02  0.6972169E+03  0.7818609E-02  0.9722003E-01
        1   -1    0    0  501    0  0.00000000000E+00  0.00000000000E+00  0.17968050969E+03  0.17968050976E+03  0.50400001928E-02 0.  1.
       -1   -1    0    0    0  501  0.00000000000E+00  0.00000000000E+00 -0.67635527798E+03  0.67635527799E+03  0.50400001928E-02 0. -1.
    10030    2    1    2    0    0  0.00000000000E+00  0.00000000000E+00 -0.49667476829E+03  0.85603578775E+03  0.69721692783E+03 0.  0.
        1    1    3    3  502    0 -0.12971812762E+03 -0.26749564554E+02  0.14758536077E+03  0.19830222030E+03  0.50400001928E-02 0.  1.
       -1    1    3    3    0  502  0.12971812762E+03  0.26749564554E+02 -0.64426012906E+03  0.65773356745E+03  0.50400001928E-02 0. -1.
</event>
<event>
 5   0  0.4420645E-02  0.6976474E+03  0.7818609E-02  0.9721264E-01
        2   -1    0    0  501    0  0.00000000000E+00  0.00000000000E+00  0.77743174831E+03  0.77743174831E+03  0.25500000920E-02 0.  1.
       -2   -1    0    0    0  501  0.00000000000E+00  0.00000000000E+00 -0.15651273347E+03  0.15651273349E+03  0.25500000920E-02 0. -1.
    10030    2    1    2    0    0  0.00000000000E+00  0.00000000000E+00  0.62091901484E+03  0.93394448181E+03  0.69764738379E+03 0.  0.
        5    1    3    3  502    0 -0.23037020242E+03 -0.17787773791E+03  0.53145943289E+02  0.29590116778E+03  0.46999998093E+01 0. -1.
       -5    1    3    3    0  502  0.23037020242E+03  0.17787773791E+03  0.56777307155E+03  0.63804331403E+03  0.46999998093E+01 0.  1.
</event>
<event>
 5   0  0.2777999E-02  0.6905330E+03  0.7818609E-02  0.9733560E-01
       -1   -1    0    0    0  501  0.00000000000E+00  0.00000000000E+00  0.69146479851E+03  0.69146479853E+03  0.50400001928E-02 0.  1.
        1   -1    0    0  501    0  0.00000000000E+00  0.00000000000E+00 -0.17240060834E+03  0.17240060841E+03  0.50400001928E-02 0. -1.
    10030    2    1    2    0    0  0.00000000000E+00  0.00000000000E+00  0.51906419018E+03  0.86386540694E+03  0.69053298820E+03 0.  0.
        5    1    3    3  502    0 -0.20070594597E+03 -0.24713903688E+03  0.42656115419E+03  0.53229417483E+03  0.46999998093E+01 0.  1.
       -5    1    3    3    0  502  0.20070594597E+03  0.24713903688E+03  0.92503035986E+02  0.33157123211E+03  0.46999998093E+01 0. -1.
</event>
<event>
 5   0  0.4299912E-02  0.7095325E+03  0.7818609E-02  0.9701068E-01
        2   -1    0    0  501    0  0.00000000000E+00  0.00000000000E+00  0.74737591046E+03  0.74737591046E+03  0.25500000920E-02 0.  1.
       -2   -1    0    0    0  501  0.00000000000E+00  0.00000000000E+00 -0.16840132988E+03  0.16840132990E+03  0.25500000920E-02 0. -1.
    10030    2    1    2    0    0  0.00000000000E+00  0.00000000000E+00  0.57897458058E+03  0.91577724036E+03  0.70953251441E+03 0.  0.
        3    1    3    3  502    0 -0.11026420977E+02 -0.31522910957E+03  0.79903797223E+02  0.32538531081E+03  0.10100000352E+00 0. -1.
       -3    1    3    3    0  502  0.11026420977E+02  0.31522910957E+03  0.49907078336E+03  0.59039192955E+03  0.10100000352E+00 0.  1.
</event>
<event>
 5   0  0.2750139E-02  0.7022315E+03  0.7818609E-02  0.9713424E-01
        1   -1    0    0  501    0  0.00000000000E+00  0.00000000000E+00  0.24782868042E+03  0.24782868047E+03  0.50400001928E-02 0. -1.
       -1   -1    0    0    0  501  0.00000000000E+00  0.00000000000E+00 -0.49744950698E+03  0.49744950701E+03  0.50400001928E-02 0.  1.
    10030    2    1    2    0    0  0.00000000000E+00  0.00000000000E+00 -0.24962082656E+03  0.74527818748E+03  0.70223145734E+03 0.  0.
        2    1    3    3  502    0 -0.18803325591E+03  0.16183531501E+03  0.13888594940E+03  0.28431757149E+03  0.25500000920E-02 0. -1.
       -2    1    3    3    0  502  0.18803325591E+03 -0.16183531501E+03 -0.38850677597E+03  0.46096061599E+03  0.25500000920E-02 0.  1.
</event>
<event>
 5   0  0.2750139E-02  0.7497957E+03  0.7818609E-02  0.9635671E-01
        1   -1    0    0  501    0  0.00000000000E+00  0.00000000000E+00  0.28279375700E+03  0.28279375704E+03  0.50400001928E-02 0. -1.
       -1   -1    0    0    0  501  0.00000000000E+00  0.00000000000E+00 -0.49699959708E+03  0.49699959710E+03  0.50400001928E-02 0.  1.
    10030    2    1    2    0    0  0.00000000000E+00  0.00000000000E+00 -0.21420584008E+03  0.77979335415E+03  0.74979566100E+03 0.  0.
        2    1    3    3  502    0 -0.25121426629E+02  0.78570774529E+02 -0.48744436140E+03  0.49437481546E+03  0.25500000920E-02 0.  1.
       -2    1    3    3    0  502  0.25121426629E+02 -0.78570774529E+02  0.27323852133E+03  0.28541853869E+03  0.25500000920E-02 0. -1.
</event>
<event>
 5   0  0.2684924E-02  0.7282128E+03  0.7818609E-02  0.9670165E-01
        1   -1    0    0  501    0  0.00000000000E+00  0.00000000000E+00  0.63582621240E+03  0.63582621242E+03  0.50400001928E-02 0.  1.
       -1   -1    0    0    0  501  0.00000000000E+00  0.00000000000E+00 -0.20850581898E+03  0.20850581904E+03  0.50400001928E-02 0. -1.
    10030    2    1    2    0    0  0.00000000000E+00  0.00000000000E+00  0.42732039342E+03  0.84433203147E+03  0.72821278534E+03 0.  0.
        4    1    3    3  502    0 -0.29228471347E+02 -0.30769558648E+03 -0.94894324953E+01  0.30922894383E+03  0.12699999809E+01 0. -1.
       -4    1    3    3    0  502  0.29228471347E+02  0.30769558648E+03  0.43680982592E+03  0.53510308763E+03  0.12699999809E+01 0.  1.
</event>
<event>
 5   0  0.2684924E-02  0.7011110E+03  0.7818609E-02  0.9715334E-01
        1   -1    0    0  501    0  0.00000000000E+00  0.00000000000E+00  0.29444913151E+03  0.29444913155E+03  0.50400001928E-02 0.  1.
       -1   -1    0    0    0  501  0.00000000000E+00  0.00000000000E+00 -0.41735281155E+03  0.41735281158E+03  0.50400001928E-02 0. -1.
    10030    2    1    2    0    0  0.00000000000E+00  0.00000000000E+00 -0.12290368004E+03  0.71180194313E+03  0.70111104090E+03 0.  0.
        4    1    3    3  502    0  0.14348516197E+03 -0.25911523846E+02 -0.38510466115E+03  0.41178466668E+03  0.12699999809E+01 0. -1.
       -4    1    3    3    0  502 -0.14348516197E+03  0.25911523846E+02  0.26220098111E+03  0.30001727645E+03  0.12699999809E+01 0.  1.
</event>
<event>
 5   0  0.4503289E-02  0.6968024E+03  0.7818609E-02  0.9722716E-01
       -2   -1    0    0    0  501  0.00000000000E+00  0.00000000000E+00  0.57454081964E+02  0.57454082021E+02  0.25500000920E-02 0. -1.
        2   -1    0    0  501    0  0.00000000000E+00  0.00000000000E+00 -0.21127025888E+04  0.21127025888E+04  0.25500000920E-02 0.  1.
    10030    2    1    2    0    0  0.00000000000E+00  0.00000000000E+00 -0.20552485068E+04  0.21701566708E+04  0.69680237590E+03 0.  0.
        2    1    3    3  502    0 -0.11123252618E+03 -0.62329554547E+02 -0.17822786502E+02  0.12874509690E+03  0.25500000920E-02 0. -1.
       -2    1    3    3    0  502  0.11123252618E+03  0.62329554547E+02 -0.20374257203E+04  0.20414115739E+04  0.25500000920E-02 0.  1.
</event>
<event>
 5   0  0.4526837E-02  0.7167240E+03  0.7818609E-02  0.9689052E-01
       -2   -1    0    0    0  501  0.00000000000E+00  0.00000000000E+00  0.31722779704E+03  0.31722779705E+03  0.25500000920E-02 0. -1.
        2   -1    0    0  501    0  0.00000000000E+00  0.00000000000E+00 -0.40482994316E+03  0.40482994317E+03  0.25500000920E-02 0.  1.
    10030    2    1    2    0    0  0.00000000000E+00  0.00000000000E+00 -0.87602146125E+02  0.72205774022E+03  0.71672396654E+03 0.  0.
        1    1    3    3  502    0 -0.30247264920E+03 -0.31484420529E+02 -0.23479658730E+03  0.38420100167E+03  0.50400001928E-02 0.  1.
       -1    1    3    3    0  502  0.30247264920E+03  0.31484420529E+02  0.14719444117E+03  0.33785673855E+03  0.50400001928E-02 0. -1.
</event>
<event>
 5   0  0.4299912E-02  0.6638369E+03  0.7818609E-02  0.9781156E-01
       -2   -1    0    0    0  501  0.00000000000E+00  0.00000000000E+00  0.14872387232E+03  0.14872387234E+03  0.25500000920E-02 0. -1.
        2   -1    0    0  501    0  0.00000000000E+00  0.00000000000E+00 -0.74076777596E+03  0.74076777597E+03  0.25500000920E-02 0.  1.
    10030    2    1    2    0    0  0.00000000000E+00  0.00000000000E+00 -0.59204390365E+03  0.88949164831E+03  0.66383688400E+03 0.  0.
        3    1    3    3  502    0  0.13618022624E+03  0.24798396669E+02 -0.70024832148E+03  0.71379810621E+03  0.10100000352E+00 0.  1.
       -3    1    3    3    0  502 -0.13618022624E+03 -0.24798396669E+02  0.10820441783E+03  0.17569354210E+03  0.10100000352E+00 0. -1.
</event>
<event>
 5   0  0.4526837E-02  0.6529540E+03  0.7818609E-02  0.9801252E-01
        2   -1    0    0  501    0  0.00000000000E+00  0.00000000000E+00  0.45779569461E+03  0.45779569461E+03  0.25500000920E-02 0.  1.
       -2   -1    0    0    0  501  0.00000000000E+00  0.00000000000E+00 -0.23282710364E+03  0.23282710365E+03  0.25500000920E-02 0. -1.
    10030    2    1    2    0    0  0.00000000000E+00  0.00000000000E+00  0.22496859097E+03  0.69062279826E+03  0.65295404322E+03 0.  0.
        1    1    3    3  502    0  0.52980298987E+02 -0.60418618197E+02  0.44717237065E+03  0.45433517430E+03  0.50400001928E-02 0.  1.
       -1    1    3    3    0  502 -0.52980298987E+02  0.60418618197E+02 -0.22220377969E+03  0.23628762396E+03  0.50400001928E-02 0. -1.
</event>
<event>
 5   0  0.4365492E-02  0.7163432E+03  0.7818609E-02  0.9689684E-01
       -2   -1    0    0    0  501  0.00000000000E+00  0.00000000000E+00  0.28636725259E+03  0.28636725260E+03  0.25500000920E-02 0. -1.
        2   -1    0    0  501    0  0.00000000000E+00  0.00000000000E+00 -0.44798031064E+03  0.44798031065E+03  0.25500000920E-02 0.  1.
    10030    2    1    2    0    0  0.00000000000E+00  0.00000000000E+00 -0.16161305805E+03  0.73434756325E+03  0.71634318808E+03 0.  0.
        4    1    3    3  502    0  0.14580348357E+03  0.27844497735E+03  0.95251098629E+02  0.32842753527E+03  0.12699999809E+01 0. -1.
       -4    1    3    3    0  502 -0.14580348357E+03 -0.27844497735E+03 -0.25686415668E+03  0.40592002798E+03  0.12699999809E+01 0.  1.
</event>
<event>
 5   0  0.2758681E-02  0.6976874E+03  0.7818609E-02  0.9721195E-01
        1   -1    0    0  501    0  0.00000000000E+00  0.00000000000E+00  0.69624655927E+03  0.69624655929E+03  0.50400001928E-02 0.  1.
       -1   -1    0    0    0  501  0.00000000000E+00  0.00000000000E+00 -0.17478281252E+03  0.17478281260E+03  0.50400001928E-02 0. -1.
    10030    2    1    2    0    0  0.00000000000E+00  0.00000000000E+00  0.52146374674E+03  0.87102937188E+03  0.69768741390E+03 0.  0.
        3    1    3    3  502    0  0.28194544423E+03  0.90443707745E+02  0.30465626522E+02  0.29765997781E+03  0.10100000352E+00 0. -1.
       -3    1    3    3    0  502 -0.28194544423E+03 -0.90443707745E+02  0.49099812022E+03  0.57336939407E+03  0.10100000352E+00 0.  1.
</event>
<event>
 5   0  0.2751729E-02  0.7022314E+03  0.7818609E-02  0.9713424E-01
        1   -1    0    0  501    0  0.00000000000E+00  0.00000000000E+00  0.26237689222E+03  0.26237689226E+03  0.50400001928E-02 0. -1.
       -1   -1    0    0    0  501  0.00000000000E+00  0.00000000000E+00 -0.46986702396E+03  0.46986702399E+03  0.50400001928E-02 0.  1.
    10030    2    1    2    0    0  0.00000000000E+00  0.00000000000E+00 -0.20749013175E+03  0.73224391626E+03  0.70223144199E+03 0.  0.
        1    1    3    3  502    0 -0.62261800150E+02 -0.26184100417E+03 -0.33887052355E+03  0.43274758807E+03  0.50400001928E-02 0.  1.
       -1    1    3    3    0  502  0.62261800150E+02  0.26184100417E+03  0.13138039181E+03  0.29949632819E+03  0.50400001928E-02 0. -1.
</event>
<event>
 5   0  0.2777999E-02  0.7025792E+03  0.7818609E-02  0.9712831E-01
       -1   -1    0    0    0  501  0.00000000000E+00  0.00000000000E+00  0.96927523941E+02  0.96927524072E+02  0.50400001928E-02 0.  1.
        1   -1    0    0  501    0  0.00000000000E+00  0.00000000000E+00 -0.12731615780E+04  0.12731615780E+04  0.50400001928E-02 0. -1.
    10030    2    1    2    0    0  0.00000000000E+00  0.00000000000E+00 -0.11762340541E+04  0.13700891021E+04  0.70257924658E+03 0.  0.
        5    1    3    3  502    0  0.45873136913E+02  0.18811055262E+03 -0.11596362274E+04  0.11756990238E+04  0.46999998093E+01 0. -1.
       -5    1    3    3    0  502 -0.45873136913E+02 -0.18811055262E+03 -0.16597826704E+02  0.19439007831E+03  0.46999998093E+01 0.  1.
</event>
<event>
 5   0  0.2684924E-02  0.7138819E+03  0.7818609E-02  0.9693782E-01
        1   -1    0    0  501    0  0.00000000000E+00  0.00000000000E+00  0.57792942196E+03  0.57792942199E+03  0.50400001928E-02 0. -1.
       -1   -1    0    0    0  501  0.00000000000E+00  0.00000000000E+00 -0.22045398754E+03  0.22045398760E+03  0.50400001928E-02 0.  1.
    10030    2    1    2    0    0  0.00000000000E+00  0.00000000000E+00  0.35747543442E+03  0.79838340958E+03  0.71388191074E+03 0.  0.
        4    1    3    3  502    0 -0.14044450136E+03  0.13977763734E+03 -0.15329319242E+03  0.25052517160E+03  0.12699999809E+01 0.  1.
       -4    1    3    3    0  502  0.14044450136E+03 -0.13977763734E+03  0.51076862684E+03  0.54785823799E+03  0.12699999809E+01 0. -1.
</event>
<event>
 5   0  0.2684924E-02  0.7048562E+03  0.7818609E-02  0.9708963E-01
       -1   -1    0    0    0  501  0.00000000000E+00  0.00000000000E+00  0.11122396284E+03  0.11122396296E+03  0.50400001928E-02 0.  1.
        1   -1    0    0  501    0  0.00000000000E+00  0.00000000000E+00 -0.11167160315E+04  0.11167160315E+04  0.50400001928E-02 0. -1.
    10030    2    1    2    0    0  0.00000000000E+00  0.00000000000E+00 -0.10054920686E+04  0.12279399944E+04  0.70485624765E+03 0.  0.
        4    1    3    3  502    0  0.24127915078E+03 -0.19495452241E+03 -0.79415894593E+03  0.85259189458E+03  0.12699999809E+01 0. -1.
       -4    1    3    3    0  502 -0.24127915078E+03  0.19495452241E+03 -0.21133312269E+03  0.37534809984E+03  0.12699999809E+01 0.  1.
</event>
<event>
 5   0  0.2758681E-02  0.6984000E+03  0.7818609E-02  0.9719972E-01
       -1   -1    0    0    0  501  0.00000000000E+00  0.00000000000E+00  0.11600856187E+04  0.11600856188E+04  0.50400001928E-02 0. -1.
        1   -1    0    0  501    0  0.00000000000E+00  0.00000000000E+00 -0.10511349164E+03  0.10511349177E+03  0.50400001928E-02 0.  1.
    10030    2    1    2    0    0  0.00000000000E+00  0.00000000000E+00  0.10549721271E+04  0.12651991105E+04  0.69840002885E+03 0.  0.
        3    1    3    3  502    0  0.11117123048E+03  0.74920437834E+02  0.11116107641E+04  0.11196654034E+04  0.10100000352E+00 0. -1.
       -3    1    3    3    0  502 -0.11117123048E+03 -0.74920437834E+02 -0.56638637041E+02  0.14553370709E+03  0.10100000352E+00 0.  1.
</event>
<event>
 5   0  0.4365492E-02  0.7846604E+03  0.7818609E-02  0.9582490E-01
       -2   -1    0    0    0  501  0.00000000000E+00  0.00000000000E+00  0.34803253411E+03  0.34803253412E+03  0.25500000920E-02 0.  1.
        2   -1    0    0  501    0  0.00000000000E+00  0.00000000000E+00 -0.44226612062E+03  0.44226612063E+03  0.25500000920E-02 0. -1.
    10030    2    1    2    0    0  0.00000000000E+00  0.00000000000E+00 -0.94233586513E+02  0.79029865474E+03  0.78466043284E+03 0.  0.
        4    1    3    3  502    0  0.13948902027E+03 -0.32357955161E+03  0.12663504281E+03  0.37443151572E+03  0.12699999809E+01 0.  1.
       -4    1    3    3    0  502 -0.13948902027E+03  0.32357955161E+03 -0.22086862933E+03  0.41586713902E+03  0.12699999809E+01 0. -1.
</event>
<event>
 5   0  0.2750139E-02  0.7042682E+03  0.7818609E-02  0.9709961E-01
       -1   -1    0    0    0  501  0.00000000000E+00  0.00000000000E+00  0.27733061841E+03  0.27733061845E+03  0.50400001928E-02 0. -1.
        1   -1    0    0  501    0  0.00000000000E+00  0.00000000000E+00 -0.44711407164E+03  0.44711407166E+03  0.50400001928E-02 0.  1.
    10030    2    1    2    0    0  0.00000000000E+00  0.00000000000E+00 -0.16978345323E+03  0.72444469012E+03  0.70426819327E+03 0.  0.
        2    1    3    3  502    0  0.15303899928E+03 -0.31539500022E+03 -0.50721370996E+02  0.35421405808E+03  0.25500000920E-02 0. -1.
       -2    1    3    3    0  502 -0.15303899928E+03  0.31539500022E+03 -0.11906208223E+03  0.37023063203E+03  0.25500000920E-02 0.  1.
</event>
<event>
 5   0  0.2758681E-02  0.6948584E+03  0.7818609E-02  0.9726066E-01
       -1   -1    0    0    0  501  0.00000000000E+00  0.00000000000E+00  0.37683680990E+03  0.37683680993E+03  0.50400001928E-02 0.  1.
        1   -1    0    0  501    0  0.00000000000E+00  0.00000000000E+00 -0.32031654015E+03  0.32031654019E+03  0.50400001928E-02 0. -1.
    10030    2    1    2    0    0  0.00000000000E+00  0.00000000000E+00  0.56520269744E+02  0.69715335013E+03  0.69485844076E+03 0.  0.
        3    1    3    3  502    0 -0.33642559040E+03 -0.60718764211E+02 -0.33896931294E+02  0.34353741914E+03  0.10100000352E+00 0.  1.
       -3    1    3    3    0  502  0.33642559040E+03  0.60718764211E+02  0.90417201038E+02  0.35361593098E+03  0.10100000352E+00 0. -1.
</event>
<event>
 5   0  0.4420645E-02  0.7005746E+03  0.7818609E-02  0.9716250E-01
        2   -1    0    0  501    0  0.00000000000E+00  0.00000000000E+00  0.91252436904E+03  0.91252436904E+03  0.25500000920E-02 0.  1.
       -2   -1    0    0    0  501  0.00000000000E+00  0.00000000000E+00 -0.13446348255E+03  0.13446348257E+03  0.25500000920E-02 0. -1.
    10030    2    1    2    0    0  0.00000000000E+00  0.00000000000E+00  0.77806088649E+03  0.10469878516E+04  0.70057463439E+03 0.  0.
        5    1    3    3  502    0 -0.26098262136E+03  0.15232613640E+03  0.12436179452E+03  0.32680747607E+03  0.46999998093E+01 0. -1.
       -5    1    3    3    0  502  0.26098262136E+03 -0.15232613640E+03  0.65369909197E+03  0.72018037554E+03  0.46999998093E+01 0.  1.
</event>
<event>
 5   0  0.2750139E-02  0.7048353E+03  0.7818609E-02  0.9708999E-01
       -1   -1    0    0    0  501  0.00000000000E+00  0.00000000000E+00  0.17832285631E+03  0.17832285639E+03  0.50400001928E-02 0. -1.
        1   -1    0    0  501    0  0.00000000000E+00  0.00000000000E+00 -0.69647950769E+03  0.69647950771E+03  0.50400001928E-02 0.  1.
    10030    2    1    2    0    0  0.00000000000E+00  0.00000000000E+00 -0.51815665138E+03  0.87480236410E+03  0.70483534309E+03 0.  0.
        2    1    3    3  502    0  0.15688868540E+03  0.27566633352E+03 -0.68441518923E+02  0.32448455827E+03  0.25500000920E-02 0. -1.
       -2    1    3    3    0  502 -0.15688868540E+03 -0.27566633352E+03 -0.44971513246E+03  0.55031780582E+03  0.25500000920E-02 0.  1.
</event>
<event>
 5   0  0.2758681E-02  0.6896537E+03  0.7818609E-02  0.9735091E-01
       -1   -1    0    0    0  501  0.00000000000E+00  0.00000000000E+00  0.22442635643E+03  0.22442635649E+03  0.50400001928E-02 0.  1.
        1   -1    0    0  501    0  0.00000000000E+00  0.00000000000E+00 -0.52981987685E+03  0.52981987688E+03  0.50400001928E-02 0. -1.
    10030    2    1    2    0    0  0.00000000000E+00  0.00000000000E+00 -0.30539352042E+03  0.75424623337E+03  0.68965366542E+03 0.  0.
        3    1    3    3  502    0 -0.14445213669E+03 -0.18833328868E+03 -0.42626400234E+03  0.48789021031E+03  0.10100000352E+00 0. -1.
       -3    1    3    3    0  502  0.14445213669E+03  0.18833328868E+03  0.12087048192E+03  0.26635602306E+03  0.10100000352E+00 0.  1.
</event>
<event>
 5   0  0.2777999E-02  0.7285742E+03  0.7818609E-02  0.9669577E-01
        1   -1    0    0  501    0  0.00000000000E+00  0.00000000000E+00  0.77688936948E+03  0.77688936949E+03  0.50400001928E-02 0.  1.
       -1   -1    0    0    0  501  0.00000000000E+00  0.00000000000E+00 -0.17081595116E+03  0.17081595124E+03  0.50400001928E-02 0. -1.
    10030    2    1    2    0    0  0.00000000000E+00  0.00000000000E+00  0.60607341831E+03  0.94770532073E+03  0.72857421486E+03 0.  0.
        5    1    3    3  502    0  0.25744777162E+03  0.12093389069E+03  0.70481905527E+01  0.28456304752E+03  0.46999998093E+01 0. -1.
       -5    1    3    3    0  502 -0.25744777162E+03 -0.12093389069E+03  0.59902522776E+03  0.66314227321E+03  0.46999998093E+01 0.  1.
</event>
<event>
 5   0  0.4503289E-02  0.7012725E+03  0.7818609E-02  0.9715058E-01
       -2   -1    0    0    0  501  0.00000000000E+00  0.00000000000E+00  0.83129932619E+02  0.83129932659E+02  0.25500000920E-02 0.  1.
        2   -1    0    0  501    0  0.00000000000E+00  0.00000000000E+00 -0.14789593354E+04  0.14789593354E+04  0.25500000920E-02 0. -1.
    10030    2    1    2    0    0  0.00000000000E+00  0.00000000000E+00 -0.13958294028E+04  0.15620892680E+04  0.70127252885E+03 0.  0.
        2    1    3    3  502    0 -0.24917497427E+03 -0.14685395865E+03 -0.25637624925E+03  0.38650101443E+03  0.25500000920E-02 0.  1.
       -2    1    3    3    0  502  0.24917497427E+03  0.14685395865E+03 -0.11394531535E+04  0.11755882536E+04  0.25500000920E-02 0. -1.
</event>
<event>
 5   0  0.4503289E-02  0.6959483E+03  0.7818609E-02  0.9724186E-01
       -2   -1    0    0    0  501  0.00000000000E+00  0.00000000000E+00  0.15272445211E+03  0.15272445213E+03  0.25500000920E-02 0. -1.
        2   -1    0    0  501    0  0.00000000000E+00  0.00000000000E+00 -0.79283977997E+03  0.79283977997E+03  0.25500000920E-02 0.  1.
    10030    2    1    2    0    0  0.00000000000E+00  0.00000000000E+00 -0.64011532786E+03  0.94556423210E+03  0.69594833434E+03 0.  0.
        2    1    3    3  502    0  0.72998073952E+02  0.27951758828E+03 -0.58360892746E+03  0.65119749783E+03  0.25500000920E-02 0.  1.
       -2    1    3    3    0  502 -0.72998073952E+02 -0.27951758828E+03 -0.56506400395E+02  0.29436673428E+03  0.25500000920E-02 0. -1.
</event>
<event>
 5   0  0.4299912E-02  0.6550528E+03  0.7818609E-02  0.9797344E-01
        2   -1    0    0  501    0  0.00000000000E+00  0.00000000000E+00  0.10738780132E+04  0.10738780132E+04  0.25500000920E-02 0. -1.
       -2   -1    0    0    0  501  0.00000000000E+00  0.00000000000E+00 -0.99893588819E+02  0.99893588852E+02  0.25500000920E-02 0.  1.
    10030    2    1    2    0    0  0.00000000000E+00  0.00000000000E+00  0.97398442439E+03  0.11737716021E+04  0.65505275731E+03 0.  0.
        3    1    3    3  502    0  0.88199142068E+02  0.10325866613E+03  0.10210548901E+04  0.10300458920E+04  0.10100000352E+00 0. -1.
       -3    1    3    3    0  502 -0.88199142068E+02 -0.10325866613E+03 -0.47070465719E+02  0.14372571007E+03  0.10100000352E+00 0.  1.
</event>
<event>
 5   0  0.4365492E-02  0.6984425E+03  0.7818609E-02  0.9719899E-01
        2   -1    0    0  501    0  0.00000000000E+00  0.00000000000E+00  0.21720370157E+04  0.21720370157E+04  0.25500000920E-02 0. -1.
       -2   -1    0    0    0  501  0.00000000000E+00  0.00000000000E+00 -0.56147976082E+02  0.56147976140E+02  0.25500000920E-02 0.  1.
    10030    2    1    2    0    0  0.00000000000E+00  0.00000000000E+00  0.21158890396E+04  0.22281849919E+04  0.69844250293E+03 0.  0.
        4    1    3    3  502    0  0.14593362205E+03 -0.22457472618E+01  0.20700650389E+04  0.20752042174E+04  0.12699999809E+01 0. -1.
       -4    1    3    3    0  502 -0.14593362205E+03  0.22457472618E+01  0.45824000699E+02  0.15298077450E+03  0.12699999809E+01 0.  1.
</event>
<event>
 5   0  0.2751729E-02  0.7072952E+03  0.7818609E-02  0.9704837E-01
        1   -1    0    0  501    0  0.00000000000E+00  0.00000000000E+00  0.48646441244E+03  0.48646441247E+03  0.50400001928E-02 0. -1.
       -1   -1    0    0    0  501  0.00000000000E+00  0.00000000000E+00 -0.25709303563E+03  0.25709303568E+03  0.50400001928E-02 0.  1.
    10030    2    1    2    0    0  0.00000000000E+00  0.00000000000E+00  0.22937137681E+03  0.74355744815E+03  0.70729516483E+03 0.  0.
        1    1    3    3  502    0  0.46796880923E+02 -0.88894376819E+02  0.47114873734E+03  0.48173985824E+03  0.50400001928E-02 0. -1.
       -1    1    3    3    0  502 -0.46796880923E+02  0.88894376819E+02 -0.24177736053E+03  0.26181758991E+03  0.50400001928E-02 0.  1.
</event>
<event>
 5   0  0.4365492E-02  0.7069805E+03  0.7818609E-02  0.9705369E-01
        2   -1    0    0  501    0  0.00000000000E+00  0.00000000000E+00  0.97272759299E+03  0.97272759300E+03  0.25500000920E-02 0. -1.
       -2   -1    0    0    0  501  0.00000000000E+00  0.00000000000E+00 -0.12845873440E+03  0.12845873443E+03  0.25500000920E-02 0.  1.
    10030    2    1    2    0    0  0.00000000000E+00  0.00000000000E+00  0.84426885859E+03  0.11011863274E+04  0.70698049628E+03 0.  0.
        4    1    3    3  502    0 -0.28850149799E+02  0.33280657375E+03  0.24209151082E+03  0.41255600733E+03  0.12699999809E+01 0. -1.
       -4    1    3    3    0  502  0.28850149799E+02 -0.33280657375E+03  0.60217734777E+03  0.68863032009E+03  0.12699999809E+01 0.  1.
</event>
<event>
 5   0  0.2684924E-02  0.6561266E+03  0.7818609E-02  0.9795350E-01
       -1   -1    0    0    0  501  0.00000000000E+00  0.00000000000E+00  0.85722842539E+02  0.85722842687E+02  0.50400001928E-02 0. -1.
        1   -1    0    0  501    0  0.00000000000E+00  0.00000000000E+00 -0.12555058557E+04  0.12555058557E+04  0.50400001928E-02 0.  1.
    10030    2    1    2    0    0  0.00000000000E+00  0.00000000000E+00 -0.11697830131E+04  0.13412286984E+04  0.65612660631E+03 0.  0.
        4    1    3    3  502    0  0.21837997651E+03  0.61408355556E+01 -0.10851742547E+04  0.11069472887E+04  0.12699999809E+01 0.  1.
       -4    1    3    3    0  502 -0.21837997651E+03 -0.61408355556E+01 -0.84608758394E+02  0.23428140963E+03  0.12699999809E+01 0. -1.
</event>
<event>
 5   0  0.4526837E-02  0.7069214E+03  0.7818609E-02  0.9705468E-01
       -2   -1    0    0    0  501  0.00000000000E+00  0.00000000000E+00  0.21056601006E+03  0.21056601008E+03  0.25500000920E-02 0. -1.
        2   -1    0    0  501    0  0.00000000000E+00  0.00000000000E+00 -0.59332682420E+03  0.59332682420E+03  0.25500000920E-02 0.  1.
    10030    2    1    2    0    0  0.00000000000E+00  0.00000000000E+00 -0.38276081414E+03  0.80389283428E+03  0.70692138754E+03 0.  0.
        1    1    3    3  502    0  0.15720522193E+03  0.48266041993E+02  0.16441409940E+03  0.23254050984E+03  0.50400001928E-02 0. -1.
       -1    1    3    3    0  502 -0.15720522193E+03 -0.48266041993E+02 -0.54717491354E+03  0.57135232444E+03  0.50400001928E-02 0.  1.
</event>
<event>
 5   0  0.2758681E-02  0.6946177E+03  0.7818609E-02  0.9726481E-01
       -1   -1    0    0    0  501  0.00000000000E+00  0.00000000000E+00  0.16198867536E+03  0.16198867544E+03  0.50400001928E-02 0. -1.
        1   -1    0    0  501    0  0.00000000000E+00  0.00000000000E+00 -0.74464112728E+03  0.74464112730E+03  0.50400001928E-02 0.  1.
    10030    2    1    2    0    0  0.00000000000E+00  0.00000000000E+00 -0.58265245192E+03  0.90662980273E+03  0.69461767864E+03 0.  0.
        3    1    3    3  502    0 -0.10018540609E+03 -0.19794631460E+03 -0.64010021875E+03  0.67745712728E+03  0.10100000352E+00 0.  1.
       -3    1    3    3    0  502  0.10018540609E+03  0.19794631460E+03  0.57447766831E+02  0.22917267545E+03  0.10100000352E+00 0. -1.
</event>
<event>
 5   0  0.4299912E-02  0.6974545E+03  0.7818609E-02  0.9721595E-01
       -2   -1    0    0    0  501  0.00000000000E+00  0.00000000000E+00  0.35946334481E+03  0.35946334482E+03  0.25500000920E-02 0. -1.
        2   -1    0    0  501    0  0.00000000000E+00  0.00000000000E+00 -0.33831177158E+03  0.33831177159E+03  0.25500000920E-02 0.  1.
    10030    2    1    2    0    0  0.00000000000E+00  0.00000000000E+00  0.21151573229E+02  0.69777511641E+03  0.69745446019E+03 0.  0.
        3    1    3    3  502    0  0.11760992056E+03 -0.77738663681E+02 -0.30853053595E+03  0.33921452661E+03  0.10100000352E+00 0.  1.
       -3    1    3    3    0  502 -0.11760992056E+03  0.77738663681E+02  0.32968210918E+03  0.35856058981E+03  0.10100000352E+00 0. -1.
</event>
<event>
 5   0  0.2777999E-02  0.7639992E+03  0.7818609E-02  0.9613640E-01
        1   -1    0    0  501    0  0.00000000000E+00  0.00000000000E+00  0.15432879577E+03  0.15432879586E+03  0.50400001928E-02 0. -1.
       -1   -1    0    0    0  501  0.00000000000E+00  0.00000000000E+00 -0.94553765626E+03  0.94553765627E+03  0.50400001928E-02 0.  1.
    10030    2    1    2    0    0  0.00000000000E+00  0.00000000000E+00 -0.79120886048E+03  0.10998664521E+04  0.76399918299E+03 0.  0.
        5    1    3    3  502    0 -0.22235200284E+03 -0.80772814306E+02 -0.82733828761E+03  0.86050879882E+03  0.46999998093E+01 0.  1.
       -5    1    3    3    0  502  0.22235200284E+03  0.80772814306E+02  0.36129427128E+02  0.23935765331E+03  0.46999998093E+01 0. -1.
</event>
<event>
 5   0  0.4526837E-02  0.6896555E+03  0.7818609E-02  0.9735088E-01
       -2   -1    0    0    0  501  0.00000000000E+00  0.00000000000E+00  0.27107557997E+03  0.27107557999E+03  0.25500000920E-02 0.  1.
        2   -1    0    0  501    0  0.00000000000E+00  0.00000000000E+00 -0.43864589802E+03  0.43864589803E+03  0.25500000920E-02 0. -1.
    10030    2    1    2    0    0  0.00000000000E+00  0.00000000000E+00 -0.16757031805E+03  0.70972147802E+03  0.68965554074E+03 0.  0.
        1    1    3    3  502    0  0.36621574823E+02  0.31876872029E+03 -0.21375938011E+03  0.38554858239E+03  0.50400001928E-02 0. -1.
       -1    1    3    3    0  502 -0.36621574823E+02 -0.31876872029E+03  0.46189062063E+02  0.32417289562E+03  0.50400001928E-02 0.  1.
</event>
<event>
 5   0  0.4299912E-02  0.6145252E+03  0.7818609E-02  0.9875721E-01
        2   -1    0    0  501    0  0.00000000000E+00  0.00000000000E+00  0.73481306802E+03  0.73481306802E+03  0.25500000920E-02 0.  1.
       -2   -1    0    0    0  501  0.00000000000E+00  0.00000000000E+00 -0.12848206814E+03  0.12848206816E+03  0.25500000920E-02 0. -1.
    10030    2    1    2    0    0  0.00000000000E+00  0.00000000000E+00  0.60633099988E+03  0.86329513619E+03  0.61452519130E+03 0.  0.
        3    1    3    3  502    0  0.86407699967E+02 -0.26658354286E+03  0.48017916227E+03  0.55597222414E+03  0.10100000352E+00 0.  1.
       -3    1    3    3    0  502 -0.86407699967E+02  0.26658354286E+03  0.12615183762E+03  0.30732291205E+03  0.10100000352E+00 0. -1.
</event>
<event>
 5   0  0.2777999E-02  0.7055343E+03  0.7818609E-02  0.9707814E-01
        1   -1    0    0  501    0  0.00000000000E+00  0.00000000000E+00  0.76906234331E+03  0.76906234333E+03  0.50400001928E-02 0.  1.
       -1   -1    0    0    0  501  0.00000000000E+00  0.00000000000E+00 -0.16181348531E+03  0.16181348539E+03  0.50400001928E-02 0. -1.
    10030    2    1    2    0    0  0.00000000000E+00  0.00000000000E+00  0.60724885800E+03  0.93087582871E+03  0.70553428899E+03 0.  0.
        5    1    3    3  502    0  0.10045237750E+03  0.28717978734E+03  0.68122655634E+02  0.31181035360E+03  0.46999998093E+01 0. -1.
       -5    1    3    3    0  502 -0.10045237750E+03 -0.28717978734E+03  0.53912620237E+03  0.61906547512E+03  0.46999998093E+01 0.  1.
</event>
<event>
 5   0  0.2684924E-02  0.6804598E+03  0.7818609E-02  0.9751245E-01
       -1   -1    0    0    0  501  0.00000000000E+00  0.00000000000E+00  0.12907344474E+03  0.12907344484E+03  0.50400001928E-02 0. -1.
        1   -1    0    0  501    0  0.00000000000E+00  0.00000000000E+00 -0.89682566958E+03  0.89682566960E+03  0.50400001928E-02 0.  1.
    10030    2    1    2    0    0  0.00000000000E+00  0.00000000000E+00 -0.76775222484E+03  0.10258991144E+04  0.68045978152E+03 0.  0.
        4    1    3    3  502    0  0.15773655113E+03  0.29294850576E+03 -0.27668275131E+03  0.43272925064E+03  0.12699999809E+01 0. -1.
       -4    1    3    3    0  502 -0.15773655113E+03 -0.29294850576E+03 -0.49106947353E+03  0.59316986380E+03  0.12699999809E+01 0.  1.
</event>
<event>
 5   0  0.2750139E-02  0.6363105E+03  0.7818609E-02  0.9832811E-01
       -1   -1    0    0    0  501  0.00000000000E+00  0.00000000000E+00  0.86739158515E+03  0.86739158516E+03  0.50400001928E-02 0. -1.
        1   -1    0    0  501    0  0.00000000000E+00  0.00000000000E+00 -0.11669787647E+03  0.11669787658E+03  0.50400001928E-02 0.  1.
    10030    2    1    2    0    0  0.00000000000E+00  0.00000000000E+00  0.75069370867E+03  0.98408946174E+03  0.63631047805E+03 0.  0.
        2    1    3    3  502    0 -0.21230248936E+03  0.10860722422E+03  0.70106069272E+03  0.74050926464E+03  0.25500000920E-02 0. -1.
       -2    1    3    3    0  502  0.21230248936E+03 -0.10860722422E+03  0.49633015956E+02  0.24358019710E+03  0.25500000920E-02 0.  1.
</event>
<event>
 5   0  0.4365492E-02  0.7074602E+03  0.7818609E-02  0.9704559E-01
       -2   -1    0    0    0  501  0.00000000000E+00  0.00000000000E+00  0.39351563448E+03  0.39351563449E+03  0.25500000920E-02 0. -1.
        2   -1    0    0  501    0  0.00000000000E+00  0.00000000000E+00 -0.31796696071E+03  0.31796696072E+03  0.25500000920E-02 0.  1.
    10030    2    1    2    0    0  0.00000000000E+00  0.00000000000E+00  0.75548673779E+02  0.71148259521E+03  0.70746016225E+03 0.  0.
        4    1    3    3  502    0 -0.20433492801E+03 -0.10339466396E+03  0.30889971017E+03  0.38453070513E+03  0.12699999809E+01 0. -1.
       -4    1    3    3    0  502  0.20433492801E+03  0.10339466396E+03 -0.23335103639E+03  0.32695189008E+03  0.12699999809E+01 0.  1.
</event>
<event>
 5   0  0.4526837E-02  0.7031748E+03  0.7818609E-02  0.9711818E-01
       -2   -1    0    0    0  501  0.00000000000E+00  0.00000000000E+00  0.10438879093E+03  0.10438879096E+03  0.25500000920E-02 0.  1.
        2   -1    0    0  501    0  0.00000000000E+00  0.00000000000E+00 -0.11841664085E+04  0.11841664085E+04  0.25500000920E-02 0. -1.
    10030    2    1    2    0    0  0.00000000000E+00  0.00000000000E+00 -0.10797776175E+04  0.12885551994E+04  0.70317479948E+03 0.  0.
        1    1    3    3  502    0  0.20255371034E+02  0.10156423950E+03  0.75803685445E+02  0.12834240746E+03  0.50400001928E-02 0.  1.
       -1    1    3    3    0  502 -0.20255371034E+02 -0.10156423950E+03 -0.11555813030E+04  0.11602127920E+04  0.50400001928E-02 0. -1.
</event>
<event>
 5   0  0.2751729E-02  0.6884432E+03  0.7818609E-02  0.9737203E-01
        1   -1    0    0  501    0  0.00000000000E+00  0.00000000000E+00  0.73701953190E+03  0.73701953191E+03  0.50400001928E-02 0. -1.
       -1   -1    0    0    0  501  0.00000000000E+00  0.00000000000E+00 -0.16076711458E+03  0.16076711466E+03  0.50400001928E-02 0.  1.
    10030    2    1    2    0    0  0.00000000000E+00  0.00000000000E+00  0.57625241731E+03  0.89778664657E+03  0.68844318161E+03 0.  0.
        1    1    3    3  502    0  0.30966569151E+03 -0.14482654261E+03  0.23562274924E+03  0.41519350661E+03  0.50400001928E-02 0. -1.
       -1    1    3    3    0  502 -0.30966569151E+03  0.14482654261E+03  0.34062966807E+03  0.48259313997E+03  0.50400001928E-02 0.  1.
</event>
<event>
 5   0  0.4420645E-02  0.6906793E+03  0.7818609E-02  0.9733306E-01
       -2   -1    0    0    0  501  0.00000000000E+00  0.00000000000E+00  0.64256601125E+02  0.64256601175E+02  0.25500000920E-02 0.  1.
        2   -1    0    0  501    0  0.00000000000E+00  0.00000000000E+00 -0.18559879486E+04  0.18559879486E+04  0.25500000920E-02 0. -1.
    10030    2    1    2    0    0  0.00000000000E+00  0.00000000000E+00 -0.17917313474E+04  0.19202445497E+04  0.69067931011E+03 0.  0.
        5    1    3    3  502    0 -0.17084302429E+03  0.12844693810E+03 -0.14185817964E+03  0.25657706052E+03  0.46999998093E+01 0.  1.
       -5    1    3    3    0  502  0.17084302429E+03 -0.12844693810E+03 -0.16498731678E+04  0.16636674892E+04  0.46999998093E+01 0. -1.
</event>
<event>
 5   0  0.2684924E-02  0.7020065E+03  0.7818609E-02  0.9713807E-01
        1   -1    0    0  501    0  0.00000000000E+00  0.00000000000E+00  0.15056845370E+04  0.15056845370E+04  0.50400001928E-02 0. -1.
       -1   -1    0    0    0  501  0.00000000000E+00  0.00000000000E+00 -0.81825437415E+02  0.81825437571E+02  0.50400001928E-02 0.  1.
    10030    2    1    2    0    0  0.00000000000E+00  0.00000000000E+00  0.14238590996E+04  0.15875099746E+04  0.70200654122E+03 0.  0.
        4    1    3    3  502    0  0.83670962090E+02  0.19736237672E+03  0.13404531414E+04  0.13574862706E+04  0.12699999809E+01 0. -1.
       -4    1    3    3    0  502 -0.83670962090E+02 -0.19736237672E+03  0.83405958201E+02  0.23002370401E+03  0.12699999809E+01 0.  1.
</event>
<event>
 5   0  0.2758681E-02  0.7140837E+03  0.7818609E-02  0.9693446E-01
       -1   -1    0    0    0  501  0.00000000000E+00  0.00000000000E+00  0.11497529351E+03  0.11497529362E+03  0.50400001928E-02 0.  1.
        1   -1    0    0  501    0  0.00000000000E+00  0.00000000000E+00 -0.11087503188E+04  0.11087503188E+04  0.50400001928E-02 0. -1.
    10030    2    1    2    0    0  0.00000000000E+00  0.00000000000E+00 -0.99377502528E+03  0.12237256124E+04  0.71408373013E+03 0.  0.
        3    1    3    3  502    0  0.32511189255E+03 -0.90675330507E+02 -0.29733796688E+03  0.44981066571E+03  0.10100000352E+00 0.  1.
       -3    1    3    3    0  502 -0.32511189255E+03  0.90675330507E+02 -0.69643705840E+03  0.77391494672E+03  0.10100000352E+00 0. -1.
</event>
<event>
 5   0  0.1784625E-02  0.7365753E+03  0.7818609E-02  0.9656650E-01
        3   -1    0    0  501    0  0.00000000000E+00  0.00000000000E+00  0.29567502065E+03  0.29567503790E+03  0.10100000352E+00 0. -1.
       -3   -1    0    0    0  501  0.00000000000E+00  0.00000000000E+00 -0.45873266320E+03  0.45873267432E+03  0.10100000352E+00 0.  1.
    10030    2    1    2    0    0  0.00000000000E+00  0.00000000000E+00 -0.16305764255E+03  0.75440771222E+03  0.73657531961E+03 0.  0.
        4    1    3    3  502    0 -0.14626245500E+03 -0.12337185633E+03  0.24076525138E+03  0.30754323249E+03  0.12699999809E+01 0. -1.
       -4    1    3    3    0  502  0.14626245500E+03  0.12337185633E+03 -0.40382289393E+03  0.44686447973E+03  0.12699999809E+01 0.  1.
</event>
<event>
 5   0  0.2750139E-02  0.6942956E+03  0.7818609E-02  0.9727038E-01
       -1   -1    0    0    0  501  0.00000000000E+00  0.00000000000E+00  0.23604350799E+03  0.23604350804E+03  0.50400001928E-02 0. -1.
        1   -1    0    0  501    0  0.00000000000E+00  0.00000000000E+00 -0.51054819515E+03  0.51054819517E+03  0.50400001928E-02 0.  1.
    10030    2    1    2    0    0  0.00000000000E+00  0.00000000000E+00 -0.27450468716E+03  0.74659170321E+03  0.69429557685E+03 0.  0.
        2    1    3    3  502    0 -0.32262751361E+03  0.18749116258E+02 -0.92983271330E+00  0.32317318344E+03  0.25500000920E-02 0. -1.
       -2    1    3    3    0  502  0.32262751361E+03 -0.18749116258E+02 -0.27357485445E+03  0.42341851978E+03  0.25500000920E-02 0.  1.
</event>
<event>
 5   0  0.1784625E-02  0.6849644E+03  0.7818609E-02  0.9743296E-01
       -3   -1    0    0    0  501  0.00000000000E+00  0.00000000000E+00  0.28917395575E+03  0.28917397339E+03  0.10100000352E+00 0. -1.
        3   -1    0    0  501    0  0.00000000000E+00  0.00000000000E+00 -0.40561764166E+03  0.40561765423E+03  0.10100000352E+00 0.  1.
    10030    2    1    2    0    0  0.00000000000E+00  0.00000000000E+00 -0.11644368590E+03  0.69479162762E+03  0.68496443253E+03 0.  0.
        1    1    3    3  502    0 -0.10019492396E+03 -0.46128057947E+02 -0.38710694662E+03  0.40251535208E+03  0.50400001928E-02 0.  1.
       -1    1    3    3    0  502  0.10019492396E+03  0.46128057947E+02  0.27066326072E+03  0.29227627554E+03  0.50400001928E-02 0. -1.
</event>
<event>
 5   0  0.4365492E-02  0.7181813E+03  0.7818609E-02  0.9686635E-01
        2   -1    0    0  501    0  0.00000000000E+00  0.00000000000E+00  0.40301598111E+03  0.40301598112E+03  0.25500000920E-02 0. -1.
       -2   -1    0    0    0  501  0.00000000000E+00  0.00000000000E+00 -0.31995277182E+03  0.31995277183E+03  0.25500000920E-02 0.  1.
    10030    2    1    2    0    0  0.00000000000E+00  0.00000000000E+00  0.83063209294E+02  0.72296875295E+03  0.71818125915E+03 0.  0.
        4    1    3    3  502    0  0.20150762409E+03  0.44011105513E+02  0.33743352086E+03  0.39548109168E+03  0.12699999809E+01 0. -1.
       -4    1    3    3    0  502 -0.20150762409E+03 -0.44011105513E+02 -0.25437031157E+03  0.32748766127E+03  0.12699999809E+01 0.  1.
</event>
<event>
 5   0  0.2751729E-02  0.6818286E+03  0.7818609E-02  0.9748822E-01
        1   -1    0    0  501    0  0.00000000000E+00  0.00000000000E+00  0.94169293251E+03  0.94169293252E+03  0.50400001928E-02 0.  1.
       -1   -1    0    0    0  501  0.00000000000E+00  0.00000000000E+00 -0.12341876210E+03  0.12341876220E+03  0.50400001928E-02 0. -1.
    10030    2    1    2    0    0  0.00000000000E+00  0.00000000000E+00  0.81827417041E+03  0.10651116947E+04  0.68182864730E+03 0.  0.
        1    1    3    3  502    0  0.25838081051E+02 -0.31899894822E+03  0.22566284218E+03  0.39160139653E+03  0.50400001928E-02 0. -1.
       -1    1    3    3    0  502 -0.25838081051E+02  0.31899894822E+03  0.59261132823E+03  0.67351029819E+03  0.50400001928E-02 0.  1.
</event>
<event>
 5   0  0.2758681E-02  0.7265240E+03  0.7818609E-02  0.9672918E-01
       -1   -1    0    0    0  501  0.00000000000E+00  0.00000000000E+00  0.23662223973E+03  0.23662223979E+03  0.50400001928E-02 0. -1.
        1   -1    0    0  501    0  0.00000000000E+00  0.00000000000E+00 -0.55767909493E+03  0.55767909495E+03  0.50400001928E-02 0.  1.
    10030    2    1    2    0    0  0.00000000000E+00  0.00000000000E+00 -0.32105685520E+03  0.79430133474E+03  0.72652398866E+03 0.  0.
        3    1    3    3  502    0 -0.87595005386E+02  0.15750144685E+03 -0.50535642020E+03  0.53653025299E+03  0.10100000352E+00 0.  1.
       -3    1    3    3    0  502  0.87595005386E+02 -0.15750144685E+03  0.18429956501E+03  0.25777108176E+03  0.10100000352E+00 0. -1.
</event>
<event>
 5   0  0.4503289E-02  0.7048874E+03  0.7818609E-02  0.9708910E-01
       -2   -1    0    0    0  501  0.00000000000E+00  0.00000000000E+00  0.11685027900E+03  0.11685027903E+03  0.25500000920E-02 0.  1.
        2   -1    0    0  501    0  0.00000000000E+00  0.00000000000E+00 -0.10630402153E+04  0.10630402153E+04  0.25500000920E-02 0. -1.
    10030    2    1    2    0    0  0.00000000000E+00  0.00000000000E+00 -0.94618993634E+03  0.11798904944E+04  0.70488735490E+03 0.  0.
        2    1    3    3  502    0  0.31170674459E+03  0.12248978993E+03 -0.65685293792E+03  0.73730633072E+03  0.25500000920E-02 0. -1.
       -2    1    3    3    0  502 -0.31170674459E+03 -0.12248978993E+03 -0.28933699841E+03  0.44258416365E+03  0.25500000920E-02 0.  1.
</event>
<event>
 5   0  0.4365492E-02  0.6937613E+03  0.7818609E-02  0.9727961E-01
       -2   -1    0    0    0  501  0.00000000000E+00  0.00000000000E+00  0.19337622750E+03  0.19337622752E+03  0.25500000920E-02 0. -1.
        2   -1    0    0  501    0  0.00000000000E+00  0.00000000000E+00 -0.62223870793E+03  0.62223870793E+03  0.25500000920E-02 0.  1.
    10030    2    1    2    0    0  0.00000000000E+00  0.00000000000E+00 -0.42886248043E+03  0.81561493545E+03  0.69376126716E+03 0.  0.
        4    1    3    3  502    0  0.30748874855E+03  0.13111695887E+03 -0.32335163074E+03  0.46507943127E+03  0.12699999809E+01 0.  1.
       -4    1    3    3    0  502 -0.30748874855E+03 -0.13111695887E+03 -0.10551084969E+03  0.35053550418E+03  0.12699999809E+01 0. -1.
</event>
<event>
 5   0  0.2777999E-02  0.5330857E+03  0.7818609E-02  0.1005487E+00
        1   -1    0    0  501    0  0.00000000000E+00  0.00000000000E+00  0.22824820201E+03  0.22824820207E+03  0.50400001928E-02 0. -1.
       -1   -1    0    0    0  501  0.00000000000E+00  0.00000000000E+00 -0.31126243616E+03  0.31126243620E+03  0.50400001928E-02 0.  1.
    10030    2    1    2    0    0  0.00000000000E+00  0.00000000000E+00 -0.83014234152E+02  0.53951063827E+03  0.53308570205E+03 0.  0.
        5    1    3    3  502    0 -0.18932339674E+03  0.10389485799E+02 -0.23103864252E+03  0.29891844089E+03  0.46999998093E+01 0.  1.
       -5    1    3    3    0  502  0.18932339674E+03 -0.10389485799E+02  0.14802440837E+03  0.24059219738E+03  0.46999998093E+01 0. -1.
</event>
<event>
 5   0  0.4365492E-02  0.6518446E+03  0.7818609E-02  0.9803324E-01
       -2   -1    0    0    0  501  0.00000000000E+00  0.00000000000E+00  0.92484928289E+02  0.92484928325E+02  0.25500000920E-02 0. -1.
        2   -1    0    0  501    0  0.00000000000E+00  0.00000000000E+00 -0.11485693897E+04  0.11485693897E+04  0.25500000920E-02 0.  1.
    10030    2    1    2    0    0  0.00000000000E+00  0.00000000000E+00 -0.10560844614E+04  0.12410543180E+04  0.65184463689E+03 0.  0.
        4    1    3    3  502    0 -0.22657026940E+03  0.14422629808E+03 -0.17652209241E+03  0.32139846615E+03  0.12699999809E+01 0. -1.
       -4    1    3    3    0  502  0.22657026940E+03 -0.14422629808E+03 -0.87956236895E+03  0.91965585183E+03  0.12699999809E+01 0.  1.
</event>
<event>
 5   0  0.2750139E-02  0.7067042E+03  0.7818609E-02  0.9705835E-01
       -1   -1    0    0    0  501  0.00000000000E+00  0.00000000000E+00  0.92433954933E+02  0.92433955070E+02  0.50400001928E-02 0.  1.
        1   -1    0    0  501    0  0.00000000000E+00  0.00000000000E+00 -0.13507776643E+04  0.13507776643E+04  0.50400001928E-02 0. -1.
    10030    2    1    2    0    0  0.00000000000E+00  0.00000000000E+00 -0.12583437094E+04  0.14432116194E+04  0.70670424325E+03 0.  0.
        2    1    3    3  502    0  0.60375037692E+02 -0.25641021577E+03 -0.11101299301E+04  0.11409556545E+04  0.25500000920E-02 0. -1.
       -2    1    3    3    0  502 -0.60375037692E+02  0.25641021577E+03 -0.14821377934E+03  0.30225596491E+03  0.25500000920E-02 0.  1.
</event>
<event>
 5   0  0.4420645E-02  0.6923001E+03  0.7818609E-02  0.9730491E-01
        2   -1    0    0  501    0  0.00000000000E+00  0.00000000000E+00  0.13073825202E+04  0.13073825202E+04  0.25500000920E-02 0.  1.
       -2   -1    0    0    0  501  0.00000000000E+00  0.00000000000E+00 -0.91648664915E+02  0.91648664951E+02  0.25500000920E-02 0. -1.
    10030    2    1    2    0    0  0.00000000000E+00  0.00000000000E+00  0.12157338553E+04  0.13990311852E+04  0.69230011567E+03 0.  0.
        5    1    3    3  502    0 -0.29381257455E+03 -0.13571789743E+03  0.35993144033E+03  0.48406395072E+03  0.46999998093E+01 0. -1.
       -5    1    3    3    0  502  0.29381257455E+03  0.13571789743E+03  0.85580241496E+03  0.91496723444E+03  0.46999998093E+01 0.  1.
</event>
<event>
 5   0  0.2750139E-02  0.6950275E+03  0.7818609E-02  0.9725774E-01
        1   -1    0    0  501    0  0.00000000000E+00  0.00000000000E+00  0.58869605439E+03  0.58869605442E+03  0.50400001928E-02 0.  1.
       -1   -1    0    0    0  501  0.00000000000E+00  0.00000000000E+00 -0.20514119352E+03  0.20514119359E+03  0.50400001928E-02 0. -1.
    10030    2    1    2    0    0  0.00000000000E+00  0.00000000000E+00  0.38355486087E+03  0.79383724800E+03  0.69502751386E+03 0.  0.
        2    1    3    3  502    0  0.19313311654E+02 -0.53497564016E+02  0.58334377316E+03  0.58611001617E+03  0.25500000920E-02 0.  1.
       -2    1    3    3    0  502 -0.19313311654E+02  0.53497564016E+02 -0.19978891229E+03  0.20772723183E+03  0.25500000920E-02 0. -1.
</event>
<event>
 5   0  0.4299912E-02  0.7133892E+03  0.7818609E-02  0.9694605E-01
       -2   -1    0    0    0  501  0.00000000000E+00  0.00000000000E+00  0.58918212451E+03  0.58918212451E+03  0.25500000920E-02 0.  1.
        2   -1    0    0  501    0  0.00000000000E+00  0.00000000000E+00 -0.21594515416E+03  0.21594515418E+03  0.25500000920E-02 0. -1.
    10030    2    1    2    0    0  0.00000000000E+00  0.00000000000E+00  0.37323697034E+03  0.80512727869E+03  0.71338916368E+03 0.  0.
        3    1    3    3  502    0  0.22323409425E+03  0.27689179971E+03  0.21707977714E+03  0.41668473626E+03  0.10100000352E+00 0. -1.
       -3    1    3    3    0  502 -0.22323409425E+03 -0.27689179971E+03  0.15615719320E+03  0.38844254243E+03  0.10100000352E+00 0.  1.
</event>
<event>
 5   0  0.1784625E-02  0.7284841E+03  0.7818609E-02  0.9669724E-01
       -4   -1    0    0    0  501  0.00000000000E+00  0.00000000000E+00  0.34846902574E+03  0.34847134000E+03  0.12699999809E+01 0. -1.
        4   -1    0    0  501    0  0.00000000000E+00  0.00000000000E+00 -0.38072433349E+03  0.38072645169E+03  0.12699999809E+01 0.  1.
    10030    2    1    2    0    0  0.00000000000E+00  0.00000000000E+00 -0.32255307749E+02  0.72919779169E+03  0.72848405235E+03 0.  0.
        2    1    3    3  502    0  0.23014264320E+03  0.34023320376E+02  0.26441294004E+03  0.35218947374E+03  0.25500000920E-02 0. -1.
       -2    1    3    3    0  502 -0.23014264320E+03 -0.34023320376E+02 -0.29666824779E+03  0.37700831795E+03  0.25500000920E-02 0.  1.
</event>
<event>
 5   0  0.4503289E-02  0.6781571E+03  0.7818609E-02  0.9755333E-01
        2   -1    0    0  501    0  0.00000000000E+00  0.00000000000E+00  0.81206411413E+03  0.81206411414E+03  0.25500000920E-02 0. -1.
       -2   -1    0    0    0  501  0.00000000000E+00  0.00000000000E+00 -0.14158275843E+03  0.14158275845E+03  0.25500000920E-02 0.  1.
    10030    2    1    2    0    0  0.00000000000E+00  0.00000000000E+00  0.67048135570E+03  0.95364687259E+03  0.67815714200E+03 0.  0.
        2    1    3    3  502    0  0.21828804097E+01 -0.33098806503E+03  0.43873419367E+03  0.54958671460E+03  0.25500000920E-02 0. -1.
       -2    1    3    3    0  502 -0.21828804097E+01  0.33098806503E+03  0.23174716203E+03  0.40406015799E+03  0.25500000920E-02 0.  1.
</event>
<event>
 5   0  0.2777999E-02  0.7044670E+03  0.7818609E-02  0.9709623E-01
        1   -1    0    0  501    0  0.00000000000E+00  0.00000000000E+00  0.72622032328E+03  0.72622032329E+03  0.50400001928E-02 0.  1.
       -1   -1    0    0    0  501  0.00000000000E+00  0.00000000000E+00 -0.17084132973E+03  0.17084132980E+03  0.50400001928E-02 0. -1.
    10030    2    1    2    0    0  0.00000000000E+00  0.00000000000E+00  0.55537899355E+03  0.89706165309E+03  0.70446702050E+03 0.  0.
        5    1    3    3  502    0  0.31284002839E+03 -0.11322219406E+03  0.42486506209E+03  0.53964855191E+03  0.46999998093E+01 0.  1.
       -5    1    3    3    0  502 -0.31284002839E+03  0.11322219406E+03  0.13051393146E+03  0.35741310118E+03  0.46999998093E+01 0. -1.
</event>
<event>
 5   0  0.4365492E-02  0.7066026E+03  0.7818609E-02  0.9706007E-01
        2   -1    0    0  501    0  0.00000000000E+00  0.00000000000E+00  0.50965840933E+03  0.50965840934E+03  0.25500000920E-02 0. -1.
       -2   -1    0    0    0  501  0.00000000000E+00  0.00000000000E+00 -0.24491265858E+03  0.24491265859E+03  0.25500000920E-02 0.  1.
    10030    2    1    2    0    0  0.00000000000E+00  0.00000000000E+00  0.26474575075E+03  0.75457106793E+03  0.70660256440E+03 0.  0.
        4    1    3    3  502    0  0.18435583822E+03  0.30088714204E+03  0.11387544242E+03  0.37079559951E+03  0.12699999809E+01 0. -1.
       -4    1    3    3    0  502 -0.18435583822E+03 -0.30088714204E+03  0.15087030833E+03  0.38377546842E+03  0.12699999809E+01 0.  1.
</event>
<event>
 5   0  0.4420645E-02  0.7727272E+03  0.7818609E-02  0.9600355E-01
        2   -1    0    0  501    0  0.00000000000E+00  0.00000000000E+00  0.99251510982E+03  0.99251510983E+03  0.25500000920E-02 0. -1.
       -2   -1    0    0    0  501  0.00000000000E+00  0.00000000000E+00 -0.15040257235E+03  0.15040257238E+03  0.25500000920E-02 0.  1.
    10030    2    1    2    0    0  0.00000000000E+00  0.00000000000E+00  0.84211253747E+03  0.11429176822E+04  0.77272718506E+03 0.  0.
        5    1    3    3  502    0 -0.24679348183E+03 -0.24523269647E+03  0.66947241247E+03  0.75449420087E+03  0.46999998093E+01 0. -1.
       -5    1    3    3    0  502  0.24679348183E+03  0.24523269647E+03  0.17264012499E+03  0.38842348133E+03  0.46999998093E+01 0.  1.
</event>
<event>
 5   0  0.2684924E-02  0.7049854E+03  0.7818609E-02  0.9708744E-01
       -1   -1    0    0    0  501  0.00000000000E+00  0.00000000000E+00  0.10407208858E+03  0.10407208870E+03  0.50400001928E-02 0.  1.
        1   -1    0    0  501    0  0.00000000000E+00  0.00000000000E+00 -0.11938946551E+04  0.11938946551E+04  0.50400001928E-02 0. -1.
    10030    2    1    2    0    0  0.00000000000E+00  0.00000000000E+00 -0.10898225666E+04  0.12979667438E+04  0.70498541940E+03 0.  0.
        4    1    3    3  502    0 -0.24127251257E+03 -0.14069218363E+03 -0.94082942774E+03  0.98141140245E+03  0.12699999809E+01 0. -1.
       -4    1    3    3    0  502  0.24127251257E+03  0.14069218363E+03 -0.14899313881E+03  0.31655534140E+03  0.12699999809E+01 0.  1.
</event>
<event>
 5   0  0.1784625E-02  0.6928334E+03  0.7818609E-02  0.9729567E-01
        4   -1    0    0  501    0  0.00000000000E+00  0.00000000000E+00  0.29152268097E+03  0.29152544729E+03  0.12699999809E+01 0. -1.
       -4   -1    0    0    0  501  0.00000000000E+00  0.00000000000E+00 -0.41164156857E+03  0.41164352768E+03  0.12699999809E+01 0.  1.
    10030    2    1    2    0    0  0.00000000000E+00  0.00000000000E+00 -0.12011888760E+03  0.70316897497E+03  0.69283335673E+03 0.  0.
        4    1    3    3  502    0  0.28563628621E+03 -0.64305435748E+02  0.12785014561E+03  0.31948481919E+03  0.12699999809E+01 0. -1.
       -4    1    3    3    0  502 -0.28563628621E+03  0.64305435748E+02 -0.24796903321E+03  0.38368415578E+03  0.12699999809E+01 0.  1.
</event>
<event>
 5   0  0.4420645E-02  0.7417271E+03  0.7818609E-02  0.9648419E-01
       -2   -1    0    0    0  501  0.00000000000E+00  0.00000000000E+00  0.12612066372E+03  0.12612066374E+03  0.25500000920E-02 0.  1.
        2   -1    0    0  501    0  0.00000000000E+00  0.00000000000E+00 -0.10905412011E+04  0.10905412011E+04  0.25500000920E-02 0. -1.
    10030    2    1    2    0    0  0.00000000000E+00  0.00000000000E+00 -0.96442053739E+03  0.12166618648E+04  0.74172711993E+03 0.  0.
        5    1    3    3  502    0 -0.10159815865E+03 -0.10355338793E+03  0.77594864948E+02  0.16458597467E+03  0.46999998093E+01 0.  1.
       -5    1    3    3    0  502  0.10159815865E+03  0.10355338793E+03 -0.10420154023E+04  0.10520758902E+04  0.46999998093E+01 0. -1.
</event>
<event>
 5   0  0.2758681E-02  0.6965116E+03  0.7818609E-02  0.9723217E-01
        1   -1    0    0  501    0  0.00000000000E+00  0.00000000000E+00  0.47747487028E+03  0.47747487031E+03  0.50400001928E-02 0. -1.
       -1   -1    0    0    0  501  0.00000000000E+00  0.00000000000E+00 -0.25400728802E+03  0.25400728807E+03  0.50400001928E-02 0.  1.
    10030    2    1    2    0    0  0.00000000000E+00  0.00000000000E+00  0.22346758226E+03  0.73148215837E+03  0.69651158475E+03 0.  0.
        3    1    3    3  502    0  0.22726163912E+03  0.18740609785E+03 -0.83371000627E+02  0.30613662321E+03  0.10100000352E+00 0. -1.
       -3    1    3    3    0  502 -0.22726163912E+03 -0.18740609785E+03  0.30683858289E+03  0.42534553516E+03  0.10100000352E+00 0.  1.
</event>
<event>
 5   0  0.4526837E-02  0.7010863E+03  0.7818609E-02  0.9715376E-01
       -2   -1    0    0    0  501  0.00000000000E+00  0.00000000000E+00  0.54049345727E+03  0.54049345727E+03  0.25500000920E-02 0. -1.
        2   -1    0    0  501    0  0.00000000000E+00  0.00000000000E+00 -0.22734874218E+03  0.22734874220E+03  0.25500000920E-02 0.  1.
    10030    2    1    2    0    0  0.00000000000E+00  0.00000000000E+00  0.31314471508E+03  0.76784219947E+03  0.70108632186E+03 0.  0.
        1    1    3    3  502    0 -0.99070065239E+01 -0.27538768276E+03 -0.80723660280E+02  0.28714601503E+03  0.50400001928E-02 0.  1.
       -1    1    3    3    0  502  0.99070065239E+01  0.27538768276E+03  0.39386837536E+03  0.48069618444E+03  0.50400001928E-02 0. -1.
</event>
<event>
 5   0  0.2751729E-02  0.6818950E+03  0.7818609E-02  0.9748705E-01
       -1   -1    0    0    0  501  0.00000000000E+00  0.00000000000E+00  0.19525861305E+03  0.19525861312E+03  0.50400001928E-02 0.  1.
        1   -1    0    0  501    0  0.00000000000E+00  0.00000000000E+00 -0.59533974747E+03  0.59533974749E+03  0.50400001928E-02 0. -1.
    10030    2    1    2    0    0  0.00000000000E+00  0.00000000000E+00 -0.40008113441E+03  0.79059836061E+03  0.68189504594E+03 0.  0.
        1    1    3    3  502    0  0.30333842482E+03  0.10856931583E+03 -0.70706350131E+02  0.32984979049E+03  0.50400001928E-02 0. -1.
       -1    1    3    3    0  502 -0.30333842482E+03 -0.10856931583E+03 -0.32937478428E+03  0.46074857011E+03  0.50400001928E-02 0.  1.
</event>
<event>
 5   0  0.4526837E-02  0.7071088E+03  0.7818609E-02  0.9705152E-01
       -2   -1    0    0    0  501  0.00000000000E+00  0.00000000000E+00  0.39986441186E+03  0.39986441186E+03  0.25500000920E-02 0.  1.
        2   -1    0    0  501    0  0.00000000000E+00  0.00000000000E+00 -0.31260771261E+03  0.31260771262E+03  0.25500000920E-02 0. -1.
    10030    2    1    2    0    0  0.00000000000E+00  0.00000000000E+00  0.87256699244E+02  0.71247212449E+03  0.70710875868E+03 0.  0.
        1    1    3    3  502    0  0.19305095616E+03 -0.28799794080E+03 -0.26100702505E+02  0.34769632192E+03  0.50400001928E-02 0.  1.
       -1    1    3    3    0  502 -0.19305095616E+03  0.28799794080E+03  0.11335740175E+03  0.36477580256E+03  0.50400001928E-02 0. -1.
</event>
<event>
 5   0  0.4526837E-02  0.6971485E+03  0.7818609E-02  0.9722121E-01
        2   -1    0    0  501    0  0.00000000000E+00  0.00000000000E+00  0.15982443449E+04  0.15982443449E+04  0.25500000920E-02 0. -1.
       -2   -1    0    0    0  501  0.00000000000E+00  0.00000000000E+00 -0.76023414101E+02  0.76023414143E+02  0.25500000920E-02 0.  1.
    10030    2    1    2    0    0  0.00000000000E+00  0.00000000000E+00  0.15222209308E+04  0.16742677591E+04  0.69714845394E+03 0.  0.
        1    1    3    3  502    0  0.44118973781E+02 -0.49618971458E+02  0.15829171782E+04  0.15843090983E+04  0.50400001928E-02 0. -1.
       -1    1    3    3    0  502 -0.44118973781E+02  0.49618971458E+02 -0.60696247324E+02  0.89958660732E+02  0.50400001928E-02 0.  1.
</event>
<event>
 5   0  0.4420645E-02  0.6994468E+03  0.7818609E-02  0.9718179E-01
        2   -1    0    0  501    0  0.00000000000E+00  0.00000000000E+00  0.20495976867E+03  0.20495976868E+03  0.25500000920E-02 0. -1.
       -2   -1    0    0    0  501  0.00000000000E+00  0.00000000000E+00 -0.59673396996E+03  0.59673396997E+03  0.25500000920E-02 0.  1.
    10030    2    1    2    0    0  0.00000000000E+00  0.00000000000E+00 -0.39177420129E+03  0.80169373865E+03  0.69944679983E+03 0.  0.
        5    1    3    3  502    0  0.29473442510E+03 -0.14910292081E+03 -0.64279063984E+02  0.33653224273E+03  0.46999998093E+01 0.  1.
       -5    1    3    3    0  502 -0.29473442510E+03  0.14910292081E+03 -0.32749513731E+03  0.46516149592E+03  0.46999998093E+01 0. -1.
</event>
<event>
 5   0  0.4299912E-02  0.7037941E+03  0.7818609E-02  0.9710766E-01
       -2   -1    0    0    0  501  0.00000000000E+00  0.00000000000E+00  0.21622075162E+03  0.21622075164E+03  0.25500000920E-02 0. -1.
        2   -1    0    0  501    0  0.00000000000E+00  0.00000000000E+00 -0.57270890118E+03  0.57270890119E+03  0.25500000920E-02 0.  1.
    10030    2    1    2    0    0  0.00000000000E+00  0.00000000000E+00 -0.35648814956E+03  0.78892965283E+03  0.70379414343E+03 0.  0.
        3    1    3    3  502    0  0.10142729515E+03  0.16290018664E+03  0.15240792657E+03  0.24505540862E+03  0.10100000352E+00 0. -1.
       -3    1    3    3    0  502 -0.10142729515E+03 -0.16290018664E+03 -0.50889607614E+03  0.54387424421E+03  0.10100000352E+00 0.  1.
</event>
<event>
 5   0  0.2750139E-02  0.6551106E+03  0.7818609E-02  0.9797236E-01
       -1   -1    0    0    0  501  0.00000000000E+00  0.00000000000E+00  0.73712528051E+03  0.73712528053E+03  0.50400001928E-02 0. -1.
        1   -1    0    0  501    0  0.00000000000E+00  0.00000000000E+00 -0.14555528391E+03  0.14555528400E+03  0.50400001928E-02 0.  1.
    10030    2    1    2    0    0  0.00000000000E+00  0.00000000000E+00  0.59156999660E+03  0.88268056453E+03  0.65511061518E+03 0.  0.
        2    1    3    3  502    0  0.17117035116E+03 -0.27243720782E+03  0.37852705339E+03  0.49679377157E+03  0.25500000920E-02 0.  1.
       -2    1    3    3    0  502 -0.17117035116E+03  0.27243720782E+03  0.21304294321E+03  0.38588679296E+03  0.25500000920E-02 0. -1.
</event>
<event>
 5   0  0.2758681E-02  0.7003290E+03  0.7818609E-02  0.9716670E-01
       -1   -1    0    0    0  501  0.00000000000E+00  0.00000000000E+00  0.89456424114E+02  0.89456424256E+02  0.50400001928E-02 0. -1.
        1   -1    0    0  501    0  0.00000000000E+00  0.00000000000E+00 -0.13706691711E+04  0.13706691711E+04  0.50400001928E-02 0.  1.
    10030    2    1    2    0    0  0.00000000000E+00  0.00000000000E+00 -0.12812127470E+04  0.14601255954E+04  0.70032895929E+03 0.  0.
        3    1    3    3  502    0  0.31833438107E+03  0.78137840879E+02 -0.38379057112E+03  0.50471527918E+03  0.10100000352E+00 0.  1.
       -3    1    3    3    0  502 -0.31833438107E+03 -0.78137840879E+02 -0.89742217589E+03  0.95541031622E+03  0.10100000352E+00 0. -1.
</event>
<event>
 5   0  0.2777999E-02  0.7436110E+03  0.7818609E-02  0.9645427E-01
       -1   -1    0    0    0  501  0.00000000000E+00  0.00000000000E+00  0.24153906067E+03  0.24153906073E+03  0.50400001928E-02 0.  1.
        1   -1    0    0  501    0  0.00000000000E+00  0.00000000000E+00 -0.57232706921E+03  0.57232706923E+03  0.50400001928E-02 0. -1.
    10030    2    1    2    0    0  0.00000000000E+00  0.00000000000E+00 -0.33078800854E+03  0.81386612996E+03  0.74361103468E+03 0.  0.
        5    1    3    3  502    0 -0.27506205951E+03 -0.16568331826E+03 -0.37046534121E+03  0.49028232434E+03  0.46999998093E+01 0. -1.
       -5    1    3    3    0  502  0.27506205951E+03  0.16568331826E+03  0.39677332667E+02  0.32358380562E+03  0.46999998093E+01 0.  1.
</event>
<event>
 5   0  0.1784625E-02  0.6955668E+03  0.7818609E-02  0.9724844E-01
       -3   -1    0    0    0  501  0.00000000000E+00  0.00000000000E+00  0.29983962984E+03  0.29983964685E+03  0.10100000352E+00 0.  1.
        3   -1    0    0  501    0  0.00000000000E+00  0.00000000000E+00 -0.40339320786E+03  0.40339322050E+03  0.10100000352E+00 0. -1.
    10030    2    1    2    0    0  0.00000000000E+00  0.00000000000E+00 -0.10355357802E+03  0.70323286736E+03  0.69556676330E+03 0.  0.
        1    1    3    3  502    0  0.19391377471E+03 -0.22090969335E+03  0.13614713666E+03  0.32394395732E+03  0.50400001928E-02 0.  1.
       -1    1    3    3    0  502 -0.19391377471E+03  0.22090969335E+03 -0.23970071468E+03  0.37928891004E+03  0.50400001928E-02 0. -1.
</event>
<event>
 5   0  0.2750139E-02  0.7391408E+03  0.7818609E-02  0.9652542E-01
        1   -1    0    0  501    0  0.00000000000E+00  0.00000000000E+00  0.48674546612E+03  0.48674546615E+03  0.50400001928E-02 0. -1.
       -1   -1    0    0    0  501  0.00000000000E+00  0.00000000000E+00 -0.28060309653E+03  0.28060309657E+03  0.50400001928E-02 0.  1.
    10030    2    1    2    0    0  0.00000000000E+00  0.00000000000E+00  0.20614236960E+03  0.76734856273E+03  0.73914081214E+03 0.  0.
        2    1    3    3  502    0  0.24111365745E+03 -0.21912220271E+03  0.28417616309E+03  0.43232675976E+03  0.25500000920E-02 0. -1.
       -2    1    3    3    0  502 -0.24111365745E+03  0.21912220271E+03 -0.78033793498E+02  0.33502180297E+03  0.25500000920E-02 0.  1.
</event>
<event>
 5   0  0.2751729E-02  0.6913945E+03  0.7818609E-02  0.9732063E-01
       -1   -1    0    0    0  501  0.00000000000E+00  0.00000000000E+00  0.39342613428E+03  0.39342613431E+03  0.50400001928E-02 0. -1.
        1   -1    0    0  501    0  0.00000000000E+00  0.00000000000E+00 -0.30375868449E+03  0.30375868453E+03  0.50400001928E-02 0.  1.
    10030    2    1    2    0    0  0.00000000000E+00  0.00000000000E+00  0.89667449784E+02  0.69718481884E+03  0.69139454733E+03 0.  0.
        1    1    3    3  502    0 -0.14896567490E+03 -0.11711856523E+03 -0.24672276033E+03  0.31109428010E+03  0.50400001928E-02 0.  1.
       -1    1    3    3    0  502  0.14896567490E+03  0.11711856523E+03  0.33639021012E+03  0.38609053874E+03  0.50400001928E-02 0. -1.
</event>
<event>
 5   0  0.4365492E-02  0.6916544E+03  0.7818609E-02  0.9731612E-01
        2   -1    0    0  501    0  0.00000000000E+00  0.00000000000E+00  0.23358412640E+03  0.23358412641E+03  0.25500000920E-02 0.  1.
       -2   -1    0    0    0  501  0.00000000000E+00  0.00000000000E+00 -0.51200587742E+03  0.51200587743E+03  0.25500000920E-02 0. -1.
    10030    2    1    2    0    0  0.00000000000E+00  0.00000000000E+00 -0.27842175102E+03  0.74559000384E+03  0.69165438073E+03 0.  0.
        4    1    3    3  502    0 -0.23674764932E+03  0.25083227242E+03 -0.11218483875E+03  0.36270281125E+03  0.12699999809E+01 0. -1.
       -4    1    3    3    0  502  0.23674764932E+03 -0.25083227242E+03 -0.16623691227E+03  0.38288719259E+03  0.12699999809E+01 0.  1.
</event>
<event>
 5   0  0.2758681E-02  0.6985315E+03  0.7818609E-02  0.9719747E-01
       -1   -1    0    0    0  501  0.00000000000E+00  0.00000000000E+00  0.83210921249E+02  0.83210921401E+02  0.50400001928E-02 0.  1.
        1   -1    0    0  501    0  0.00000000000E+00  0.00000000000E+00 -0.14659920669E+04  0.14659920669E+04  0.50400001928E-02 0. -1.
    10030    2    1    2    0    0  0.00000000000E+00  0.00000000000E+00 -0.13827811456E+04  0.15492029883E+04  0.69853146115E+03 0.  0.
        3    1    3    3  502    0  0.90487373668E+02 -0.32987862174E+03 -0.53490329121E+03  0.63492472863E+03  0.10100000352E+00 0. -1.
       -3    1    3    3    0  502 -0.90487373668E+02  0.32987862174E+03 -0.84787785443E+03  0.91427825967E+03  0.10100000352E+00 0.  1.
</event>
<event>
 5   0  0.4503289E-02  0.7072574E+03  0.7818609E-02  0.9704901E-01
       -2   -1    0    0    0  501  0.00000000000E+00  0.00000000000E+00  0.35611138017E+03  0.35611138018E+03  0.25500000920E-02 0. -1.
        2   -1    0    0  501    0  0.00000000000E+00  0.00000000000E+00 -0.35116335787E+03  0.35116335788E+03  0.25500000920E-02 0.  1.
    10030    2    1    2    0    0  0.00000000000E+00  0.00000000000E+00  0.49480222987E+01  0.70727473805E+03  0.70725742991E+03 0.  0.
        2    1    3    3  502    0 -0.11518646563E+03  0.80279307961E+02 -0.32209606569E+03  0.35136670970E+03  0.25500000920E-02 0.  1.
       -2    1    3    3    0  502  0.11518646563E+03 -0.80279307961E+02  0.32704408798E+03  0.35590802835E+03  0.25500000920E-02 0. -1.
</event>
<event>
 5   0  0.2777999E-02  0.7029208E+03  0.7818609E-02  0.9712250E-01
       -1   -1    0    0    0  501  0.00000000000E+00  0.00000000000E+00  0.74323030092E+02  0.74323030263E+02  0.50400001928E-02 0.  1.
        1   -1    0    0  501    0  0.00000000000E+00  0.00000000000E+00 -0.16619935861E+04  0.16619935861E+04  0.50400001928E-02 0. -1.
    10030    2    1    2    0    0  0.00000000000E+00  0.00000000000E+00 -0.15876705560E+04  0.17363166164E+04  0.70292076215E+03 0.  0.
        5    1    3    3  502    0  0.94420585910E+02  0.14436886902E+03 -0.15501384008E+04  0.15597143229E+04  0.46999998093E+01 0. -1.
       -5    1    3    3    0  502 -0.94420585910E+02 -0.14436886902E+03 -0.37532155194E+02  0.17660229347E+03  0.46999998093E+01 0.  1.
</event>
<event>
 5   0  0.4365492E-02  0.7127873E+03  0.7818609E-02  0.9695611E-01
        2   -1    0    0  501    0  0.00000000000E+00  0.00000000000E+00  0.61184546677E+03  0.61184546677E+03  0.25500000920E-02 0.  1.
       -2   -1    0    0    0  501  0.00000000000E+00  0.00000000000E+00 -0.20759560586E+03  0.20759560588E+03  0.25500000920E-02 0. -1.
    10030    2    1    2    0    0  0.00000000000E+00  0.00000000000E+00  0.40424986091E+03  0.81944107265E+03  0.71278729050E+03 0.  0.
        4    1    3    3  502    0 -0.22310682298E+03 -0.17336564236E+03 -0.47592198833E+02  0.28652910969E+03  0.12699999809E+01 0. -1.
       -4    1    3    3    0  502  0.22310682298E+03  0.17336564236E+03  0.45184205974E+03  0.53291196296E+03  0.12699999809E+01 0.  1.
</event>
<event>
 5   0  0.4526837E-02  0.7130714E+03  0.7818609E-02  0.9695136E-01
        2   -1    0    0  501    0  0.00000000000E+00  0.00000000000E+00  0.21882014281E+04  0.21882014281E+04  0.25500000920E-02 0.  1.
       -2   -1    0    0    0  501  0.00000000000E+00  0.00000000000E+00 -0.58092317494E+02  0.58092317550E+02  0.25500000920E-02 0. -1.
    10030    2    1    2    0    0  0.00000000000E+00  0.00000000000E+00  0.21301091106E+04  0.22462937456E+04  0.71307136295E+03 0.  0.
        1    1    3    3  502    0  0.61872539021E+01  0.33649699288E+03  0.69433487480E+03  0.77160185764E+03  0.50400001928E-02 0.  1.
       -1    1    3    3    0  502 -0.61872539021E+01 -0.33649699288E+03  0.14357742358E+04  0.14746918880E+04  0.50400001928E-02 0. -1.
</event>
<event>
 5   0  0.4526837E-02  0.7084928E+03  0.7818609E-02  0.9702818E-01
       -2   -1    0    0    0  501  0.00000000000E+00  0.00000000000E+00  0.60488259612E+02  0.60488259666E+02  0.25500000920E-02 0. -1.
        2   -1    0    0  501    0  0.00000000000E+00  0.00000000000E+00 -0.20746262103E+04  0.20746262103E+04  0.25500000920E-02 0.  1.
    10030    2    1    2    0    0  0.00000000000E+00  0.00000000000E+00 -0.20141379507E+04  0.21351144700E+04  0.70849284786E+03 0.  0.
        1    1    3    3  502    0  0.65135279268E+02  0.21848513185E+03 -0.18998758556E+03  0.29677203395E+03  0.50400001928E-02 0. -1.
       -1    1    3    3    0  502 -0.65135279268E+02 -0.21848513185E+03 -0.18241503652E+04  0.18383424360E+04  0.50400001928E-02 0.  1.
</event>
<event>
 5   0  0.2750139E-02  0.7064402E+03  0.7818609E-02  0.9706282E-01
       -1   -1    0    0    0  501  0.00000000000E+00  0.00000000000E+00  0.12695602046E+03  0.12695602056E+03  0.50400001928E-02 0.  1.
        1   -1    0    0  501    0  0.00000000000E+00  0.00000000000E+00 -0.98273752717E+03  0.98273752718E+03  0.50400001928E-02 0. -1.
    10030    2    1    2    0    0  0.00000000000E+00  0.00000000000E+00 -0.85578150670E+03  0.11096935477E+04  0.70644021876E+03 0.  0.
        2    1    3    3  502    0  0.23152067504E+03  0.25910742819E+03 -0.52756031611E+03  0.63171066910E+03  0.25500000920E-02 0. -1.
       -2    1    3    3    0  502 -0.23152067504E+03 -0.25910742819E+03 -0.32822119059E+03  0.47798287864E+03  0.25500000920E-02 0.  1.
</event>
<event>
 5   0  0.4365492E-02  0.7044779E+03  0.7818609E-02  0.9709605E-01
        2   -1    0    0  501    0  0.00000000000E+00  0.00000000000E+00  0.14070441144E+04  0.14070441144E+04  0.25500000920E-02 0. -1.
       -2   -1    0    0    0  501  0.00000000000E+00  0.00000000000E+00 -0.88179381603E+02  0.88179381640E+02  0.25500000920E-02 0.  1.
    10030    2    1    2    0    0  0.00000000000E+00  0.00000000000E+00  0.13188647328E+04  0.14952234960E+04  0.70447790575E+03 0.  0.
        4    1    3    3  502    0 -0.67693307116E+01  0.32847782468E+03  0.38989578949E+03  0.50986649694E+03  0.12699999809E+01 0. -1.
       -4    1    3    3    0  502  0.67693307116E+01 -0.32847782468E+03  0.92896894328E+03  0.98535699907E+03  0.12699999809E+01 0.  1.
</event>
<event>
 5   0  0.4365492E-02  0.7056529E+03  0.7818609E-02  0.9707614E-01
        2   -1    0    0  501    0  0.00000000000E+00  0.00000000000E+00  0.14013240721E+04  0.14013240721E+04  0.25500000920E-02 0. -1.
       -2   -1    0    0    0  501  0.00000000000E+00  0.00000000000E+00 -0.88834914208E+02  0.88834914245E+02  0.25500000920E-02 0.  1.
    10030    2    1    2    0    0  0.00000000000E+00  0.00000000000E+00  0.13124891579E+04  0.14901589863E+04  0.70565289981E+03 0.  0.
        4    1    3    3  502    0 -0.18300632830E+02 -0.34911230483E+03  0.55561873727E+03  0.65645114720E+03  0.12699999809E+01 0.  1.
       -4    1    3    3    0  502  0.18300632830E+02  0.34911230483E+03  0.75687042061E+03  0.83370783914E+03  0.12699999809E+01 0. -1.
</event>
<event>
 5   0  0.1784625E-02  0.6978121E+03  0.7818609E-02  0.9720981E-01
        4   -1    0    0  501    0  0.00000000000E+00  0.00000000000E+00  0.28628251487E+03  0.28628533183E+03  0.12699999809E+01 0. -1.
       -4   -1    0    0    0  501  0.00000000000E+00  0.00000000000E+00 -0.42522244964E+03  0.42522434617E+03  0.12699999809E+01 0.  1.
    10030    2    1    2    0    0  0.00000000000E+00  0.00000000000E+00 -0.13893993477E+03  0.71150967800E+03  0.69781209249E+03 0.  0.
        4    1    3    3  502    0  0.71860108539E+02  0.59184211835E+02 -0.41232504201E+03  0.42270580703E+03  0.12699999809E+01 0.  1.
       -4    1    3    3    0  502 -0.71860108539E+02 -0.59184211835E+02  0.27338510724E+03  0.28880387098E+03  0.12699999809E+01 0. -1.
</event>
<event>
 5   0  0.4526837E-02  0.6932548E+03  0.7818609E-02  0.9728837E-01
       -2   -1    0    0    0  501  0.00000000000E+00  0.00000000000E+00  0.62637814334E+02  0.62637814386E+02  0.25500000920E-02 0. -1.
        2   -1    0    0  501    0  0.00000000000E+00  0.00000000000E+00 -0.19181793687E+04  0.19181793687E+04  0.25500000920E-02 0.  1.
    10030    2    1    2    0    0  0.00000000000E+00  0.00000000000E+00 -0.18555415544E+04  0.19808171831E+04  0.69325482533E+03 0.  0.
        1    1    3    3  502    0  0.32731740702E+03  0.43655141449E+02 -0.12289129076E+04  0.12725051634E+04  0.50400001928E-02 0.  1.
       -1    1    3    3    0  502 -0.32731740702E+03 -0.43655141449E+02 -0.62662864680E+03  0.70831201975E+03  0.50400001928E-02 0. -1.
</event>
<event>
 5   0  0.2758681E-02  0.7037658E+03  0.7818609E-02  0.9710814E-01
        1   -1    0    0  501    0  0.00000000000E+00  0.00000000000E+00  0.76774415812E+02  0.76774415977E+02  0.50400001928E-02 0.  1.
       -1   -1    0    0    0  501  0.00000000000E+00  0.00000000000E+00 -0.16127972774E+04  0.16127972774E+04  0.50400001928E-02 0. -1.
    10030    2    1    2    0    0  0.00000000000E+00  0.00000000000E+00 -0.15360228616E+04  0.16895716934E+04  0.70376578190E+03 0.  0.
        3    1    3    3  502    0  0.21996987907E+03  0.96783578342E+02 -0.13850939393E+04  0.14057876936E+04  0.10100000352E+00 0. -1.
       -3    1    3    3    0  502 -0.21996987907E+03 -0.96783578342E+02 -0.15092892235E+03  0.28378399979E+03  0.10100000352E+00 0.  1.
</event>
<event>
 5   0  0.2777999E-02  0.6928239E+03  0.7818609E-02  0.9729584E-01
        1   -1    0    0  501    0  0.00000000000E+00  0.00000000000E+00  0.22256079526E+04  0.22256079526E+04  0.50400001928E-02 0. -1.
       -1   -1    0    0    0  501  0.00000000000E+00  0.00000000000E+00 -0.53918406939E+02  0.53918407174E+02  0.50400001928E-02 0.  1.
    10030    2    1    2    0    0  0.00000000000E+00  0.00000000000E+00  0.21716895457E+04  0.22795263598E+04  0.69282388974E+03 0.  0.
        5    1    3    3  502    0 -0.13726013933E+02 -0.27291773012E+03  0.17861748239E+04  0.18069629444E+04  0.46999998093E+01 0. -1.
       -5    1    3    3    0  502  0.13726013933E+02  0.27291773012E+03  0.38551472177E+03  0.47256341540E+03  0.46999998093E+01 0.  1.
</event>
<event>
 5   0  0.2758681E-02  0.7113323E+03  0.7818609E-02  0.9698046E-01
        1   -1    0    0  501    0  0.00000000000E+00  0.00000000000E+00  0.30869701085E+03  0.30869701089E+03  0.50400001928E-02 0. -1.
       -1   -1    0    0    0  501  0.00000000000E+00  0.00000000000E+00 -0.40978179457E+03  0.40978179460E+03  0.50400001928E-02 0.  1.
    10030    2    1    2    0    0  0.00000000000E+00  0.00000000000E+00 -0.10108478372E+03  0.71847880549E+03  0.71133231365E+03 0.  0.
        3    1    3    3  502    0 -0.18836966944E+03  0.39399742975E+02  0.25156613914E+03  0.31673491231E+03  0.10100000352E+00 0. -1.
       -3    1    3    3    0  502  0.18836966944E+03 -0.39399742975E+02 -0.35265092287E+03  0.40174389318E+03  0.10100000352E+00 0.  1.
</event>
<event>
 5   0  0.1784625E-02  0.6931204E+03  0.7818609E-02  0.9729070E-01
        4   -1    0    0  501    0  0.00000000000E+00  0.00000000000E+00  0.21962408578E+03  0.21962775770E+03  0.12699999809E+01 0.  1.
       -4   -1    0    0    0  501  0.00000000000E+00  0.00000000000E+00 -0.54685256559E+03  0.54685404030E+03  0.12699999809E+01 0. -1.
    10030    2    1    2    0    0  0.00000000000E+00  0.00000000000E+00 -0.32722847981E+03  0.76648179800E+03  0.69312038541E+03 0.  0.
        3    1    3    3  502    0  0.20057996247E+03  0.41755075893E+02  0.14548429186E+03  0.25127971881E+03  0.10100000352E+00 0.  1.
       -3    1    3    3    0  502 -0.20057996247E+03 -0.41755075893E+02 -0.47271277166E+03  0.51520207919E+03  0.10100000352E+00 0. -1.
</event>
<event>
 5   0  0.4299912E-02  0.6951340E+03  0.7818609E-02  0.9725590E-01
       -2   -1    0    0    0  501  0.00000000000E+00  0.00000000000E+00  0.52855917778E+02  0.52855917839E+02  0.25500000920E-02 0. -1.
        2   -1    0    0  501    0  0.00000000000E+00  0.00000000000E+00 -0.22855118498E+04  0.22855118498E+04  0.25500000920E-02 0.  1.
    10030    2    1    2    0    0  0.00000000000E+00  0.00000000000E+00 -0.22326559320E+04  0.23383677676E+04  0.69513402013E+03 0.  0.
        3    1    3    3  502    0  0.10569978263E+03 -0.27532046031E+03 -0.17350405618E+04  0.17599260102E+04  0.10100000352E+00 0.  1.
       -3    1    3    3    0  502 -0.10569978263E+03  0.27532046031E+03 -0.49761537017E+03  0.57844175743E+03  0.10100000352E+00 0. -1.
</event>
<event>
 5   0  0.4420645E-02  0.7012901E+03  0.7818609E-02  0.9715028E-01
        2   -1    0    0  501    0  0.00000000000E+00  0.00000000000E+00  0.10696347476E+04  0.10696347476E+04  0.25500000920E-02 0. -1.
       -2   -1    0    0    0  501  0.00000000000E+00  0.00000000000E+00 -0.11494760921E+03  0.11494760924E+03  0.25500000920E-02 0.  1.
    10030    2    1    2    0    0  0.00000000000E+00  0.00000000000E+00  0.95468713841E+03  0.11845823569E+04  0.70129011682E+03 0.  0.
        5    1    3    3  502    0  0.22796944492E+03 -0.17966973922E+03  0.80954601426E+03  0.86002216379E+03  0.46999998093E+01 0. -1.
       -5    1    3    3    0  502 -0.22796944492E+03  0.17966973922E+03  0.14514112415E+03  0.32456019307E+03  0.46999998093E+01 0.  1.
</event>
<event>
 5   0  0.4503289E-02  0.7044436E+03  0.7818609E-02  0.9709663E-01
        2   -1    0    0  501    0  0.00000000000E+00  0.00000000000E+00  0.99272865411E+02  0.99272865443E+02  0.25500000920E-02 0. -1.
       -2   -1    0    0    0  501  0.00000000000E+00  0.00000000000E+00 -0.12496889806E+04  0.12496889806E+04  0.25500000920E-02 0.  1.
    10030    2    1    2    0    0  0.00000000000E+00  0.00000000000E+00 -0.11504161152E+04  0.13489618460E+04  0.70444362726E+03 0.  0.
        2    1    3    3  502    0 -0.22199677704E+03  0.51883223226E+02 -0.10893442618E+04  0.11129444544E+04  0.25500000920E-02 0.  1.
       -2    1    3    3    0  502  0.22199677704E+03 -0.51883223226E+02 -0.61071853382E+02  0.23601739163E+03  0.25500000920E-02 0. -1.
</event>
<event>
 5   0  0.2750139E-02  0.7003589E+03  0.7818609E-02  0.9716619E-01
       -1   -1    0    0    0  501  0.00000000000E+00  0.00000000000E+00  0.16581524724E+03  0.16581524731E+03  0.50400001928E-02 0. -1.
        1   -1    0    0  501    0  0.00000000000E+00  0.00000000000E+00 -0.73953180176E+03  0.73953180177E+03  0.50400001928E-02 0.  1.
    10030    2    1    2    0    0  0.00000000000E+00  0.00000000000E+00 -0.57371655452E+03  0.90534704909E+03  0.70035890397E+03 0.  0.
        2    1    3    3  502    0  0.18238807391E+03 -0.24990234314E+03 -0.49891091699E+03  0.58705084423E+03  0.25500000920E-02 0.  1.
       -2    1    3    3    0  502 -0.18238807391E+03  0.24990234314E+03 -0.74805637525E+02  0.31829620486E+03  0.25500000920E-02 0. -1.
</event>
<event>
 5   0  0.4526837E-02  0.6996365E+03  0.7818609E-02  0.9717854E-01
        2   -1    0    0  501    0  0.00000000000E+00  0.00000000000E+00  0.18516633424E+04  0.18516633424E+04  0.25500000920E-02 0.  1.
       -2   -1    0    0    0  501  0.00000000000E+00  0.00000000000E+00 -0.66088047308E+02  0.66088047357E+02  0.25500000920E-02 0. -1.
    10030    2    1    2    0    0  0.00000000000E+00  0.00000000000E+00  0.17855752951E+04  0.19177513897E+04  0.69963651882E+03 0.  0.
        1    1    3    3  502    0  0.25772353050E+03  0.20341742858E+03  0.12236829000E+04  0.12669648409E+04  0.50400001928E-02 0.  1.
       -1    1    3    3    0  502 -0.25772353050E+03 -0.20341742858E+03  0.56189239509E+03  0.65078654880E+03  0.50400001928E-02 0. -1.
</event>
<event>
 5   0  0.1784625E-02  0.6982881E+03  0.7818609E-02  0.9720164E-01
        3   -1    0    0  501    0  0.00000000000E+00  0.00000000000E+00  0.11528118077E+04  0.11528118121E+04  0.10100000352E+00 0.  1.
       -3   -1    0    0    0  501  0.00000000000E+00  0.00000000000E+00 -0.10574280206E+03  0.10574285029E+03  0.10100000352E+00 0. -1.
    10030    2    1    2    0    0  0.00000000000E+00  0.00000000000E+00  0.10470690056E+04  0.12585546624E+04  0.69828814660E+03 0.  0.
        2    1    3    3  502    0 -0.17404637130E+03 -0.30192584479E+03  0.48529131819E+03  0.59746047454E+03  0.25500000920E-02 0. -1.
       -2    1    3    3    0  502  0.17404637130E+03  0.30192584479E+03  0.56177768740E+03  0.66109418783E+03  0.25500000920E-02 0.  1.
</event>
<event>
 5   0  0.1784625E-02  0.6995889E+03  0.7818609E-02  0.9717936E-01
        4   -1    0    0  501    0  0.00000000000E+00  0.00000000000E+00  0.12846825347E+03  0.12847453074E+03  0.12699999809E+01 0. -1.
       -4   -1    0    0    0  501  0.00000000000E+00  0.00000000000E+00 -0.95239324285E+03  0.95239408962E+03  0.12699999809E+01 0.  1.
    10030    2    1    2    0    0  0.00000000000E+00  0.00000000000E+00 -0.82392498939E+03  0.10808686204E+04  0.69958886951E+03 0.  0.
        2    1    3    3  502    0  0.21419619865E+03  0.19722474445E+02 -0.83813526908E+03  0.86529747301E+03  0.25500000920E-02 0.  1.
       -2    1    3    3    0  502 -0.21419619865E+03 -0.19722474445E+02  0.14210279689E+02  0.21557114735E+03  0.25500000920E-02 0. -1.
</event>
<event>
 5   0  0.2751729E-02  0.6865569E+03  0.7818609E-02  0.9740502E-01
        1   -1    0    0  501    0  0.00000000000E+00  0.00000000000E+00  0.29056426132E+03  0.29056426136E+03  0.50400001928E-02 0. -1.
       -1   -1    0    0    0  501  0.00000000000E+00  0.00000000000E+00 -0.40555608508E+03  0.40555608511E+03  0.50400001928E-02 0.  1.
    10030    2    1    2    0    0  0.00000000000E+00  0.00000000000E+00 -0.11499182376E+03  0.69612034647E+03  0.68655692935E+03 0.  0.
        1    1    3    3  502    0 -0.51088476013E+02 -0.16606679825E+03  0.24268869367E+03  0.29847280600E+03  0.50400001928E-02 0. -1.
       -1    1    3    3    0  502  0.51088476013E+02  0.16606679825E+03 -0.35768051744E+03  0.39764754047E+03  0.50400001928E-02 0.  1.
</event>
<event>
 5   0  0.1784625E-02  0.6900924E+03  0.7818609E-02  0.9734327E-01
       -3   -1    0    0    0  501  0.00000000000E+00  0.00000000000E+00  0.57428462764E+03  0.57428463652E+03  0.10100000352E+00 0.  1.
        3   -1    0    0  501    0  0.00000000000E+00  0.00000000000E+00 -0.20731334733E+03  0.20731337194E+03  0.10100000352E+00 0. -1.
    10030    2    1    2    0    0  0.00000000000E+00  0.00000000000E+00  0.36697128030E+03  0.78159800845E+03  0.69009240414E+03 0.  0.
        3    1    3    3  502    0 -0.19743493015E+03  0.65455661097E+02 -0.12832255529E+03  0.24440066204E+03  0.10100000352E+00 0. -1.
       -3    1    3    3    0  502  0.19743493015E+03 -0.65455661097E+02  0.49529383559E+03  0.53719734641E+03  0.10100000352E+00 0.  1.
</event>
<event>
 5   0  0.2758681E-02  0.6957360E+03  0.7818609E-02  0.9724552E-01
        1   -1    0    0  501    0  0.00000000000E+00  0.00000000000E+00  0.17221342720E+04  0.17221342721E+04  0.50400001928E-02 0. -1.
       -1   -1    0    0    0  501  0.00000000000E+00  0.00000000000E+00 -0.70268697472E+02  0.70268697653E+02  0.50400001928E-02 0.  1.
    10030    2    1    2    0    0  0.00000000000E+00  0.00000000000E+00  0.16518655746E+04  0.17924029697E+04  0.69573596238E+03 0.  0.
        3    1    3    3  502    0 -0.22173617105E+03 -0.42165753977E+02  0.15078767881E+04  0.15246761291E+04  0.10100000352E+00 0. -1.
       -3    1    3    3    0  502  0.22173617105E+03  0.42165753977E+02  0.14398878652E+03  0.26772684065E+03  0.10100000352E+00 0.  1.
</event>
<event>
 5   0  0.2750139E-02  0.6657241E+03  0.7818609E-02  0.9777713E-01
       -1   -1    0    0    0  501  0.00000000000E+00  0.00000000000E+00  0.31003850898E+03  0.31003850902E+03  0.50400001928E-02 0.  1.
        1   -1    0    0  501    0  0.00000000000E+00  0.00000000000E+00 -0.35736577899E+03  0.35736577903E+03  0.50400001928E-02 0. -1.
    10030    2    1    2    0    0  0.00000000000E+00  0.00000000000E+00 -0.47327270016E+02  0.66740428805E+03  0.66572412696E+03 0.  0.
        2    1    3    3  502    0 -0.57898743153E+01 -0.33277191716E+03 -0.18504599827E+02  0.33333630422E+03  0.25500000920E-02 0. -1.
       -2    1    3    3    0  502  0.57898743153E+01  0.33277191716E+03 -0.28822670189E+02  0.33406798382E+03  0.25500000920E-02 0.  1.
</event>
<event>
 5   0  0.2758681E-02  0.6936725E+03  0.7818609E-02  0.9728115E-01
       -1   -1    0    0    0  501  0.00000000000E+00  0.00000000000E+00  0.66199368436E+03  0.66199368437E+03  0.50400001928E-02 0.  1.
        1   -1    0    0  501    0  0.00000000000E+00  0.00000000000E+00 -0.18171681293E+03  0.18171681300E+03  0.50400001928E-02 0. -1.
    10030    2    1    2    0    0  0.00000000000E+00  0.00000000000E+00  0.48027687142E+03  0.84371049738E+03  0.69367249489E+03 0.  0.
        3    1    3    3  502    0  0.19592061700E+03 -0.88163621410E+02 -0.91037228042E+02  0.23333559394E+03  0.10100000352E+00 0. -1.
       -3    1    3    3    0  502 -0.19592061700E+03  0.88163621410E+02  0.57131409946E+03  0.61037490344E+03  0.10100000352E+00 0.  1.
</event>
<event>
 5   0  0.2684924E-02  0.6481383E+03  0.7818609E-02  0.9810279E-01
        1   -1    0    0  501    0  0.00000000000E+00  0.00000000000E+00  0.19565327487E+04  0.19565327487E+04  0.50400001928E-02 0.  1.
       -1   -1    0    0    0  501  0.00000000000E+00  0.00000000000E+00 -0.53676998810E+02  0.53676999047E+02  0.50400001928E-02 0. -1.
    10030    2    1    2    0    0  0.00000000000E+00  0.00000000000E+00  0.19028557499E+04  0.20102097478E+04  0.64813827620E+03 0.  0.
        4    1    3    3  502    0  0.29059813000E+03  0.94368668507E+02  0.61642886386E+03  0.68799627605E+03  0.12699999809E+01 0. -1.
       -4    1    3    3    0  502 -0.29059813000E+03 -0.94368668507E+02  0.12864268861E+04  0.13222134717E+04  0.12699999809E+01 0.  1.
</event>
<event>
 5   0  0.1784625E-02  0.7155842E+03  0.7818609E-02  0.9690946E-01
        4   -1    0    0  501    0  0.00000000000E+00  0.00000000000E+00  0.31311707344E+03  0.31311964899E+03  0.12699999809E+01 0.  1.
       -4   -1    0    0    0  501  0.00000000000E+00  0.00000000000E+00 -0.40883607808E+03  0.40883805062E+03  0.12699999809E+01 0. -1.
    10030    2    1    2    0    0  0.00000000000E+00  0.00000000000E+00 -0.95719004634E+02  0.72195769961E+03  0.71558423137E+03 0.  0.
        3    1    3    3  502    0 -0.25238923601E+03 -0.25032889320E+03 -0.68737122114E+01  0.35554484857E+03  0.10100000352E+00 0. -1.
       -3    1    3    3    0  502  0.25238923601E+03  0.25032889320E+03 -0.88845292423E+02  0.36641285104E+03  0.10100000352E+00 0.  1.
</event>
<event>
 5   0  0.4503289E-02  0.6237375E+03  0.7818609E-02  0.9857346E-01
       -2   -1    0    0    0  501  0.00000000000E+00  0.00000000000E+00  0.15232997070E+03  0.15232997072E+03  0.25500000920E-02 0.  1.
        2   -1    0    0  501    0  0.00000000000E+00  0.00000000000E+00 -0.63849633827E+03  0.63849633828E+03  0.25500000920E-02 0. -1.
    10030    2    1    2    0    0  0.00000000000E+00  0.00000000000E+00 -0.48616636757E+03  0.79082630900E+03  0.62373753618E+03 0.  0.
        2    1    3    3  502    0  0.12735274621E+03  0.15452094927E+03  0.60062036061E+02  0.20905237122E+03  0.25500000920E-02 0.  1.
       -2    1    3    3    0  502 -0.12735274621E+03 -0.15452094927E+03 -0.54622840363E+03  0.58177393778E+03  0.25500000920E-02 0. -1.
</event>
<event>
 5   0  0.2750139E-02  0.6995383E+03  0.7818609E-02  0.9718022E-01
       -1   -1    0    0    0  501  0.00000000000E+00  0.00000000000E+00  0.30867148262E+03  0.30867148267E+03  0.50400001928E-02 0. -1.
        1   -1    0    0  501    0  0.00000000000E+00  0.00000000000E+00 -0.39633871886E+03  0.39633871889E+03  0.50400001928E-02 0.  1.
    10030    2    1    2    0    0  0.00000000000E+00  0.00000000000E+00 -0.87667236235E+02  0.70501020156E+03  0.69953830488E+03 0.  0.
        2    1    3    3  502    0  0.20863936776E+03 -0.26946114688E+03  0.35514470693E+02  0.34263825399E+03  0.25500000920E-02 0.  1.
       -2    1    3    3    0  502 -0.20863936776E+03  0.26946114688E+03 -0.12318170693E+03  0.36237194757E+03  0.25500000920E-02 0. -1.
</event>
<event>
 5   0  0.2777999E-02  0.5388910E+03  0.7818609E-02  0.1004098E+00
       -1   -1    0    0    0  501  0.00000000000E+00  0.00000000000E+00  0.69303850116E+02  0.69303850299E+02  0.50400001928E-02 0. -1.
        1   -1    0    0  501    0  0.00000000000E+00  0.00000000000E+00 -0.10475734310E+04  0.10475734310E+04  0.50400001928E-02 0.  1.
    10030    2    1    2    0    0  0.00000000000E+00  0.00000000000E+00 -0.97826958090E+03  0.11168772813E+04  0.53889098028E+03 0.  0.
        5    1    3    3  502    0 -0.46411832217E+02 -0.15336408907E+03 -0.40275398269E+02  0.16528399708E+03  0.46999998093E+01 0. -1.
       -5    1    3    3    0  502  0.46411832217E+02  0.15336408907E+03 -0.93799418263E+03  0.95159328425E+03  0.46999998093E+01 0.  1.
</event>
<event>
 5   0  0.2777999E-02  0.7087373E+03  0.7818609E-02  0.9702406E-01
       -1   -1    0    0    0  501  0.00000000000E+00  0.00000000000E+00  0.33062659707E+03  0.33062659711E+03  0.50400001928E-02 0.  1.
        1   -1    0    0  501    0  0.00000000000E+00  0.00000000000E+00 -0.37981556848E+03  0.37981556852E+03  0.50400001928E-02 0. -1.
    10030    2    1    2    0    0  0.00000000000E+00  0.00000000000E+00 -0.49188971416E+02  0.71044216562E+03  0.70873726852E+03 0.  0.
        5    1    3    3  502    0 -0.31541629319E+03 -0.11156948237E+02 -0.18605063486E+03  0.36639984203E+03  0.46999998093E+01 0. -1.
       -5    1    3    3    0  502  0.31541629319E+03  0.11156948237E+02  0.13686166344E+03  0.34404232360E+03  0.46999998093E+01 0.  1.
</event>
<event>
 5   0  0.4299912E-02  0.7052399E+03  0.7818609E-02  0.9708313E-01
        2   -1    0    0  501    0  0.00000000000E+00  0.00000000000E+00  0.32949799559E+03  0.32949799560E+03  0.25500000920E-02 0. -1.
       -2   -1    0    0    0  501  0.00000000000E+00  0.00000000000E+00 -0.37736446328E+03  0.37736446328E+03  0.25500000920E-02 0.  1.
    10030    2    1    2    0    0  0.00000000000E+00  0.00000000000E+00 -0.47866467690E+02  0.70686245888E+03  0.70523991453E+03 0.  0.
        3    1    3    3  502    0 -0.15436618802E+03 -0.27247965733E+03 -0.18637627964E+03  0.36443135359E+03  0.10100000352E+00 0. -1.
       -3    1    3    3    0  502  0.15436618802E+03  0.27247965733E+03  0.13850981195E+03  0.34243110529E+03  0.10100000352E+00 0.  1.
</event>
<event>
 5   0  0.4299912E-02  0.7021695E+03  0.7818609E-02  0.9713529E-01
        2   -1    0    0  501    0  0.00000000000E+00  0.00000000000E+00  0.16553101273E+04  0.16553101273E+04  0.25500000920E-02 0.  1.
       -2   -1    0    0    0  501  0.00000000000E+00  0.00000000000E+00 -0.74463700157E+02  0.74463700200E+02  0.25500000920E-02 0. -1.
    10030    2    1    2    0    0  0.00000000000E+00  0.00000000000E+00  0.15808464272E+04  0.17297738275E+04  0.70216954371E+03 0.  0.
        3    1    3    3  502    0  0.31765127036E+03  0.11456099291E+03  0.55369978740E+03  0.64854453619E+03  0.10100000352E+00 0. -1.
       -3    1    3    3    0  502 -0.31765127036E+03 -0.11456099291E+03  0.10271466398E+04  0.10812292913E+04  0.10100000352E+00 0.  1.
</event>
<event>
 5   0  0.4365492E-02  0.6987674E+03  0.7818609E-02  0.9719342E-01
        2   -1    0    0  501    0  0.00000000000E+00  0.00000000000E+00  0.11585791901E+04  0.11585791902E+04  0.25500000920E-02 0. -1.
       -2   -1    0    0    0  501  0.00000000000E+00  0.00000000000E+00 -0.10536093230E+03  0.10536093233E+03  0.25500000920E-02 0.  1.
    10030    2    1    2    0    0  0.00000000000E+00  0.00000000000E+00  0.10532182579E+04  0.12639401225E+04  0.69876743953E+03 0.  0.
        4    1    3    3  502    0 -0.19553173996E+03  0.20785549039E+03  0.89121323161E+03  0.93578801196E+03  0.12699999809E+01 0. -1.
       -4    1    3    3    0  502  0.19553173996E+03 -0.20785549039E+03  0.16200502624E+03  0.32815211052E+03  0.12699999809E+01 0.  1.
</event>
<event>
 5   0  0.4299912E-02  0.7143957E+03  0.7818609E-02  0.9692925E-01
       -2   -1    0    0    0  501  0.00000000000E+00  0.00000000000E+00  0.24243378070E+03  0.24243378071E+03  0.25500000920E-02 0.  1.
        2   -1    0    0  501    0  0.00000000000E+00  0.00000000000E+00 -0.52628932459E+03  0.52628932460E+03  0.25500000920E-02 0. -1.
    10030    2    1    2    0    0  0.00000000000E+00  0.00000000000E+00 -0.28385554389E+03  0.76872310531E+03  0.71439571866E+03 0.  0.
        3    1    3    3  502    0  0.62634639263E+02  0.21701809839E+02  0.23575728941E+03  0.24489911453E+03  0.10100000352E+00 0.  1.
       -3    1    3    3    0  502 -0.62634639263E+02 -0.21701809839E+02 -0.51961283330E+03  0.52382399078E+03  0.10100000352E+00 0. -1.
</event>
<event>
 5   0  0.4526837E-02  0.6898764E+03  0.7818609E-02  0.9734703E-01
       -2   -1    0    0    0  501  0.00000000000E+00  0.00000000000E+00  0.13686960746E+03  0.13686960749E+03  0.25500000920E-02 0.  1.
        2   -1    0    0  501    0  0.00000000000E+00  0.00000000000E+00 -0.86931181071E+03  0.86931181071E+03  0.25500000920E-02 0. -1.
    10030    2    1    2    0    0  0.00000000000E+00  0.00000000000E+00 -0.73244220325E+03  0.10061814182E+04  0.68987641302E+03 0.  0.
        1    1    3    3  502    0  0.18991227689E+02 -0.84710463879E+02 -0.85311790238E+03  0.85752357682E+03  0.50400001928E-02 0. -1.
       -1    1    3    3    0  502 -0.18991227689E+02  0.84710463879E+02  0.12067569913E+03  0.14865784139E+03  0.50400001928E-02 0.  1.
</event>
<event>
 5   0  0.4299912E-02  0.6545197E+03  0.7818609E-02  0.9798335E-01
        2   -1    0    0  501    0  0.00000000000E+00  0.00000000000E+00  0.24232109578E+04  0.24232109578E+04  0.25500000920E-02 0.  1.
       -2   -1    0    0    0  501  0.00000000000E+00  0.00000000000E+00 -0.44197149574E+02  0.44197149648E+02  0.25500000920E-02 0. -1.
    10030    2    1    2    0    0  0.00000000000E+00  0.00000000000E+00  0.23790138082E+04  0.24674081074E+04  0.65451972390E+03 0.  0.
        3    1    3    3  502    0  0.19820460844E+03  0.25784457427E+03  0.13269943257E+04  0.13662660217E+04  0.10100000352E+00 0.  1.
       -3    1    3    3    0  502 -0.19820460844E+03 -0.25784457427E+03  0.10520194825E+04  0.11011420858E+04  0.10100000352E+00 0. -1.
</event>
<event>
 5   0  0.4420645E-02  0.7102268E+03  0.7818609E-02  0.9699901E-01
       -2   -1    0    0    0  501  0.00000000000E+00  0.00000000000E+00  0.11785446834E+03  0.11785446837E+03  0.25500000920E-02 0.  1.
        2   -1    0    0  501    0  0.00000000000E+00  0.00000000000E+00 -0.10700105940E+04  0.10700105940E+04  0.25500000920E-02 0. -1.
    10030    2    1    2    0    0  0.00000000000E+00  0.00000000000E+00 -0.95215612568E+03  0.11878650624E+04  0.71022680798E+03 0.  0.
        5    1    3    3  502    0  0.35468163888E+02 -0.34174326812E+03 -0.32613834098E+03  0.47374545846E+03  0.46999998093E+01 0. -1.
       -5    1    3    3    0  502 -0.35468163888E+02  0.34174326812E+03 -0.62601778470E+03  0.71411960393E+03  0.46999998093E+01 0.  1.
</event>
<event>
 5   0  0.2758681E-02  0.7047667E+03  0.7818609E-02  0.9709115E-01
       -1   -1    0    0    0  501  0.00000000000E+00  0.00000000000E+00  0.12502075468E+03  0.12502075478E+03  0.50400001928E-02 0. -1.
        1   -1    0    0  501    0  0.00000000000E+00  0.00000000000E+00 -0.99322741799E+03  0.99322741800E+03  0.50400001928E-02 0.  1.
    10030    2    1    2    0    0  0.00000000000E+00  0.00000000000E+00 -0.86820666331E+03  0.11182481728E+04  0.70476674562E+03 0.  0.
        3    1    3    3  502    0 -0.31907366112E+03 -0.10935855087E+03 -0.59596726535E+03  0.68479506821E+03  0.10100000352E+00 0.  1.
       -3    1    3    3    0  502  0.31907366112E+03  0.10935855087E+03 -0.27223939796E+03  0.43345310458E+03  0.10100000352E+00 0. -1.
</event>
<event>
 5   0  0.1784625E-02  0.6826549E+03  0.7818609E-02  0.9747363E-01
       -3   -1    0    0    0  501  0.00000000000E+00  0.00000000000E+00  0.74209742788E+03  0.74209743475E+03  0.10100000352E+00 0. -1.
        3   -1    0    0  501    0  0.00000000000E+00  0.00000000000E+00 -0.15699343108E+03  0.15699346357E+03  0.10100000352E+00 0.  1.
    10030    2    1    2    0    0  0.00000000000E+00  0.00000000000E+00  0.58510399680E+03  0.89909089833E+03  0.68265493215E+03 0.  0.
        3    1    3    3  502    0  0.17661913519E+01 -0.33965568111E+03  0.24817448167E+03  0.42066576363E+03  0.10100000352E+00 0.  1.
       -3    1    3    3    0  502 -0.17661913519E+01  0.33965568111E+03  0.33692951513E+03  0.47842513469E+03  0.10100000352E+00 0. -1.
</event>
<event>
 5   0  0.2751729E-02  0.6946155E+03  0.7818609E-02  0.9726485E-01
       -1   -1    0    0    0  501  0.00000000000E+00  0.00000000000E+00  0.39071046084E+03  0.39071046087E+03  0.50400001928E-02 0. -1.
        1   -1    0    0  501    0  0.00000000000E+00  0.00000000000E+00 -0.30872653418E+03  0.30872653422E+03  0.50400001928E-02 0.  1.
    10030    2    1    2    0    0  0.00000000000E+00  0.00000000000E+00  0.81983926661E+02  0.69943699509E+03  0.69461553818E+03 0.  0.
        1    1    3    3  502    0  0.75638030336E+02 -0.34898509505E+02  0.38050241314E+03  0.38951393304E+03  0.50400001928E-02 0. -1.
       -1    1    3    3    0  502 -0.75638030336E+02  0.34898509505E+02 -0.29851848648E+03  0.30992306206E+03  0.50400001928E-02 0.  1.
</event>
<event>
 5   0  0.2758681E-02  0.5117733E+03  0.7818609E-02  0.1010751E+00
        1   -1    0    0  501    0  0.00000000000E+00  0.00000000000E+00  0.50374578766E+03  0.50374578768E+03  0.50400001928E-02 0. -1.
       -1   -1    0    0    0  501  0.00000000000E+00  0.00000000000E+00 -0.12998219442E+03  0.12998219452E+03  0.50400001928E-02 0.  1.
    10030    2    1    2    0    0  0.00000000000E+00  0.00000000000E+00  0.37376359323E+03  0.63372798220E+03  0.51177332072E+03 0.  0.
        3    1    3    3  502    0 -0.12591340981E+03 -0.12768356971E+03 -0.39156615610E+02  0.18354980657E+03  0.10100000352E+00 0.  1.
       -3    1    3    3    0  502  0.12591340981E+03  0.12768356971E+03  0.41292020884E+03  0.45017817563E+03  0.10100000352E+00 0. -1.
</event>
<event>
 5   0  0.2684924E-02  0.6942610E+03  0.7818609E-02  0.9727097E-01
       -1   -1    0    0    0  501  0.00000000000E+00  0.00000000000E+00  0.78044027763E+03  0.78044027764E+03  0.50400001928E-02 0. -1.
        1   -1    0    0  501    0  0.00000000000E+00  0.00000000000E+00 -0.15439949669E+03  0.15439949677E+03  0.50400001928E-02 0.  1.
    10030    2    1    2    0    0  0.00000000000E+00  0.00000000000E+00  0.62604078094E+03  0.93483977442E+03  0.69426100599E+03 0.  0.
        4    1    3    3  502    0 -0.56047129160E+02 -0.25638591591E+03  0.61896009124E+03  0.67230069613E+03  0.12699999809E+01 0. -1.
       -4    1    3    3    0  502  0.56047129160E+02  0.25638591591E+03  0.70806896973E+01  0.26253907829E+03  0.12699999809E+01 0.  1.
</event>
<event>
 5   0  0.2684924E-02  0.7008053E+03  0.7818609E-02  0.9715856E-01
       -1   -1    0    0    0  501  0.00000000000E+00  0.00000000000E+00  0.15325384458E+03  0.15325384466E+03  0.50400001928E-02 0. -1.
        1   -1    0    0  501    0  0.00000000000E+00  0.00000000000E+00 -0.80116769436E+03  0.80116769437E+03  0.50400001928E-02 0.  1.
    10030    2    1    2    0    0  0.00000000000E+00  0.00000000000E+00 -0.64791384978E+03  0.95442153903E+03  0.70080533491E+03 0.  0.
        4    1    3    3  502    0 -0.33223686078E+03 -0.36895965454E+02 -0.46703844730E+03  0.57434237880E+03  0.12699999809E+01 0. -1.
       -4    1    3    3    0  502  0.33223686078E+03  0.36895965454E+02 -0.18087540247E+03  0.38007916024E+03  0.12699999809E+01 0.  1.
</event>
<event>
 5   0  0.4365492E-02  0.6877140E+03  0.7818609E-02  0.9738477E-01
        2   -1    0    0  501    0  0.00000000000E+00  0.00000000000E+00  0.53910458866E+02  0.53910458927E+02  0.25500000920E-02 0.  1.
       -2   -1    0    0    0  501  0.00000000000E+00  0.00000000000E+00 -0.21932226100E+04  0.21932226100E+04  0.25500000920E-02 0. -1.
    10030    2    1    2    0    0  0.00000000000E+00  0.00000000000E+00 -0.21393121511E+04  0.22471330689E+04  0.68771400267E+03 0.  0.
        4    1    3    3  502    0  0.21225901173E+03  0.15357531574E+03 -0.34196412388E+03  0.43079036733E+03  0.12699999809E+01 0.  1.
       -4    1    3    3    0  502 -0.21225901173E+03 -0.15357531574E+03 -0.17973480272E+04  0.18163427016E+04  0.12699999809E+01 0. -1.
</event>
<event>
 5   0  0.4420645E-02  0.6985418E+03  0.7818609E-02  0.9719729E-01
        2   -1    0    0  501    0  0.00000000000E+00  0.00000000000E+00  0.35100960552E+03  0.35100960553E+03  0.25500000920E-02 0.  1.
       -2   -1    0    0    0  501  0.00000000000E+00  0.00000000000E+00 -0.34754081613E+03  0.34754081614E+03  0.25500000920E-02 0. -1.
    10030    2    1    2    0    0  0.00000000000E+00  0.00000000000E+00  0.34687893863E+01  0.69855042166E+03  0.69854180913E+03 0.  0.
        5    1    3    3  502    0  0.25417188855E+03  0.54038811066E+02  0.23507079409E+03  0.35043388857E+03  0.46999998093E+01 0.  1.
       -5    1    3    3    0  502 -0.25417188855E+03 -0.54038811066E+02 -0.23160200470E+03  0.34811653309E+03  0.46999998093E+01 0. -1.
</event>
<event>
 5   0  0.2684924E-02  0.6903349E+03  0.7818609E-02  0.9733905E-01
        1   -1    0    0  501    0  0.00000000000E+00  0.00000000000E+00  0.13838952209E+04  0.13838952209E+04  0.50400001928E-02 0.  1.
       -1   -1    0    0    0  501  0.00000000000E+00  0.00000000000E+00 -0.86090754114E+02  0.86090754261E+02  0.50400001928E-02 0. -1.
    10030    2    1    2    0    0  0.00000000000E+00  0.00000000000E+00  0.12978044668E+04  0.14699859752E+04  0.69033494276E+03 0.  0.
        4    1    3    3  502    0  0.52682915419E+02 -0.67373774927E+02 -0.63165557774E+02  0.10633069037E+03  0.12699999809E+01 0. -1.
       -4    1    3    3    0  502 -0.52682915419E+02  0.67373774927E+02  0.13609700246E+04  0.13636552848E+04  0.12699999809E+01 0.  1.
</event>
<event>
 5   0  0.4299912E-02  0.6960240E+03  0.7818609E-02  0.9724056E-01
       -2   -1    0    0    0  501  0.00000000000E+00  0.00000000000E+00  0.10560574946E+03  0.10560574949E+03  0.25500000920E-02 0. -1.
        2   -1    0    0  501    0  0.00000000000E+00  0.00000000000E+00 -0.11468348433E+04  0.11468348433E+04  0.25500000920E-02 0.  1.
    10030    2    1    2    0    0  0.00000000000E+00  0.00000000000E+00 -0.10412290939E+04  0.12524405928E+04  0.69602400291E+03 0.  0.
        3    1    3    3  502    0 -0.67315011768E+02  0.27636333612E+03 -0.88141691492E+03  0.92617697686E+03  0.10100000352E+00 0.  1.
       -3    1    3    3    0  502  0.67315011768E+02 -0.27636333612E+03 -0.15981217895E+03  0.32626361596E+03  0.10100000352E+00 0. -1.
</event>
<event>
 5   0  0.4526837E-02  0.6871192E+03  0.7818609E-02  0.9739517E-01
       -2   -1    0    0    0  501  0.00000000000E+00  0.00000000000E+00  0.10553174350E+03  0.10553174353E+03  0.25500000920E-02 0. -1.
        2   -1    0    0  501    0  0.00000000000E+00  0.00000000000E+00 -0.11184615662E+04  0.11184615662E+04  0.25500000920E-02 0.  1.
    10030    2    1    2    0    0  0.00000000000E+00  0.00000000000E+00 -0.10129298227E+04  0.12239933098E+04  0.68711920113E+03 0.  0.
        1    1    3    3  502    0 -0.16201974948E+03  0.25668265882E+03 -0.79312690430E+03  0.84922710326E+03  0.50400001928E-02 0.  1.
       -1    1    3    3    0  502  0.16201974948E+03 -0.25668265882E+03 -0.21980291844E+03  0.37476620651E+03  0.50400001928E-02 0. -1.
</event>
<event>
 5   0  0.1784625E-02  0.8667365E+03  0.7818609E-02  0.9468145E-01
       -3   -1    0    0    0  501  0.00000000000E+00  0.00000000000E+00  0.49779286828E+03  0.49779287853E+03  0.10100000352E+00 0.  1.
        3   -1    0    0  501    0  0.00000000000E+00  0.00000000000E+00 -0.37728145085E+03  0.37728146437E+03  0.10100000352E+00 0. -1.
    10030    2    1    2    0    0  0.00000000000E+00  0.00000000000E+00  0.12051141743E+03  0.87507434290E+03  0.86673646737E+03 0.  0.
        5    1    3    3  502    0 -0.30786715294E+03 -0.28094948097E+03 -0.59507257089E+02  0.42104393875E+03  0.46999998093E+01 0. -1.
       -5    1    3    3    0  502  0.30786715294E+03  0.28094948097E+03  0.18001867452E+03  0.45403040415E+03  0.46999998093E+01 0.  1.
</event>
<event>
 5   0  0.4503289E-02  0.7010730E+03  0.7818609E-02  0.9715399E-01
       -2   -1    0    0    0  501  0.00000000000E+00  0.00000000000E+00  0.18399142158E+03  0.18399142160E+03  0.25500000920E-02 0. -1.
        2   -1    0    0  501    0  0.00000000000E+00  0.00000000000E+00 -0.66783468125E+03  0.66783468125E+03  0.25500000920E-02 0.  1.
    10030    2    1    2    0    0  0.00000000000E+00  0.00000000000E+00 -0.48384325967E+03  0.85182610285E+03  0.70107304154E+03 0.  0.
        2    1    3    3  502    0 -0.29377906235E+03 -0.11055757697E+03 -0.43150841388E+03  0.53359968756E+03  0.25500000920E-02 0. -1.
       -2    1    3    3    0  502  0.29377906235E+03  0.11055757697E+03 -0.52334845789E+02  0.31822641530E+03  0.25500000920E-02 0.  1.
</event>
<event>
 5   0  0.1784625E-02  0.6839300E+03  0.7818609E-02  0.9745116E-01
        4   -1    0    0  501    0  0.00000000000E+00  0.00000000000E+00  0.14040771779E+03  0.14041346130E+03  0.12699999809E+01 0.  1.
       -4   -1    0    0    0  501  0.00000000000E+00  0.00000000000E+00 -0.83283739325E+03  0.83283836156E+03  0.12699999809E+01 0. -1.
    10030    2    1    2    0    0  0.00000000000E+00  0.00000000000E+00 -0.69242967546E+03  0.97325182287E+03  0.68393000758E+03 0.  0.
        4    1    3    3  502    0 -0.97009332929E+02 -0.16223972228E+03  0.59300600750E+02  0.19811792526E+03  0.12699999809E+01 0.  1.
       -4    1    3    3    0  502  0.97009332929E+02  0.16223972228E+03 -0.75173027621E+03  0.77513389761E+03  0.12699999809E+01 0. -1.
</event>
<event>
 5   0  0.2684924E-02  0.6589132E+03  0.7818609E-02  0.9790196E-01
       -1   -1    0    0    0  501  0.00000000000E+00  0.00000000000E+00  0.10547040843E+03  0.10547040855E+03  0.50400001928E-02 0. -1.
        1   -1    0    0  501    0  0.00000000000E+00  0.00000000000E+00 -0.10291195049E+04  0.10291195049E+04  0.50400001928E-02 0.  1.
    10030    2    1    2    0    0  0.00000000000E+00  0.00000000000E+00 -0.92364909650E+03  0.11345899135E+04  0.65891321000E+03 0.  0.
        4    1    3    3  502    0  0.14766297831E+03 -0.18630229387E+03 -0.85458313432E+03  0.88703260719E+03  0.12699999809E+01 0.  1.
       -4    1    3    3    0  502 -0.14766297831E+03  0.18630229387E+03 -0.69065962175E+02  0.24755730628E+03  0.12699999809E+01 0. -1.
</event>
<event>
 5   0  0.4420645E-02  0.6973346E+03  0.7818609E-02  0.9721801E-01
        2   -1    0    0  501    0  0.00000000000E+00  0.00000000000E+00  0.10901171935E+04  0.10901171935E+04  0.25500000920E-02 0.  1.
       -2   -1    0    0    0  501  0.00000000000E+00  0.00000000000E+00 -0.11151908956E+03  0.11151908959E+03  0.25500000920E-02 0. -1.
    10030    2    1    2    0    0  0.00000000000E+00  0.00000000000E+00  0.97859810392E+03  0.12016362831E+04  0.69733457378E+03 0.  0.
        5    1    3    3  502    0 -0.10467950062E+03 -0.19529416597E+03  0.95311808476E+03  0.97854677079E+03  0.46999998093E+01 0.  1.
       -5    1    3    3    0  502  0.10467950062E+03  0.19529416597E+03  0.25480019157E+02  0.22308951228E+03  0.46999998093E+01 0. -1.
</event>
<event>
 5   0  0.1784625E-02  0.6960607E+03  0.7818609E-02  0.9723993E-01
        4   -1    0    0  501    0  0.00000000000E+00  0.00000000000E+00  0.15456151209E+04  0.15456156426E+04  0.12699999809E+01 0. -1.
       -4   -1    0    0    0  501  0.00000000000E+00  0.00000000000E+00 -0.78361266124E+02  0.78371556885E+02  0.12699999809E+01 0.  1.
    10030    2    1    2    0    0  0.00000000000E+00  0.00000000000E+00  0.14672538548E+04  0.16239871995E+04  0.69606073725E+03 0.  0.
        2    1    3    3  502    0 -0.43494423729E+02  0.15504011562E+03  0.14534813327E+04  0.14623738192E+04  0.25500000920E-02 0. -1.
       -2    1    3    3    0  502  0.43494423729E+02 -0.15504011562E+03  0.13772522025E+02  0.16161338038E+03  0.25500000920E-02 0.  1.
</event>
<event>
 5   0  0.2777999E-02  0.6953127E+03  0.7818609E-02  0.9725282E-01
       -1   -1    0    0    0  501  0.00000000000E+00  0.00000000000E+00  0.94535891749E+03  0.94535891750E+03  0.50400001928E-02 0.  1.
        1   -1    0    0  501    0  0.00000000000E+00  0.00000000000E+00 -0.12785086326E+03  0.12785086336E+03  0.50400001928E-02 0. -1.
    10030    2    1    2    0    0  0.00000000000E+00  0.00000000000E+00  0.81750805423E+03  0.10732097809E+04  0.69531274618E+03 0.  0.
        5    1    3    3  502    0 -0.16247802035E+03 -0.24859817101E+03  0.68762127340E+03  0.74902954772E+03  0.46999998093E+01 0.  1.
       -5    1    3    3    0  502  0.16247802035E+03  0.24859817101E+03  0.12988678083E+03  0.32418023314E+03  0.46999998093E+01 0. -1.
</event>
<event>
 5   0  0.2684924E-02  0.7024945E+03  0.7818609E-02  0.9712976E-01
       -1   -1    0    0    0  501  0.00000000000E+00  0.00000000000E+00  0.87734520684E+02  0.87734520829E+02  0.50400001928E-02 0. -1.
        1   -1    0    0  501    0  0.00000000000E+00  0.00000000000E+00 -0.14062269476E+04  0.14062269476E+04  0.50400001928E-02 0.  1.
    10030    2    1    2    0    0  0.00000000000E+00  0.00000000000E+00 -0.13184924270E+04  0.14939614685E+04  0.70249454756E+03 0.  0.
        4    1    3    3  502    0 -0.20599599886E+03 -0.11114897550E+03 -0.12161878751E+04  0.12385083798E+04  0.12699999809E+01 0.  1.
       -4    1    3    3    0  502  0.20599599886E+03  0.11114897550E+03 -0.10230455184E+03  0.25545308870E+03  0.12699999809E+01 0. -1.
</event>
<event>
 5   0  0.2758681E-02  0.6979986E+03  0.7818609E-02  0.9720661E-01
       -1   -1    0    0    0  501  0.00000000000E+00  0.00000000000E+00  0.14590176115E+03  0.14590176124E+03  0.50400001928E-02 0.  1.
        1   -1    0    0  501    0  0.00000000000E+00  0.00000000000E+00 -0.83481171883E+03  0.83481171884E+03  0.50400001928E-02 0. -1.
    10030    2    1    2    0    0  0.00000000000E+00  0.00000000000E+00 -0.68890995768E+03  0.98071348008E+03  0.69799856749E+03 0.  0.
        3    1    3    3  502    0  0.50368339085E+01 -0.23160504665E+03 -0.71120509981E+03  0.74798326955E+03  0.10100000352E+00 0. -1.
       -3    1    3    3    0  502 -0.50368339085E+01  0.23160504665E+03  0.22295142128E+02  0.23273021053E+03  0.10100000352E+00 0.  1.
</event>
<event>
 5   0  0.1784625E-02  0.7260330E+03  0.7818609E-02  0.9673720E-01
        3   -1    0    0  501    0  0.00000000000E+00  0.00000000000E+00  0.35363814827E+03  0.35363816269E+03  0.10100000352E+00 0. -1.
       -3   -1    0    0    0  501  0.00000000000E+00  0.00000000000E+00 -0.37264353420E+03  0.37264354789E+03  0.10100000352E+00 0.  1.
    10030    2    1    2    0    0  0.00000000000E+00  0.00000000000E+00 -0.19005385938E+02  0.72628171058E+03  0.72603300092E+03 0.  0.
        5    1    3    3  502    0 -0.21260214584E+03 -0.29144616547E+03  0.30739806690E+02  0.36208778700E+03  0.46999998093E+01 0. -1.
       -5    1    3    3    0  502  0.21260214584E+03  0.29144616547E+03 -0.49745192628E+02  0.36419392358E+03  0.46999998093E+01 0.  1.
</event>
<event>
 5   0  0.1784625E-02  0.7012831E+03  0.7818609E-02  0.9715040E-01
        3   -1    0    0  501    0  0.00000000000E+00  0.00000000000E+00  0.33253067670E+03  0.33253069203E+03  0.10100000352E+00 0. -1.
       -3   -1    0    0    0  501  0.00000000000E+00  0.00000000000E+00 -0.36973877855E+03  0.36973879235E+03  0.10100000352E+00 0.  1.
    10030    2    1    2    0    0  0.00000000000E+00  0.00000000000E+00 -0.37208101859E+02  0.70226948438E+03  0.70128309965E+03 0.  0.
        4    1    3    3  502    0  0.29153773381E+03  0.37739807918E+02 -0.20999938175E+03  0.36127537499E+03  0.12699999809E+01 0.  1.
       -4    1    3    3    0  502 -0.29153773381E+03 -0.37739807918E+02  0.17279127989E+03  0.34099410940E+03  0.12699999809E+01 0. -1.
</event>
<event>
 5   0  0.2777999E-02  0.5169355E+03  0.7818609E-02  0.1009451E+00
       -1   -1    0    0    0  501  0.00000000000E+00  0.00000000000E+00  0.41301248737E+03  0.41301248740E+03  0.50400001928E-02 0.  1.
        1   -1    0    0  501    0  0.00000000000E+00  0.00000000000E+00 -0.16175198493E+03  0.16175198501E+03  0.50400001928E-02 0. -1.
    10030    2    1    2    0    0  0.00000000000E+00  0.00000000000E+00  0.25126050244E+03  0.57476447241E+03  0.51693554594E+03 0.  0.
        5    1    3    3  502    0  0.17701557626E+03 -0.18807117098E+03  0.11579664903E+03  0.28308343914E+03  0.46999998093E+01 0. -1.
       -5    1    3    3    0  502 -0.17701557626E+03  0.18807117098E+03  0.13546385341E+03  0.29168103327E+03  0.46999998093E+01 0.  1.
</event>
<event>
 5   0  0.2684924E-02  0.6961502E+03  0.7818609E-02  0.9723839E-01
        1   -1    0    0  501    0  0.00000000000E+00  0.00000000000E+00  0.56159716069E+03  0.56159716071E+03  0.50400001928E-02 0.  1.
       -1   -1    0    0    0  501  0.00000000000E+00  0.00000000000E+00 -0.21573519689E+03  0.21573519695E+03  0.50400001928E-02 0. -1.
    10030    2    1    2    0    0  0.00000000000E+00  0.00000000000E+00  0.34586196380E+03  0.77733235766E+03  0.69615019663E+03 0.  0.
        4    1    3    3  502    0  0.68653612359E+02 -0.70245308651E+02  0.54579866462E+03  0.55456786517E+03  0.12699999809E+01 0.  1.
       -4    1    3    3    0  502 -0.68653612359E+02  0.70245308651E+02 -0.19993670083E+03  0.22276449249E+03  0.12699999809E+01 0. -1.
</event>
<event>
 5   0  0.2777999E-02  0.6923366E+03  0.7818609E-02  0.9730428E-01
       -1   -1    0    0    0  501  0.00000000000E+00  0.00000000000E+00  0.41898237675E+03  0.41898237678E+03  0.50400001928E-02 0.  1.
        1   -1    0    0  501    0  0.00000000000E+00  0.00000000000E+00 -0.28600839926E+03  0.28600839930E+03  0.50400001928E-02 0. -1.
    10030    2    1    2    0    0  0.00000000000E+00  0.00000000000E+00  0.13297397749E+03  0.70499077608E+03  0.69233656242E+03 0.  0.
        5    1    3    3  502    0 -0.26107949014E+02  0.17959033533E+03 -0.23364774925E+03  0.29588456241E+03  0.46999998093E+01 0. -1.
       -5    1    3    3    0  502  0.26107949014E+02 -0.17959033533E+03  0.36662172674E+03  0.40910621367E+03  0.46999998093E+01 0.  1.
</event>
<event>
 5   0  0.4526837E-02  0.7243549E+03  0.7818609E-02  0.9676465E-01
        2   -1    0    0  501    0  0.00000000000E+00  0.00000000000E+00  0.74680354315E+03  0.74680354315E+03  0.25500000920E-02 0.  1.
       -2   -1    0    0    0  501  0.00000000000E+00  0.00000000000E+00 -0.17564524690E+03  0.17564524692E+03  0.25500000920E-02 0. -1.
    10030    2    1    2    0    0  0.00000000000E+00  0.00000000000E+00  0.57115829624E+03  0.92244879007E+03  0.72435486534E+03 0.  0.
        1    1    3    3  502    0 -0.26470907063E+03 -0.24631644203E+03  0.31198071245E+03  0.47757161416E+03  0.50400001928E-02 0. -1.
       -1    1    3    3    0  502  0.26470907063E+03  0.24631644203E+03  0.25917758379E+03  0.44487717592E+03  0.50400001928E-02 0.  1.
</event>
<event>
 5   0  0.2751729E-02  0.8072470E+03  0.7818609E-02  0.9549586E-01
       -1   -1    0    0    0  501  0.00000000000E+00  0.00000000000E+00  0.11532716174E+03  0.11532716185E+03  0.50400001928E-02 0. -1.
        1   -1    0    0  501    0  0.00000000000E+00  0.00000000000E+00 -0.14126067112E+04  0.14126067112E+04  0.50400001928E-02 0.  1.
    10030    2    1    2    0    0  0.00000000000E+00  0.00000000000E+00 -0.12972795494E+04  0.15279338730E+04  0.80724698262E+03 0.  0.
        1    1    3    3  502    0  0.86875532680E+02 -0.23038390838E+02  0.96145378649E+02  0.13161329527E+03  0.50400001928E-02 0. -1.
       -1    1    3    3    0  502 -0.86875532680E+02  0.23038390838E+02 -0.13934249281E+04  0.13963205777E+04  0.50400001928E-02 0.  1.
</event>
<event>
 5   0  0.4365492E-02  0.7022223E+03  0.7818609E-02  0.9713439E-01
        2   -1    0    0  501    0  0.00000000000E+00  0.00000000000E+00  0.11161763696E+04  0.11161763696E+04  0.25500000920E-02 0. -1.
       -2   -1    0    0    0  501  0.00000000000E+00  0.00000000000E+00 -0.11044764728E+03  0.11044764731E+03  0.25500000920E-02 0.  1.
    10030    2    1    2    0    0  0.00000000000E+00  0.00000000000E+00  0.10057287223E+04  0.12266240169E+04  0.70222234084E+03 0.  0.
        4    1    3    3  502    0 -0.22884330630E+02  0.33573801129E+03  0.32789251966E+03  0.46984978681E+03  0.12699999809E+01 0.  1.
       -4    1    3    3    0  502  0.22884330630E+02 -0.33573801129E+03  0.67783620266E+03  0.75677423011E+03  0.12699999809E+01 0. -1.
</event>
<event>
 5   0  0.4420645E-02  0.7104898E+03  0.7818609E-02  0.9699460E-01
        2   -1    0    0  501    0  0.00000000000E+00  0.00000000000E+00  0.19203538033E+04  0.19203538033E+04  0.25500000920E-02 0. -1.
       -2   -1    0    0    0  501  0.00000000000E+00  0.00000000000E+00 -0.65716496396E+02  0.65716496446E+02  0.25500000920E-02 0.  1.
    10030    2    1    2    0    0  0.00000000000E+00  0.00000000000E+00  0.18546373069E+04  0.19860702998E+04  0.71048975741E+03 0.  0.
        5    1    3    3  502    0  0.84271020014E+02 -0.12545020548E+03  0.28720093626E+02  0.15390351733E+03  0.46999998093E+01 0.  1.
       -5    1    3    3    0  502 -0.84271020014E+02  0.12545020548E+03  0.18259172133E+04  0.18321667824E+04  0.46999998093E+01 0. -1.
</event>
<event>
 5   0  0.1784625E-02  0.6782051E+03  0.7818609E-02  0.9755248E-01
       -4   -1    0    0    0  501  0.00000000000E+00  0.00000000000E+00  0.19485293817E+03  0.19485707688E+03  0.12699999809E+01 0.  1.
        4   -1    0    0  501    0  0.00000000000E+00  0.00000000000E+00 -0.59012909144E+03  0.59013045801E+03  0.12699999809E+01 0. -1.
    10030    2    1    2    0    0  0.00000000000E+00  0.00000000000E+00 -0.39527615328E+03  0.78498753489E+03  0.67820512574E+03 0.  0.
        1    1    3    3  502    0  0.22276649887E+03  0.13054556504E+03  0.56799260221E+02  0.26437324668E+03  0.50400001928E-02 0.  1.
       -1    1    3    3    0  502 -0.22276649887E+03 -0.13054556504E+03 -0.45207541350E+03  0.52061428821E+03  0.50400001928E-02 0. -1.
</event>
<event>
 5   0  0.2751729E-02  0.7115353E+03  0.7818609E-02  0.9697706E-01
       -1   -1    0    0    0  501  0.00000000000E+00  0.00000000000E+00  0.20503460505E+03  0.20503460511E+03  0.50400001928E-02 0.  1.
        1   -1    0    0  501    0  0.00000000000E+00  0.00000000000E+00 -0.61731350763E+03  0.61731350765E+03  0.50400001928E-02 0. -1.
    10030    2    1    2    0    0  0.00000000000E+00  0.00000000000E+00 -0.41227890259E+03  0.82234811276E+03  0.71153532944E+03 0.  0.
        1    1    3    3  502    0  0.17337430299E+03  0.30322935405E+03 -0.28421755350E+03  0.45031800746E+03  0.50400001928E-02 0. -1.
       -1    1    3    3    0  502 -0.17337430299E+03 -0.30322935405E+03 -0.12806134909E+03  0.37203010531E+03  0.50400001928E-02 0.  1.
</event>
<event>
 5   0  0.4503289E-02  0.6975394E+03  0.7818609E-02  0.9721449E-01
       -2   -1    0    0    0  501  0.00000000000E+00  0.00000000000E+00  0.14844312988E+03  0.14844312990E+03  0.25500000920E-02 0.  1.
        2   -1    0    0  501    0  0.00000000000E+00  0.00000000000E+00 -0.81944038737E+03  0.81944038738E+03  0.25500000920E-02 0. -1.
    10030    2    1    2    0    0  0.00000000000E+00  0.00000000000E+00 -0.67099725750E+03  0.96788351728E+03  0.69753937770E+03 0.  0.
        2    1    3    3  502    0  0.69750618812E+01  0.34393319118E+03 -0.25576952543E+03  0.42866856851E+03  0.25500000920E-02 0. -1.
       -2    1    3    3    0  502 -0.69750618812E+01 -0.34393319118E+03 -0.41522773207E+03  0.53921494877E+03  0.25500000920E-02 0.  1.
</event>
<event>
 5   0  0.2758681E-02  0.6880667E+03  0.7818609E-02  0.9737860E-01
        1   -1    0    0  501    0  0.00000000000E+00  0.00000000000E+00  0.11269445937E+04  0.11269445937E+04  0.50400001928E-02 0.  1.
       -1   -1    0    0    0  501  0.00000000000E+00  0.00000000000E+00 -0.10502641012E+03  0.10502641025E+03  0.50400001928E-02 0. -1.
    10030    2    1    2    0    0  0.00000000000E+00  0.00000000000E+00  0.10219181835E+04  0.12319710039E+04  0.68806669782E+03 0.  0.
        3    1    3    3  502    0  0.76350967742E+02  0.57671349462E+02 -0.80722675988E+02  0.12518632291E+03  0.10100000352E+00 0. -1.
       -3    1    3    3    0  502 -0.76350967742E+02 -0.57671349462E+02  0.11026408595E+04  0.11067846810E+04  0.10100000352E+00 0.  1.
</event>
<event>
 5   0  0.2758681E-02  0.6989964E+03  0.7818609E-02  0.9718950E-01
       -1   -1    0    0    0  501  0.00000000000E+00  0.00000000000E+00  0.22567979072E+03  0.22567979078E+03  0.50400001928E-02 0.  1.
        1   -1    0    0  501    0  0.00000000000E+00  0.00000000000E+00 -0.54124907675E+03  0.54124907677E+03  0.50400001928E-02 0. -1.
    10030    2    1    2    0    0  0.00000000000E+00  0.00000000000E+00 -0.31556928602E+03  0.76692886755E+03  0.69899636165E+03 0.  0.
        3    1    3    3  502    0 -0.29528481430E+02 -0.28888069196E+03 -0.37117242021E+03  0.47126739875E+03  0.10100000352E+00 0. -1.
       -3    1    3    3    0  502  0.29528481430E+02  0.28888069196E+03  0.55603134182E+02  0.29566146880E+03  0.10100000352E+00 0.  1.
</event>
<event>
 5   0  0.4503289E-02  0.7167185E+03  0.7818609E-02  0.9689061E-01
       -2   -1    0    0    0  501  0.00000000000E+00  0.00000000000E+00  0.14034105436E+03  0.14034105439E+03  0.25500000920E-02 0.  1.
        2   -1    0    0  501    0  0.00000000000E+00  0.00000000000E+00 -0.91506609768E+03  0.91506609769E+03  0.25500000920E-02 0. -1.
    10030    2    1    2    0    0  0.00000000000E+00  0.00000000000E+00 -0.77472504332E+03  0.10554071521E+04  0.71671846907E+03 0.  0.
        2    1    3    3  502    0 -0.14000211670E+03 -0.29425684609E+03 -0.60693448538E+03  0.68888108822E+03  0.25500000920E-02 0. -1.
       -2    1    3    3    0  502  0.14000211670E+03  0.29425684609E+03 -0.16779055794E+03  0.36652606386E+03  0.25500000920E-02 0.  1.
</event>
<event>
 5   0  0.2758681E-02  0.6919808E+03  0.7818609E-02  0.9731045E-01
        1   -1    0    0  501    0  0.00000000000E+00  0.00000000000E+00  0.12335759403E+04  0.12335759403E+04  0.50400001928E-02 0. -1.
       -1   -1    0    0    0  501  0.00000000000E+00  0.00000000000E+00 -0.97042551544E+02  0.97042551675E+02  0.50400001928E-02 0.  1.
    10030    2    1    2    0    0  0.00000000000E+00  0.00000000000E+00  0.11365333888E+04  0.13306184920E+04  0.69198079993E+03 0.  0.
        3    1    3    3  502    0 -0.60710901299E+02 -0.90764602533E+02  0.11995718238E+04  0.12045316921E+04  0.10100000352E+00 0. -1.
       -3    1    3    3    0  502  0.60710901299E+02  0.90764602533E+02 -0.63038435051E+02  0.12608679988E+03  0.10100000352E+00 0.  1.
</event>
<event>
 5   0  0.4299912E-02  0.7187367E+03  0.7818609E-02  0.9685716E-01
       -2   -1    0    0    0  501  0.00000000000E+00  0.00000000000E+00  0.56360223089E+02  0.56360223147E+02  0.25500000920E-02 0. -1.
        2   -1    0    0  501    0  0.00000000000E+00  0.00000000000E+00 -0.22914318923E+04  0.22914318923E+04  0.25500000920E-02 0.  1.
    10030    2    1    2    0    0  0.00000000000E+00  0.00000000000E+00 -0.22350716692E+04  0.23477921154E+04  0.71873670481E+03 0.  0.
        3    1    3    3  502    0  0.46106693004E+02 -0.74659802328E+02  0.20827417455E+02  0.90187054183E+02  0.10100000352E+00 0. -1.
       -3    1    3    3    0  502 -0.46106693004E+02  0.74659802328E+02 -0.22558990866E+04  0.22576050612E+04  0.10100000352E+00 0.  1.
</event>
<event>
 5   0  0.4299912E-02  0.7067117E+03  0.7818609E-02  0.9705823E-01
       -2   -1    0    0    0  501  0.00000000000E+00  0.00000000000E+00  0.19792009802E+03  0.19792009803E+03  0.25500000920E-02 0. -1.
        2   -1    0    0  501    0  0.00000000000E+00  0.00000000000E+00 -0.63086237586E+03  0.63086237587E+03  0.25500000920E-02 0.  1.
    10030    2    1    2    0    0  0.00000000000E+00  0.00000000000E+00 -0.43294227785E+03  0.82878247390E+03  0.70671166193E+03 0.  0.
        3    1    3    3  502    0 -0.21721191742E+03  0.13071693480E+03  0.72202664475E+02  0.26359280922E+03  0.10100000352E+00 0. -1.
       -3    1    3    3    0  502  0.21721191742E+03 -0.13071693480E+03 -0.50514494232E+03  0.56518966469E+03  0.10100000352E+00 0.  1.
</event>
<event>
 5   0  0.4503289E-02  0.7168449E+03  0.7818609E-02  0.9688851E-01
       -2   -1    0    0    0  501  0.00000000000E+00  0.00000000000E+00  0.39795796605E+03  0.39795796606E+03  0.25500000920E-02 0. -1.
        2   -1    0    0  501    0  0.00000000000E+00  0.00000000000E+00 -0.32281460690E+03  0.32281460691E+03  0.25500000920E-02 0.  1.
    10030    2    1    2    0    0  0.00000000000E+00  0.00000000000E+00  0.75143359159E+02  0.72077257297E+03  0.71684487689E+03 0.  0.
        2    1    3    3  502    0  0.79215396561E+01 -0.34608715787E+03  0.13096533659E+03  0.37012294042E+03  0.25500000920E-02 0. -1.
       -2    1    3    3    0  502 -0.79215396561E+01  0.34608715787E+03 -0.55821977426E+02  0.35064963254E+03  0.25500000920E-02 0.  1.
</event>
<event>
 5   0  0.2684924E-02  0.6999943E+03  0.7818609E-02  0.9717242E-01
        1   -1    0    0  501    0  0.00000000000E+00  0.00000000000E+00  0.13961448834E+04  0.13961448834E+04  0.50400001928E-02 0. -1.
       -1   -1    0    0    0  501  0.00000000000E+00  0.00000000000E+00 -0.87740177056E+02  0.87740177200E+02  0.50400001928E-02 0.  1.
    10030    2    1    2    0    0  0.00000000000E+00  0.00000000000E+00  0.13084047063E+04  0.14838850606E+04  0.69999428390E+03 0.  0.
        4    1    3    3  502    0 -0.27758487505E+03 -0.17642377518E+03  0.90785653194E+03  0.96560023135E+03  0.12699999809E+01 0. -1.
       -4    1    3    3    0  502  0.27758487505E+03  0.17642377518E+03  0.40054817436E+03  0.51828482921E+03  0.12699999809E+01 0.  1.
</event>
<event>
 5   0  0.4526837E-02  0.6992365E+03  0.7818609E-02  0.9718539E-01
        2   -1    0    0  501    0  0.00000000000E+00  0.00000000000E+00  0.97311941573E+03  0.97311941573E+03  0.25500000920E-02 0. -1.
       -2   -1    0    0    0  501  0.00000000000E+00  0.00000000000E+00 -0.12560937696E+03  0.12560937699E+03  0.25500000920E-02 0.  1.
    10030    2    1    2    0    0  0.00000000000E+00  0.00000000000E+00  0.84751003877E+03  0.10987287927E+04  0.69923650801E+03 0.  0.
        1    1    3    3  502    0  0.21694136858E+03 -0.23003209126E+03  0.65816512844E+03  0.73017782542E+03  0.50400001928E-02 0. -1.
       -1    1    3    3    0  502 -0.21694136858E+03  0.23003209126E+03  0.18934491033E+03  0.36855096730E+03  0.50400001928E-02 0.  1.
</event>
<event>
 5   0  0.4503289E-02  0.6980692E+03  0.7818609E-02  0.9720540E-01
       -2   -1    0    0    0  501  0.00000000000E+00  0.00000000000E+00  0.35133265737E+03  0.35133265738E+03  0.25500000920E-02 0. -1.
        2   -1    0    0  501    0  0.00000000000E+00  0.00000000000E+00 -0.34675160704E+03  0.34675160705E+03  0.25500000920E-02 0.  1.
    10030    2    1    2    0    0  0.00000000000E+00  0.00000000000E+00  0.45810503367E+01  0.69808426443E+03  0.69806923311E+03 0.  0.
        2    1    3    3  502    0  0.10087503085E+03  0.83111845013E+02  0.32593589238E+03  0.35116599576E+03  0.25500000920E-02 0. -1.
       -2    1    3    3    0  502 -0.10087503085E+03 -0.83111845013E+02 -0.32135484204E+03  0.34691826867E+03  0.25500000920E-02 0.  1.
</event>
<event>
 5   0  0.4526837E-02  0.6956231E+03  0.7818609E-02  0.9724747E-01
        2   -1    0    0  501    0  0.00000000000E+00  0.00000000000E+00  0.35039198499E+03  0.35039198500E+03  0.25500000920E-02 0.  1.
       -2   -1    0    0    0  501  0.00000000000E+00  0.00000000000E+00 -0.34525011606E+03  0.34525011607E+03  0.25500000920E-02 0. -1.
    10030    2    1    2    0    0  0.00000000000E+00  0.00000000000E+00  0.51418689323E+01  0.69564210106E+03  0.69562309763E+03 0.  0.
        1    1    3    3  502    0  0.73324608577E+00 -0.23055663776E+03 -0.25785118042E+03  0.34589612911E+03  0.50400001928E-02 0. -1.
       -1    1    3    3    0  502 -0.73324608577E+00  0.23055663776E+03  0.26299304935E+03  0.34974597195E+03  0.50400001928E-02 0.  1.
</event>
<event>
 5   0  0.4299912E-02  0.7040237E+03  0.7818609E-02  0.9710376E-01
       -2   -1    0    0    0  501  0.00000000000E+00  0.00000000000E+00  0.13175647110E+03  0.13175647112E+03  0.25500000920E-02 0.  1.
        2   -1    0    0  501    0  0.00000000000E+00  0.00000000000E+00 -0.94046493416E+03  0.94046493417E+03  0.25500000920E-02 0. -1.
    10030    2    1    2    0    0  0.00000000000E+00  0.00000000000E+00 -0.80870846307E+03  0.10722214053E+04  0.70402369543E+03 0.  0.
        3    1    3    3  502    0 -0.51063280197E+02  0.91811477199E+02  0.10732417286E+03  0.15018420094E+03  0.10100000352E+00 0.  1.
       -3    1    3    3    0  502  0.51063280197E+02 -0.91811477199E+02 -0.91603263593E+03  0.92203720435E+03  0.10100000352E+00 0. -1.
</event>
<event>
 5   0  0.1784625E-02  0.7443145E+03  0.7818609E-02  0.9644312E-01
       -4   -1    0    0    0  501  0.00000000000E+00  0.00000000000E+00  0.70898918730E+03  0.70899032476E+03  0.12699999809E+01 0.  1.
        4   -1    0    0  501    0  0.00000000000E+00  0.00000000000E+00 -0.19534661373E+03  0.19535074199E+03  0.12699999809E+01 0. -1.
    10030    2    1    2    0    0  0.00000000000E+00  0.00000000000E+00  0.51364257357E+03  0.90434106675E+03  0.74431449779E+03 0.  0.
        1    1    3    3  502    0 -0.10603389870E+02 -0.40971647496E+02  0.70605855068E+03  0.70732579819E+03  0.50400001928E-02 0.  1.
       -1    1    3    3    0  502  0.10603389870E+02  0.40971647496E+02 -0.19241597710E+03  0.19701526856E+03  0.50400001928E-02 0. -1.
</event>
<event>
 5   0  0.4526837E-02  0.7147862E+03  0.7818609E-02  0.9692275E-01
        2   -1    0    0  501    0  0.00000000000E+00  0.00000000000E+00  0.10661867512E+04  0.10661867512E+04  0.25500000920E-02 0.  1.
       -2   -1    0    0    0  501  0.00000000000E+00  0.00000000000E+00 -0.11980061437E+03  0.11980061440E+03  0.25500000920E-02 0. -1.
    10030    2    1    2    0    0  0.00000000000E+00  0.00000000000E+00  0.94638613682E+03  0.11859873656E+04  0.71478619978E+03 0.  0.
        1    1    3    3  502    0 -0.24679394891E+03  0.18294824994E+03  0.17017524043E+03  0.35119357605E+03  0.50400001928E-02 0. -1.
       -1    1    3    3    0  502  0.24679394891E+03 -0.18294824994E+03  0.77621089639E+03  0.83479378955E+03  0.50400001928E-02 0.  1.
</event>
<event>
 5   0  0.4365492E-02  0.7030029E+03  0.7818609E-02  0.9712111E-01
       -2   -1    0    0    0  501  0.00000000000E+00  0.00000000000E+00  0.15664144264E+03  0.15664144266E+03  0.25500000920E-02 0. -1.
        2   -1    0    0  501    0  0.00000000000E+00  0.00000000000E+00 -0.78876495752E+03  0.78876495752E+03  0.25500000920E-02 0.  1.
    10030    2    1    2    0    0  0.00000000000E+00  0.00000000000E+00 -0.63212351488E+03  0.94540640018E+03  0.70300293274E+03 0.  0.
        4    1    3    3  502    0  0.28129365745E+03 -0.17381686559E+03 -0.15573426538E+03  0.36550403390E+03  0.12699999809E+01 0. -1.
       -4    1    3    3    0  502 -0.28129365745E+03  0.17381686559E+03 -0.47638924950E+03  0.57990236628E+03  0.12699999809E+01 0.  1.
</event>
<event>
 5   0  0.2751729E-02  0.7021870E+03  0.7818609E-02  0.9713499E-01
        1   -1    0    0  501    0  0.00000000000E+00  0.00000000000E+00  0.11998753078E+04  0.11998753078E+04  0.50400001928E-02 0. -1.
       -1   -1    0    0    0  501  0.00000000000E+00  0.00000000000E+00 -0.10273288536E+03  0.10273288548E+03  0.50400001928E-02 0.  1.
    10030    2    1    2    0    0  0.00000000000E+00  0.00000000000E+00  0.10971424224E+04  0.13026081933E+04  0.70218701933E+03 0.  0.
        1    1    3    3  502    0 -0.11333699480E+03 -0.18317015038E+02 -0.66926990594E+02  0.13289096857E+03  0.50400001928E-02 0.  1.
       -1    1    3    3    0  502  0.11333699480E+03  0.18317015038E+02  0.11640694130E+04  0.11697172247E+04  0.50400001928E-02 0. -1.
</event>
<event>
 5   0  0.2750139E-02  0.7002139E+03  0.7818609E-02  0.9716867E-01
        1   -1    0    0  501    0  0.00000000000E+00  0.00000000000E+00  0.12088057981E+04  0.12088057981E+04  0.50400001928E-02 0. -1.
       -1   -1    0    0    0  501  0.00000000000E+00  0.00000000000E+00 -0.10140161543E+03  0.10140161555E+03  0.50400001928E-02 0.  1.
    10030    2    1    2    0    0  0.00000000000E+00  0.00000000000E+00  0.11074041827E+04  0.13102074137E+04  0.70021385520E+03 0.  0.
        2    1    3    3  502    0  0.28978560603E+03  0.14821877962E+03  0.79500365387E+03  0.85905489567E+03  0.25500000920E-02 0. -1.
       -2    1    3    3    0  502 -0.28978560603E+03 -0.14821877962E+03  0.31240052881E+03  0.45115251800E+03  0.25500000920E-02 0.  1.
</event>
<event>
 5   0  0.2777999E-02  0.6977457E+03  0.7818609E-02  0.9721095E-01
        1   -1    0    0  501    0  0.00000000000E+00  0.00000000000E+00  0.53152810965E+03  0.53152810968E+03  0.50400001928E-02 0. -1.
       -1   -1    0    0    0  501  0.00000000000E+00  0.00000000000E+00 -0.22898558434E+03  0.22898558440E+03  0.50400001928E-02 0.  1.
    10030    2    1    2    0    0  0.00000000000E+00  0.00000000000E+00  0.30254252531E+03  0.76051369408E+03  0.69774572679E+03 0.  0.
        5    1    3    3  502    0 -0.24618220005E+03  0.15961143541E+03 -0.54406768156E+02  0.29843537383E+03  0.46999998093E+01 0.  1.
       -5    1    3    3    0  502  0.24618220005E+03 -0.15961143541E+03  0.35694929347E+03  0.46207832025E+03  0.46999998093E+01 0. -1.
</event>
<event>
 5   0  0.2777999E-02  0.6953900E+03  0.7818609E-02  0.9725149E-01
        1   -1    0    0  501    0  0.00000000000E+00  0.00000000000E+00  0.13237458028E+04  0.13237458029E+04  0.50400001928E-02 0. -1.
       -1   -1    0    0    0  501  0.00000000000E+00  0.00000000000E+00 -0.91325542779E+02  0.91325542918E+02  0.50400001928E-02 0.  1.
    10030    2    1    2    0    0  0.00000000000E+00  0.00000000000E+00  0.12324202601E+04  0.14150713458E+04  0.69538997419E+03 0.  0.
        5    1    3    3  502    0  0.97896080436E+02  0.18641952360E+03  0.53251289797E+02  0.21724104402E+03  0.46999998093E+01 0.  1.
       -5    1    3    3    0  502 -0.97896080436E+02 -0.18641952360E+03  0.11791689703E+04  0.11978303017E+04  0.46999998093E+01 0. -1.
</event>
<event>
 5   0  0.2751729E-02  0.7043680E+03  0.7818609E-02  0.9709791E-01
        1   -1    0    0  501    0  0.00000000000E+00  0.00000000000E+00  0.11655756173E+04  0.11655756173E+04  0.50400001928E-02 0. -1.
       -1   -1    0    0    0  501  0.00000000000E+00  0.00000000000E+00 -0.10641399032E+03  0.10641399044E+03  0.50400001928E-02 0.  1.
    10030    2    1    2    0    0  0.00000000000E+00  0.00000000000E+00  0.10591616270E+04  0.12719896077E+04  0.70436795082E+03 0.  0.
        1    1    3    3  502    0 -0.24201537094E+02  0.13469401720E+03 -0.56434836437E+02  0.14803068417E+03  0.50400001928E-02 0.  1.
       -1    1    3    3    0  502  0.24201537094E+02 -0.13469401720E+03  0.11155964634E+04  0.11239589236E+04  0.50400001928E-02 0. -1.
</event>
<event>
 5   0  0.4365492E-02  0.7083636E+03  0.7818609E-02  0.9703035E-01
        2   -1    0    0  501    0  0.00000000000E+00  0.00000000000E+00  0.50986397415E+03  0.50986397415E+03  0.25500000920E-02 0.  1.
       -2   -1    0    0    0  501  0.00000000000E+00  0.00000000000E+00 -0.24603568274E+03  0.24603568275E+03  0.25500000920E-02 0. -1.
    10030    2    1    2    0    0  0.00000000000E+00  0.00000000000E+00  0.26382829141E+03  0.75589965690E+03  0.70836355352E+03 0.  0.
        4    1    3    3  502    0 -0.11036828886E+03 -0.13515268173E+03 -0.19698287562E+03  0.26315636559E+03  0.12699999809E+01 0. -1.
       -4    1    3    3    0  502  0.11036828886E+03  0.13515268173E+03  0.46081116703E+03  0.49274329131E+03  0.12699999809E+01 0.  1.
</event>
<event>
 5   0  0.2751729E-02  0.6999922E+03  0.7818609E-02  0.9717246E-01
       -1   -1    0    0    0  501  0.00000000000E+00  0.00000000000E+00  0.73982897417E+02  0.73982897589E+02  0.50400001928E-02 0. -1.
        1   -1    0    0  501    0  0.00000000000E+00  0.00000000000E+00 -0.16557509575E+04  0.16557509575E+04  0.50400001928E-02 0.  1.
    10030    2    1    2    0    0  0.00000000000E+00  0.00000000000E+00 -0.15817680601E+04  0.17297338551E+04  0.69999215251E+03 0.  0.
        1    1    3    3  502    0  0.27296357007E+03  0.19561790264E+03 -0.54723819856E+03  0.64206317477E+03  0.50400001928E-02 0. -1.
       -1    1    3    3    0  502 -0.27296357007E+03 -0.19561790264E+03 -0.10345298615E+04  0.10876706803E+04  0.50400001928E-02 0.  1.
</event>
<event>
 5   0  0.4420645E-02  0.7041733E+03  0.7818609E-02  0.9710122E-01
       -2   -1    0    0    0  501  0.00000000000E+00  0.00000000000E+00  0.62823634192E+03  0.62823634193E+03  0.25500000920E-02 0.  1.
        2   -1    0    0  501    0  0.00000000000E+00  0.00000000000E+00 -0.19732227611E+03  0.19732227612E+03  0.25500000920E-02 0. -1.
    10030    2    1    2    0    0  0.00000000000E+00  0.00000000000E+00  0.43091406582E+03  0.82555861805E+03  0.70417334494E+03 0.  0.
        5    1    3    3  502    0 -0.34556231304E+02 -0.67687102123E+02  0.61846804459E+03  0.62313761650E+03  0.46999998093E+01 0.  1.
       -5    1    3    3    0  502  0.34556231304E+02  0.67687102123E+02 -0.18755397878E+03  0.20242100155E+03  0.46999998093E+01 0. -1.
</event>
<event>
 5   0  0.4420645E-02  0.7248736E+03  0.7818609E-02  0.9675616E-01
        2   -1    0    0  501    0  0.00000000000E+00  0.00000000000E+00  0.15142322230E+04  0.15142322230E+04  0.25500000920E-02 0.  1.
       -2   -1    0    0    0  501  0.00000000000E+00  0.00000000000E+00 -0.86750528356E+02  0.86750528393E+02  0.25500000920E-02 0. -1.
    10030    2    1    2    0    0  0.00000000000E+00  0.00000000000E+00  0.14274816946E+04  0.16009827514E+04  0.72487363155E+03 0.  0.
        5    1    3    3  502    0 -0.18759784577E+03 -0.28015292800E+03  0.10072465281E+04  0.10621893773E+04  0.46999998093E+01 0.  1.
       -5    1    3    3    0  502  0.18759784577E+03  0.28015292800E+03  0.42023516652E+03  0.53879337411E+03  0.46999998093E+01 0. -1.
</event>
<event>
 5   0  0.4420645E-02  0.7089567E+03  0.7818609E-02  0.9702036E-01
        2   -1    0    0  501    0  0.00000000000E+00  0.00000000000E+00  0.68397809338E+03  0.68397809338E+03  0.25500000920E-02 0. -1.
       -2   -1    0    0    0  501  0.00000000000E+00  0.00000000000E+00 -0.18371188823E+03  0.18371188825E+03  0.25500000920E-02 0.  1.
    10030    2    1    2    0    0  0.00000000000E+00  0.00000000000E+00  0.50026620515E+03  0.86768998163E+03  0.70895671815E+03 0.  0.
        5    1    3    3  502    0  0.24672397597E+03 -0.93678792950E+02  0.53971959405E+03  0.60080593104E+03  0.46999998093E+01 0. -1.
       -5    1    3    3    0  502 -0.24672397597E+03  0.93678792950E+02 -0.39453388905E+02  0.26688405059E+03  0.46999998093E+01 0.  1.
</event>
<event>
 5   0  0.4503289E-02  0.6811698E+03  0.7818609E-02  0.9749987E-01
       -2   -1    0    0    0  501  0.00000000000E+00  0.00000000000E+00  0.16284315596E+03  0.16284315598E+03  0.25500000920E-02 0.  1.
        2   -1    0    0  501    0  0.00000000000E+00  0.00000000000E+00 -0.71233014952E+03  0.71233014953E+03  0.25500000920E-02 0. -1.
    10030    2    1    2    0    0  0.00000000000E+00  0.00000000000E+00 -0.54948699357E+03  0.87517330550E+03  0.68116984561E+03 0.  0.
        2    1    3    3  502    0  0.25188170844E+03 -0.16807189080E+03 -0.74438753914E+02  0.31182316081E+03  0.25500000920E-02 0.  1.
       -2    1    3    3    0  502 -0.25188170844E+03  0.16807189080E+03 -0.47504823965E+03  0.56335014470E+03  0.25500000920E-02 0. -1.
</event>
<event>
 5   0  0.2684924E-02  0.7010356E+03  0.7818609E-02  0.9715463E-01
        1   -1    0    0  501    0  0.00000000000E+00  0.00000000000E+00  0.38188578197E+03  0.38188578200E+03  0.50400001928E-02 0. -1.
       -1   -1    0    0    0  501  0.00000000000E+00  0.00000000000E+00 -0.32172641313E+03  0.32172641317E+03  0.50400001928E-02 0.  1.
    10030    2    1    2    0    0  0.00000000000E+00  0.00000000000E+00  0.60159368837E+02  0.70361219517E+03  0.70103564212E+03 0.  0.
        4    1    3    3  502    0  0.22665600858E+03  0.23347843216E+03 -0.10069118540E+03  0.34062509043E+03  0.12699999809E+01 0.  1.
       -4    1    3    3    0  502 -0.22665600858E+03 -0.23347843216E+03  0.16085055423E+03  0.36298710474E+03  0.12699999809E+01 0. -1.
</event>
<event>
 5   0  0.4526837E-02  0.7339599E+03  0.7818609E-02  0.9660856E-01
        2   -1    0    0  501    0  0.00000000000E+00  0.00000000000E+00  0.17279596743E+04  0.17279596743E+04  0.25500000920E-02 0.  1.
       -2   -1    0    0    0  501  0.00000000000E+00  0.00000000000E+00 -0.77938325976E+02  0.77938326018E+02  0.25500000920E-02 0. -1.
    10030    2    1    2    0    0  0.00000000000E+00  0.00000000000E+00  0.16500213483E+04  0.18058980003E+04  0.73395990193E+03 0.  0.
        1    1    3    3  502    0  0.44066351057E+02  0.72458904980E+02 -0.53497020365E+02  0.10026997267E+03  0.50400001928E-02 0. -1.
       -1    1    3    3    0  502 -0.44066351057E+02 -0.72458904980E+02  0.17035183687E+04  0.17056280277E+04  0.50400001928E-02 0.  1.
</event>
<event>
 5   0  0.4420645E-02  0.7066949E+03  0.7818609E-02  0.9705851E-01
       -2   -1    0    0    0  501  0.00000000000E+00  0.00000000000E+00  0.57055671734E+02  0.57055671791E+02  0.25500000920E-02 0. -1.
        2   -1    0    0  501    0  0.00000000000E+00  0.00000000000E+00 -0.21882912018E+04  0.21882912018E+04  0.25500000920E-02 0.  1.
    10030    2    1    2    0    0  0.00000000000E+00  0.00000000000E+00 -0.21312355301E+04  0.22453468736E+04  0.70669491164E+03 0.  0.
        5    1    3    3  502    0  0.99338838582E+02 -0.26024121572E+03 -0.37505975334E+03  0.46721044914E+03  0.46999998093E+01 0. -1.
       -5    1    3    3    0  502 -0.99338838582E+02  0.26024121572E+03 -0.17561757767E+04  0.17781364245E+04  0.46999998093E+01 0.  1.
</event>
<event>
 5   0  0.4365492E-02  0.6979645E+03  0.7818609E-02  0.9720719E-01
       -2   -1    0    0    0  501  0.00000000000E+00  0.00000000000E+00  0.14449801883E+03  0.14449801885E+03  0.25500000920E-02 0. -1.
        2   -1    0    0  501    0  0.00000000000E+00  0.00000000000E+00 -0.84283933230E+03  0.84283933230E+03  0.25500000920E-02 0.  1.
    10030    2    1    2    0    0  0.00000000000E+00  0.00000000000E+00 -0.69834131346E+03  0.98733735115E+03  0.69796450833E+03 0.  0.
        4    1    3    3  502    0 -0.18728319324E+02  0.93408348755E+01 -0.84194754172E+03  0.84220857099E+03  0.12699999809E+01 0.  1.
       -4    1    3    3    0  502  0.18728319324E+02 -0.93408348755E+01  0.14360622825E+03  0.14512878017E+03  0.12699999809E+01 0. -1.
</event>
<event>
 5   0  0.4299912E-02  0.6494951E+03  0.7818609E-02  0.9807727E-01
       -2   -1    0    0    0  501  0.00000000000E+00  0.00000000000E+00  0.14548375526E+03  0.14548375528E+03  0.25500000920E-02 0. -1.
        2   -1    0    0  501    0  0.00000000000E+00  0.00000000000E+00 -0.72489859415E+03  0.72489859415E+03  0.25500000920E-02 0.  1.
    10030    2    1    2    0    0  0.00000000000E+00  0.00000000000E+00 -0.57941483889E+03  0.87038234943E+03  0.64949509520E+03 0.  0.
        3    1    3    3  502    0  0.28654905066E+03  0.37875881609E+02 -0.48809525081E+03  0.56725825239E+03  0.10100000352E+00 0.  1.
       -3    1    3    3    0  502 -0.28654905066E+03 -0.37875881609E+02 -0.91319588080E+02  0.30312409705E+03  0.10100000352E+00 0. -1.
</event>
<event>
 5   0  0.4420645E-02  0.6971891E+03  0.7818609E-02  0.9722051E-01
        2   -1    0    0  501    0  0.00000000000E+00  0.00000000000E+00  0.12704865732E+04  0.12704865732E+04  0.25500000920E-02 0. -1.
       -2   -1    0    0    0  501  0.00000000000E+00  0.00000000000E+00 -0.95646941309E+02  0.95646941343E+02  0.25500000920E-02 0.  1.
    10030    2    1    2    0    0  0.00000000000E+00  0.00000000000E+00  0.11748396319E+04  0.13661335145E+04  0.69718908404E+03 0.  0.
        5    1    3    3  502    0  0.17822167990E+03  0.21212925623E+02  0.11729202485E+04  0.11865820472E+04  0.46999998093E+01 0. -1.
       -5    1    3    3    0  502 -0.17822167990E+03 -0.21212925623E+02  0.19193834003E+01  0.17955146735E+03  0.46999998093E+01 0.  1.
</event>
<event>
 5   0  0.2684924E-02  0.7063550E+03  0.7818609E-02  0.9706426E-01
        1   -1    0    0  501    0  0.00000000000E+00  0.00000000000E+00  0.48230800342E+03  0.48230800345E+03  0.50400001928E-02 0. -1.
       -1   -1    0    0    0  501  0.00000000000E+00  0.00000000000E+00 -0.25861970621E+03  0.25861970626E+03  0.50400001928E-02 0.  1.
    10030    2    1    2    0    0  0.00000000000E+00  0.00000000000E+00  0.22368829721E+03  0.74092770971E+03  0.70635502172E+03 0.  0.
        4    1    3    3  502    0  0.37699019564E+01 -0.34941978381E+03  0.58108417198E+02  0.35424087642E+03  0.12699999809E+01 0. -1.
       -4    1    3    3    0  502 -0.37699019564E+01  0.34941978381E+03  0.16557988001E+03  0.38668683329E+03  0.12699999809E+01 0.  1.
</event>
<event>
 5   0  0.2758681E-02  0.7232844E+03  0.7818609E-02  0.9678221E-01
       -1   -1    0    0    0  501  0.00000000000E+00  0.00000000000E+00  0.18959184814E+03  0.18959184821E+03  0.50400001928E-02 0.  1.
        1   -1    0    0  501    0  0.00000000000E+00  0.00000000000E+00 -0.68982437946E+03  0.68982437948E+03  0.50400001928E-02 0. -1.
    10030    2    1    2    0    0  0.00000000000E+00  0.00000000000E+00 -0.50023253132E+03  0.87941622769E+03  0.72328439506E+03 0.  0.
        3    1    3    3  502    0 -0.33529240505E+03  0.11396698714E+03 -0.16097090153E+03  0.38900014445E+03  0.10100000352E+00 0. -1.
       -3    1    3    3    0  502  0.33529240505E+03 -0.11396698714E+03 -0.33926162980E+03  0.49041608324E+03  0.10100000352E+00 0.  1.
</event>
<event>
 5   0  0.2777999E-02  0.6686331E+03  0.7818609E-02  0.9772430E-01
       -1   -1    0    0    0  501  0.00000000000E+00  0.00000000000E+00  0.63933992495E+02  0.63933992694E+02  0.50400001928E-02 0. -1.
        1   -1    0    0  501    0  0.00000000000E+00  0.00000000000E+00 -0.17481710937E+04  0.17481710938E+04  0.50400001928E-02 0.  1.
    10030    2    1    2    0    0  0.00000000000E+00  0.00000000000E+00 -0.16842371013E+04  0.18121050864E+04  0.66863310649E+03 0.  0.
        5    1    3    3  502    0 -0.28982459703E+03  0.13628021608E+03 -0.58252401644E+03  0.66477583746E+03  0.46999998093E+01 0. -1.
       -5    1    3    3    0  502  0.28982459703E+03 -0.13628021608E+03 -0.11017130848E+04  0.11473292490E+04  0.46999998093E+01 0.  1.
</event>
<event>
 5   0  0.4526837E-02  0.7888491E+03  0.7818609E-02  0.9576299E-01
       -2   -1    0    0    0  501  0.00000000000E+00  0.00000000000E+00  0.71072626486E+02  0.71072626532E+02  0.25500000920E-02 0.  1.
        2   -1    0    0  501    0  0.00000000000E+00  0.00000000000E+00 -0.21888979306E+04  0.21888979306E+04  0.25500000920E-02 0. -1.
    10030    2    1    2    0    0  0.00000000000E+00  0.00000000000E+00 -0.21178253042E+04  0.22599705572E+04  0.78884909861E+03 0.  0.
        1    1    3    3  502    0 -0.23018095249E+02 -0.34637764041E+03 -0.52245431315E+03  0.62726853248E+03  0.50400001928E-02 0.  1.
       -1    1    3    3    0  502  0.23018095249E+02  0.34637764041E+03 -0.15953709910E+04  0.16327020247E+04  0.50400001928E-02 0. -1.
</event>
<event>
 5   0  0.4420645E-02  0.6946748E+03  0.7818609E-02  0.9726383E-01
       -2   -1    0    0    0  501  0.00000000000E+00  0.00000000000E+00  0.31869100934E+03  0.31869100935E+03  0.25500000920E-02 0.  1.
        2   -1    0    0  501    0  0.00000000000E+00  0.00000000000E+00 -0.37855877338E+03  0.37855877339E+03  0.25500000920E-02 0. -1.
    10030    2    1    2    0    0  0.00000000000E+00  0.00000000000E+00 -0.59867764045E+02  0.69724978274E+03  0.69467482347E+03 0.  0.
        5    1    3    3  502    0  0.35468202845E+02 -0.34356885262E+03  0.65828067528E+01  0.34548946908E+03  0.46999998093E+01 0.  1.
       -5    1    3    3    0  502 -0.35468202845E+02  0.34356885262E+03 -0.66450570797E+02  0.35176031366E+03  0.46999998093E+01 0. -1.
</event>
<event>
 5   0  0.2777999E-02  0.6974406E+03  0.7818609E-02  0.9721619E-01
        1   -1    0    0  501    0  0.00000000000E+00  0.00000000000E+00  0.10581110002E+04  0.10581110002E+04  0.50400001928E-02 0. -1.
       -1   -1    0    0    0  501  0.00000000000E+00  0.00000000000E+00 -0.11492729076E+03  0.11492729087E+03  0.50400001928E-02 0.  1.
    10030    2    1    2    0    0  0.00000000000E+00  0.00000000000E+00  0.94318370943E+03  0.11730382911E+04  0.69744055128E+03 0.  0.
        5    1    3    3  502    0 -0.12754152663E+03  0.19577911761E+03  0.36278817693E+02  0.23650485517E+03  0.46999998093E+01 0.  1.
       -5    1    3    3    0  502  0.12754152663E+03 -0.19577911761E+03  0.90690489174E+03  0.93653343590E+03  0.46999998093E+01 0. -1.
</event>
<event>
 5   0  0.2751729E-02  0.6895845E+03  0.7818609E-02  0.9735212E-01
        1   -1    0    0  501    0  0.00000000000E+00  0.00000000000E+00  0.17029135416E+04  0.17029135416E+04  0.50400001928E-02 0.  1.
       -1   -1    0    0    0  501  0.00000000000E+00  0.00000000000E+00 -0.69810759653E+02  0.69810759835E+02  0.50400001928E-02 0. -1.
    10030    2    1    2    0    0  0.00000000000E+00  0.00000000000E+00  0.16331027819E+04  0.17727243014E+04  0.68958447815E+03 0.  0.
        1    1    3    3  502    0  0.30096772195E+03 -0.34223097262E+02  0.39313292176E+03  0.49629253898E+03  0.50400001928E-02 0. -1.
       -1    1    3    3    0  502 -0.30096772195E+03  0.34223097262E+02  0.12399698602E+04  0.12764317624E+04  0.50400001928E-02 0.  1.
</event>
<event>
 5   0  0.4365492E-02  0.6943824E+03  0.7818609E-02  0.9726887E-01
       -2   -1    0    0    0  501  0.00000000000E+00  0.00000000000E+00  0.12924527715E+03  0.12924527718E+03  0.25500000920E-02 0. -1.
        2   -1    0    0  501    0  0.00000000000E+00  0.00000000000E+00 -0.93265880325E+03  0.93265880325E+03  0.25500000920E-02 0.  1.
    10030    2    1    2    0    0  0.00000000000E+00  0.00000000000E+00 -0.80341352610E+03  0.10619040804E+04  0.69438244658E+03 0.  0.
        4    1    3    3  502    0  0.17675097654E+03  0.29562021796E+03 -0.33490842049E+03  0.48041386740E+03  0.12699999809E+01 0. -1.
       -4    1    3    3    0  502 -0.17675097654E+03 -0.29562021796E+03 -0.46850510561E+03  0.58149021304E+03  0.12699999809E+01 0.  1.
</event>
<event>
 5   0  0.2684924E-02  0.6977726E+03  0.7818609E-02  0.9721049E-01
        1   -1    0    0  501    0  0.00000000000E+00  0.00000000000E+00  0.69192634213E+03  0.69192634215E+03  0.50400001928E-02 0. -1.
       -1   -1    0    0    0  501  0.00000000000E+00  0.00000000000E+00 -0.17591706631E+03  0.17591706638E+03  0.50400001928E-02 0.  1.
    10030    2    1    2    0    0  0.00000000000E+00  0.00000000000E+00  0.51600927582E+03  0.86784340852E+03  0.69777260550E+03 0.  0.
        4    1    3    3  502    0 -0.65890986859E+02  0.30749950977E+03  0.70112432458E+02  0.32220325377E+03  0.12699999809E+01 0.  1.
       -4    1    3    3    0  502  0.65890986859E+02 -0.30749950977E+03  0.44589684336E+03  0.54564015475E+03  0.12699999809E+01 0. -1.
</event>
<event>
 5   0  0.4365492E-02  0.7084701E+03  0.7818609E-02  0.9702856E-01
        2   -1    0    0  501    0  0.00000000000E+00  0.00000000000E+00  0.12751156231E+04  0.12751156231E+04  0.25500000920E-02 0.  1.
       -2   -1    0    0    0  501  0.00000000000E+00  0.00000000000E+00 -0.98408696006E+02  0.98408696039E+02  0.25500000920E-02 0. -1.
    10030    2    1    2    0    0  0.00000000000E+00  0.00000000000E+00  0.11767069271E+04  0.13735243191E+04  0.70847008617E+03 0.  0.
        4    1    3    3  502    0 -0.92423712149E+02 -0.10830532744E+03  0.12171940923E+04  0.12254938832E+04  0.12699999809E+01 0.  1.
       -4    1    3    3    0  502  0.92423712149E+02  0.10830532744E+03 -0.40487165210E+02  0.14803043594E+03  0.12699999809E+01 0. -1.
</event>
<event>
 5   0  0.4526837E-02  0.6882927E+03  0.7818609E-02  0.9737465E-01
        2   -1    0    0  501    0  0.00000000000E+00  0.00000000000E+00  0.50938471533E+03  0.50938471533E+03  0.25500000920E-02 0.  1.
       -2   -1    0    0    0  501  0.00000000000E+00  0.00000000000E+00 -0.23250936576E+03  0.23250936578E+03  0.25500000920E-02 0. -1.
    10030    2    1    2    0    0  0.00000000000E+00  0.00000000000E+00  0.27687534956E+03  0.74189408111E+03  0.68829271999E+03 0.  0.
        1    1    3    3  502    0  0.19158522100E+03  0.65835709039E+02 -0.16143171737E+03  0.25903559000E+03  0.50400001928E-02 0. -1.
       -1    1    3    3    0  502 -0.19158522100E+03 -0.65835709039E+02  0.43830706693E+03  0.48285849111E+03  0.50400001928E-02 0.  1.
</event>
<event>
 5   0  0.4420645E-02  0.6992525E+03  0.7818609E-02  0.9718511E-01
       -2   -1    0    0    0  501  0.00000000000E+00  0.00000000000E+00  0.11849440412E+03  0.11849440415E+03  0.25500000920E-02 0.  1.
        2   -1    0    0  501    0  0.00000000000E+00  0.00000000000E+00 -0.10315972622E+04  0.10315972622E+04  0.25500000920E-02 0. -1.
    10030    2    1    2    0    0  0.00000000000E+00  0.00000000000E+00 -0.91310285810E+03  0.11500916664E+04  0.69925246629E+03 0.  0.
        5    1    3    3  502    0 -0.23368680180E+02 -0.28137891527E+03 -0.79560913529E+03  0.84423703740E+03  0.46999998093E+01 0.  1.
       -5    1    3    3    0  502  0.23368680180E+02  0.28137891527E+03 -0.11749372281E+03  0.30585462898E+03  0.46999998093E+01 0. -1.
</event>
<event>
 5   0  0.2751729E-02  0.6954765E+03  0.7818609E-02  0.9724999E-01
        1   -1    0    0  501    0  0.00000000000E+00  0.00000000000E+00  0.77887518914E+03  0.77887518916E+03  0.50400001928E-02 0. -1.
       -1   -1    0    0    0  501  0.00000000000E+00  0.00000000000E+00 -0.15525194833E+03  0.15525194841E+03  0.50400001928E-02 0.  1.
    10030    2    1    2    0    0  0.00000000000E+00  0.00000000000E+00  0.62362324082E+03  0.93412713757E+03  0.69547650043E+03 0.  0.
        1    1    3    3  502    0  0.24845952198E+02  0.10657145375E+03  0.75514594297E+03  0.76303354534E+03  0.50400001928E-02 0. -1.
       -1    1    3    3    0  502 -0.24845952198E+02 -0.10657145375E+03 -0.13152270215E+03  0.17109359223E+03  0.50400001928E-02 0.  1.
</event>
<event>
 5   0  0.2777999E-02  0.6885501E+03  0.7818609E-02  0.9737016E-01
        1   -1    0    0  501    0  0.00000000000E+00  0.00000000000E+00  0.58588887077E+03  0.58588887079E+03  0.50400001928E-02 0. -1.
       -1   -1    0    0    0  501  0.00000000000E+00  0.00000000000E+00 -0.20229999280E+03  0.20229999287E+03  0.50400001928E-02 0.  1.
    10030    2    1    2    0    0  0.00000000000E+00  0.00000000000E+00  0.38358887796E+03  0.78818886366E+03  0.68855011255E+03 0.  0.
        5    1    3    3  502    0 -0.21909345903E+03  0.47012277504E+02  0.49093608476E+03  0.53967807751E+03  0.46999998093E+01 0. -1.
       -5    1    3    3    0  502  0.21909345903E+03 -0.47012277504E+02 -0.10734720680E+03  0.24851078614E+03  0.46999998093E+01 0.  1.
</event>
<event>
 5   0  0.4365492E-02  0.7124220E+03  0.7818609E-02  0.9696222E-01
       -2   -1    0    0    0  501  0.00000000000E+00  0.00000000000E+00  0.19877254885E+03  0.19877254886E+03  0.25500000920E-02 0.  1.
        2   -1    0    0  501    0  0.00000000000E+00  0.00000000000E+00 -0.63834914859E+03  0.63834914860E+03  0.25500000920E-02 0. -1.
    10030    2    1    2    0    0  0.00000000000E+00  0.00000000000E+00 -0.43957659975E+03  0.83712169746E+03  0.71242203034E+03 0.  0.
        4    1    3    3  502    0  0.31669439272E+02  0.23668640727E+02  0.19618368130E+03  0.20013197557E+03  0.12699999809E+01 0.  1.
       -4    1    3    3    0  502 -0.31669439272E+02 -0.23668640727E+02 -0.63576028105E+03  0.63698972189E+03  0.12699999809E+01 0. -1.
</event>
<event>
 5   0  0.1784625E-02  0.7054817E+03  0.7818609E-02  0.9707903E-01
        3   -1    0    0  501    0  0.00000000000E+00  0.00000000000E+00  0.14377380050E+04  0.14377380086E+04  0.10100000352E+00 0.  1.
       -3   -1    0    0    0  501  0.00000000000E+00  0.00000000000E+00 -0.86542931380E+02  0.86542990316E+02  0.10100000352E+00 0. -1.
    10030    2    1    2    0    0  0.00000000000E+00  0.00000000000E+00  0.13511950736E+04  0.15242809989E+04  0.70548170531E+03 0.  0.
        3    1    3    3  502    0 -0.26041235556E+03 -0.23770274527E+03  0.69814568863E+03  0.78212825214E+03  0.10100000352E+00 0.  1.
       -3    1    3    3    0  502  0.26041235556E+03  0.23770274527E+03  0.65304938501E+03  0.74215274675E+03  0.10100000352E+00 0. -1.
</event>
<event>
 5   0  0.2684924E-02  0.7038565E+03  0.7818609E-02  0.9710660E-01
        1   -1    0    0  501    0  0.00000000000E+00  0.00000000000E+00  0.22241779123E+03  0.22241779129E+03  0.50400001928E-02 0. -1.
       -1   -1    0    0    0  501  0.00000000000E+00  0.00000000000E+00 -0.55685073541E+03  0.55685073543E+03  0.50400001928E-02 0.  1.
    10030    2    1    2    0    0  0.00000000000E+00  0.00000000000E+00 -0.33443294418E+03  0.77926852672E+03  0.70385654972E+03 0.  0.
        4    1    3    3  502    0  0.17064652801E+01  0.19220650725E+03  0.15916610838E+03  0.24956305097E+03  0.12699999809E+01 0. -1.
       -4    1    3    3    0  502 -0.17064652801E+01 -0.19220650725E+03 -0.49359905256E+03  0.52970547575E+03  0.12699999809E+01 0.  1.
</event>
<event>
 5   0  0.4365492E-02  0.6963637E+03  0.7818609E-02  0.9723471E-01
       -2   -1    0    0    0  501  0.00000000000E+00  0.00000000000E+00  0.20936411598E+03  0.20936411599E+03  0.25500000920E-02 0.  1.
        2   -1    0    0  501    0  0.00000000000E+00  0.00000000000E+00 -0.57904196359E+03  0.57904196360E+03  0.25500000920E-02 0. -1.
    10030    2    1    2    0    0  0.00000000000E+00  0.00000000000E+00 -0.36967784761E+03  0.78840607959E+03  0.69636372343E+03 0.  0.
        4    1    3    3  502    0 -0.19176047154E+02 -0.18081713824E+03 -0.52101396951E+03  0.55183306135E+03  0.12699999809E+01 0. -1.
       -4    1    3    3    0  502  0.19176047154E+02  0.18081713824E+03  0.15133612190E+03  0.23657301824E+03  0.12699999809E+01 0.  1.
</event>
<event>
 5   0  0.1784625E-02  0.7392522E+03  0.7818609E-02  0.9652364E-01
       -4   -1    0    0    0  501  0.00000000000E+00  0.00000000000E+00  0.10551187749E+04  0.10551195392E+04  0.12699999809E+01 0. -1.
        4   -1    0    0  501    0  0.00000000000E+00  0.00000000000E+00 -0.12948239325E+03  0.12948862136E+03  0.12699999809E+01 0.  1.
    10030    2    1    2    0    0  0.00000000000E+00  0.00000000000E+00  0.92563638166E+03  0.11846081606E+04  0.73925217827E+03 0.  0.
        1    1    3    3  502    0  0.15977036962E+03  0.25849450222E+03  0.12562911848E+03  0.32882921726E+03  0.50400001928E-02 0.  1.
       -1    1    3    3    0  502 -0.15977036962E+03 -0.25849450222E+03  0.80000726318E+03  0.85577894333E+03  0.50400001928E-02 0. -1.
</event>
<event>
 5   0  0.4526837E-02  0.7275288E+03  0.7818609E-02  0.9671279E-01
        2   -1    0    0  501    0  0.00000000000E+00  0.00000000000E+00  0.85126462281E+03  0.85126462281E+03  0.25500000920E-02 0.  1.
       -2   -1    0    0    0  501  0.00000000000E+00  0.00000000000E+00 -0.15544465743E+03  0.15544465745E+03  0.25500000920E-02 0. -1.
    10030    2    1    2    0    0  0.00000000000E+00  0.00000000000E+00  0.69581996538E+03  0.10067092803E+04  0.72752879721E+03 0.  0.
        1    1    3    3  502    0 -0.18186633152E+03 -0.22543839539E+03  0.43403639435E+02  0.29288514574E+03  0.50400001928E-02 0. -1.
       -1    1    3    3    0  502  0.18186633152E+03  0.22543839539E+03  0.65241632594E+03  0.71382413453E+03  0.50400001928E-02 0.  1.
</event>
<event>
 5   0  0.2751729E-02  0.7208443E+03  0.7818609E-02  0.9682235E-01
        1   -1    0    0  501    0  0.00000000000E+00  0.00000000000E+00  0.16629444278E+04  0.16629444278E+04  0.50400001928E-02 0. -1.
       -1   -1    0    0    0  501  0.00000000000E+00  0.00000000000E+00 -0.78116929985E+02  0.78116930148E+02  0.50400001928E-02 0.  1.
    10030    2    1    2    0    0  0.00000000000E+00  0.00000000000E+00  0.15848274978E+04  0.17410613579E+04  0.72084426497E+03 0.  0.
        1    1    3    3  502    0  0.30664953179E+03 -0.56242943107E+02  0.35560393806E+03  0.47291792605E+03  0.50400001928E-02 0.  1.
       -1    1    3    3    0  502 -0.30664953179E+03  0.56242943107E+02  0.12292235597E+04  0.12681434319E+04  0.50400001928E-02 0. -1.
</event>
<event>
 5   0  0.2684924E-02  0.6992193E+03  0.7818609E-02  0.9718568E-01
        1   -1    0    0  501    0  0.00000000000E+00  0.00000000000E+00  0.19007907168E+04  0.19007907168E+04  0.50400001928E-02 0.  1.
       -1   -1    0    0    0  501  0.00000000000E+00  0.00000000000E+00 -0.64303195373E+02  0.64303195570E+02  0.50400001928E-02 0. -1.
    10030    2    1    2    0    0  0.00000000000E+00  0.00000000000E+00  0.18364875214E+04  0.19650939124E+04  0.69921932761E+03 0.  0.
        4    1    3    3  502    0 -0.30201289736E+03 -0.15289677647E+03  0.67265674800E+03  0.75303248798E+03  0.12699999809E+01 0. -1.
       -4    1    3    3    0  502  0.30201289736E+03  0.15289677647E+03  0.11638307734E+04  0.12120614244E+04  0.12699999809E+01 0.  1.
</event>
<event>
 5   0  0.2758681E-02  0.6983709E+03  0.7818609E-02  0.9720022E-01
       -1   -1    0    0    0  501  0.00000000000E+00  0.00000000000E+00  0.27874409353E+03  0.27874409358E+03  0.50400001928E-02 0.  1.
        1   -1    0    0  501    0  0.00000000000E+00  0.00000000000E+00 -0.43742798350E+03  0.43742798353E+03  0.50400001928E-02 0. -1.
    10030    2    1    2    0    0  0.00000000000E+00  0.00000000000E+00 -0.15868388998E+03  0.71617207711E+03  0.69837086644E+03 0.  0.
        3    1    3    3  502    0 -0.10628592863E+03 -0.10366830022E+03  0.24476249150E+03  0.28627347509E+03  0.10100000352E+00 0.  1.
       -3    1    3    3    0  502  0.10628592863E+03  0.10366830022E+03 -0.40344638147E+03  0.42989860202E+03  0.10100000352E+00 0. -1.
</event>
<event>
 5   0  0.4299912E-02  0.6868189E+03  0.7818609E-02  0.9740043E-01
        2   -1    0    0  501    0  0.00000000000E+00  0.00000000000E+00  0.60355393795E+03  0.60355393795E+03  0.25500000920E-02 0.  1.
       -2   -1    0    0    0  501  0.00000000000E+00  0.00000000000E+00 -0.19539271780E+03  0.19539271781E+03  0.25500000920E-02 0. -1.
    10030    2    1    2    0    0  0.00000000000E+00  0.00000000000E+00  0.40816122015E+03  0.79894665577E+03  0.68681888233E+03 0.  0.
        3    1    3    3  502    0  0.12471432627E+03 -0.12102486703E+03  0.54862724976E+03  0.57549331099E+03  0.10100000352E+00 0.  1.
       -3    1    3    3    0  502 -0.12471432627E+03  0.12102486703E+03 -0.14046602961E+03  0.22345334478E+03  0.10100000352E+00 0. -1.
</event>
<event>
 5   0  0.4503289E-02  0.7036972E+03  0.7818609E-02  0.9710930E-01
       -2   -1    0    0    0  501  0.00000000000E+00  0.00000000000E+00  0.13451584907E+03  0.13451584909E+03  0.25500000920E-02 0.  1.
        2   -1    0    0  501    0  0.00000000000E+00  0.00000000000E+00 -0.92031852983E+03  0.92031852984E+03  0.25500000920E-02 0. -1.
    10030    2    1    2    0    0  0.00000000000E+00  0.00000000000E+00 -0.78580268077E+03  0.10548343789E+04  0.70369717483E+03 0.  0.
        2    1    3    3  502    0 -0.56171970377E+02  0.33558596894E+02 -0.91111805689E+03  0.91346460429E+03  0.25500000920E-02 0. -1.
       -2    1    3    3    0  502  0.56171970377E+02 -0.33558596894E+02  0.12531537613E+03  0.14136977464E+03  0.25500000920E-02 0.  1.
</event>
<event>
 5   0  0.2750139E-02  0.6971743E+03  0.7818609E-02  0.9722077E-01
       -1   -1    0    0    0  501  0.00000000000E+00  0.00000000000E+00  0.48609079532E+03  0.48609079534E+03  0.50400001928E-02 0. -1.
        1   -1    0    0  501    0  0.00000000000E+00  0.00000000000E+00 -0.24998007838E+03  0.24998007843E+03  0.50400001928E-02 0.  1.
    10030    2    1    2    0    0  0.00000000000E+00  0.00000000000E+00  0.23611071694E+03  0.73607087377E+03  0.69717434015E+03 0.  0.
        2    1    3    3  502    0  0.46560894398E+02 -0.33644305970E+03  0.35250283211E+02  0.34147391084E+03  0.25500000920E-02 0. -1.
       -2    1    3    3    0  502 -0.46560894398E+02  0.33644305970E+03  0.20086043373E+03  0.39459696293E+03  0.25500000920E-02 0.  1.
</event>
<event>
 5   0  0.4526837E-02  0.6993378E+03  0.7818609E-02  0.9718365E-01
       -2   -1    0    0    0  501  0.00000000000E+00  0.00000000000E+00  0.11285861874E+03  0.11285861877E+03  0.25500000920E-02 0. -1.
        2   -1    0    0  501    0  0.00000000000E+00  0.00000000000E+00 -0.10833761904E+04  0.10833761904E+04  0.25500000920E-02 0.  1.
    10030    2    1    2    0    0  0.00000000000E+00  0.00000000000E+00 -0.97051757169E+03  0.11962348092E+04  0.69933780235E+03 0.  0.
        1    1    3    3  502    0 -0.14768571818E+02  0.27842070060E+03 -0.84622473002E+03  0.89097277790E+03  0.50400001928E-02 0. -1.
       -1    1    3    3    0  502  0.14768571818E+02 -0.27842070060E+03 -0.12429284167E+03  0.30526203130E+03  0.50400001928E-02 0.  1.
</event>
<event>
 5   0  0.4420645E-02  0.7042189E+03  0.7818609E-02  0.9710044E-01
        2   -1    0    0  501    0  0.00000000000E+00  0.00000000000E+00  0.77484150093E+03  0.77484150093E+03  0.25500000920E-02 0. -1.
       -2   -1    0    0    0  501  0.00000000000E+00  0.00000000000E+00 -0.16000829650E+03  0.16000829652E+03  0.25500000920E-02 0.  1.
    10030    2    1    2    0    0  0.00000000000E+00  0.00000000000E+00  0.61483320442E+03  0.93484979745E+03  0.70421891095E+03 0.  0.
        5    1    3    3  502    0 -0.42210709362E+02 -0.33828469024E+03  0.42421163078E+03  0.54423880174E+03  0.46999998093E+01 0. -1.
       -5    1    3    3    0  502  0.42210709362E+02  0.33828469024E+03  0.19062157365E+03  0.39061099571E+03  0.46999998093E+01 0.  1.
</event>
<event>
 5   0  0.2684924E-02  0.7414328E+03  0.7818609E-02  0.9648888E-01
       -1   -1    0    0    0  501  0.00000000000E+00  0.00000000000E+00  0.46967112360E+03  0.46967112363E+03  0.50400001928E-02 0.  1.
        1   -1    0    0  501    0  0.00000000000E+00  0.00000000000E+00 -0.29261041416E+03  0.29261041421E+03  0.50400001928E-02 0. -1.
    10030    2    1    2    0    0  0.00000000000E+00  0.00000000000E+00  0.17706070944E+03  0.76228153783E+03  0.74143283452E+03 0.  0.
        4    1    3    3  502    0  0.12415640587E+02 -0.31552271926E+03 -0.11114811503E+03  0.33475998996E+03  0.12699999809E+01 0. -1.
       -4    1    3    3    0  502 -0.12415640587E+02  0.31552271926E+03  0.28820882447E+03  0.42752154788E+03  0.12699999809E+01 0.  1.
</event>
<event>
 5   0  0.4526837E-02  0.7072656E+03  0.7818609E-02  0.9704887E-01
       -2   -1    0    0    0  501  0.00000000000E+00  0.00000000000E+00  0.89657504228E+02  0.89657504264E+02  0.25500000920E-02 0.  1.
        2   -1    0    0  501    0  0.00000000000E+00  0.00000000000E+00 -0.13948209557E+04  0.13948209557E+04  0.25500000920E-02 0. -1.
    10030    2    1    2    0    0  0.00000000000E+00  0.00000000000E+00 -0.13051634515E+04  0.14844784600E+04  0.70726562411E+03 0.  0.
        1    1    3    3  502    0 -0.84925102747E+02 -0.34142074233E+03 -0.57761346502E+03  0.67632663068E+03  0.50400001928E-02 0. -1.
       -1    1    3    3    0  502  0.84925102747E+02  0.34142074233E+03 -0.72754998645E+03  0.80815182929E+03  0.50400001928E-02 0.  1.
</event>
<event>
 5   0  0.2751729E-02  0.7097904E+03  0.7818609E-02  0.9700634E-01
        1   -1    0    0  501    0  0.00000000000E+00  0.00000000000E+00  0.95235804342E+03  0.95235804343E+03  0.50400001928E-02 0. -1.
       -1   -1    0    0    0  501  0.00000000000E+00  0.00000000000E+00 -0.13225131641E+03  0.13225131651E+03  0.50400001928E-02 0.  1.
    10030    2    1    2    0    0  0.00000000000E+00  0.00000000000E+00  0.82010672701E+03  0.10846093599E+04  0.70979040567E+03 0.  0.
        1    1    3    3  502    0 -0.22618852303E+03  0.26629912638E+03  0.50516429775E+03  0.61422100291E+03  0.50400001928E-02 0.  1.
       -1    1    3    3    0  502  0.22618852303E+03 -0.26629912638E+03  0.31494242925E+03  0.47038835703E+03  0.50400001928E-02 0. -1.
</event>
<event>
 5   0  0.4526837E-02  0.6972570E+03  0.7818609E-02  0.9721935E-01
       -2   -1    0    0    0  501  0.00000000000E+00  0.00000000000E+00  0.29269501569E+03  0.29269501570E+03  0.25500000920E-02 0. -1.
        2   -1    0    0  501    0  0.00000000000E+00  0.00000000000E+00 -0.41525081857E+03  0.41525081858E+03  0.25500000920E-02 0.  1.
    10030    2    1    2    0    0  0.00000000000E+00  0.00000000000E+00 -0.12255580288E+03  0.70794583428E+03  0.69725703973E+03 0.  0.
        1    1    3    3  502    0 -0.28468038464E+03  0.53566681564E+02  0.13567915422E+03  0.31987676328E+03  0.50400001928E-02 0. -1.
       -1    1    3    3    0  502  0.28468038464E+03 -0.53566681564E+02 -0.25823495711E+03  0.38806907100E+03  0.50400001928E-02 0.  1.
</event>
<event>
 5   0  0.2750139E-02  0.6980457E+03  0.7818609E-02  0.9720580E-01
       -1   -1    0    0    0  501  0.00000000000E+00  0.00000000000E+00  0.28856674013E+03  0.28856674017E+03  0.50400001928E-02 0. -1.
        1   -1    0    0  501    0  0.00000000000E+00  0.00000000000E+00 -0.42214478733E+03  0.42214478736E+03  0.50400001928E-02 0.  1.
    10030    2    1    2    0    0  0.00000000000E+00  0.00000000000E+00 -0.13357804720E+03  0.71071152753E+03  0.69804568666E+03 0.  0.
        2    1    3    3  502    0  0.28511266930E+03  0.10063262150E+03  0.11073286973E+03  0.32199056998E+03  0.25500000920E-02 0. -1.
       -2    1    3    3    0  502 -0.28511266930E+03 -0.10063262150E+03 -0.24431091692E+03  0.38872095755E+03  0.25500000920E-02 0.  1.
</event>
<event>
 5   0  0.4503289E-02  0.6989106E+03  0.7818609E-02  0.9719097E-01
       -2   -1    0    0    0  501  0.00000000000E+00  0.00000000000E+00  0.25350505643E+03  0.25350505644E+03  0.25500000920E-02 0. -1.
        2   -1    0    0  501    0  0.00000000000E+00  0.00000000000E+00 -0.48172213172E+03  0.48172213172E+03  0.25500000920E-02 0.  1.
    10030    2    1    2    0    0  0.00000000000E+00  0.00000000000E+00 -0.22821707529E+03  0.73522718817E+03  0.69891056994E+03 0.  0.
        2    1    3    3  502    0  0.15890172593E+03 -0.48095174853E+02  0.20936943079E+03  0.26720490808E+03  0.25500000920E-02 0. -1.
       -2    1    3    3    0  502 -0.15890172593E+03  0.48095174853E+02 -0.43758650608E+03  0.46802228008E+03  0.25500000920E-02 0.  1.
</event>
<event>
 5   0  0.4503289E-02  0.6987998E+03  0.7818609E-02  0.9719287E-01
       -2   -1    0    0    0  501  0.00000000000E+00  0.00000000000E+00  0.19570082303E+03  0.19570082305E+03  0.25500000920E-02 0. -1.
        2   -1    0    0  501    0  0.00000000000E+00  0.00000000000E+00 -0.62381087825E+03  0.62381087826E+03  0.25500000920E-02 0.  1.
    10030    2    1    2    0    0  0.00000000000E+00  0.00000000000E+00 -0.42811005522E+03  0.81951170130E+03  0.69879983486E+03 0.  0.
        2    1    3    3  502    0  0.23764581807E+03 -0.23929363655E+03 -0.10693469992E+03  0.35379656498E+03  0.25500000920E-02 0. -1.
       -2    1    3    3    0  502 -0.23764581807E+03  0.23929363655E+03 -0.32117535530E+03  0.46571513632E+03  0.25500000920E-02 0.  1.
</event>
<event>
 5   0  0.2684924E-02  0.7042026E+03  0.7818609E-02  0.9710072E-01
       -1   -1    0    0    0  501  0.00000000000E+00  0.00000000000E+00  0.84577447696E+02  0.84577447846E+02  0.50400001928E-02 0.  1.
        1   -1    0    0  501    0  0.00000000000E+00  0.00000000000E+00 -0.14658201858E+04  0.14658201858E+04  0.50400001928E-02 0. -1.
    10030    2    1    2    0    0  0.00000000000E+00  0.00000000000E+00 -0.13812427381E+04  0.15503976336E+04  0.70420261351E+03 0.  0.
        4    1    3    3  502    0 -0.14586765863E+03 -0.22306325035E+03 -0.11971848337E+04  0.12264940792E+04  0.12699999809E+01 0. -1.
       -4    1    3    3    0  502  0.14586765863E+03  0.22306325035E+03 -0.18405790443E+03  0.32390355443E+03  0.12699999809E+01 0.  1.
</event>
<event>
 5   0  0.2777999E-02  0.6938787E+03  0.7818609E-02  0.9727758E-01
       -1   -1    0    0    0  501  0.00000000000E+00  0.00000000000E+00  0.20338728489E+03  0.20338728496E+03  0.50400001928E-02 0.  1.
        1   -1    0    0  501    0  0.00000000000E+00  0.00000000000E+00 -0.59181137063E+03  0.59181137065E+03  0.50400001928E-02 0. -1.
    10030    2    1    2    0    0  0.00000000000E+00  0.00000000000E+00 -0.38842408574E+03  0.79519865561E+03  0.69387868644E+03 0.  0.
        5    1    3    3  502    0 -0.40692447334E+02 -0.61228392659E+02  0.19432080019E+03  0.20781591547E+03  0.46999998093E+01 0.  1.
       -5    1    3    3    0  502  0.40692447334E+02  0.61228392659E+02 -0.58274488593E+03  0.58738274014E+03  0.46999998093E+01 0. -1.
</event>
<event>
 5   0  0.1784625E-02  0.7150293E+03  0.7818609E-02  0.9691870E-01
       -4   -1    0    0    0  501  0.00000000000E+00  0.00000000000E+00  0.13000330596E+04  0.13000336799E+04  0.12699999809E+01 0. -1.
        4   -1    0    0  501    0  0.00000000000E+00  0.00000000000E+00 -0.98313300453E+02  0.98321502968E+02  0.12699999809E+01 0.  1.
    10030    2    1    2    0    0  0.00000000000E+00  0.00000000000E+00  0.12017197591E+04  0.13983551829E+04  0.71502925675E+03 0.  0.
        1    1    3    3  502    0 -0.20699628325E+03 -0.17986595433E+03  0.15226043229E+03  0.31365978715E+03  0.50400001928E-02 0.  1.
       -1    1    3    3    0  502  0.20699628325E+03  0.17986595433E+03  0.10494593269E+04  0.10846953957E+04  0.50400001928E-02 0. -1.
</event>
<event>
 5   0  0.4299912E-02  0.6996075E+03  0.7818609E-02  0.9717904E-01
        2   -1    0    0  501    0  0.00000000000E+00  0.00000000000E+00  0.74606208272E+03  0.74606208273E+03  0.25500000920E-02 0.  1.
       -2   -1    0    0    0  501  0.00000000000E+00  0.00000000000E+00 -0.16401134836E+03  0.16401134838E+03  0.25500000920E-02 0. -1.
    10030    2    1    2    0    0  0.00000000000E+00  0.00000000000E+00  0.58205073437E+03  0.91007343110E+03  0.69960745610E+03 0.  0.
        3    1    3    3  502    0  0.61771019358E+02 -0.72748850614E+02  0.72879930265E+03  0.73502141999E+03  0.10100000352E+00 0.  1.
       -3    1    3    3    0  502 -0.61771019358E+02  0.72748850614E+02 -0.14674856829E+03  0.17505201111E+03  0.10100000352E+00 0. -1.
</event>
<event>
 5   0  0.1784625E-02  0.7434677E+03  0.7818609E-02  0.9645655E-01
        4   -1    0    0  501    0  0.00000000000E+00  0.00000000000E+00  0.56566949475E+03  0.56567092040E+03  0.12699999809E+01 0. -1.
       -4   -1    0    0    0  501  0.00000000000E+00  0.00000000000E+00 -0.24428426569E+03  0.24428756694E+03  0.12699999809E+01 0.  1.
    10030    2    1    2    0    0  0.00000000000E+00  0.00000000000E+00  0.32138522906E+03  0.80995848735E+03  0.74346774360E+03 0.  0.
        3    1    3    3  502    0 -0.16042630370E+03  0.28908223975E+03 -0.24449896227E+02  0.33151613518E+03  0.10100000352E+00 0.  1.
       -3    1    3    3    0  502  0.16042630370E+03 -0.28908223975E+03  0.34583512529E+03  0.47844235216E+03  0.10100000352E+00 0. -1.
</event>
<event>
 5   0  0.2751729E-02  0.6982772E+03  0.7818609E-02  0.9720183E-01
        1   -1    0    0  501    0  0.00000000000E+00  0.00000000000E+00  0.87938448739E+03  0.87938448741E+03  0.50400001928E-02 0. -1.
       -1   -1    0    0    0  501  0.00000000000E+00  0.00000000000E+00 -0.13861713530E+03  0.13861713539E+03  0.50400001928E-02 0.  1.
    10030    2    1    2    0    0  0.00000000000E+00  0.00000000000E+00  0.74076735209E+03  0.10180016228E+04  0.69827719001E+03 0.  0.
        1    1    3    3  502    0  0.21432164183E+03  0.14989619322E+03  0.70757602551E+03  0.75436494272E+03  0.50400001928E-02 0. -1.
       -1    1    3    3    0  502 -0.21432164183E+03 -0.14989619322E+03  0.33191326584E+02  0.26363668008E+03  0.50400001928E-02 0.  1.
</event>
<event>
 5   0  0.4526837E-02  0.7028575E+03  0.7818609E-02  0.9712358E-01
        2   -1    0    0  501    0  0.00000000000E+00  0.00000000000E+00  0.11183130447E+04  0.11183130447E+04  0.25500000920E-02 0. -1.
       -2   -1    0    0    0  501  0.00000000000E+00  0.00000000000E+00 -0.11043612915E+03  0.11043612918E+03  0.25500000920E-02 0.  1.
    10030    2    1    2    0    0  0.00000000000E+00  0.00000000000E+00  0.10078769156E+04  0.12287491739E+04  0.70285749298E+03 0.  0.
        1    1    3    3  502    0 -0.91013966644E+02 -0.31242556037E+03  0.73592455656E+03  0.80466031707E+03  0.50400001928E-02 0. -1.
       -1    1    3    3    0  502  0.91013966644E+02  0.31242556037E+03  0.27195235900E+03  0.42408885683E+03  0.50400001928E-02 0.  1.
</event>
<event>
 5   0  0.2777999E-02  0.6694308E+03  0.7818609E-02  0.9770987E-01
        1   -1    0    0  501    0  0.00000000000E+00  0.00000000000E+00  0.25040395770E+03  0.25040395775E+03  0.50400001928E-02 0.  1.
       -1   -1    0    0    0  501  0.00000000000E+00  0.00000000000E+00 -0.44741468181E+03  0.44741468184E+03  0.50400001928E-02 0. -1.
    10030    2    1    2    0    0  0.00000000000E+00  0.00000000000E+00 -0.19701072411E+03  0.69781863958E+03  0.66943082416E+03 0.  0.
        5    1    3    3  502    0 -0.23088821048E+03 -0.21845623838E+03  0.10722777071E+02  0.31807162994E+03  0.46999998093E+01 0. -1.
       -5    1    3    3    0  502  0.23088821048E+03  0.21845623838E+03 -0.20773350118E+03  0.37974700965E+03  0.46999998093E+01 0.  1.
</event>
<event>
 5   0  0.2777999E-02  0.7004849E+03  0.7818609E-02  0.9716403E-01
        1   -1    0    0  501    0  0.00000000000E+00  0.00000000000E+00  0.49625401965E+03  0.49625401967E+03  0.50400001928E-02 0.  1.
       -1   -1    0    0    0  501  0.00000000000E+00  0.00000000000E+00 -0.24719151171E+03  0.24719151176E+03  0.50400001928E-02 0. -1.
    10030    2    1    2    0    0  0.00000000000E+00  0.00000000000E+00  0.24906250794E+03  0.74344553143E+03  0.70048492157E+03 0.  0.
        5    1    3    3  502    0 -0.14902846989E+03  0.20514345512E+03  0.38091297235E+03  0.45761348813E+03  0.46999998093E+01 0.  1.
       -5    1    3    3    0  502  0.14902846989E+03 -0.20514345512E+03 -0.13185046441E+03  0.28583204330E+03  0.46999998093E+01 0. -1.
</event>
<event>
 5   0  0.4503289E-02  0.7036027E+03  0.7818609E-02  0.9711091E-01
        2   -1    0    0  501    0  0.00000000000E+00  0.00000000000E+00  0.46633454734E+03  0.46633454734E+03  0.25500000920E-02 0. -1.
       -2   -1    0    0    0  501  0.00000000000E+00  0.00000000000E+00 -0.26539784086E+03  0.26539784087E+03  0.25500000920E-02 0.  1.
    10030    2    1    2    0    0  0.00000000000E+00  0.00000000000E+00  0.20093670648E+03  0.73173238821E+03  0.70360267762E+03 0.  0.
        2    1    3    3  502    0 -0.57291377999E+00  0.71880625215E+02  0.45861566893E+03  0.46421491176E+03  0.25500000920E-02 0. -1.
       -2    1    3    3    0  502  0.57291377999E+00 -0.71880625215E+02 -0.25767896245E+03  0.26751747645E+03  0.25500000920E-02 0.  1.
</event>
<event>
 5   0  0.4503289E-02  0.7046413E+03  0.7818609E-02  0.9709328E-01
        2   -1    0    0  501    0  0.00000000000E+00  0.00000000000E+00  0.27090544350E+03  0.27090544352E+03  0.25500000920E-02 0.  1.
       -2   -1    0    0    0  501  0.00000000000E+00  0.00000000000E+00 -0.45820361304E+03  0.45820361304E+03  0.25500000920E-02 0. -1.
    10030    2    1    2    0    0  0.00000000000E+00  0.00000000000E+00 -0.18729816953E+03  0.72910905656E+03  0.70464133575E+03 0.  0.
        2    1    3    3  502    0 -0.34938729099E+03 -0.42442206686E+02 -0.11023803141E+03  0.36881600235E+03  0.25500000920E-02 0.  1.
       -2    1    3    3    0  502  0.34938729099E+03  0.42442206686E+02 -0.77060138124E+02  0.36029305421E+03  0.25500000920E-02 0. -1.
</event>
<event>
 5   0  0.2751729E-02  0.6391241E+03  0.7818609E-02  0.9827404E-01
        1   -1    0    0  501    0  0.00000000000E+00  0.00000000000E+00  0.16158485451E+04  0.16158485451E+04  0.50400001928E-02 0.  1.
       -1   -1    0    0    0  501  0.00000000000E+00  0.00000000000E+00 -0.63198929277E+02  0.63198929478E+02  0.50400001928E-02 0. -1.
    10030    2    1    2    0    0  0.00000000000E+00  0.00000000000E+00  0.15526496158E+04  0.16790474745E+04  0.63912408215E+03 0.  0.
        1    1    3    3  502    0 -0.25735618044E+03  0.18923745507E+03  0.79935961893E+03  0.86082449919E+03  0.50400001928E-02 0. -1.
       -1    1    3    3    0  502  0.25735618044E+03 -0.18923745507E+03  0.75328999685E+03  0.81822297535E+03  0.50400001928E-02 0.  1.
</event>
<event>
 5   0  0.4420645E-02  0.7005080E+03  0.7818609E-02  0.9716364E-01
       -2   -1    0    0    0  501  0.00000000000E+00  0.00000000000E+00  0.12585301657E+03  0.12585301660E+03  0.25500000920E-02 0. -1.
        2   -1    0    0  501    0  0.00000000000E+00  0.00000000000E+00 -0.97477107750E+03  0.97477107751E+03  0.25500000920E-02 0.  1.
    10030    2    1    2    0    0  0.00000000000E+00  0.00000000000E+00 -0.84891806093E+03  0.11006240941E+04  0.70050804588E+03 0.  0.
        5    1    3    3  502    0  0.10550619196E+03 -0.11632283966E+03  0.67381061126E+02  0.17095279163E+03  0.46999998093E+01 0. -1.
       -5    1    3    3    0  502 -0.10550619196E+03  0.11632283966E+03 -0.91629912206E+03  0.92967130248E+03  0.46999998093E+01 0.  1.
</event>
<event>
 5   0  0.2684924E-02  0.6927607E+03  0.7818609E-02  0.9729693E-01
       -1   -1    0    0    0  501  0.00000000000E+00  0.00000000000E+00  0.28238169198E+03  0.28238169203E+03  0.50400001928E-02 0.  1.
        1   -1    0    0  501    0  0.00000000000E+00  0.00000000000E+00 -0.42488358306E+03  0.42488358309E+03  0.50400001928E-02 0. -1.
    10030    2    1    2    0    0  0.00000000000E+00  0.00000000000E+00 -0.14250189108E+03  0.70726527511E+03  0.69276069492E+03 0.  0.
        4    1    3    3  502    0  0.11915568039E+03  0.12526497691E+03 -0.37768243545E+03  0.41537335682E+03  0.12699999809E+01 0. -1.
       -4    1    3    3    0  502 -0.11915568039E+03 -0.12526497691E+03  0.23518054438E+03  0.29189191829E+03  0.12699999809E+01 0.  1.
</event>
<event>
 5   0  0.4503289E-02  0.7046977E+03  0.7818609E-02  0.9709232E-01
       -2   -1    0    0    0  501  0.00000000000E+00  0.00000000000E+00  0.34455279595E+03  0.34455279596E+03  0.25500000920E-02 0. -1.
        2   -1    0    0  501    0  0.00000000000E+00  0.00000000000E+00 -0.36032129354E+03  0.36032129355E+03  0.25500000920E-02 0.  1.
    10030    2    1    2    0    0  0.00000000000E+00  0.00000000000E+00 -0.15768497586E+02  0.70487408951E+03  0.70469769160E+03 0.  0.
        2    1    3    3  502    0  0.28876234115E+01 -0.25409101369E+03  0.23626521077E+03  0.34697526055E+03  0.25500000920E-02 0. -1.
       -2    1    3    3    0  502 -0.28876234115E+01  0.25409101369E+03 -0.25203370836E+03  0.35789882895E+03  0.25500000920E-02 0.  1.
</event>
<event>
 5   0  0.2758681E-02  0.6890167E+03  0.7818609E-02  0.9736202E-01
       -1   -1    0    0    0  501  0.00000000000E+00  0.00000000000E+00  0.10345732291E+03  0.10345732304E+03  0.50400001928E-02 0. -1.
        1   -1    0    0  501    0  0.00000000000E+00  0.00000000000E+00 -0.11471976669E+04  0.11471976669E+04  0.50400001928E-02 0.  1.
    10030    2    1    2    0    0  0.00000000000E+00  0.00000000000E+00 -0.10437403440E+04  0.12506549900E+04  0.68901668937E+03 0.  0.
        3    1    3    3  502    0 -0.14667739447E+03  0.23310197349E+03 -0.89754161636E+03  0.93884596788E+03  0.10100000352E+00 0.  1.
       -3    1    3    3    0  502  0.14667739447E+03 -0.23310197349E+03 -0.14619872764E+03  0.31180902209E+03  0.10100000352E+00 0. -1.
</event>
<event>
 5   0  0.2777999E-02  0.7038908E+03  0.7818609E-02  0.9710601E-01
        1   -1    0    0  501    0  0.00000000000E+00  0.00000000000E+00  0.56173543256E+03  0.56173543259E+03  0.50400001928E-02 0. -1.
       -1   -1    0    0    0  501  0.00000000000E+00  0.00000000000E+00 -0.22050515016E+03  0.22050515021E+03  0.50400001928E-02 0.  1.
    10030    2    1    2    0    0  0.00000000000E+00  0.00000000000E+00  0.34123028241E+03  0.78224058280E+03  0.70389077544E+03 0.  0.
        5    1    3    3  502    0 -0.15519301849E+03 -0.18389770123E+03  0.45598644101E+03  0.51560543237E+03  0.46999998093E+01 0. -1.
       -5    1    3    3    0  502  0.15519301849E+03  0.18389770123E+03 -0.11475615861E+03  0.26663515043E+03  0.46999998093E+01 0.  1.
</event>
<event>
 5   0  0.1784625E-02  0.6711653E+03  0.7818609E-02  0.9767855E-01
        4   -1    0    0  501    0  0.00000000000E+00  0.00000000000E+00  0.16281415548E+04  0.16281420501E+04  0.12699999809E+01 0. -1.
       -4   -1    0    0    0  501  0.00000000000E+00  0.00000000000E+00 -0.69161916879E+02  0.69173576215E+02  0.12699999809E+01 0.  1.
    10030    2    1    2    0    0  0.00000000000E+00  0.00000000000E+00  0.15589796379E+04  0.16973156263E+04  0.67116527319E+03 0.  0.
        3    1    3    3  502    0 -0.17641431826E+03 -0.11125323343E+03  0.14443398501E+04  0.14593207004E+04  0.10100000352E+00 0. -1.
       -3    1    3    3    0  502  0.17641431826E+03  0.11125323343E+03  0.11463978776E+03  0.23799492594E+03  0.10100000352E+00 0.  1.
</event>
<event>
 5   0  0.2777999E-02  0.7078400E+03  0.7818609E-02  0.9703918E-01
       -1   -1    0    0    0  501  0.00000000000E+00  0.00000000000E+00  0.83442670157E+02  0.83442670309E+02  0.50400001928E-02 0. -1.
        1   -1    0    0  501    0  0.00000000000E+00  0.00000000000E+00 -0.15011427990E+04  0.15011427990E+04  0.50400001928E-02 0.  1.
    10030    2    1    2    0    0  0.00000000000E+00  0.00000000000E+00 -0.14177001288E+04  0.15845854693E+04  0.70783999198E+03 0.  0.
        5    1    3    3  502    0 -0.11993062719E+02 -0.20468550995E+03 -0.63143588037E+02  0.21459075992E+03  0.46999998093E+01 0. -1.
       -5    1    3    3    0  502  0.11993062719E+02  0.20468550995E+03 -0.13545565408E+04  0.13699947094E+04  0.46999998093E+01 0.  1.
</event>
<event>
 5   0  0.4503289E-02  0.6808446E+03  0.7818609E-02  0.9750563E-01
        2   -1    0    0  501    0  0.00000000000E+00  0.00000000000E+00  0.98143150424E+03  0.98143150425E+03  0.25500000920E-02 0.  1.
       -2   -1    0    0    0  501  0.00000000000E+00  0.00000000000E+00 -0.11807991744E+03  0.11807991747E+03  0.25500000920E-02 0. -1.
    10030    2    1    2    0    0  0.00000000000E+00  0.00000000000E+00  0.86335158680E+03  0.10995114217E+04  0.68084462548E+03 0.  0.
        2    1    3    3  502    0  0.11674047118E+03  0.17305041857E+03 -0.25929960083E+01  0.20876184664E+03  0.25500000920E-02 0. -1.
       -2    1    3    3    0  502 -0.11674047118E+03 -0.17305041857E+03  0.86594458281E+03  0.89074957507E+03  0.25500000920E-02 0.  1.
</event>
<event>
 5   0  0.4503289E-02  0.7006507E+03  0.7818609E-02  0.9716120E-01
        2   -1    0    0  501    0  0.00000000000E+00  0.00000000000E+00  0.91875950275E+03  0.91875950275E+03  0.25500000920E-02 0. -1.
       -2   -1    0    0    0  501  0.00000000000E+00  0.00000000000E+00 -0.13357994276E+03  0.13357994278E+03  0.25500000920E-02 0.  1.
    10030    2    1    2    0    0  0.00000000000E+00  0.00000000000E+00  0.78517955999E+03  0.10523394455E+04  0.70065067416E+03 0.  0.
        2    1    3    3  502    0 -0.20338973897E+03  0.66129109385E+02 -0.24149198457E+02  0.21522924713E+03  0.25500000920E-02 0.  1.
       -2    1    3    3    0  502  0.20338973897E+03 -0.66129109385E+02  0.80932875844E+03  0.83711019841E+03  0.25500000920E-02 0. -1.
</event>
<event>
 5   0  0.2750139E-02  0.8092675E+03  0.7818609E-02  0.9546699E-01
       -1   -1    0    0    0  501  0.00000000000E+00  0.00000000000E+00  0.91343776197E+02  0.91343776336E+02  0.50400001928E-02 0.  1.
        1   -1    0    0  501    0  0.00000000000E+00  0.00000000000E+00 -0.17924425777E+04  0.17924425777E+04  0.50400001928E-02 0. -1.
    10030    2    1    2    0    0  0.00000000000E+00  0.00000000000E+00 -0.17010988015E+04  0.18837863540E+04  0.80926750533E+03 0.  0.
        2    1    3    3  502    0  0.23292693651E+03 -0.26205795921E+03 -0.13207303835E+04  0.13664765193E+04  0.25500000920E-02 0. -1.
       -2    1    3    3    0  502 -0.23292693651E+03  0.26205795921E+03 -0.38036841792E+03  0.51730983472E+03  0.25500000920E-02 0.  1.
</event>
<event>
 5   0  0.4365492E-02  0.7071547E+03  0.7818609E-02  0.9705074E-01
        2   -1    0    0  501    0  0.00000000000E+00  0.00000000000E+00  0.84473160419E+03  0.84473160419E+03  0.25500000920E-02 0.  1.
       -2   -1    0    0    0  501  0.00000000000E+00  0.00000000000E+00 -0.14799603130E+03  0.14799603132E+03  0.25500000920E-02 0. -1.
    10030    2    1    2    0    0  0.00000000000E+00  0.00000000000E+00  0.69673557289E+03  0.99272763551E+03  0.70715465054E+03 0.  0.
        4    1    3    3  502    0  0.48837839531E+02 -0.19878611415E+03  0.75308667796E+03  0.78041156525E+03  0.12699999809E+01 0.  1.
       -4    1    3    3    0  502 -0.48837839531E+02  0.19878611415E+03 -0.56351105073E+02  0.21231607026E+03  0.12699999809E+01 0. -1.
</event>
<event>
 5   0  0.2777999E-02  0.7021934E+03  0.7818609E-02  0.9713489E-01
        1   -1    0    0  501    0  0.00000000000E+00  0.00000000000E+00  0.50579305517E+03  0.50579305520E+03  0.50400001928E-02 0. -1.
       -1   -1    0    0    0  501  0.00000000000E+00  0.00000000000E+00 -0.24371406363E+03  0.24371406369E+03  0.50400001928E-02 0.  1.
    10030    2    1    2    0    0  0.00000000000E+00  0.00000000000E+00  0.26207899154E+03  0.74950711889E+03  0.70219336614E+03 0.  0.
        5    1    3    3  502    0 -0.25061398035E+03 -0.24584125319E+03  0.12973137958E+03  0.37429615248E+03  0.46999998093E+01 0.  1.
       -5    1    3    3    0  502  0.25061398035E+03  0.24584125319E+03  0.13234761196E+03  0.37521096640E+03  0.46999998093E+01 0. -1.
</event>
<event>
 5   0  0.2777999E-02  0.7555345E+03  0.7818609E-02  0.9626707E-01
       -1   -1    0    0    0  501  0.00000000000E+00  0.00000000000E+00  0.41651380254E+03  0.41651380257E+03  0.50400001928E-02 0.  1.
        1   -1    0    0  501    0  0.00000000000E+00  0.00000000000E+00 -0.34262513895E+03  0.34262513899E+03  0.50400001928E-02 0. -1.
    10030    2    1    2    0    0  0.00000000000E+00  0.00000000000E+00  0.73888663585E+02  0.75913894156E+03  0.75553451145E+03 0.  0.
        5    1    3    3  502    0 -0.14826727756E+03 -0.34296831366E+03  0.92666633285E+02  0.38499304500E+03  0.46999998093E+01 0.  1.
       -5    1    3    3    0  502  0.14826727756E+03  0.34296831366E+03 -0.18777969700E+02  0.37414589657E+03  0.46999998093E+01 0. -1.
</event>
<event>
 5   0  0.2758681E-02  0.6918266E+03  0.7818609E-02  0.9731313E-01
       -1   -1    0    0    0  501  0.00000000000E+00  0.00000000000E+00  0.73037931675E+02  0.73037931849E+02  0.50400001928E-02 0. -1.
        1   -1    0    0  501    0  0.00000000000E+00  0.00000000000E+00 -0.16382720744E+04  0.16382720744E+04  0.50400001928E-02 0.  1.
    10030    2    1    2    0    0  0.00000000000E+00  0.00000000000E+00 -0.15652341428E+04  0.17113100063E+04  0.69182657940E+03 0.  0.
        3    1    3    3  502    0 -0.22016793539E+03  0.81760144806E+02 -0.15441062112E+03  0.28107168333E+03  0.10100000352E+00 0. -1.
       -3    1    3    3    0  502  0.22016793539E+03 -0.81760144806E+02 -0.14108235216E+04  0.14302383230E+04  0.10100000352E+00 0.  1.
</event>
<event>
 5   0  0.4503289E-02  0.7040461E+03  0.7818609E-02  0.9710338E-01
       -2   -1    0    0    0  501  0.00000000000E+00  0.00000000000E+00  0.46085913608E+03  0.46085913608E+03  0.25500000920E-02 0.  1.
        2   -1    0    0  501    0  0.00000000000E+00  0.00000000000E+00 -0.26888962708E+03  0.26888962709E+03  0.25500000920E-02 0. -1.
    10030    2    1    2    0    0  0.00000000000E+00  0.00000000000E+00  0.19196950900E+03  0.72974876318E+03  0.70404613838E+03 0.  0.
        2    1    3    3  502    0 -0.17083622690E+03 -0.18345413613E+03 -0.16018099776E+03  0.29748678716E+03  0.25500000920E-02 0. -1.
       -2    1    3    3    0  502  0.17083622690E+03  0.18345413613E+03  0.35215050676E+03  0.43226197601E+03  0.25500000920E-02 0.  1.
</event>
<event>
 5   0  0.2684924E-02  0.6987830E+03  0.7818609E-02  0.9719316E-01
       -1   -1    0    0    0  501  0.00000000000E+00  0.00000000000E+00  0.27089356710E+03  0.27089356715E+03  0.50400001928E-02 0.  1.
        1   -1    0    0  501    0  0.00000000000E+00  0.00000000000E+00 -0.45063614776E+03  0.45063614779E+03  0.50400001928E-02 0. -1.
    10030    2    1    2    0    0  0.00000000000E+00  0.00000000000E+00 -0.17974258066E+03  0.72152971494E+03  0.69878303803E+03 0.  0.
        4    1    3    3  502    0  0.33441620482E+02  0.10369960493E+03  0.25289995291E+03  0.27537601407E+03  0.12699999809E+01 0.  1.
       -4    1    3    3    0  502 -0.33441620482E+02 -0.10369960493E+03 -0.43264253357E+03  0.44615370087E+03  0.12699999809E+01 0. -1.
</event>
<event>
 5   0  0.4503289E-02  0.7031443E+03  0.7818609E-02  0.9711870E-01
       -2   -1    0    0    0  501  0.00000000000E+00  0.00000000000E+00  0.21849678782E+03  0.21849678783E+03  0.25500000920E-02 0. -1.
        2   -1    0    0  501    0  0.00000000000E+00  0.00000000000E+00 -0.56569697088E+03  0.56569697088E+03  0.25500000920E-02 0.  1.
    10030    2    1    2    0    0  0.00000000000E+00  0.00000000000E+00 -0.34720018306E+03  0.78419375872E+03  0.70314428398E+03 0.  0.
        2    1    3    3  502    0  0.22487467086E+03  0.11550229844E+02 -0.47472418925E+03  0.52541895785E+03  0.25500000920E-02 0.  1.
       -2    1    3    3    0  502 -0.22487467086E+03 -0.11550229844E+02  0.12752400619E+03  0.25877480087E+03  0.25500000920E-02 0. -1.
</event>
<event>
 5   0  0.4503289E-02  0.7768001E+03  0.7818609E-02  0.9594219E-01
        2   -1    0    0  501    0  0.00000000000E+00  0.00000000000E+00  0.79772477389E+03  0.79772477390E+03  0.25500000920E-02 0. -1.
       -2   -1    0    0    0  501  0.00000000000E+00  0.00000000000E+00 -0.18910605850E+03  0.18910605852E+03  0.25500000920E-02 0.  1.
    10030    2    1    2    0    0  0.00000000000E+00  0.00000000000E+00  0.60861871539E+03  0.98683083241E+03  0.77680007149E+03 0.  0.
        2    1    3    3  502    0 -0.34784838335E+03 -0.13438872495E+03  0.16633562062E+03  0.40832140023E+03  0.25500000920E-02 0.  1.
       -2    1    3    3    0  502  0.34784838335E+03  0.13438872495E+03  0.44228309477E+03  0.57850943218E+03  0.25500000920E-02 0. -1.
</event>
<event>
 5   0  0.2758681E-02  0.7065940E+03  0.7818609E-02  0.9706022E-01
        1   -1    0    0  501    0  0.00000000000E+00  0.00000000000E+00  0.80378774199E+03  0.80378774200E+03  0.50400001928E-02 0. -1.
       -1   -1    0    0    0  501  0.00000000000E+00  0.00000000000E+00 -0.15528820889E+03  0.15528820897E+03  0.50400001928E-02 0.  1.
    10030    2    1    2    0    0  0.00000000000E+00  0.00000000000E+00  0.64849953310E+03  0.95907595097E+03  0.70659396779E+03 0.  0.
        3    1    3    3  502    0 -0.68842649904E+02  0.15274711507E+03  0.74643547539E+03  0.76500779129E+03  0.10100000352E+00 0. -1.
       -3    1    3    3    0  502  0.68842649904E+02 -0.15274711507E+03 -0.97935942296E+02  0.19406815968E+03  0.10100000352E+00 0.  1.
</event>
<event>
 5   0  0.2751729E-02  0.6903453E+03  0.7818609E-02  0.9733887E-01
       -1   -1    0    0    0  501  0.00000000000E+00  0.00000000000E+00  0.37295274533E+03  0.37295274536E+03  0.50400001928E-02 0.  1.
        1   -1    0    0  501    0  0.00000000000E+00  0.00000000000E+00 -0.31946180415E+03  0.31946180419E+03  0.50400001928E-02 0. -1.
    10030    2    1    2    0    0  0.00000000000E+00  0.00000000000E+00  0.53490941179E+02  0.69241454955E+03  0.69034529595E+03 0.  0.
        1    1    3    3  502    0 -0.17439345932E+03 -0.37937961685E+00  0.32551571501E+03  0.36928810342E+03  0.50400001928E-02 0.  1.
       -1    1    3    3    0  502  0.17439345932E+03  0.37937961685E+00 -0.27202477383E+03  0.32312644613E+03  0.50400001928E-02 0. -1.
</event>
<event>
 5   0  0.2758681E-02  0.7023042E+03  0.7818609E-02  0.9713300E-01
       -1   -1    0    0    0  501  0.00000000000E+00  0.00000000000E+00  0.14652682810E+03  0.14652682819E+03  0.50400001928E-02 0.  1.
        1   -1    0    0  501    0  0.00000000000E+00  0.00000000000E+00 -0.84153744846E+03  0.84153744848E+03  0.50400001928E-02 0. -1.
    10030    2    1    2    0    0  0.00000000000E+00  0.00000000000E+00 -0.69501062036E+03  0.98806427667E+03  0.70230424491E+03 0.  0.
        3    1    3    3  502    0  0.40242419118E+02  0.52395855256E+02 -0.83271492028E+03  0.83533162672E+03  0.10100000352E+00 0. -1.
       -3    1    3    3    0  502 -0.40242419118E+02 -0.52395855256E+02  0.13770429992E+03  0.15273264995E+03  0.10100000352E+00 0.  1.
</event>
<event>
 5   0  0.2777999E-02  0.6812203E+03  0.7818609E-02  0.9749898E-01
       -1   -1    0    0    0  501  0.00000000000E+00  0.00000000000E+00  0.15226906587E+03  0.15226906596E+03  0.50400001928E-02 0.  1.
        1   -1    0    0  501    0  0.00000000000E+00  0.00000000000E+00 -0.76190968396E+03  0.76190968397E+03  0.50400001928E-02 0. -1.
    10030    2    1    2    0    0  0.00000000000E+00  0.00000000000E+00 -0.60964061808E+03  0.91417874993E+03  0.68122030475E+03 0.  0.
        5    1    3    3  502    0  0.72347477123E+02 -0.33043474849E+03 -0.35802583582E+03  0.49257067469E+03  0.46999998093E+01 0. -1.
       -5    1    3    3    0  502 -0.72347477123E+02  0.33043474849E+03 -0.25161478227E+03  0.42160807524E+03  0.46999998093E+01 0.  1.
</event>
<event>
 5   0  0.2684924E-02  0.7018815E+03  0.7818609E-02  0.9714020E-01
       -1   -1    0    0    0  501  0.00000000000E+00  0.00000000000E+00  0.79719832483E+02  0.79719832642E+02  0.50400001928E-02 0. -1.
        1   -1    0    0  501    0  0.00000000000E+00  0.00000000000E+00 -0.15449032058E+04  0.15449032058E+04  0.50400001928E-02 0.  1.
    10030    2    1    2    0    0  0.00000000000E+00  0.00000000000E+00 -0.14651833733E+04  0.16246230385E+04  0.70188154245E+03 0.  0.
        4    1    3    3  502    0  0.14114076728E+03  0.83472562651E+02 -0.14507711456E+04  0.14600092173E+04  0.12699999809E+01 0.  1.
       -4    1    3    3    0  502 -0.14114076728E+03 -0.83472562651E+02 -0.14412227749E+02  0.16461382115E+03  0.12699999809E+01 0. -1.
</event>
<event>
 5   0  0.2684924E-02  0.6994406E+03  0.7818609E-02  0.9718189E-01
       -1   -1    0    0    0  501  0.00000000000E+00  0.00000000000E+00  0.10613587582E+03  0.10613587594E+03  0.50400001928E-02 0.  1.
        1   -1    0    0  501    0  0.00000000000E+00  0.00000000000E+00 -0.11523368824E+04  0.11523368824E+04  0.50400001928E-02 0. -1.
    10030    2    1    2    0    0  0.00000000000E+00  0.00000000000E+00 -0.10462010066E+04  0.12584727584E+04  0.69944058886E+03 0.  0.
        4    1    3    3  502    0 -0.29315962670E+03 -0.16932772780E+03 -0.68086382400E+03  0.76038911477E+03  0.12699999809E+01 0. -1.
       -4    1    3    3    0  502  0.29315962670E+03  0.16932772780E+03 -0.36533718262E+03  0.49808364361E+03  0.12699999809E+01 0.  1.
</event>
<event>
 5   0  0.4526837E-02  0.6865795E+03  0.7818609E-02  0.9740462E-01
       -2   -1    0    0    0  501  0.00000000000E+00  0.00000000000E+00  0.98224994346E+02  0.98224994379E+02  0.25500000920E-02 0.  1.
        2   -1    0    0  501    0  0.00000000000E+00  0.00000000000E+00 -0.11997747308E+04  0.11997747308E+04  0.25500000920E-02 0. -1.
    10030    2    1    2    0    0  0.00000000000E+00  0.00000000000E+00 -0.11015497365E+04  0.12979997252E+04  0.68657953996E+03 0.  0.
        1    1    3    3  502    0 -0.27247314988E+02  0.14847385484E+03 -0.11336625148E+04  0.11436684831E+04  0.50400001928E-02 0. -1.
       -1    1    3    3    0  502  0.27247314988E+02 -0.14847385484E+03  0.32112778290E+02  0.15433124214E+03  0.50400001928E-02 0.  1.
</event>
<event>
 5   0  0.4299912E-02  0.6814397E+03  0.7818609E-02  0.9749510E-01
       -2   -1    0    0    0  501  0.00000000000E+00  0.00000000000E+00  0.97224844531E+02  0.97224844564E+02  0.25500000920E-02 0.  1.
        2   -1    0    0  501    0  0.00000000000E+00  0.00000000000E+00 -0.11940364610E+04  0.11940364610E+04  0.25500000920E-02 0. -1.
    10030    2    1    2    0    0  0.00000000000E+00  0.00000000000E+00 -0.10968116164E+04  0.12912613055E+04  0.68143967981E+03 0.  0.
        3    1    3    3  502    0  0.17050197458E+03 -0.11842112030E+03 -0.36447254026E+02  0.21076740165E+03  0.10100000352E+00 0.  1.
       -3    1    3    3    0  502 -0.17050197458E+03  0.11842112030E+03 -0.10603643624E+04  0.10804939039E+04  0.10100000352E+00 0. -1.
</event>
<event>
 5   0  0.2777999E-02  0.7701640E+03  0.7818609E-02  0.9604237E-01
       -1   -1    0    0    0  501  0.00000000000E+00  0.00000000000E+00  0.19410732342E+03  0.19410732348E+03  0.50400001928E-02 0. -1.
        1   -1    0    0  501    0  0.00000000000E+00  0.00000000000E+00 -0.76394929268E+03  0.76394929270E+03  0.50400001928E-02 0.  1.
    10030    2    1    2    0    0  0.00000000000E+00  0.00000000000E+00 -0.56984196927E+03  0.95805661618E+03  0.77016401492E+03 0.  0.
        5    1    3    3  502    0 -0.27700081514E+03 -0.25948439140E+03 -0.36558189915E+03  0.52700456920E+03  0.46999998093E+01 0.  1.
       -5    1    3    3    0  502  0.27700081514E+03  0.25948439140E+03 -0.20426007012E+03  0.43105204699E+03  0.46999998093E+01 0. -1.
</event>
<event>
 5   0  0.4503289E-02  0.6905378E+03  0.7818609E-02  0.9733552E-01
       -2   -1    0    0    0  501  0.00000000000E+00  0.00000000000E+00  0.70692095687E+02  0.70692095733E+02  0.25500000920E-02 0. -1.
        2   -1    0    0  501    0  0.00000000000E+00  0.00000000000E+00 -0.16863359820E+04  0.16863359820E+04  0.25500000920E-02 0.  1.
    10030    2    1    2    0    0  0.00000000000E+00  0.00000000000E+00 -0.16156438863E+04  0.17570280777E+04  0.69053783283E+03 0.  0.
        2    1    3    3  502    0 -0.11136596649E+03  0.23074560826E+03 -0.13967070960E+04  0.14200128965E+04  0.25500000920E-02 0.  1.
       -2    1    3    3    0  502  0.11136596649E+03 -0.23074560826E+03 -0.21893679033E+03  0.33701518125E+03  0.25500000920E-02 0. -1.
</event>
<event>
 5   0  0.4365492E-02  0.6934759E+03  0.7818609E-02  0.9728455E-01
        2   -1    0    0  501    0  0.00000000000E+00  0.00000000000E+00  0.32075547917E+03  0.32075547918E+03  0.25500000920E-02 0. -1.
       -2   -1    0    0    0  501  0.00000000000E+00  0.00000000000E+00 -0.37482510713E+03  0.37482510714E+03  0.25500000920E-02 0.  1.
    10030    2    1    2    0    0  0.00000000000E+00  0.00000000000E+00 -0.54069627957E+02  0.69558058632E+03  0.69347590254E+03 0.  0.
        4    1    3    3  502    0  0.15515763111E+03 -0.16464383972E+03  0.23652512249E+03  0.32730296504E+03  0.12699999809E+01 0. -1.
       -4    1    3    3    0  502 -0.15515763111E+03  0.16464383972E+03 -0.29059475045E+03  0.36827762128E+03  0.12699999809E+01 0.  1.
</event>
<event>
 5   0  0.2684924E-02  0.7002441E+03  0.7818609E-02  0.9716815E-01
       -1   -1    0    0    0  501  0.00000000000E+00  0.00000000000E+00  0.10898885507E+03  0.10898885518E+03  0.50400001928E-02 0. -1.
        1   -1    0    0  501    0  0.00000000000E+00  0.00000000000E+00 -0.11247521072E+04  0.11247521072E+04  0.50400001928E-02 0.  1.
    10030    2    1    2    0    0  0.00000000000E+00  0.00000000000E+00 -0.10157632522E+04  0.12337409624E+04  0.70024408453E+03 0.  0.
        4    1    3    3  502    0  0.23418616606E+03 -0.19756973456E+03 -0.80639752458E+03  0.86264450438E+03  0.12699999809E+01 0.  1.
       -4    1    3    3    0  502 -0.23418616606E+03  0.19756973456E+03 -0.20936572759E+03  0.37109645805E+03  0.12699999809E+01 0. -1.
</event>
<event>
 5   0  0.4420645E-02  0.7699311E+03  0.7818609E-02  0.9604590E-01
       -2   -1    0    0    0  501  0.00000000000E+00  0.00000000000E+00  0.11417766042E+03  0.11417766045E+03  0.25500000920E-02 0. -1.
        2   -1    0    0  501    0  0.00000000000E+00  0.00000000000E+00 -0.12979638496E+04  0.12979638496E+04  0.25500000920E-02 0.  1.
    10030    2    1    2    0    0  0.00000000000E+00  0.00000000000E+00 -0.11837861891E+04  0.14121415100E+04  0.76993110258E+03 0.  0.
        5    1    3    3  502    0 -0.27206906135E+03 -0.27121570420E+03 -0.54708461905E+03  0.66850819198E+03  0.46999998093E+01 0. -1.
       -5    1    3    3    0  502  0.27206906135E+03  0.27121570420E+03 -0.63670157009E+03  0.74363331804E+03  0.46999998093E+01 0.  1.
</event>
<event>
 5   0  0.4526837E-02  0.6684557E+03  0.7818609E-02  0.9772752E-01
        2   -1    0    0  501    0  0.00000000000E+00  0.00000000000E+00  0.10446199488E+03  0.10446199491E+03  0.25500000920E-02 0. -1.
       -2   -1    0    0    0  501  0.00000000000E+00  0.00000000000E+00 -0.10693675833E+04  0.10693675833E+04  0.25500000920E-02 0.  1.
    10030    2    1    2    0    0  0.00000000000E+00  0.00000000000E+00 -0.96490558842E+03  0.11738295782E+04  0.66845574582E+03 0.  0.
        1    1    3    3  502    0  0.28565458550E+03 -0.16959975107E+03 -0.41803602098E+03  0.53396323154E+03  0.50400001928E-02 0.  1.
       -1    1    3    3    0  502 -0.28565458550E+03  0.16959975107E+03 -0.54686956744E+03  0.63986634667E+03  0.50400001928E-02 0. -1.
</event>
<event>
 5   0  0.2684924E-02  0.6660710E+03  0.7818609E-02  0.9777082E-01
       -1   -1    0    0    0  501  0.00000000000E+00  0.00000000000E+00  0.18041664907E+03  0.18041664914E+03  0.50400001928E-02 0.  1.
        1   -1    0    0  501    0  0.00000000000E+00  0.00000000000E+00 -0.61475837286E+03  0.61475837288E+03  0.50400001928E-02 0. -1.
    10030    2    1    2    0    0  0.00000000000E+00  0.00000000000E+00 -0.43434172379E+03  0.79517502202E+03  0.66607100419E+03 0.  0.
        4    1    3    3  502    0 -0.93850291386E+02 -0.14443801286E+03 -0.55744531132E+03  0.58345274424E+03  0.12699999809E+01 0. -1.
       -4    1    3    3    0  502  0.93850291386E+02  0.14443801286E+03  0.12310358752E+03  0.21172227779E+03  0.12699999809E+01 0.  1.
</event>
<event>
 5   0  0.1784625E-02  0.6916577E+03  0.7818609E-02  0.9731606E-01
       -3   -1    0    0    0  501  0.00000000000E+00  0.00000000000E+00  0.82783628721E+02  0.82783690333E+02  0.10100000352E+00 0. -1.
        3   -1    0    0  501    0  0.00000000000E+00  0.00000000000E+00 -0.14447005059E+04  0.14447005094E+04  0.10100000352E+00 0.  1.
    10030    2    1    2    0    0  0.00000000000E+00  0.00000000000E+00 -0.13619168772E+04  0.15274841998E+04  0.69165771895E+03 0.  0.
        4    1    3    3  502    0  0.47079587720E+02  0.18403761398E+03 -0.13191540985E+04  0.13327623492E+04  0.12699999809E+01 0.  1.
       -4    1    3    3    0  502 -0.47079587720E+02 -0.18403761398E+03 -0.42762778641E+02  0.19472185053E+03  0.12699999809E+01 0. -1.
</event>
<event>
 5   0  0.2751729E-02  0.7042184E+03  0.7818609E-02  0.9710045E-01
        1   -1    0    0  501    0  0.00000000000E+00  0.00000000000E+00  0.56156069346E+03  0.56156069348E+03  0.50400001928E-02 0.  1.
       -1   -1    0    0    0  501  0.00000000000E+00  0.00000000000E+00 -0.22077913414E+03  0.22077913420E+03  0.50400001928E-02 0. -1.
    10030    2    1    2    0    0  0.00000000000E+00  0.00000000000E+00  0.34078155932E+03  0.78233982768E+03  0.70421838573E+03 0.  0.
        1    1    3    3  502    0 -0.56165058251E+02 -0.80753875267E+02  0.54598684969E+03  0.55477684000E+03  0.50400001928E-02 0.  1.
       -1    1    3    3    0  502  0.56165058251E+02  0.80753875267E+02 -0.20520529037E+03  0.22756298768E+03  0.50400001928E-02 0. -1.
</event>
<event>
 5   0  0.4365492E-02  0.6960360E+03  0.7818609E-02  0.9724035E-01
        2   -1    0    0  501    0  0.00000000000E+00  0.00000000000E+00  0.31682777946E+03  0.31682777947E+03  0.25500000920E-02 0.  1.
       -2   -1    0    0    0  501  0.00000000000E+00  0.00000000000E+00 -0.38227875073E+03  0.38227875074E+03  0.25500000920E-02 0. -1.
    10030    2    1    2    0    0  0.00000000000E+00  0.00000000000E+00 -0.65450971277E+02  0.69910653021E+03  0.69603599830E+03 0.  0.
        4    1    3    3  502    0  0.33528446174E+03  0.82899115540E+02 -0.75657245878E+02  0.35357257444E+03  0.12699999809E+01 0. -1.
       -4    1    3    3    0  502 -0.33528446174E+03 -0.82899115540E+02  0.10206274601E+02  0.34553395576E+03  0.12699999809E+01 0.  1.
</event>
<event>
 5   0  0.4299912E-02  0.7020778E+03  0.7818609E-02  0.9713686E-01
        2   -1    0    0  501    0  0.00000000000E+00  0.00000000000E+00  0.29491228096E+03  0.29491228097E+03  0.25500000920E-02 0.  1.
       -2   -1    0    0    0  501  0.00000000000E+00  0.00000000000E+00 -0.41784727606E+03  0.41784727606E+03  0.25500000920E-02 0. -1.
    10030    2    1    2    0    0  0.00000000000E+00  0.00000000000E+00 -0.12293499510E+03  0.71275955703E+03  0.70207775433E+03 0.  0.
        3    1    3    3  502    0  0.13722693642E+03  0.32145459435E+03 -0.28352282219E+02  0.35066814856E+03  0.10100000352E+00 0. -1.
       -3    1    3    3    0  502 -0.13722693642E+03 -0.32145459435E+03 -0.94582712881E+02  0.36209140847E+03  0.10100000352E+00 0.  1.
</event>
<event>
 5   0  0.4503289E-02  0.7050587E+03  0.7818609E-02  0.9708620E-01
        2   -1    0    0  501    0  0.00000000000E+00  0.00000000000E+00  0.95757647795E+03  0.95757647795E+03  0.25500000920E-02 0.  1.
       -2   -1    0    0    0  501  0.00000000000E+00  0.00000000000E+00 -0.12978276866E+03  0.12978276869E+03  0.25500000920E-02 0. -1.
    10030    2    1    2    0    0  0.00000000000E+00  0.00000000000E+00  0.82779370929E+03  0.10873592466E+04  0.70505865438E+03 0.  0.
        2    1    3    3  502    0 -0.89959788689E+02 -0.27171497414E+03  0.96501297505E+02  0.30205014680E+03  0.25500000920E-02 0. -1.
       -2    1    3    3    0  502  0.89959788689E+02  0.27171497414E+03  0.73129241178E+03  0.78530909984E+03  0.25500000920E-02 0.  1.
</event>
<event>
 5   0  0.4503289E-02  0.6806454E+03  0.7818609E-02  0.9750916E-01
       -2   -1    0    0    0  501  0.00000000000E+00  0.00000000000E+00  0.17389327041E+03  0.17389327043E+03  0.25500000920E-02 0. -1.
        2   -1    0    0  501    0  0.00000000000E+00  0.00000000000E+00 -0.66603817577E+03  0.66603817578E+03  0.25500000920E-02 0.  1.
    10030    2    1    2    0    0  0.00000000000E+00  0.00000000000E+00 -0.49214490536E+03  0.83993144621E+03  0.68064544842E+03 0.  0.
        2    1    3    3  502    0  0.26249071059E+03 -0.20505735852E+03 -0.33218617418E+03  0.47042273303E+03  0.25500000920E-02 0.  1.
       -2    1    3    3    0  502 -0.26249071059E+03  0.20505735852E+03 -0.15995873119E+03  0.36950871318E+03  0.25500000920E-02 0. -1.
</event>
<event>
 5   0  0.4365492E-02  0.6925921E+03  0.7818609E-02  0.9729985E-01
       -2   -1    0    0    0  501  0.00000000000E+00  0.00000000000E+00  0.73760528846E+02  0.73760528890E+02  0.25500000920E-02 0. -1.
        2   -1    0    0  501    0  0.00000000000E+00  0.00000000000E+00 -0.16258145912E+04  0.16258145912E+04  0.25500000920E-02 0.  1.
    10030    2    1    2    0    0  0.00000000000E+00  0.00000000000E+00 -0.15520540624E+04  0.16995751201E+04  0.69259207068E+03 0.  0.
        4    1    3    3  502    0  0.18314401594E+03  0.26391994479E+03 -0.10933716621E+04  0.11395870622E+04  0.12699999809E+01 0. -1.
       -4    1    3    3    0  502 -0.18314401594E+03 -0.26391994479E+03 -0.45868240025E+03  0.55998805794E+03  0.12699999809E+01 0.  1.
</event>
<event>
 5   0  0.4420645E-02  0.7032396E+03  0.7818609E-02  0.9711708E-01
        2   -1    0    0  501    0  0.00000000000E+00  0.00000000000E+00  0.48729428258E+03  0.48729428259E+03  0.25500000920E-02 0. -1.
       -2   -1    0    0    0  501  0.00000000000E+00  0.00000000000E+00 -0.25372035447E+03  0.25372035448E+03  0.25500000920E-02 0.  1.
    10030    2    1    2    0    0  0.00000000000E+00  0.00000000000E+00  0.23357392811E+03  0.74101463707E+03  0.70323958396E+03 0.  0.
        5    1    3    3  502    0  0.26253795417E+03  0.31982734630E+01  0.36318073043E+03  0.44817266682E+03  0.46999998093E+01 0. -1.
       -5    1    3    3    0  502 -0.26253795417E+03 -0.31982734630E+01 -0.12960680232E+03  0.29284197025E+03  0.46999998093E+01 0.  1.
</event>
<event>
 5   0  0.4420645E-02  0.6916788E+03  0.7818609E-02  0.9731569E-01
        2   -1    0    0  501    0  0.00000000000E+00  0.00000000000E+00  0.53477774682E+03  0.53477774683E+03  0.25500000920E-02 0.  1.
       -2   -1    0    0    0  501  0.00000000000E+00  0.00000000000E+00 -0.22365345306E+03  0.22365345307E+03  0.25500000920E-02 0. -1.
    10030    2    1    2    0    0  0.00000000000E+00  0.00000000000E+00  0.31112429376E+03  0.75843119990E+03  0.69167879743E+03 0.  0.
        5    1    3    3  502    0  0.30324980011E+02  0.87266365589E+02  0.52096056372E+03  0.52910965019E+03  0.46999998093E+01 0.  1.
       -5    1    3    3    0  502 -0.30324980011E+02 -0.87266365589E+02 -0.20983626995E+03  0.22932154971E+03  0.46999998093E+01 0. -1.
</event>
<event>
 5   0  0.4299912E-02  0.6892148E+03  0.7818609E-02  0.9735856E-01
       -2   -1    0    0    0  501  0.00000000000E+00  0.00000000000E+00  0.85356385083E+03  0.85356385083E+03  0.25500000920E-02 0.  1.
        2   -1    0    0  501    0  0.00000000000E+00  0.00000000000E+00 -0.13912754590E+03  0.13912754593E+03  0.25500000920E-02 0. -1.
    10030    2    1    2    0    0  0.00000000000E+00  0.00000000000E+00  0.71443630492E+03  0.99269139676E+03  0.68921475275E+03 0.  0.
        3    1    3    3  502    0  0.35187549152E+02 -0.34280528058E+03  0.35834274938E+03  0.49715506660E+03  0.10100000352E+00 0.  1.
       -3    1    3    3    0  502 -0.35187549152E+02  0.34280528058E+03  0.35609355555E+03  0.49553633017E+03  0.10100000352E+00 0. -1.
</event>
<event>
 5   0  0.2684924E-02  0.6914679E+03  0.7818609E-02  0.9731936E-01
        1   -1    0    0  501    0  0.00000000000E+00  0.00000000000E+00  0.11112215911E+04  0.11112215911E+04  0.50400001928E-02 0. -1.
       -1   -1    0    0    0  501  0.00000000000E+00  0.00000000000E+00 -0.10756806559E+03  0.10756806570E+03  0.50400001928E-02 0.  1.
    10030    2    1    2    0    0  0.00000000000E+00  0.00000000000E+00  0.10036535255E+04  0.12187896568E+04  0.69146787942E+03 0.  0.
        4    1    3    3  502    0  0.19226800172E+03  0.62553952956E+02  0.99614554682E+03  0.10164583341E+04  0.12699999809E+01 0. -1.
       -4    1    3    3    0  502 -0.19226800172E+03 -0.62553952956E+02  0.75079786603E+01  0.20233132273E+03  0.12699999809E+01 0.  1.
</event>
<event>
 5   0  0.2751729E-02  0.7031572E+03  0.7818609E-02  0.9711848E-01
       -1   -1    0    0    0  501  0.00000000000E+00  0.00000000000E+00  0.53743996840E+03  0.53743996842E+03  0.50400001928E-02 0.  1.
        1   -1    0    0  501    0  0.00000000000E+00  0.00000000000E+00 -0.22999317599E+03  0.22999317604E+03  0.50400001928E-02 0. -1.
    10030    2    1    2    0    0  0.00000000000E+00  0.00000000000E+00  0.30744679241E+03  0.76743314447E+03  0.70315723779E+03 0.  0.
        1    1    3    3  502    0  0.20224519462E+03 -0.20296917840E+03 -0.68635024766E+02  0.29463600048E+03  0.50400001928E-02 0. -1.
       -1    1    3    3    0  502 -0.20224519462E+03  0.20296917840E+03  0.37608181718E+03  0.47279714399E+03  0.50400001928E-02 0.  1.
</event>
<event>
 5   0  0.4503289E-02  0.6829710E+03  0.7818609E-02  0.9746805E-01
       -2   -1    0    0    0  501  0.00000000000E+00  0.00000000000E+00  0.23391250845E+03  0.23391250847E+03  0.25500000920E-02 0. -1.
        2   -1    0    0  501    0  0.00000000000E+00  0.00000000000E+00 -0.49852978029E+03  0.49852978029E+03  0.25500000920E-02 0.  1.
    10030    2    1    2    0    0  0.00000000000E+00  0.00000000000E+00 -0.26461727183E+03  0.73244228876E+03  0.68297101389E+03 0.  0.
        2    1    3    3  502    0 -0.20015111369E+03  0.61064652808E+02  0.15709594161E+03  0.26166485246E+03  0.25500000920E-02 0. -1.
       -2    1    3    3    0  502  0.20015111369E+03 -0.61064652808E+02 -0.42171321344E+03  0.47077743630E+03  0.25500000920E-02 0.  1.
</event>
<event>
 5   0  0.4365492E-02  0.6941674E+03  0.7818609E-02  0.9727259E-01
        2   -1    0    0  501    0  0.00000000000E+00  0.00000000000E+00  0.46191910137E+03  0.46191910138E+03  0.25500000920E-02 0. -1.
       -2   -1    0    0    0  501  0.00000000000E+00  0.00000000000E+00 -0.26079692473E+03  0.26079692474E+03  0.25500000920E-02 0.  1.
    10030    2    1    2    0    0  0.00000000000E+00  0.00000000000E+00  0.20112217664E+03  0.72271602612E+03  0.69416736057E+03 0.  0.
        4    1    3    3  502    0  0.15157655887E+02 -0.14442140338E+03 -0.22764678689E+03  0.27002216348E+03  0.12699999809E+01 0.  1.
       -4    1    3    3    0  502 -0.15157655887E+02  0.14442140338E+03  0.42876896353E+03  0.45269386265E+03  0.12699999809E+01 0. -1.
</event>
<event>
 5   0  0.2777999E-02  0.7072873E+03  0.7818609E-02  0.9704850E-01
       -1   -1    0    0    0  501  0.00000000000E+00  0.00000000000E+00  0.12709540206E+03  0.12709540216E+03  0.50400001928E-02 0. -1.
        1   -1    0    0  501    0  0.00000000000E+00  0.00000000000E+00 -0.98401549870E+03  0.98401549871E+03  0.50400001928E-02 0.  1.
    10030    2    1    2    0    0  0.00000000000E+00  0.00000000000E+00 -0.85692009664E+03  0.11111109009E+04  0.70728734049E+03 0.  0.
        5    1    3    3  502    0 -0.13439102845E+03  0.34030180191E+02 -0.93949552805E+03  0.94968044042E+03  0.46999998093E+01 0.  1.
       -5    1    3    3    0  502  0.13439102845E+03 -0.34030180191E+02  0.82575431410E+02  0.16143046046E+03  0.46999998093E+01 0. -1.
</event>
<event>
 5   0  0.1784625E-02  0.6971501E+03  0.7818609E-02  0.9722118E-01
       -3   -1    0    0    0  501  0.00000000000E+00  0.00000000000E+00  0.62755759509E+03  0.62755760322E+03  0.10100000352E+00 0. -1.
        3   -1    0    0  501    0  0.00000000000E+00  0.00000000000E+00 -0.19361497429E+03  0.19361500064E+03  0.10100000352E+00 0.  1.
    10030    2    1    2    0    0  0.00000000000E+00  0.00000000000E+00  0.43394262080E+03  0.82117260385E+03  0.69715008942E+03 0.  0.
        2    1    3    3  502    0  0.33502922652E+03 -0.93006864632E+02  0.18788644361E+03  0.39521661806E+03  0.25500000920E-02 0.  1.
       -2    1    3    3    0  502 -0.33502922652E+03  0.93006864632E+02  0.24605617719E+03  0.42595598579E+03  0.25500000920E-02 0. -1.
</event>
<event>
 5   0  0.4526837E-02  0.7010147E+03  0.7818609E-02  0.9715499E-01
        2   -1    0    0  501    0  0.00000000000E+00  0.00000000000E+00  0.73875688009E+03  0.73875688010E+03  0.25500000920E-02 0.  1.
       -2   -1    0    0    0  501  0.00000000000E+00  0.00000000000E+00 -0.16630017085E+03  0.16630017087E+03  0.25500000920E-02 0. -1.
    10030    2    1    2    0    0  0.00000000000E+00  0.00000000000E+00  0.57245670924E+03  0.90505705097E+03  0.70101467998E+03 0.  0.
        1    1    3    3  502    0 -0.32037942134E+03 -0.14099733423E+03  0.30975886371E+03  0.46741178371E+03  0.50400001928E-02 0.  1.
       -1    1    3    3    0  502  0.32037942134E+03  0.14099733423E+03  0.26269784553E+03  0.43764526726E+03  0.50400001928E-02 0. -1.
</event>
<event>
 5   0  0.2777999E-02  0.7039598E+03  0.7818609E-02  0.9710484E-01
        1   -1    0    0  501    0  0.00000000000E+00  0.00000000000E+00  0.10085787665E+04  0.10085787665E+04  0.50400001928E-02 0.  1.
       -1   -1    0    0    0  501  0.00000000000E+00  0.00000000000E+00 -0.12283607653E+03  0.12283607663E+03  0.50400001928E-02 0. -1.
    10030    2    1    2    0    0  0.00000000000E+00  0.00000000000E+00  0.88574268996E+03  0.11314148431E+04  0.70395982446E+03 0.  0.
        5    1    3    3  502    0  0.23186104368E+03  0.24154614629E+03  0.26855196312E+03  0.42923924710E+03  0.46999998093E+01 0. -1.
       -5    1    3    3    0  502 -0.23186104368E+03 -0.24154614629E+03  0.61719072684E+03  0.70217559603E+03  0.46999998093E+01 0.  1.
</event>
<event>
 5   0  0.2684924E-02  0.7038129E+03  0.7818609E-02  0.9710734E-01
       -1   -1    0    0    0  501  0.00000000000E+00  0.00000000000E+00  0.69168874329E+02  0.69168874512E+02  0.50400001928E-02 0. -1.
        1   -1    0    0  501    0  0.00000000000E+00  0.00000000000E+00 -0.17903737743E+04  0.17903737743E+04  0.50400001928E-02 0.  1.
    10030    2    1    2    0    0  0.00000000000E+00  0.00000000000E+00 -0.17212049000E+04  0.18595426488E+04  0.70381286938E+03 0.  0.
        4    1    3    3  502    0  0.23357565097E+03 -0.11745288124E+03 -0.14829484307E+04  0.15058188553E+04  0.12699999809E+01 0.  1.
       -4    1    3    3    0  502 -0.23357565097E+03  0.11745288124E+03 -0.23825646928E+03  0.35372379350E+03  0.12699999809E+01 0. -1.
</event>
<event>
 5   0  0.2684924E-02  0.7025382E+03  0.7818609E-02  0.9712901E-01
        1   -1    0    0  501    0  0.00000000000E+00  0.00000000000E+00  0.81649224626E+03  0.81649224627E+03  0.50400001928E-02 0.  1.
       -1   -1    0    0    0  501  0.00000000000E+00  0.00000000000E+00 -0.15112206649E+03  0.15112206658E+03  0.50400001928E-02 0. -1.
    10030    2    1    2    0    0  0.00000000000E+00  0.00000000000E+00  0.66537017977E+03  0.96761431285E+03  0.70253824260E+03 0.  0.
        4    1    3    3  502    0  0.32062314279E+03  0.12908141784E+02  0.52951334141E+03  0.61915410961E+03  0.12699999809E+01 0. -1.
       -4    1    3    3    0  502 -0.32062314279E+03 -0.12908141784E+02  0.13585683835E+03  0.34846020324E+03  0.12699999809E+01 0.  1.
</event>
<event>
 5   0  0.2751729E-02  0.6880834E+03  0.7818609E-02  0.9737831E-01
       -1   -1    0    0    0  501  0.00000000000E+00  0.00000000000E+00  0.10815470910E+03  0.10815470922E+03  0.50400001928E-02 0.  1.
        1   -1    0    0  501    0  0.00000000000E+00  0.00000000000E+00 -0.10944017775E+04  0.10944017775E+04  0.50400001928E-02 0. -1.
    10030    2    1    2    0    0  0.00000000000E+00  0.00000000000E+00 -0.98624706835E+03  0.12025564867E+04  0.68808344250E+03 0.  0.
        1    1    3    3  502    0 -0.31793660993E+02 -0.34206877985E+03 -0.52548265848E+03  0.62781678173E+03  0.50400001928E-02 0. -1.
       -1    1    3    3    0  502  0.31793660993E+02  0.34206877985E+03 -0.46076440987E+03  0.57473970496E+03  0.50400001928E-02 0.  1.
</event>
<event>
 5   0  0.2751729E-02  0.6936163E+03  0.7818609E-02  0.9728212E-01
        1   -1    0    0  501    0  0.00000000000E+00  0.00000000000E+00  0.12574685455E+04  0.12574685455E+04  0.50400001928E-02 0. -1.
       -1   -1    0    0    0  501  0.00000000000E+00  0.00000000000E+00 -0.95649216777E+02  0.95649216909E+02  0.50400001928E-02 0.  1.
    10030    2    1    2    0    0  0.00000000000E+00  0.00000000000E+00  0.11618193287E+04  0.13531177624E+04  0.69361626739E+03 0.  0.
        1    1    3    3  502    0  0.73177258909E+02  0.23812327052E+03  0.10516116217E+04  0.10807148588E+04  0.50400001928E-02 0. -1.
       -1    1    3    3    0  502 -0.73177258909E+02 -0.23812327052E+03  0.11020770707E+03  0.27240290363E+03  0.50400001928E-02 0.  1.
</event>
<event>
 5   0  0.1784625E-02  0.7458174E+03  0.7818609E-02  0.9641935E-01
        4   -1    0    0  501    0  0.00000000000E+00  0.00000000000E+00  0.68180503967E+03  0.68180622249E+03  0.12699999809E+01 0.  1.
       -4   -1    0    0    0  501  0.00000000000E+00  0.00000000000E+00 -0.20395657035E+03  0.20396052434E+03  0.12699999809E+01 0. -1.
    10030    2    1    2    0    0  0.00000000000E+00  0.00000000000E+00  0.47784846932E+03  0.88576674682E+03  0.74581738391E+03 0.  0.
        4    1    3    3  502    0 -0.33058234111E+03 -0.15442625269E+03  0.14748996124E+03  0.39355692516E+03  0.12699999809E+01 0. -1.
       -4    1    3    3    0  502  0.33058234111E+03  0.15442625269E+03  0.33035850809E+03  0.49220982166E+03  0.12699999809E+01 0.  1.
</event>
<event>
 5   0  0.2777999E-02  0.7006055E+03  0.7818609E-02  0.9716197E-01
        1   -1    0    0  501    0  0.00000000000E+00  0.00000000000E+00  0.28724203059E+03  0.28724203064E+03  0.50400001928E-02 0. -1.
       -1   -1    0    0    0  501  0.00000000000E+00  0.00000000000E+00 -0.42720772549E+03  0.42720772552E+03  0.50400001928E-02 0.  1.
    10030    2    1    2    0    0  0.00000000000E+00  0.00000000000E+00 -0.13996569490E+03  0.71444975616E+03  0.70060549408E+03 0.  0.
        5    1    3    3  502    0 -0.22051305144E+02 -0.50660832336E+02  0.28273803568E+03  0.28812439468E+03  0.46999998093E+01 0. -1.
       -5    1    3    3    0  502  0.22051305144E+02  0.50660832336E+02 -0.42270373058E+03  0.42632536148E+03  0.46999998093E+01 0.  1.
</event>
<event>
 5   0  0.4299912E-02  0.6846287E+03  0.7818609E-02  0.9743886E-01
       -2   -1    0    0    0  501  0.00000000000E+00  0.00000000000E+00  0.20371228863E+03  0.20371228865E+03  0.25500000920E-02 0.  1.
        2   -1    0    0  501    0  0.00000000000E+00  0.00000000000E+00 -0.57521862659E+03  0.57521862660E+03  0.25500000920E-02 0. -1.
    10030    2    1    2    0    0  0.00000000000E+00  0.00000000000E+00 -0.37150633796E+03  0.77893091525E+03  0.68462866693E+03 0.  0.
        3    1    3    3  502    0  0.51602931660E+02 -0.22228581734E+03 -0.47605638804E+03  0.52792380316E+03  0.10100000352E+00 0. -1.
       -3    1    3    3    0  502 -0.51602931660E+02  0.22228581734E+03  0.10455005008E+03  0.25100711209E+03  0.10100000352E+00 0.  1.
</event>
<event>
 5   0  0.2758681E-02  0.6991978E+03  0.7818609E-02  0.9718605E-01
       -1   -1    0    0    0  501  0.00000000000E+00  0.00000000000E+00  0.17526236227E+03  0.17526236234E+03  0.50400001928E-02 0. -1.
        1   -1    0    0  501    0  0.00000000000E+00  0.00000000000E+00 -0.69735110692E+03  0.69735110694E+03  0.50400001928E-02 0.  1.
    10030    2    1    2    0    0  0.00000000000E+00  0.00000000000E+00 -0.52208874465E+03  0.87261346928E+03  0.69919783286E+03 0.  0.
        3    1    3    3  502    0 -0.33980185965E+03  0.75674691569E+02 -0.30104785795E+03  0.46024100832E+03  0.10100000352E+00 0.  1.
       -3    1    3    3    0  502  0.33980185965E+03 -0.75674691569E+02 -0.22104088670E+03  0.41237246096E+03  0.10100000352E+00 0. -1.
</event>
<event>
 5   0  0.1784625E-02  0.6919910E+03  0.7818609E-02  0.9731027E-01
        3   -1    0    0  501    0  0.00000000000E+00  0.00000000000E+00  0.31893871195E+03  0.31893872794E+03  0.10100000352E+00 0. -1.
       -3   -1    0    0    0  501  0.00000000000E+00  0.00000000000E+00 -0.37534760361E+03  0.37534761720E+03  0.10100000352E+00 0.  1.
    10030    2    1    2    0    0  0.00000000000E+00  0.00000000000E+00 -0.56408891662E+02  0.69428634514E+03  0.69199101583E+03 0.  0.
        5    1    3    3  502    0 -0.21832922767E+03  0.20236083761E+03 -0.20506518927E+03  0.36151263063E+03  0.46999998093E+01 0. -1.
       -5    1    3    3    0  502  0.21832922767E+03 -0.20236083761E+03  0.14865629761E+03  0.33277371451E+03  0.46999998093E+01 0.  1.
</event>
<event>
 5   0  0.1784625E-02  0.6806461E+03  0.7818609E-02  0.9750915E-01
        4   -1    0    0  501    0  0.00000000000E+00  0.00000000000E+00  0.45886067589E+03  0.45886243339E+03  0.12699999809E+01 0.  1.
       -4   -1    0    0    0  501  0.00000000000E+00  0.00000000000E+00 -0.25240348395E+03  0.25240667901E+03  0.12699999809E+01 0. -1.
    10030    2    1    2    0    0  0.00000000000E+00  0.00000000000E+00  0.20645719194E+03  0.71126911240E+03  0.68064614753E+03 0.  0.
        3    1    3    3  502    0 -0.31199420848E+03 -0.12813376579E+03  0.15067091530E+03  0.36940544525E+03  0.10100000352E+00 0. -1.
       -3    1    3    3    0  502  0.31199420848E+03  0.12813376579E+03  0.55786276631E+02  0.34186366715E+03  0.10100000352E+00 0.  1.
</event>
<event>
 5   0  0.4420645E-02  0.7011119E+03  0.7818609E-02  0.9715333E-01
       -2   -1    0    0    0  501  0.00000000000E+00  0.00000000000E+00  0.40819180733E+03  0.40819180734E+03  0.25500000920E-02 0.  1.
        2   -1    0    0  501    0  0.00000000000E+00  0.00000000000E+00 -0.30105816843E+03  0.30105816844E+03  0.25500000920E-02 0. -1.
    10030    2    1    2    0    0  0.00000000000E+00  0.00000000000E+00  0.10713363891E+03  0.70924997578E+03  0.70111191086E+03 0.  0.
        5    1    3    3  502    0  0.71665403900E+02 -0.28614727907E+03  0.24510871771E+03  0.38355777783E+03  0.46999998093E+01 0.  1.
       -5    1    3    3    0  502 -0.71665403900E+02  0.28614727907E+03 -0.13797507880E+03  0.32569219795E+03  0.46999998093E+01 0. -1.
</event>
<event>
 5   0  0.4299912E-02  0.6952613E+03  0.7818609E-02  0.9725370E-01
        2   -1    0    0  501    0  0.00000000000E+00  0.00000000000E+00  0.99655318587E+03  0.99655318587E+03  0.25500000920E-02 0.  1.
       -2   -1    0    0    0  501  0.00000000000E+00  0.00000000000E+00 -0.12126506013E+03  0.12126506016E+03  0.25500000920E-02 0. -1.
    10030    2    1    2    0    0  0.00000000000E+00  0.00000000000E+00  0.87528812574E+03  0.11178182460E+04  0.69526133799E+03 0.  0.
        3    1    3    3  502    0 -0.23670013675E+03  0.60602780517E+02  0.40075364910E+02  0.24759987241E+03  0.10100000352E+00 0. -1.
       -3    1    3    3    0  502  0.23670013675E+03 -0.60602780517E+02  0.83521276082E+03  0.87021837362E+03  0.10100000352E+00 0.  1.
</event>
<event>
 5   0  0.2751729E-02  0.6970897E+03  0.7818609E-02  0.9722222E-01
        1   -1    0    0  501    0  0.00000000000E+00  0.00000000000E+00  0.27429781394E+03  0.27429781399E+03  0.50400001928E-02 0.  1.
       -1   -1    0    0    0  501  0.00000000000E+00  0.00000000000E+00 -0.44288907869E+03  0.44288907872E+03  0.50400001928E-02 0. -1.
    10030    2    1    2    0    0  0.00000000000E+00  0.00000000000E+00 -0.16859126475E+03  0.71718689271E+03  0.69708968183E+03 0.  0.
        1    1    3    3  502    0 -0.13586394171E+03  0.31760084808E+03 -0.13204706132E+03  0.36981851737E+03  0.50400001928E-02 0. -1.
       -1    1    3    3    0  502  0.13586394171E+03 -0.31760084808E+03 -0.36544203428E+02  0.34736837534E+03  0.50400001928E-02 0.  1.
</event>
<event>
 5   0  0.4365492E-02  0.7034215E+03  0.7818609E-02  0.9711399E-01
       -2   -1    0    0    0  501  0.00000000000E+00  0.00000000000E+00  0.68440916374E+02  0.68440916422E+02  0.25500000920E-02 0.  1.
        2   -1    0    0  501    0  0.00000000000E+00  0.00000000000E+00 -0.18074047666E+04  0.18074047666E+04  0.25500000920E-02 0. -1.
    10030    2    1    2    0    0  0.00000000000E+00  0.00000000000E+00 -0.17389638502E+04  0.18758456830E+04  0.70342146265E+03 0.  0.
        4    1    3    3  502    0  0.25760175973E+03 -0.23059780608E+03 -0.69738261331E+03  0.77838174249E+03  0.12699999809E+01 0.  1.
       -4    1    3    3    0  502 -0.25760175973E+03  0.23059780608E+03 -0.10415812369E+04  0.10974639405E+04  0.12699999809E+01 0. -1.
</event>
<event>
 5   0  0.4526837E-02  0.7025848E+03  0.7818609E-02  0.9712822E-01
       -2   -1    0    0    0  501  0.00000000000E+00  0.00000000000E+00  0.59893812857E+03  0.59893812857E+03  0.25500000920E-02 0.  1.
        2   -1    0    0  501    0  0.00000000000E+00  0.00000000000E+00 -0.20604191507E+03  0.20604191509E+03  0.25500000920E-02 0. -1.
    10030    2    1    2    0    0  0.00000000000E+00  0.00000000000E+00  0.39289621350E+03  0.80498004366E+03  0.70258482485E+03 0.  0.
        1    1    3    3  502    0 -0.32608973248E+03 -0.67541726261E+02  0.32459684054E+03  0.46503710317E+03  0.50400001928E-02 0.  1.
       -1    1    3    3    0  502  0.32608973248E+03  0.67541726261E+02  0.68299372956E+02  0.33994294049E+03  0.50400001928E-02 0. -1.
</event>
<event>
 5   0  0.4299912E-02  0.7042031E+03  0.7818609E-02  0.9710071E-01
       -2   -1    0    0    0  501  0.00000000000E+00  0.00000000000E+00  0.23543740466E+03  0.23543740468E+03  0.25500000920E-02 0. -1.
        2   -1    0    0  501    0  0.00000000000E+00  0.00000000000E+00 -0.52657522310E+03  0.52657522310E+03  0.25500000920E-02 0.  1.
    10030    2    1    2    0    0  0.00000000000E+00  0.00000000000E+00 -0.29113781843E+03  0.76201262778E+03  0.70420310676E+03 0.  0.
        3    1    3    3  502    0  0.24569530052E+02  0.29131474925E+03  0.66773709305E+02  0.29987778076E+03  0.10100000352E+00 0.  1.
       -3    1    3    3    0  502 -0.24569530052E+02 -0.29131474925E+03 -0.35791152774E+03  0.46213484702E+03  0.10100000352E+00 0. -1.
</event>
<event>
 5   0  0.2777999E-02  0.6711096E+03  0.7818609E-02  0.9767955E-01
        1   -1    0    0  501    0  0.00000000000E+00  0.00000000000E+00  0.65378424642E+03  0.65378424644E+03  0.50400001928E-02 0.  1.
       -1   -1    0    0    0  501  0.00000000000E+00  0.00000000000E+00 -0.17222351554E+03  0.17222351561E+03  0.50400001928E-02 0. -1.
    10030    2    1    2    0    0  0.00000000000E+00  0.00000000000E+00  0.48156073089E+03  0.82600776205E+03  0.67110959272E+03 0.  0.
        5    1    3    3  502    0 -0.22085438993E+03  0.10467239104E+03 -0.42150379033E+02  0.24805587162E+03  0.46999998093E+01 0. -1.
       -5    1    3    3    0  502  0.22085438993E+03 -0.10467239104E+03  0.52371110992E+03  0.57795189043E+03  0.46999998093E+01 0.  1.
</event>
<event>
 5   0  0.2750139E-02  0.6968002E+03  0.7818609E-02  0.9722720E-01
        1   -1    0    0  501    0  0.00000000000E+00  0.00000000000E+00  0.20767652226E+03  0.20767652232E+03  0.50400001928E-02 0. -1.
       -1   -1    0    0    0  501  0.00000000000E+00  0.00000000000E+00 -0.58447930141E+03  0.58447930143E+03  0.50400001928E-02 0.  1.
    10030    2    1    2    0    0  0.00000000000E+00  0.00000000000E+00 -0.37680277915E+03  0.79215582375E+03  0.69680019714E+03 0.  0.
        2    1    3    3  502    0  0.24191100242E+03  0.19180215055E+03 -0.48307973858E+01  0.30875934748E+03  0.25500000920E-02 0. -1.
       -2    1    3    3    0  502 -0.24191100242E+03 -0.19180215055E+03 -0.37197198176E+03  0.48339647627E+03  0.25500000920E-02 0.  1.
</event>
<event>
 5   0  0.2751729E-02  0.7053960E+03  0.7818609E-02  0.9708049E-01
       -1   -1    0    0    0  501  0.00000000000E+00  0.00000000000E+00  0.98852712742E+02  0.98852712871E+02  0.50400001928E-02 0. -1.
        1   -1    0    0  501    0  0.00000000000E+00  0.00000000000E+00 -0.12583963271E+04  0.12583963271E+04  0.50400001928E-02 0.  1.
    10030    2    1    2    0    0  0.00000000000E+00  0.00000000000E+00 -0.11595436144E+04  0.13572490400E+04  0.70539603270E+03 0.  0.
        1    1    3    3  502    0  0.67481494584E+02  0.23238761647E+03 -0.10734742637E+04  0.11004111737E+04  0.50400001928E-02 0.  1.
       -1    1    3    3    0  502 -0.67481494584E+02 -0.23238761647E+03 -0.86069350672E+02  0.25683786627E+03  0.50400001928E-02 0. -1.
</event>
<event>
 5   0  0.4503289E-02  0.6990496E+03  0.7818609E-02  0.9718859E-01
        2   -1    0    0  501    0  0.00000000000E+00  0.00000000000E+00  0.13225318173E+04  0.13225318173E+04  0.25500000920E-02 0.  1.
       -2   -1    0    0    0  501  0.00000000000E+00  0.00000000000E+00 -0.92374027503E+02  0.92374027538E+02  0.25500000920E-02 0. -1.
    10030    2    1    2    0    0  0.00000000000E+00  0.00000000000E+00  0.12301577898E+04  0.14149058448E+04  0.69904961338E+03 0.  0.
        2    1    3    3  502    0  0.49418516676E+02 -0.33730722129E+03  0.45896187415E+03  0.57172052023E+03  0.25500000920E-02 0. -1.
       -2    1    3    3    0  502 -0.49418516676E+02  0.33730722129E+03  0.77119591565E+03  0.84318532461E+03  0.25500000920E-02 0.  1.
</event>
<event>
 5   0  0.4365492E-02  0.7024220E+03  0.7818609E-02  0.9713099E-01
       -2   -1    0    0    0  501  0.00000000000E+00  0.00000000000E+00  0.27431363191E+03  0.27431363193E+03  0.25500000920E-02 0. -1.
        2   -1    0    0  501    0  0.00000000000E+00  0.00000000000E+00 -0.44966469461E+03  0.44966469462E+03  0.25500000920E-02 0.  1.
    10030    2    1    2    0    0  0.00000000000E+00  0.00000000000E+00 -0.17535106270E+03  0.72397832654E+03  0.70242196870E+03 0.  0.
        4    1    3    3  502    0  0.14325185042E+03  0.30927462130E+03 -0.36666219314E+00  0.34084253163E+03  0.12699999809E+01 0. -1.
       -4    1    3    3    0  502 -0.14325185042E+03 -0.30927462130E+03 -0.17498440050E+03  0.38313579492E+03  0.12699999809E+01 0.  1.
</event>
<event>
 5   0  0.2750139E-02  0.5871508E+03  0.7818609E-02  0.9932429E-01
       -1   -1    0    0    0  501  0.00000000000E+00  0.00000000000E+00  0.21810379936E+03  0.21810379942E+03  0.50400001928E-02 0. -1.
        1   -1    0    0  501    0  0.00000000000E+00  0.00000000000E+00 -0.39516277268E+03  0.39516277272E+03  0.50400001928E-02 0.  1.
    10030    2    1    2    0    0  0.00000000000E+00  0.00000000000E+00 -0.17705897332E+03  0.61326657214E+03  0.58715075446E+03 0.  0.
        2    1    3    3  502    0  0.86220296196E+02 -0.87385745248E+02 -0.36706734270E+03  0.38705121371E+03  0.25500000920E-02 0.  1.
       -2    1    3    3    0  502 -0.86220296196E+02  0.87385745248E+02  0.19000836938E+03  0.22621535843E+03  0.25500000920E-02 0. -1.
</event>
<event>
 5   0  0.1784625E-02  0.7007141E+03  0.7818609E-02  0.9716012E-01
       -3   -1    0    0    0  501  0.00000000000E+00  0.00000000000E+00  0.36613270953E+03  0.36613272346E+03  0.10100000352E+00 0. -1.
        3   -1    0    0  501    0  0.00000000000E+00  0.00000000000E+00 -0.33526112676E+03  0.33526114198E+03  0.10100000352E+00 0.  1.
    10030    2    1    2    0    0  0.00000000000E+00  0.00000000000E+00  0.30871582767E+02  0.70139386544E+03  0.70071413561E+03 0.  0.
        3    1    3    3  502    0  0.23396509827E+03 -0.17035977015E+03  0.21308098789E+03  0.35939621046E+03  0.10100000352E+00 0. -1.
       -3    1    3    3    0  502 -0.23396509827E+03  0.17035977015E+03 -0.18220940512E+03  0.34199765498E+03  0.10100000352E+00 0.  1.
</event>
<event>
 5   0  0.2777999E-02  0.7023657E+03  0.7818609E-02  0.9713195E-01
        1   -1    0    0  501    0  0.00000000000E+00  0.00000000000E+00  0.28667328924E+03  0.28667328928E+03  0.50400001928E-02 0. -1.
       -1   -1    0    0    0  501  0.00000000000E+00  0.00000000000E+00 -0.43020887264E+03  0.43020887267E+03  0.50400001928E-02 0.  1.
    10030    2    1    2    0    0  0.00000000000E+00  0.00000000000E+00 -0.14353558340E+03  0.71688216196E+03  0.70236569565E+03 0.  0.
        5    1    3    3  502    0 -0.58069853851E+02 -0.32233847139E+03 -0.20100670401E+03  0.38431755505E+03  0.46999998093E+01 0.  1.
       -5    1    3    3    0  502  0.58069853851E+02  0.32233847139E+03  0.57471120604E+02  0.33256460691E+03  0.46999998093E+01 0. -1.
</event>
<event>
 5   0  0.2750139E-02  0.6995594E+03  0.7818609E-02  0.9717986E-01
        1   -1    0    0  501    0  0.00000000000E+00  0.00000000000E+00  0.47748570416E+03  0.47748570419E+03  0.50400001928E-02 0.  1.
       -1   -1    0    0    0  501  0.00000000000E+00  0.00000000000E+00 -0.25622928835E+03  0.25622928840E+03  0.50400001928E-02 0. -1.
    10030    2    1    2    0    0  0.00000000000E+00  0.00000000000E+00  0.22125641581E+03  0.73371499259E+03  0.69955935331E+03 0.  0.
        2    1    3    3  502    0  0.30522789076E+03  0.16188358962E+03  0.53417159464E+02  0.34960514129E+03  0.25500000920E-02 0.  1.
       -2    1    3    3    0  502 -0.30522789076E+03 -0.16188358962E+03  0.16783925635E+03  0.38410985130E+03  0.25500000920E-02 0. -1.
</event>
<event>
 5   0  0.1784625E-02  0.7116402E+03  0.7818609E-02  0.9697530E-01
        3   -1    0    0  501    0  0.00000000000E+00  0.00000000000E+00  0.26408282377E+03  0.26408284309E+03  0.10100000352E+00 0. -1.
       -3   -1    0    0    0  501  0.00000000000E+00  0.00000000000E+00 -0.47942506504E+03  0.47942507568E+03  0.10100000352E+00 0.  1.
    10030    2    1    2    0    0  0.00000000000E+00  0.00000000000E+00 -0.21534224126E+03  0.74350791876E+03  0.71164017902E+03 0.  0.
        2    1    3    3  502    0 -0.74198938962E+02  0.28284645879E+03 -0.31948178149E+03  0.43310069327E+03  0.25500000920E-02 0.  1.
       -2    1    3    3    0  502  0.74198938962E+02 -0.28284645879E+03  0.10413954023E+03  0.31040722550E+03  0.25500000920E-02 0. -1.
</event>
<event>
 5   0  0.4503289E-02  0.6975105E+03  0.7818609E-02  0.9721499E-01
       -2   -1    0    0    0  501  0.00000000000E+00  0.00000000000E+00  0.99337757259E+02  0.99337757292E+02  0.25500000920E-02 0. -1.
        2   -1    0    0  501    0  0.00000000000E+00  0.00000000000E+00 -0.12244109435E+04  0.12244109435E+04  0.25500000920E-02 0.  1.
    10030    2    1    2    0    0  0.00000000000E+00  0.00000000000E+00 -0.11250731863E+04  0.13237487008E+04  0.69751053645E+03 0.  0.
        2    1    3    3  502    0 -0.12530209352E+03  0.28905929214E+03 -0.84641343805E+03  0.90314539091E+03  0.25500000920E-02 0.  1.
       -2    1    3    3    0  502  0.12530209352E+03 -0.28905929214E+03 -0.27865974820E+03  0.42060330989E+03  0.25500000920E-02 0. -1.
</event>
<event>
 5   0  0.4299912E-02  0.6946218E+03  0.7818609E-02  0.9726474E-01
        2   -1    0    0  501    0  0.00000000000E+00  0.00000000000E+00  0.10569341111E+04  0.10569341111E+04  0.25500000920E-02 0.  1.
       -2   -1    0    0    0  501  0.00000000000E+00  0.00000000000E+00 -0.11412713885E+03  0.11412713888E+03  0.25500000920E-02 0. -1.
    10030    2    1    2    0    0  0.00000000000E+00  0.00000000000E+00  0.94280697229E+03  0.11710612500E+04  0.69462181388E+03 0.  0.
        3    1    3    3  502    0 -0.32368519135E+03  0.24996769136E+02  0.26336130182E+03  0.41803842773E+03  0.10100000352E+00 0. -1.
       -3    1    3    3    0  502  0.32368519135E+03 -0.24996769136E+02  0.67944567048E+03  0.75302282229E+03  0.10100000352E+00 0.  1.
</event>
<event>
 5   0  0.4503289E-02  0.6992108E+03  0.7818609E-02  0.9718583E-01
        2   -1    0    0  501    0  0.00000000000E+00  0.00000000000E+00  0.25161089924E+03  0.25161089925E+03  0.25500000920E-02 0. -1.
       -2   -1    0    0    0  501  0.00000000000E+00  0.00000000000E+00 -0.48576560371E+03  0.48576560371E+03  0.25500000920E-02 0.  1.
    10030    2    1    2    0    0  0.00000000000E+00  0.00000000000E+00 -0.23415470447E+03  0.73737650297E+03  0.69921075614E+03 0.  0.
        2    1    3    3  502    0 -0.14536841269E+03 -0.31744503422E+03 -0.98194842807E+02  0.36269209023E+03  0.25500000920E-02 0. -1.
       -2    1    3    3    0  502  0.14536841269E+03  0.31744503422E+03 -0.13595986166E+03  0.37468441274E+03  0.25500000920E-02 0.  1.
</event>
<event>
 5   0  0.2758681E-02  0.7018007E+03  0.7818609E-02  0.9714158E-01
        1   -1    0    0  501    0  0.00000000000E+00  0.00000000000E+00  0.56967650232E+03  0.56967650234E+03  0.50400001928E-02 0.  1.
       -1   -1    0    0    0  501  0.00000000000E+00  0.00000000000E+00 -0.21614207371E+03  0.21614207377E+03  0.50400001928E-02 0. -1.
    10030    2    1    2    0    0  0.00000000000E+00  0.00000000000E+00  0.35353442860E+03  0.78581857611E+03  0.70180071413E+03 0.  0.
        3    1    3    3  502    0  0.27091042361E+03  0.72699524082E+02  0.41284810766E+03  0.49912047506E+03  0.10100000352E+00 0.  1.
       -3    1    3    3    0  502 -0.27091042361E+03 -0.72699524082E+02 -0.59313679053E+02  0.28669810105E+03  0.10100000352E+00 0. -1.
</event>
<event>
 5   0  0.2777999E-02  0.7026740E+03  0.7818609E-02  0.9712670E-01
       -1   -1    0    0    0  501  0.00000000000E+00  0.00000000000E+00  0.16721677153E+03  0.16721677161E+03  0.50400001928E-02 0. -1.
        1   -1    0    0  501    0  0.00000000000E+00  0.00000000000E+00 -0.73818956111E+03  0.73818956113E+03  0.50400001928E-02 0.  1.
    10030    2    1    2    0    0  0.00000000000E+00  0.00000000000E+00 -0.57097278957E+03  0.90540633274E+03  0.70267396488E+03 0.  0.
        5    1    3    3  502    0  0.13755100553E+03 -0.18440475234E+03 -0.62758713693E+03  0.66844079487E+03  0.46999998093E+01 0.  1.
       -5    1    3    3    0  502 -0.13755100553E+03  0.18440475234E+03  0.56614347356E+02  0.23696553786E+03  0.46999998093E+01 0. -1.
</event>
<event>
 5   0  0.4420645E-02  0.7055713E+03  0.7818609E-02  0.9707752E-01
        2   -1    0    0  501    0  0.00000000000E+00  0.00000000000E+00  0.10565311305E+04  0.10565311305E+04  0.25500000920E-02 0.  1.
       -2   -1    0    0    0  501  0.00000000000E+00  0.00000000000E+00 -0.11779845054E+03  0.11779845057E+03  0.25500000920E-02 0. -1.
    10030    2    1    2    0    0  0.00000000000E+00  0.00000000000E+00  0.93873267997E+03  0.11743295811E+04  0.70557134336E+03 0.  0.
        5    1    3    3  502    0  0.10810831842E+02  0.51188254513E+02  0.10499859917E+04  0.10512990936E+04  0.46999998093E+01 0.  1.
       -5    1    3    3    0  502 -0.10810831842E+02 -0.51188254513E+02 -0.11125331171E+03  0.12303048748E+03  0.46999998093E+01 0. -1.
</event>
<event>
 5   0  0.2777999E-02  0.6975838E+03  0.7818609E-02  0.9721373E-01
       -1   -1    0    0    0  501  0.00000000000E+00  0.00000000000E+00  0.10693794539E+04  0.10693794539E+04  0.50400001928E-02 0.  1.
        1   -1    0    0  501    0  0.00000000000E+00  0.00000000000E+00 -0.11376299137E+03  0.11376299149E+03  0.50400001928E-02 0. -1.
    10030    2    1    2    0    0  0.00000000000E+00  0.00000000000E+00  0.95561646249E+03  0.11831424454E+04  0.69758384631E+03 0.  0.
        5    1    3    3  502    0  0.29689723860E+03  0.13063291268E+03  0.26046925842E+03  0.41602794707E+03  0.46999998093E+01 0. -1.
       -5    1    3    3    0  502 -0.29689723860E+03 -0.13063291268E+03  0.69514720407E+03  0.76711449829E+03  0.46999998093E+01 0.  1.
</event>
<event>
 5   0  0.2750139E-02  0.6716438E+03  0.7818609E-02  0.9766993E-01
       -1   -1    0    0    0  501  0.00000000000E+00  0.00000000000E+00  0.22530396796E+03  0.22530396801E+03  0.50400001928E-02 0.  1.
        1   -1    0    0  501    0  0.00000000000E+00  0.00000000000E+00 -0.50055204290E+03  0.50055204293E+03  0.50400001928E-02 0. -1.
    10030    2    1    2    0    0  0.00000000000E+00  0.00000000000E+00 -0.27524807495E+03  0.72585601094E+03  0.67164383854E+03 0.  0.
        2    1    3    3  502    0 -0.72429569390E+02  0.31220141696E+03 -0.24602253389E+03  0.40403323435E+03  0.25500000920E-02 0. -1.
       -2    1    3    3    0  502  0.72429569390E+02 -0.31220141696E+03 -0.29225541056E+02  0.32182277659E+03  0.25500000920E-02 0.  1.
</event>
<event>
 5   0  0.4420645E-02  0.6880666E+03  0.7818609E-02  0.9737860E-01
        2   -1    0    0  501    0  0.00000000000E+00  0.00000000000E+00  0.53657510672E+03  0.53657510673E+03  0.25500000920E-02 0.  1.
       -2   -1    0    0    0  501  0.00000000000E+00  0.00000000000E+00 -0.22058215725E+03  0.22058215726E+03  0.25500000920E-02 0. -1.
    10030    2    1    2    0    0  0.00000000000E+00  0.00000000000E+00  0.31599294947E+03  0.75715726399E+03  0.68806655078E+03 0.  0.
        5    1    3    3  502    0 -0.15588288322E+03 -0.18065938248E+03 -0.11467401061E+03  0.26478199423E+03  0.46999998093E+01 0. -1.
       -5    1    3    3    0  502  0.15588288322E+03  0.18065938248E+03  0.43066696009E+03  0.49237526976E+03  0.46999998093E+01 0.  1.
</event>
<event>
 5   0  0.2751729E-02  0.7005513E+03  0.7818609E-02  0.9716290E-01
        1   -1    0    0  501    0  0.00000000000E+00  0.00000000000E+00  0.26373449388E+03  0.26373449392E+03  0.50400001928E-02 0.  1.
       -1   -1    0    0    0  501  0.00000000000E+00  0.00000000000E+00 -0.46521417434E+03  0.46521417436E+03  0.50400001928E-02 0. -1.
    10030    2    1    2    0    0  0.00000000000E+00  0.00000000000E+00 -0.20147968046E+03  0.72894866829E+03  0.70055128246E+03 0.  0.
        1    1    3    3  502    0  0.22682355149E+03 -0.20218024621E+03  0.80586018198E+02  0.31435629757E+03  0.50400001928E-02 0.  1.
       -1    1    3    3    0  502 -0.22682355149E+03  0.20218024621E+03 -0.28206569866E+03  0.41459237072E+03  0.50400001928E-02 0. -1.
</event>
<event>
 5   0  0.4299912E-02  0.6900866E+03  0.7818609E-02  0.9734337E-01
       -2   -1    0    0    0  501  0.00000000000E+00  0.00000000000E+00  0.15020224177E+03  0.15020224179E+03  0.25500000920E-02 0. -1.
        2   -1    0    0  501    0  0.00000000000E+00  0.00000000000E+00 -0.79263048685E+03  0.79263048686E+03  0.25500000920E-02 0.  1.
    10030    2    1    2    0    0  0.00000000000E+00  0.00000000000E+00 -0.64242824508E+03  0.94283272865E+03  0.69008659177E+03 0.  0.
        3    1    3    3  502    0 -0.37344498486E+02  0.21873223319E+03 -0.68221643725E+03  0.71739645863E+03  0.10100000352E+00 0.  1.
       -3    1    3    3    0  502  0.37344498486E+02 -0.21873223319E+03  0.39788192170E+02  0.22543627002E+03  0.10100000352E+00 0. -1.
</event>
<event>
 5   0  0.4526837E-02  0.6969608E+03  0.7818609E-02  0.9722444E-01
       -2   -1    0    0    0  501  0.00000000000E+00  0.00000000000E+00  0.32819511294E+03  0.32819511295E+03  0.25500000920E-02 0.  1.
        2   -1    0    0  501    0  0.00000000000E+00  0.00000000000E+00 -0.37001948489E+03  0.37001948490E+03  0.25500000920E-02 0. -1.
    10030    2    1    2    0    0  0.00000000000E+00  0.00000000000E+00 -0.41824371951E+02  0.69821459786E+03  0.69696079271E+03 0.  0.
        1    1    3    3  502    0  0.43999814443E+02  0.32642213739E+03 -0.13492021398E+03  0.35593659494E+03  0.50400001928E-02 0.  1.
       -1    1    3    3    0  502 -0.43999814443E+02 -0.32642213739E+03  0.93095842032E+02  0.34227800292E+03  0.50400001928E-02 0. -1.
</event>
<event>
 5   0  0.4299912E-02  0.6916664E+03  0.7818609E-02  0.9731591E-01
        2   -1    0    0  501    0  0.00000000000E+00  0.00000000000E+00  0.94895503089E+03  0.94895503090E+03  0.25500000920E-02 0. -1.
       -2   -1    0    0    0  501  0.00000000000E+00  0.00000000000E+00 -0.12603399197E+03  0.12603399200E+03  0.25500000920E-02 0.  1.
    10030    2    1    2    0    0  0.00000000000E+00  0.00000000000E+00  0.82292103892E+03  0.10749890229E+04  0.69166636686E+03 0.  0.
        3    1    3    3  502    0  0.15394238681E+03 -0.36995514317E+02 -0.66399387265E+02  0.17168522174E+03  0.10100000352E+00 0.  1.
       -3    1    3    3    0  502 -0.15394238681E+03  0.36995514317E+02  0.88932042619E+03  0.90330380115E+03  0.10100000352E+00 0. -1.
</event>
<event>
 5   0  0.1784625E-02  0.7063719E+03  0.7818609E-02  0.9706397E-01
        4   -1    0    0  501    0  0.00000000000E+00  0.00000000000E+00  0.61583094165E+03  0.61583225118E+03  0.12699999809E+01 0.  1.
       -4   -1    0    0    0  501  0.00000000000E+00  0.00000000000E+00 -0.20255256846E+03  0.20255654986E+03  0.12699999809E+01 0. -1.
    10030    2    1    2    0    0  0.00000000000E+00  0.00000000000E+00  0.41327837319E+03  0.81838880104E+03  0.70637186802E+03 0.  0.
        4    1    3    3  502    0 -0.90213865189E+01  0.12361043930E+03  0.58980857471E+03  0.60269120934E+03  0.12699999809E+01 0.  1.
       -4    1    3    3    0  502  0.90213865189E+01 -0.12361043930E+03 -0.17653020152E+03  0.21569759170E+03  0.12699999809E+01 0. -1.
</event>
<event>
 5   0  0.4365492E-02  0.7418366E+03  0.7818609E-02  0.9648245E-01
        2   -1    0    0  501    0  0.00000000000E+00  0.00000000000E+00  0.56450435166E+03  0.56450435167E+03  0.25500000920E-02 0. -1.
       -2   -1    0    0    0  501  0.00000000000E+00  0.00000000000E+00 -0.24371892099E+03  0.24371892101E+03  0.25500000920E-02 0.  1.
    10030    2    1    2    0    0  0.00000000000E+00  0.00000000000E+00  0.32078543067E+03  0.80822327267E+03  0.74183661676E+03 0.  0.
        4    1    3    3  502    0  0.17929597400E+03 -0.21860424843E+03 -0.10118444432E+03  0.30029113939E+03  0.12699999809E+01 0.  1.
       -4    1    3    3    0  502 -0.17929597400E+03  0.21860424843E+03  0.42196987498E+03  0.50793213328E+03  0.12699999809E+01 0. -1.
</event>
<event>
 5   0  0.2777999E-02  0.7207936E+03  0.7818609E-02  0.9682319E-01
        1   -1    0    0  501    0  0.00000000000E+00  0.00000000000E+00  0.12506488358E+04  0.12506488358E+04  0.50400001928E-02 0.  1.
       -1   -1    0    0    0  501  0.00000000000E+00  0.00000000000E+00 -0.10385478132E+03  0.10385478144E+03  0.50400001928E-02 0. -1.
    10030    2    1    2    0    0  0.00000000000E+00  0.00000000000E+00  0.11467940545E+04  0.13545036172E+04  0.72079362216E+03 0.  0.
        5    1    3    3  502    0 -0.22982798908E+02 -0.33380488297E+02  0.12462951721E+04  0.12469627950E+04  0.46999998093E+01 0.  1.
       -5    1    3    3    0  502  0.22982798908E+02  0.33380488297E+02 -0.99501117637E+02  0.10754082227E+03  0.46999998093E+01 0. -1.
</event>
<event>
 5   0  0.1784625E-02  0.7250936E+03  0.7818609E-02  0.9675256E-01
        4   -1    0    0  501    0  0.00000000000E+00  0.00000000000E+00  0.27206221978E+03  0.27206518398E+03  0.12699999809E+01 0. -1.
       -4   -1    0    0    0  501  0.00000000000E+00  0.00000000000E+00 -0.48311897898E+03  0.48312064824E+03  0.12699999809E+01 0.  1.
    10030    2    1    2    0    0  0.00000000000E+00  0.00000000000E+00 -0.21105675920E+03  0.75518583221E+03  0.72509357022E+03 0.  0.
        2    1    3    3  502    0  0.35768883779E+03 -0.15260280863E+02 -0.46007787788E+02  0.36095830423E+03  0.25500000920E-02 0. -1.
       -2    1    3    3    0  502 -0.35768883779E+03  0.15260280863E+02 -0.16504897141E+03  0.39422752798E+03  0.25500000920E-02 0.  1.
</event>
<event>
 5   0  0.1784625E-02  0.7036858E+03  0.7818609E-02  0.9710950E-01
        3   -1    0    0  501    0  0.00000000000E+00  0.00000000000E+00  0.32293187973E+03  0.32293189552E+03  0.10100000352E+00 0. -1.
       -3   -1    0    0    0  501  0.00000000000E+00  0.00000000000E+00 -0.38334222563E+03  0.38334223893E+03  0.10100000352E+00 0.  1.
    10030    2    1    2    0    0  0.00000000000E+00  0.00000000000E+00 -0.60410345897E+02  0.70627413446E+03  0.70368582699E+03 0.  0.
        4    1    3    3  502    0 -0.78456788488E+02 -0.18493223306E+03 -0.32012127697E+03  0.37793470779E+03  0.12699999809E+01 0.  1.
       -4    1    3    3    0  502  0.78456788488E+02  0.18493223306E+03  0.25971093107E+03  0.32833942667E+03  0.12699999809E+01 0. -1.
</event>
<event>
 5   0  0.1784625E-02  0.6996736E+03  0.7818609E-02  0.9717791E-01
       -3   -1    0    0    0  501  0.00000000000E+00  0.00000000000E+00  0.21412149932E+04  0.21412149956E+04  0.10100000352E+00 0. -1.
        3   -1    0    0  501    0  0.00000000000E+00  0.00000000000E+00 -0.57157122060E+02  0.57157211296E+02  0.10100000352E+00 0.  1.
    10030    2    1    2    0    0  0.00000000000E+00  0.00000000000E+00  0.20840578711E+04  0.21983722069E+04  0.69967360227E+03 0.  0.
        1    1    3    3  502    0 -0.28369673112E+02  0.34828109276E+03  0.10947199008E+04  0.11491371629E+04  0.50400001928E-02 0. -1.
       -1    1    3    3    0  502  0.28369673112E+02 -0.34828109276E+03  0.98933797032E+03  0.10492350440E+04  0.50400001928E-02 0.  1.
</event>
<event>
 5   0  0.2777999E-02  0.6991462E+03  0.7818609E-02  0.9718693E-01
        1   -1    0    0  501    0  0.00000000000E+00  0.00000000000E+00  0.17380349370E+04  0.17380349370E+04  0.50400001928E-02 0. -1.
       -1   -1    0    0    0  501  0.00000000000E+00  0.00000000000E+00 -0.70310075387E+02  0.70310075568E+02  0.50400001928E-02 0.  1.
    10030    2    1    2    0    0  0.00000000000E+00  0.00000000000E+00  0.16677248616E+04  0.18083450126E+04  0.69914624397E+03 0.  0.
        5    1    3    3  502    0  0.28009009197E+03  0.17546179960E+03  0.53961441689E+03  0.63280574559E+03  0.46999998093E+01 0.  1.
       -5    1    3    3    0  502 -0.28009009197E+03 -0.17546179960E+03  0.11281104447E+04  0.11755392670E+04  0.46999998093E+01 0. -1.
</event>
<event>
 5   0  0.1784625E-02  0.7071501E+03  0.7818609E-02  0.9705082E-01
       -4   -1    0    0    0  501  0.00000000000E+00  0.00000000000E+00  0.49242782872E+03  0.49242946642E+03  0.12699999809E+01 0.  1.
        4   -1    0    0  501    0  0.00000000000E+00  0.00000000000E+00 -0.25387173119E+03  0.25387490777E+03  0.12699999809E+01 0. -1.
    10030    2    1    2    0    0  0.00000000000E+00  0.00000000000E+00  0.23855609753E+03  0.74630437419E+03  0.70715005994E+03 0.  0.
        3    1    3    3  502    0 -0.12444466732E+03  0.32134498352E+03  0.20282048831E+03  0.39985651719E+03  0.10100000352E+00 0.  1.
       -3    1    3    3    0  502  0.12444466732E+03 -0.32134498352E+03  0.35735609223E+02  0.34644785701E+03  0.10100000352E+00 0. -1.
</event>
<event>
 5   0  0.2758681E-02  0.6772552E+03  0.7818609E-02  0.9756939E-01
       -1   -1    0    0    0  501  0.00000000000E+00  0.00000000000E+00  0.14964535691E+03  0.14964535699E+03  0.50400001928E-02 0. -1.
        1   -1    0    0  501    0  0.00000000000E+00  0.00000000000E+00 -0.76626944567E+03  0.76626944568E+03  0.50400001928E-02 0.  1.
    10030    2    1    2    0    0  0.00000000000E+00  0.00000000000E+00 -0.61662408876E+03  0.91591480268E+03  0.67725523913E+03 0.  0.
        3    1    3    3  502    0  0.27984815093E+03  0.73934192595E+02 -0.70631630142E+02  0.29794309824E+03  0.10100000352E+00 0. -1.
       -3    1    3    3    0  502 -0.27984815093E+03 -0.73934192595E+02 -0.54599245862E+03  0.61797170443E+03  0.10100000352E+00 0.  1.
</event>
<event>
 5   0  0.2777999E-02  0.6931819E+03  0.7818609E-02  0.9728964E-01
       -1   -1    0    0    0  501  0.00000000000E+00  0.00000000000E+00  0.37399388499E+03  0.37399388502E+03  0.50400001928E-02 0.  1.
        1   -1    0    0  501    0  0.00000000000E+00  0.00000000000E+00 -0.32119586159E+03  0.32119586163E+03  0.50400001928E-02 0. -1.
    10030    2    1    2    0    0  0.00000000000E+00  0.00000000000E+00  0.52798023399E+02  0.69518974664E+03  0.69318190438E+03 0.  0.
        5    1    3    3  502    0  0.32329788567E+03  0.27469253690E+02  0.14851835905E+03  0.35686955004E+03  0.46999998093E+01 0.  1.
       -5    1    3    3    0  502 -0.32329788567E+03 -0.27469253690E+02 -0.95720335648E+02  0.33832019660E+03  0.46999998093E+01 0. -1.
</event>
<event>
 5   0  0.4420645E-02  0.6937892E+03  0.7818609E-02  0.9727913E-01
       -2   -1    0    0    0  501  0.00000000000E+00  0.00000000000E+00  0.39591338178E+03  0.39591338179E+03  0.25500000920E-02 0. -1.
        2   -1    0    0  501    0  0.00000000000E+00  0.00000000000E+00 -0.30394489016E+03  0.30394489017E+03  0.25500000920E-02 0.  1.
    10030    2    1    2    0    0  0.00000000000E+00  0.00000000000E+00  0.91968491620E+02  0.69985827196E+03  0.69378915917E+03 0.  0.
        5    1    3    3  502    0  0.14072435291E+03 -0.11147622642E+03 -0.25340058394E+03  0.31058692583E+03  0.46999998093E+01 0.  1.
       -5    1    3    3    0  502 -0.14072435291E+03  0.11147622642E+03  0.34536907556E+03  0.38927134612E+03  0.46999998093E+01 0. -1.
</event>
<event>
 5   0  0.2751729E-02  0.7011325E+03  0.7818609E-02  0.9715297E-01
        1   -1    0    0  501    0  0.00000000000E+00  0.00000000000E+00  0.60947956177E+03  0.60947956180E+03  0.50400001928E-02 0. -1.
       -1   -1    0    0    0  501  0.00000000000E+00  0.00000000000E+00 -0.20164200831E+03  0.20164200838E+03  0.50400001928E-02 0.  1.
    10030    2    1    2    0    0  0.00000000000E+00  0.00000000000E+00  0.40783755346E+03  0.81112157017E+03  0.70113246365E+03 0.  0.
        1    1    3    3  502    0 -0.22178074003E+03 -0.26355058556E+03  0.27934724036E+03  0.44348673996E+03  0.50400001928E-02 0. -1.
       -1    1    3    3    0  502  0.22178074003E+03  0.26355058556E+03  0.12849031310E+03  0.36763483021E+03  0.50400001928E-02 0.  1.
</event>
<event>
 5   0  0.2777999E-02  0.7012900E+03  0.7818609E-02  0.9715029E-01
        1   -1    0    0  501    0  0.00000000000E+00  0.00000000000E+00  0.85320228756E+03  0.85320228758E+03  0.50400001928E-02 0. -1.
       -1   -1    0    0    0  501  0.00000000000E+00  0.00000000000E+00 -0.14410641428E+03  0.14410641437E+03  0.50400001928E-02 0.  1.
    10030    2    1    2    0    0  0.00000000000E+00  0.00000000000E+00  0.70909587329E+03  0.99730870194E+03  0.70129001808E+03 0.  0.
        5    1    3    3  502    0  0.12381955706E+03 -0.21137259298E+03 -0.21716183350E+01  0.24502339010E+03  0.46999998093E+01 0.  1.
       -5    1    3    3    0  502 -0.12381955706E+03  0.21137259298E+03  0.71126749162E+03  0.75228531184E+03  0.46999998093E+01 0. -1.
</event>
<event>
 5   0  0.2684924E-02  0.7012646E+03  0.7818609E-02  0.9715072E-01
        1   -1    0    0  501    0  0.00000000000E+00  0.00000000000E+00  0.81008971994E+03  0.81008971996E+03  0.50400001928E-02 0. -1.
       -1   -1    0    0    0  501  0.00000000000E+00  0.00000000000E+00 -0.15176469286E+03  0.15176469295E+03  0.50400001928E-02 0.  1.
    10030    2    1    2    0    0  0.00000000000E+00  0.00000000000E+00  0.65832502708E+03  0.96185441290E+03  0.70126462220E+03 0.  0.
        4    1    3    3  502    0 -0.59898412597E+02  0.13062511338E+03  0.76784006638E+03  0.78117265730E+03  0.12699999809E+01 0. -1.
       -4    1    3    3    0  502  0.59898412597E+02 -0.13062511338E+03 -0.10951503930E+03  0.18068175561E+03  0.12699999809E+01 0.  1.
</event>
<event>
 5   0  0.2750139E-02  0.6965088E+03  0.7818609E-02  0.9723221E-01
       -1   -1    0    0    0  501  0.00000000000E+00  0.00000000000E+00  0.13584637167E+03  0.13584637177E+03  0.50400001928E-02 0.  1.
        1   -1    0    0  501    0  0.00000000000E+00  0.00000000000E+00 -0.89278140086E+03  0.89278140088E+03  0.50400001928E-02 0. -1.
    10030    2    1    2    0    0  0.00000000000E+00  0.00000000000E+00 -0.75693502919E+03  0.10286277726E+04  0.69650876250E+03 0.  0.
        2    1    3    3  502    0 -0.15012923834E+03  0.64616806411E+02 -0.83261974778E+03  0.84851032066E+03  0.25500000920E-02 0. -1.
       -2    1    3    3    0  502  0.15012923834E+03 -0.64616806411E+02  0.75684718585E+02  0.18011745198E+03  0.25500000920E-02 0.  1.
</event>
<event>
 5   0  0.4503289E-02  0.7058051E+03  0.7818609E-02  0.9707356E-01
       -2   -1    0    0    0  501  0.00000000000E+00  0.00000000000E+00  0.16970493036E+03  0.16970493038E+03  0.25500000920E-02 0.  1.
        2   -1    0    0  501    0  0.00000000000E+00  0.00000000000E+00 -0.73386329449E+03  0.73386329450E+03  0.25500000920E-02 0. -1.
    10030    2    1    2    0    0  0.00000000000E+00  0.00000000000E+00 -0.56415836414E+03  0.90356822488E+03  0.70580512692E+03 0.  0.
        2    1    3    3  502    0 -0.31232739393E+03 -0.14461972203E+03 -0.18228180522E+03  0.38947390352E+03  0.25500000920E-02 0.  1.
       -2    1    3    3    0  502  0.31232739393E+03  0.14461972203E+03 -0.38187655891E+03  0.51409432136E+03  0.25500000920E-02 0. -1.
</event>
<event>
 5   0  0.4299912E-02  0.6939539E+03  0.7818609E-02  0.9727628E-01
        2   -1    0    0  501    0  0.00000000000E+00  0.00000000000E+00  0.51268912055E+03  0.51268912055E+03  0.25500000920E-02 0.  1.
       -2   -1    0    0    0  501  0.00000000000E+00  0.00000000000E+00 -0.23482652574E+03  0.23482652576E+03  0.25500000920E-02 0. -1.
    10030    2    1    2    0    0  0.00000000000E+00  0.00000000000E+00  0.27786259480E+03  0.74751564631E+03  0.69395390329E+03 0.  0.
        3    1    3    3  502    0 -0.74402783107E+02 -0.36185134431E+02  0.50190832084E+03  0.50868173824E+03  0.10100000352E+00 0.  1.
       -3    1    3    3    0  502  0.74402783107E+02  0.36185134431E+02 -0.22404572604E+03  0.23883390807E+03  0.10100000352E+00 0. -1.
</event>
<event>
 5   0  0.4365492E-02  0.6968271E+03  0.7818609E-02  0.9722674E-01
       -2   -1    0    0    0  501  0.00000000000E+00  0.00000000000E+00  0.29494441020E+03  0.29494441021E+03  0.25500000920E-02 0.  1.
        2   -1    0    0  501    0  0.00000000000E+00  0.00000000000E+00 -0.41157588951E+03  0.41157588952E+03  0.25500000920E-02 0. -1.
    10030    2    1    2    0    0  0.00000000000E+00  0.00000000000E+00 -0.11663147931E+03  0.70652029974E+03  0.69682711771E+03 0.  0.
        4    1    3    3  502    0 -0.35127757888E+02 -0.31039749140E+03  0.98135056046E+02  0.32743344999E+03  0.12699999809E+01 0.  1.
       -4    1    3    3    0  502  0.35127757888E+02  0.31039749140E+03 -0.21476653536E+03  0.37908684975E+03  0.12699999809E+01 0. -1.
</event>
<event>
 5   0  0.2758681E-02  0.7422722E+03  0.7818609E-02  0.9647553E-01
        1   -1    0    0  501    0  0.00000000000E+00  0.00000000000E+00  0.10744535474E+04  0.10744535474E+04  0.50400001928E-02 0.  1.
       -1   -1    0    0    0  501  0.00000000000E+00  0.00000000000E+00 -0.12819725416E+03  0.12819725426E+03  0.50400001928E-02 0. -1.
    10030    2    1    2    0    0  0.00000000000E+00  0.00000000000E+00  0.94625629325E+03  0.12026508017E+04  0.74227217264E+03 0.  0.
        3    1    3    3  502    0 -0.20505260503E+03 -0.30839958104E+03  0.43393628895E+03  0.57048890040E+03  0.10100000352E+00 0. -1.
       -3    1    3    3    0  502  0.20505260503E+03  0.30839958104E+03  0.51232000431E+03  0.63216190128E+03  0.10100000352E+00 0.  1.
</event>
<event>
 5   0  0.4526837E-02  0.6876378E+03  0.7818609E-02  0.9738610E-01
       -2   -1    0    0    0  501  0.00000000000E+00  0.00000000000E+00  0.74326613705E+02  0.74326613749E+02  0.25500000920E-02 0.  1.
        2   -1    0    0  501    0  0.00000000000E+00  0.00000000000E+00 -0.15904322189E+04  0.15904322189E+04  0.25500000920E-02 0. -1.
    10030    2    1    2    0    0  0.00000000000E+00  0.00000000000E+00 -0.15161056051E+04  0.16647588326E+04  0.68763781511E+03 0.  0.
        1    1    3    3  502    0 -0.14543276940E+03 -0.24821444829E+02 -0.62037805624E+01  0.14766611479E+03  0.50400001928E-02 0.  1.
       -1    1    3    3    0  502  0.14543276940E+03  0.24821444829E+02 -0.15099018246E+04  0.15170927178E+04  0.50400001928E-02 0. -1.
</event>
<event>
 5   0  0.4420645E-02  0.6535463E+03  0.7818609E-02  0.9800147E-01
        2   -1    0    0  501    0  0.00000000000E+00  0.00000000000E+00  0.22774615813E+03  0.22774615814E+03  0.25500000920E-02 0.  1.
       -2   -1    0    0    0  501  0.00000000000E+00  0.00000000000E+00 -0.46885838324E+03  0.46885838325E+03  0.25500000920E-02 0. -1.
    10030    2    1    2    0    0  0.00000000000E+00  0.00000000000E+00 -0.24111222512E+03  0.69660454139E+03  0.65354631205E+03 0.  0.
        5    1    3    3  502    0 -0.16357203296E+03  0.14094395994E+03  0.14083027315E+03  0.25782991611E+03  0.46999998093E+01 0.  1.
       -5    1    3    3    0  502  0.16357203296E+03 -0.14094395994E+03 -0.38194249826E+03  0.43877462528E+03  0.46999998093E+01 0. -1.
</event>
<event>
 5   0  0.2684924E-02  0.6925834E+03  0.7818609E-02  0.9730000E-01
       -1   -1    0    0    0  501  0.00000000000E+00  0.00000000000E+00  0.35341489460E+03  0.35341489463E+03  0.50400001928E-02 0. -1.
        1   -1    0    0  501    0  0.00000000000E+00  0.00000000000E+00 -0.33931206403E+03  0.33931206407E+03  0.50400001928E-02 0.  1.
    10030    2    1    2    0    0  0.00000000000E+00  0.00000000000E+00  0.14102830566E+02  0.69272695870E+03  0.69258338811E+03 0.  0.
        4    1    3    3  502    0 -0.56277644149E+02 -0.32871858003E+03 -0.86205492902E+02  0.34446491548E+03  0.12699999809E+01 0. -1.
       -4    1    3    3    0  502  0.56277644149E+02  0.32871858003E+03  0.10030832347E+03  0.34826204322E+03  0.12699999809E+01 0.  1.
</event>
<event>
 5   0  0.2750139E-02  0.7142649E+03  0.7818609E-02  0.9693144E-01
       -1   -1    0    0    0  501  0.00000000000E+00  0.00000000000E+00  0.16470327799E+03  0.16470327807E+03  0.50400001928E-02 0. -1.
        1   -1    0    0  501    0  0.00000000000E+00  0.00000000000E+00 -0.77438398327E+03  0.77438398328E+03  0.50400001928E-02 0.  1.
    10030    2    1    2    0    0  0.00000000000E+00  0.00000000000E+00 -0.60968070527E+03  0.93908726135E+03  0.71426488228E+03 0.  0.
        2    1    3    3  502    0  0.12722198838E+03  0.54696375950E+02  0.12796645173E+03  0.18855381366E+03  0.25500000920E-02 0. -1.
       -2    1    3    3    0  502 -0.12722198838E+03 -0.54696375950E+02 -0.73764715700E+03  0.75053344770E+03  0.25500000920E-02 0.  1.
</event>
<event>
 5   0  0.1784625E-02  0.6754874E+03  0.7818609E-02  0.9760095E-01
       -4   -1    0    0    0  501  0.00000000000E+00  0.00000000000E+00  0.30076898104E+03  0.30077166232E+03  0.12699999809E+01 0. -1.
        4   -1    0    0  501    0  0.00000000000E+00  0.00000000000E+00 -0.37925843087E+03  0.37926055725E+03  0.12699999809E+01 0.  1.
    10030    2    1    2    0    0  0.00000000000E+00  0.00000000000E+00 -0.78489449830E+02  0.68003221958E+03  0.67548739879E+03 0.  0.
        5    1    3    3  502    0  0.25393907829E+02  0.33490153893E+03 -0.37252599322E+01  0.33591644630E+03  0.46999998093E+01 0. -1.
       -5    1    3    3    0  502 -0.25393907829E+02 -0.33490153893E+03 -0.74764189898E+02  0.34411577328E+03  0.46999998093E+01 0.  1.
</event>
<event>
 5   0  0.2758681E-02  0.6976451E+03  0.7818609E-02  0.9721268E-01
        1   -1    0    0  501    0  0.00000000000E+00  0.00000000000E+00  0.43572506843E+03  0.43572506846E+03  0.50400001928E-02 0. -1.
       -1   -1    0    0    0  501  0.00000000000E+00  0.00000000000E+00 -0.27925216890E+03  0.27925216894E+03  0.50400001928E-02 0.  1.
    10030    2    1    2    0    0  0.00000000000E+00  0.00000000000E+00  0.15647289953E+03  0.71497723740E+03  0.69764509725E+03 0.  0.
        3    1    3    3  502    0 -0.30518218106E+03  0.14203568296E+03 -0.15506573395E+02  0.33697294089E+03  0.10100000352E+00 0.  1.
       -3    1    3    3    0  502  0.30518218106E+03 -0.14203568296E+03  0.17197947292E+03  0.37800429651E+03  0.10100000352E+00 0. -1.
</event>
<event>
 5   0  0.2750139E-02  0.6771493E+03  0.7818609E-02  0.9757128E-01
       -1   -1    0    0    0  501  0.00000000000E+00  0.00000000000E+00  0.13479735196E+03  0.13479735205E+03  0.50400001928E-02 0. -1.
        1   -1    0    0  501    0  0.00000000000E+00  0.00000000000E+00 -0.85040823068E+03  0.85040823069E+03  0.50400001928E-02 0.  1.
    10030    2    1    2    0    0  0.00000000000E+00  0.00000000000E+00 -0.71561087872E+03  0.98520558275E+03  0.67714925277E+03 0.  0.
        2    1    3    3  502    0 -0.80852377267E+02 -0.23340818040E+03 -0.69469755607E+03  0.73730670687E+03  0.25500000920E-02 0.  1.
       -2    1    3    3    0  502  0.80852377267E+02  0.23340818040E+03 -0.20913322655E+02  0.24789887587E+03  0.25500000920E-02 0. -1.
</event>
<event>
 5   0  0.4503289E-02  0.6995275E+03  0.7818609E-02  0.9718041E-01
        2   -1    0    0  501    0  0.00000000000E+00  0.00000000000E+00  0.50731027103E+03  0.50731027103E+03  0.25500000920E-02 0.  1.
       -2   -1    0    0    0  501  0.00000000000E+00  0.00000000000E+00 -0.24114369203E+03  0.24114369204E+03  0.25500000920E-02 0. -1.
    10030    2    1    2    0    0  0.00000000000E+00  0.00000000000E+00  0.26616657900E+03  0.74845396308E+03  0.69952747413E+03 0.  0.
        2    1    3    3  502    0  0.60740639819E+01 -0.34174112877E+03  0.21251003917E+03  0.40247286877E+03  0.25500000920E-02 0. -1.
       -2    1    3    3    0  502 -0.60740639819E+01  0.34174112877E+03  0.53656539831E+02  0.34598109431E+03  0.25500000920E-02 0.  1.
</event>
<event>
 5   0  0.4503289E-02  0.6694185E+03  0.7818609E-02  0.9771009E-01
       -2   -1    0    0    0  501  0.00000000000E+00  0.00000000000E+00  0.12529721533E+03  0.12529721536E+03  0.25500000920E-02 0. -1.
        2   -1    0    0  501    0  0.00000000000E+00  0.00000000000E+00 -0.89411637470E+03  0.89411637470E+03  0.25500000920E-02 0.  1.
    10030    2    1    2    0    0  0.00000000000E+00  0.00000000000E+00 -0.76881915936E+03  0.10194135901E+04  0.66941852961E+03 0.  0.
        2    1    3    3  502    0 -0.93703770494E+02  0.31575428062E+03 -0.47513178927E+03  0.57812747687E+03  0.25500000920E-02 0. -1.
       -2    1    3    3    0  502  0.93703770494E+02 -0.31575428062E+03 -0.29368737010E+03  0.44128611319E+03  0.25500000920E-02 0.  1.
</event>
<event>
 5   0  0.4299912E-02  0.7055477E+03  0.7818609E-02  0.9707792E-01
       -2   -1    0    0    0  501  0.00000000000E+00  0.00000000000E+00  0.28711861258E+03  0.28711861259E+03  0.25500000920E-02 0. -1.
        2   -1    0    0  501    0  0.00000000000E+00  0.00000000000E+00 -0.43344245808E+03  0.43344245808E+03  0.25500000920E-02 0.  1.
    10030    2    1    2    0    0  0.00000000000E+00  0.00000000000E+00 -0.14632384550E+03  0.72056107067E+03  0.70554772256E+03 0.  0.
        3    1    3    3  502    0  0.21397139697E+02 -0.24434685798E+03 -0.33210431223E+03  0.41286378988E+03  0.10100000352E+00 0.  1.
       -3    1    3    3    0  502 -0.21397139697E+02  0.24434685798E+03  0.18578046673E+03  0.30769728080E+03  0.10100000352E+00 0. -1.
</event>
<event>
 5   0  0.1784625E-02  0.6923885E+03  0.7818609E-02  0.9730338E-01
        3   -1    0    0  501    0  0.00000000000E+00  0.00000000000E+00  0.40613386677E+03  0.40613387933E+03  0.10100000352E+00 0. -1.
       -3   -1    0    0    0  501  0.00000000000E+00  0.00000000000E+00 -0.29510086861E+03  0.29510088590E+03  0.10100000352E+00 0.  1.
    10030    2    1    2    0    0  0.00000000000E+00  0.00000000000E+00  0.11103299816E+03  0.70123476523E+03  0.69238852481E+03 0.  0.
        1    1    3    3  502    0 -0.18058066075E+03 -0.18638986147E+03  0.28757253245E+03  0.38736096466E+03  0.50400001928E-02 0. -1.
       -1    1    3    3    0  502  0.18058066075E+03  0.18638986147E+03 -0.17653953429E+03  0.31387380057E+03  0.50400001928E-02 0.  1.
</event>
<event>
 5   0  0.2684924E-02  0.7000923E+03  0.7818609E-02  0.9717074E-01
        1   -1    0    0  501    0  0.00000000000E+00  0.00000000000E+00  0.37035559782E+03  0.37035559785E+03  0.50400001928E-02 0. -1.
       -1   -1    0    0    0  501  0.00000000000E+00  0.00000000000E+00 -0.33085044222E+03  0.33085044226E+03  0.50400001928E-02 0.  1.
    10030    2    1    2    0    0  0.00000000000E+00  0.00000000000E+00  0.39505155601E+02  0.70120604011E+03  0.70009231775E+03 0.  0.
        4    1    3    3  502    0 -0.28295620948E+03  0.18856494933E+03 -0.63504528072E+02  0.34591240883E+03  0.12699999809E+01 0. -1.
       -4    1    3    3    0  502  0.28295620948E+03 -0.18856494933E+03  0.10300968367E+03  0.35529363128E+03  0.12699999809E+01 0.  1.
</event>
<event>
 5   0  0.2750139E-02  0.6806580E+03  0.7818609E-02  0.9750893E-01
       -1   -1    0    0    0  501  0.00000000000E+00  0.00000000000E+00  0.12685111881E+03  0.12685111891E+03  0.50400001928E-02 0.  1.
        1   -1    0    0  501    0  0.00000000000E+00  0.00000000000E+00 -0.91306909650E+03  0.91306909651E+03  0.50400001928E-02 0. -1.
    10030    2    1    2    0    0  0.00000000000E+00  0.00000000000E+00 -0.78621797768E+03  0.10399202154E+04  0.68065802428E+03 0.  0.
        2    1    3    3  502    0 -0.15000066991E+03  0.38446727955E+02 -0.85612920883E+03  0.87002044464E+03  0.25500000920E-02 0. -1.
       -2    1    3    3    0  502  0.15000066991E+03 -0.38446727955E+02  0.69911231153E+02  0.16989977079E+03  0.25500000920E-02 0.  1.
</event>
<event>
 5   0  0.1784625E-02  0.6920598E+03  0.7818609E-02  0.9730908E-01
       -3   -1    0    0    0  501  0.00000000000E+00  0.00000000000E+00  0.27741956272E+03  0.27741958110E+03  0.10100000352E+00 0. -1.
        3   -1    0    0  501    0  0.00000000000E+00  0.00000000000E+00 -0.43160862073E+03  0.43160863254E+03  0.10100000352E+00 0.  1.
    10030    2    1    2    0    0  0.00000000000E+00  0.00000000000E+00 -0.15418905801E+03  0.70902821365E+03  0.69205978220E+03 0.  0.
        3    1    3    3  502    0  0.15490348307E+03  0.29700030993E+03  0.11822850491E+02  0.33517765910E+03  0.10100000352E+00 0. -1.
       -3    1    3    3    0  502 -0.15490348307E+03 -0.29700030993E+03 -0.16601190850E+03  0.37385055454E+03  0.10100000352E+00 0.  1.
</event>
<event>
 5   0  0.2750139E-02  0.6907362E+03  0.7818609E-02  0.9733207E-01
       -1   -1    0    0    0  501  0.00000000000E+00  0.00000000000E+00  0.13868578804E+04  0.13868578805E+04  0.50400001928E-02 0.  1.
        1   -1    0    0  501    0  0.00000000000E+00  0.00000000000E+00 -0.86006749816E+02  0.86006749964E+02  0.50400001928E-02 0. -1.
    10030    2    1    2    0    0  0.00000000000E+00  0.00000000000E+00  0.13008511306E+04  0.14728646304E+04  0.69073624161E+03 0.  0.
        2    1    3    3  502    0  0.13163542599E+03  0.31861016599E+03  0.60575806730E+03  0.69698146270E+03  0.25500000920E-02 0. -1.
       -2    1    3    3    0  502 -0.13163542599E+03 -0.31861016599E+03  0.69509306334E+03  0.77588316772E+03  0.25500000920E-02 0.  1.
</event>
<event>
 5   0  0.4299912E-02  0.7093464E+03  0.7818609E-02  0.9701381E-01
        2   -1    0    0  501    0  0.00000000000E+00  0.00000000000E+00  0.15908981650E+03  0.15908981652E+03  0.25500000920E-02 0. -1.
       -2   -1    0    0    0  501  0.00000000000E+00  0.00000000000E+00 -0.79070479324E+03  0.79070479324E+03  0.25500000920E-02 0.  1.
    10030    2    1    2    0    0  0.00000000000E+00  0.00000000000E+00 -0.63161497674E+03  0.94979460976E+03  0.70934640471E+03 0.  0.
        3    1    3    3  502    0  0.73001544802E+02  0.15917499073E+03  0.97167367587E+02  0.20026834683E+03  0.10100000352E+00 0. -1.
       -3    1    3    3    0  502 -0.73001544802E+02 -0.15917499073E+03 -0.72878234433E+03  0.74952626293E+03  0.10100000352E+00 0.  1.
</event>
<event>
 5   0  0.4503289E-02  0.7313632E+03  0.7818609E-02  0.9665051E-01
       -2   -1    0    0    0  501  0.00000000000E+00  0.00000000000E+00  0.17139442696E+03  0.17139442697E+03  0.25500000920E-02 0. -1.
        2   -1    0    0  501    0  0.00000000000E+00  0.00000000000E+00 -0.78020633671E+03  0.78020633671E+03  0.25500000920E-02 0.  1.
    10030    2    1    2    0    0  0.00000000000E+00  0.00000000000E+00 -0.60881190975E+03  0.95160076369E+03  0.73136316013E+03 0.  0.
        2    1    3    3  502    0  0.27991269204E+03  0.22552828259E+03 -0.39177484896E+03  0.53169695664E+03  0.25500000920E-02 0.  1.
       -2    1    3    3    0  502 -0.27991269204E+03 -0.22552828259E+03 -0.21703706079E+03  0.41990380705E+03  0.25500000920E-02 0. -1.
</event>
<event>
 5   0  0.4503289E-02  0.6402175E+03  0.7818609E-02  0.9825310E-01
        2   -1    0    0  501    0  0.00000000000E+00  0.00000000000E+00  0.51700437804E+03  0.51700437805E+03  0.25500000920E-02 0.  1.
       -2   -1    0    0    0  501  0.00000000000E+00  0.00000000000E+00 -0.19819873140E+03  0.19819873141E+03  0.25500000920E-02 0. -1.
    10030    2    1    2    0    0  0.00000000000E+00  0.00000000000E+00  0.31880564665E+03  0.71520310946E+03  0.64021750012E+03 0.  0.
        2    1    3    3  502    0  0.23209396821E+03 -0.22042421663E+03  0.15505226958E+03  0.35566227192E+03  0.25500000920E-02 0.  1.
       -2    1    3    3    0  502 -0.23209396821E+03  0.22042421663E+03  0.16375337707E+03  0.35954083755E+03  0.25500000920E-02 0. -1.
</event>
<event>
 5   0  0.2750139E-02  0.7007087E+03  0.7818609E-02  0.9716021E-01
       -1   -1    0    0    0  501  0.00000000000E+00  0.00000000000E+00  0.10679069867E+03  0.10679069878E+03  0.50400001928E-02 0. -1.
        1   -1    0    0  501    0  0.00000000000E+00  0.00000000000E+00 -0.11494276681E+04  0.11494276681E+04  0.50400001928E-02 0.  1.
    10030    2    1    2    0    0  0.00000000000E+00  0.00000000000E+00 -0.10426369695E+04  0.12562183669E+04  0.70070873786E+03 0.  0.
        2    1    3    3  502    0  0.24876836253E+02  0.32978561362E+03 -0.31401533041E+03  0.45605157128E+03  0.25500000920E-02 0.  1.
       -2    1    3    3    0  502 -0.24876836253E+02 -0.32978561362E+03 -0.72862163906E+03  0.80016679564E+03  0.25500000920E-02 0. -1.
</event>
<event>
 5   0  0.2777999E-02  0.7104851E+03  0.7818609E-02  0.9699467E-01
        1   -1    0    0  501    0  0.00000000000E+00  0.00000000000E+00  0.89489907377E+03  0.89489907378E+03  0.50400001928E-02 0.  1.
       -1   -1    0    0    0  501  0.00000000000E+00  0.00000000000E+00 -0.14101843857E+03  0.14101843866E+03  0.50400001928E-02 0. -1.
    10030    2    1    2    0    0  0.00000000000E+00  0.00000000000E+00  0.75388063520E+03  0.10359175124E+04  0.71048510220E+03 0.  0.
        5    1    3    3  502    0  0.72689815869E+02  0.10972516174E+03  0.85798777796E+03  0.86803717523E+03  0.46999998093E+01 0.  1.
       -5    1    3    3    0  502 -0.72689815869E+02 -0.10972516174E+03 -0.10410714276E+03  0.16788033721E+03  0.46999998093E+01 0. -1.
</event>
<event>
 5   0  0.4526837E-02  0.7022917E+03  0.7818609E-02  0.9713321E-01
       -2   -1    0    0    0  501  0.00000000000E+00  0.00000000000E+00  0.20969291098E+03  0.20969291099E+03  0.25500000920E-02 0.  1.
        2   -1    0    0  501    0  0.00000000000E+00  0.00000000000E+00 -0.58801899942E+03  0.58801899943E+03  0.25500000920E-02 0. -1.
    10030    2    1    2    0    0  0.00000000000E+00  0.00000000000E+00 -0.37832608845E+03  0.79771191042E+03  0.70229172203E+03 0.  0.
        1    1    3    3  502    0  0.17293025417E+03 -0.49282042934E+02  0.15342894380E+03  0.23637688844E+03  0.50400001928E-02 0.  1.
       -1    1    3    3    0  502 -0.17293025417E+03  0.49282042934E+02 -0.53175503225E+03  0.56133502199E+03  0.50400001928E-02 0. -1.
</event>
<event>
 5   0  0.4299912E-02  0.7030633E+03  0.7818609E-02  0.9712008E-01
        2   -1    0    0  501    0  0.00000000000E+00  0.00000000000E+00  0.44350615406E+03  0.44350615407E+03  0.25500000920E-02 0.  1.
       -2   -1    0    0    0  501  0.00000000000E+00  0.00000000000E+00 -0.27863087566E+03  0.27863087567E+03  0.25500000920E-02 0. -1.
    10030    2    1    2    0    0  0.00000000000E+00  0.00000000000E+00  0.16487527841E+03  0.72213702974E+03  0.70306332026E+03 0.  0.
        3    1    3    3  502    0  0.34399267920E+03 -0.71413883364E+02  0.94745709907E+02  0.36387864162E+03  0.10100000352E+00 0.  1.
       -3    1    3    3    0  502 -0.34399267920E+03  0.71413883364E+02  0.70129568499E+02  0.35825838812E+03  0.10100000352E+00 0. -1.
</event>
<event>
 5   0  0.1784625E-02  0.6953129E+03  0.7818609E-02  0.9725282E-01
       -4   -1    0    0    0  501  0.00000000000E+00  0.00000000000E+00  0.32637586823E+03  0.32637833915E+03  0.12699999809E+01 0. -1.
        4   -1    0    0  501    0  0.00000000000E+00  0.00000000000E+00 -0.37031956880E+03  0.37032174651E+03  0.12699999809E+01 0.  1.
    10030    2    1    2    0    0  0.00000000000E+00  0.00000000000E+00 -0.43943700564E+02  0.69670008566E+03  0.69531285083E+03 0.  0.
        4    1    3    3  502    0  0.20907588937E+03 -0.27716585971E+03 -0.40166711333E+02  0.34949766652E+03  0.12699999809E+01 0.  1.
       -4    1    3    3    0  502 -0.20907588937E+03  0.27716585971E+03 -0.37769892312E+01  0.34720241913E+03  0.12699999809E+01 0. -1.
</event>
<event>
 5   0  0.4299912E-02  0.7051220E+03  0.7818609E-02  0.9708513E-01
       -2   -1    0    0    0  501  0.00000000000E+00  0.00000000000E+00  0.43989462935E+03  0.43989462936E+03  0.25500000920E-02 0.  1.
        2   -1    0    0  501    0  0.00000000000E+00  0.00000000000E+00 -0.28256596596E+03  0.28256596597E+03  0.25500000920E-02 0. -1.
    10030    2    1    2    0    0  0.00000000000E+00  0.00000000000E+00  0.15732866340E+03  0.72246059533E+03  0.70512197773E+03 0.  0.
        3    1    3    3  502    0 -0.93888090034E+02 -0.30285884400E+03  0.23660003966E+03  0.39562361129E+03  0.10100000352E+00 0.  1.
       -3    1    3    3    0  502  0.93888090034E+02  0.30285884400E+03 -0.79271376266E+02  0.32683698404E+03  0.10100000352E+00 0. -1.
</event>
<event>
 5   0  0.4503289E-02  0.7583204E+03  0.7818609E-02  0.9622387E-01
       -2   -1    0    0    0  501  0.00000000000E+00  0.00000000000E+00  0.14437950049E+03  0.14437950052E+03  0.25500000920E-02 0. -1.
        2   -1    0    0  501    0  0.00000000000E+00  0.00000000000E+00 -0.99572612498E+03  0.99572612498E+03  0.25500000920E-02 0.  1.
    10030    2    1    2    0    0  0.00000000000E+00  0.00000000000E+00 -0.85134662449E+03  0.11401056255E+04  0.75832035597E+03 0.  0.
        2    1    3    3  502    0  0.19737743687E+02 -0.23980826249E+03  0.14881658485E+02  0.24107891872E+03  0.25500000920E-02 0. -1.
       -2    1    3    3    0  502 -0.19737743687E+02  0.23980826249E+03 -0.86622828297E+03  0.89902670678E+03  0.25500000920E-02 0.  1.
</event>
<event>
 5   0  0.4299912E-02  0.7224944E+03  0.7818609E-02  0.9679519E-01
       -2   -1    0    0    0  501  0.00000000000E+00  0.00000000000E+00  0.24368228342E+03  0.24368228343E+03  0.25500000920E-02 0. -1.
        2   -1    0    0  501    0  0.00000000000E+00  0.00000000000E+00 -0.53553154329E+03  0.53553154330E+03  0.25500000920E-02 0.  1.
    10030    2    1    2    0    0  0.00000000000E+00  0.00000000000E+00 -0.29184925987E+03  0.77921382673E+03  0.72249442716E+03 0.  0.
        3    1    3    3  502    0 -0.51823559496E+02  0.14513659236E+02 -0.53118377013E+03  0.53390311432E+03  0.10100000352E+00 0.  1.
       -3    1    3    3    0  502  0.51823559496E+02 -0.14513659236E+02  0.23933451026E+03  0.24531071241E+03  0.10100000352E+00 0. -1.
</event>
<event>
 5   0  0.2758681E-02  0.6890234E+03  0.7818609E-02  0.9736190E-01
        1   -1    0    0  501    0  0.00000000000E+00  0.00000000000E+00  0.17602052360E+03  0.17602052367E+03  0.50400001928E-02 0. -1.
       -1   -1    0    0    0  501  0.00000000000E+00  0.00000000000E+00 -0.67428668224E+03  0.67428668226E+03  0.50400001928E-02 0.  1.
    10030    2    1    2    0    0  0.00000000000E+00  0.00000000000E+00 -0.49826615864E+03  0.85030720593E+03  0.68902335200E+03 0.  0.
        3    1    3    3  502    0 -0.27899076761E+02 -0.50415296407E+02  0.17003193037E+03  0.17952974166E+03  0.10100000352E+00 0. -1.
       -3    1    3    3    0  502  0.27899076761E+02  0.50415296407E+02 -0.66829808901E+03  0.67077746427E+03  0.10100000352E+00 0.  1.
</event>
<event>
 5   0  0.2777999E-02  0.7022444E+03  0.7818609E-02  0.9713402E-01
        1   -1    0    0  501    0  0.00000000000E+00  0.00000000000E+00  0.19258651236E+04  0.19258651236E+04  0.50400001928E-02 0.  1.
       -1   -1    0    0    0  501  0.00000000000E+00  0.00000000000E+00 -0.64016322217E+02  0.64016322416E+02  0.50400001928E-02 0. -1.
    10030    2    1    2    0    0  0.00000000000E+00  0.00000000000E+00  0.18618488014E+04  0.19898814460E+04  0.70224440903E+03 0.  0.
        5    1    3    3  502    0 -0.90917697680E+02 -0.20299018300E+03  0.17006722219E+04  0.17151615488E+04  0.46999998093E+01 0.  1.
       -5    1    3    3    0  502  0.90917697680E+02  0.20299018300E+03  0.16117657944E+03  0.27471989718E+03  0.46999998093E+01 0. -1.
</event>
<event>
 5   0  0.4526837E-02  0.7133096E+03  0.7818609E-02  0.9694738E-01
        2   -1    0    0  501    0  0.00000000000E+00  0.00000000000E+00  0.95759975939E+03  0.95759975939E+03  0.25500000920E-02 0. -1.
       -2   -1    0    0    0  501  0.00000000000E+00  0.00000000000E+00 -0.13283487596E+03  0.13283487598E+03  0.25500000920E-02 0.  1.
    10030    2    1    2    0    0  0.00000000000E+00  0.00000000000E+00  0.82476488343E+03  0.10904346354E+04  0.71330959694E+03 0.  0.
        1    1    3    3  502    0  0.23803805125E+03  0.12833695285E+02  0.81792209745E+03  0.85195268360E+03  0.50400001928E-02 0. -1.
       -1    1    3    3    0  502 -0.23803805125E+03 -0.12833695285E+02  0.68427859825E+01  0.23848195178E+03  0.50400001928E-02 0.  1.
</event>
<event>
 5   0  0.2750139E-02  0.5950342E+03  0.7818609E-02  0.9915762E-01
        1   -1    0    0  501    0  0.00000000000E+00  0.00000000000E+00  0.46913989098E+03  0.46913989100E+03  0.50400001928E-02 0. -1.
       -1   -1    0    0    0  501  0.00000000000E+00  0.00000000000E+00 -0.18867810202E+03  0.18867810209E+03  0.50400001928E-02 0.  1.
    10030    2    1    2    0    0  0.00000000000E+00  0.00000000000E+00  0.28046178896E+03  0.65781799309E+03  0.59503419816E+03 0.  0.
        2    1    3    3  502    0  0.16032781277E+03 -0.17622678421E+03  0.33723421852E+03  0.41290168947E+03  0.25500000920E-02 0. -1.
       -2    1    3    3    0  502 -0.16032781277E+03  0.17622678421E+03 -0.56772429562E+02  0.24491630363E+03  0.25500000920E-02 0.  1.
</event>
<event>
 5   0  0.4503289E-02  0.7039331E+03  0.7818609E-02  0.9710530E-01
        2   -1    0    0  501    0  0.00000000000E+00  0.00000000000E+00  0.12058856781E+04  0.12058856781E+04  0.25500000920E-02 0. -1.
       -2   -1    0    0    0  501  0.00000000000E+00  0.00000000000E+00 -0.10272983853E+03  0.10272983856E+03  0.25500000920E-02 0.  1.
    10030    2    1    2    0    0  0.00000000000E+00  0.00000000000E+00  0.11031558395E+04  0.13086155166E+04  0.70393306788E+03 0.  0.
        2    1    3    3  502    0 -0.20678281710E+03 -0.21787892608E+03  0.89259313482E+03  0.94178174978E+03  0.25500000920E-02 0. -1.
       -2    1    3    3    0  502  0.20678281710E+03  0.21787892608E+03  0.21056270472E+03  0.36683376685E+03  0.25500000920E-02 0.  1.
</event>
<event>
 5   0  0.2751729E-02  0.6851129E+03  0.7818609E-02  0.9743035E-01
       -1   -1    0    0    0  501  0.00000000000E+00  0.00000000000E+00  0.15320862457E+04  0.15320862457E+04  0.50400001928E-02 0.  1.
        1   -1    0    0  501    0  0.00000000000E+00  0.00000000000E+00 -0.76591584171E+02  0.76591584337E+02  0.50400001928E-02 0. -1.
    10030    2    1    2    0    0  0.00000000000E+00  0.00000000000E+00  0.14554946615E+04  0.16086778300E+04  0.68511287474E+03 0.  0.
        1    1    3    3  502    0 -0.70794585779E+02 -0.39319644323E+02 -0.53792935594E+02  0.97219276641E+02  0.50400001928E-02 0. -1.
       -1    1    3    3    0  502  0.70794585779E+02  0.39319644323E+02  0.15092875971E+04  0.15114585534E+04  0.50400001928E-02 0.  1.
</event>
<event>
 5   0  0.4365492E-02  0.6924867E+03  0.7818609E-02  0.9730168E-01
        2   -1    0    0  501    0  0.00000000000E+00  0.00000000000E+00  0.76507709623E+03  0.76507709623E+03  0.25500000920E-02 0. -1.
       -2   -1    0    0    0  501  0.00000000000E+00  0.00000000000E+00 -0.15669593820E+03  0.15669593822E+03  0.25500000920E-02 0.  1.
    10030    2    1    2    0    0  0.00000000000E+00  0.00000000000E+00  0.60838115802E+03  0.92177303445E+03  0.69248674616E+03 0.  0.
        4    1    3    3  502    0  0.84203093361E+02 -0.21865364561E+02 -0.14190780632E+03  0.16645628102E+03  0.12699999809E+01 0.  1.
       -4    1    3    3    0  502 -0.84203093361E+02  0.21865364561E+02  0.75028896434E+03  0.75531675343E+03  0.12699999809E+01 0. -1.
</event>
<event>
 5   0  0.2684924E-02  0.6996548E+03  0.7818609E-02  0.9717823E-01
        1   -1    0    0  501    0  0.00000000000E+00  0.00000000000E+00  0.33317208332E+03  0.33317208336E+03  0.50400001928E-02 0. -1.
       -1   -1    0    0    0  501  0.00000000000E+00  0.00000000000E+00 -0.36731536452E+03  0.36731536456E+03  0.50400001928E-02 0.  1.
    10030    2    1    2    0    0  0.00000000000E+00  0.00000000000E+00 -0.34143281205E+02  0.70048744791E+03  0.69965484421E+03 0.  0.
        4    1    3    3  502    0  0.31318430052E+02  0.29912308493E+03 -0.19595196260E+03  0.35896273977E+03  0.12699999809E+01 0.  1.
       -4    1    3    3    0  502 -0.31318430052E+02 -0.29912308493E+03  0.16180868140E+03  0.34152470814E+03  0.12699999809E+01 0. -1.
</event>
<event>
 5   0  0.4420645E-02  0.6942698E+03  0.7818609E-02  0.9727082E-01
        2   -1    0    0  501    0  0.00000000000E+00  0.00000000000E+00  0.22916780774E+03  0.22916780776E+03  0.25500000920E-02 0.  1.
       -2   -1    0    0    0  501  0.00000000000E+00  0.00000000000E+00 -0.52582708792E+03  0.52582708793E+03  0.25500000920E-02 0. -1.
    10030    2    1    2    0    0  0.00000000000E+00  0.00000000000E+00 -0.29665928018E+03  0.75499489569E+03  0.69426980634E+03 0.  0.
        5    1    3    3  502    0 -0.18438339871E+03 -0.24147343001E+03  0.34202434509E+02  0.30577532870E+03  0.46999998093E+01 0.  1.
       -5    1    3    3    0  502  0.18438339871E+03  0.24147343001E+03 -0.33086171469E+03  0.44921956698E+03  0.46999998093E+01 0. -1.
</event>
<event>
 5   0  0.2750139E-02  0.6979212E+03  0.7818609E-02  0.9720794E-01
        1   -1    0    0  501    0  0.00000000000E+00  0.00000000000E+00  0.32801571352E+03  0.32801571356E+03  0.50400001928E-02 0.  1.
       -1   -1    0    0    0  501  0.00000000000E+00  0.00000000000E+00 -0.37124285546E+03  0.37124285549E+03  0.50400001928E-02 0. -1.
    10030    2    1    2    0    0  0.00000000000E+00  0.00000000000E+00 -0.43227141940E+02  0.69925856905E+03  0.69792117076E+03 0.  0.
        2    1    3    3  502    0 -0.20179430429E+03  0.20944708943E+02  0.26285631903E+03  0.33204377202E+03  0.25500000920E-02 0.  1.
       -2    1    3    3    0  502  0.20179430429E+03 -0.20944708943E+02 -0.30608346097E+03  0.36721479704E+03  0.25500000920E-02 0. -1.
</event>
<event>
 5   0  0.2758681E-02  0.6749909E+03  0.7818609E-02  0.9760983E-01
       -1   -1    0    0    0  501  0.00000000000E+00  0.00000000000E+00  0.21494389841E+03  0.21494389846E+03  0.50400001928E-02 0. -1.
        1   -1    0    0  501    0  0.00000000000E+00  0.00000000000E+00 -0.52992052426E+03  0.52992052428E+03  0.50400001928E-02 0.  1.
    10030    2    1    2    0    0  0.00000000000E+00  0.00000000000E+00 -0.31497662585E+03  0.74486442274E+03  0.67499091360E+03 0.  0.
        3    1    3    3  502    0  0.84687403922E+02  0.52210850986E+02  0.19839442493E+03  0.22194208116E+03  0.10100000352E+00 0. -1.
       -3    1    3    3    0  502 -0.84687403922E+02 -0.52210850986E+02 -0.51337105078E+03  0.52292234158E+03  0.10100000352E+00 0.  1.
</event>
<event>
 5   0  0.4526837E-02  0.6952605E+03  0.7818609E-02  0.9725372E-01
        2   -1    0    0  501    0  0.00000000000E+00  0.00000000000E+00  0.11734779928E+04  0.11734779928E+04  0.25500000920E-02 0.  1.
       -2   -1    0    0    0  501  0.00000000000E+00  0.00000000000E+00 -0.10298174164E+03  0.10298174167E+03  0.25500000920E-02 0. -1.
    10030    2    1    2    0    0  0.00000000000E+00  0.00000000000E+00  0.10704962512E+04  0.12764597345E+04  0.69526054828E+03 0.  0.
        1    1    3    3  502    0  0.30508492920E+03 -0.45487521606E+02  0.24091881030E+03  0.39139213307E+03  0.50400001928E-02 0. -1.
       -1    1    3    3    0  502 -0.30508492920E+03  0.45487521606E+02  0.82957744085E+03  0.88506760140E+03  0.50400001928E-02 0.  1.
</event>
<event>
 5   0  0.2758681E-02  0.6945893E+03  0.7818609E-02  0.9726530E-01
       -1   -1    0    0    0  501  0.00000000000E+00  0.00000000000E+00  0.22949839352E+03  0.22949839358E+03  0.50400001928E-02 0.  1.
        1   -1    0    0  501    0  0.00000000000E+00  0.00000000000E+00 -0.52555306853E+03  0.52555306855E+03  0.50400001928E-02 0. -1.
    10030    2    1    2    0    0  0.00000000000E+00  0.00000000000E+00 -0.29605467501E+03  0.75505146213E+03  0.69458933182E+03 0.  0.
        3    1    3    3  502    0  0.89943553252E+02  0.21054794896E+03  0.13584251762E+03  0.26622073807E+03  0.10100000352E+00 0.  1.
       -3    1    3    3    0  502 -0.89943553252E+02 -0.21054794896E+03 -0.43189719263E+03  0.48883072406E+03  0.10100000352E+00 0. -1.
</event>
<event>
 5   0  0.4526837E-02  0.7064743E+03  0.7818609E-02  0.9706224E-01
        2   -1    0    0  501    0  0.00000000000E+00  0.00000000000E+00  0.15399414396E+04  0.15399414396E+04  0.25500000920E-02 0. -1.
       -2   -1    0    0    0  501  0.00000000000E+00  0.00000000000E+00 -0.81026772179E+02  0.81026772219E+02  0.25500000920E-02 0.  1.
    10030    2    1    2    0    0  0.00000000000E+00  0.00000000000E+00  0.14589146674E+04  0.16209682118E+04  0.70647430025E+03 0.  0.
        1    1    3    3  502    0 -0.79628968705E+02 -0.26421865020E+03  0.12354036499E+04  0.12658492983E+04  0.50400001928E-02 0. -1.
       -1    1    3    3    0  502  0.79628968705E+02  0.26421865020E+03  0.22351101753E+03  0.35511891354E+03  0.50400001928E-02 0.  1.
</event>
<event>
 5   0  0.2758681E-02  0.6655116E+03  0.7818609E-02  0.9778100E-01
        1   -1    0    0  501    0  0.00000000000E+00  0.00000000000E+00  0.15354382153E+04  0.15354382153E+04  0.50400001928E-02 0. -1.
       -1   -1    0    0    0  501  0.00000000000E+00  0.00000000000E+00 -0.72113896381E+02  0.72113896557E+02  0.50400001928E-02 0.  1.
    10030    2    1    2    0    0  0.00000000000E+00  0.00000000000E+00  0.14633243189E+04  0.16075521119E+04  0.66551163027E+03 0.  0.
        3    1    3    3  502    0 -0.29354430800E+03  0.44119831245E+02  0.36843770726E+03  0.47313969882E+03  0.10100000352E+00 0.  1.
       -3    1    3    3    0  502  0.29354430800E+03 -0.44119831245E+02  0.10948866117E+04  0.11344124130E+04  0.10100000352E+00 0. -1.
</event>
<event>
 5   0  0.2777999E-02  0.6987085E+03  0.7818609E-02  0.9719443E-01
        1   -1    0    0  501    0  0.00000000000E+00  0.00000000000E+00  0.12610554176E+04  0.12610554176E+04  0.50400001928E-02 0. -1.
       -1   -1    0    0    0  501  0.00000000000E+00  0.00000000000E+00 -0.96782746978E+02  0.96782747109E+02  0.50400001928E-02 0.  1.
    10030    2    1    2    0    0  0.00000000000E+00  0.00000000000E+00  0.11642726706E+04  0.13578381647E+04  0.69870854440E+03 0.  0.
        5    1    3    3  502    0 -0.83142468752E+02 -0.12674331000E+03 -0.29479493146E+02  0.15449164138E+03  0.46999998093E+01 0.  1.
       -5    1    3    3    0  502  0.83142468752E+02  0.12674331000E+03  0.11937521638E+04  0.12033465233E+04  0.46999998093E+01 0. -1.
</event>
<event>
 5   0  0.4365492E-02  0.6986218E+03  0.7818609E-02  0.9719592E-01
        2   -1    0    0  501    0  0.00000000000E+00  0.00000000000E+00  0.31018900975E+03  0.31018900976E+03  0.25500000920E-02 0. -1.
       -2   -1    0    0    0  501  0.00000000000E+00  0.00000000000E+00 -0.39336698123E+03  0.39336698124E+03  0.25500000920E-02 0.  1.
    10030    2    1    2    0    0  0.00000000000E+00  0.00000000000E+00 -0.83177971480E+02  0.70355599101E+03  0.69862182727E+03 0.  0.
        4    1    3    3  502    0 -0.18256516056E+03  0.78726496497E+02 -0.33082574570E+03  0.38597303794E+03  0.12699999809E+01 0.  1.
       -4    1    3    3    0  502  0.18256516056E+03 -0.78726496497E+02  0.24764777422E+03  0.31758295306E+03  0.12699999809E+01 0. -1.
</event>
<event>
 5   0  0.4503289E-02  0.7147937E+03  0.7818609E-02  0.9692262E-01
       -2   -1    0    0    0  501  0.00000000000E+00  0.00000000000E+00  0.25089261920E+03  0.25089261922E+03  0.25500000920E-02 0.  1.
        2   -1    0    0  501    0  0.00000000000E+00  0.00000000000E+00 -0.50911223959E+03  0.50911223959E+03  0.25500000920E-02 0. -1.
    10030    2    1    2    0    0  0.00000000000E+00  0.00000000000E+00 -0.25821962038E+03  0.76000485881E+03  0.71479368566E+03 0.  0.
        2    1    3    3  502    0  0.14764940278E+02 -0.91806452227E+02  0.23780576910E+03  0.25533901377E+03  0.25500000920E-02 0.  1.
       -2    1    3    3    0  502 -0.14764940278E+02  0.91806452227E+02 -0.49602538948E+03  0.50466584504E+03  0.25500000920E-02 0. -1.
</event>
<event>
 5   0  0.2684924E-02  0.6879737E+03  0.7818609E-02  0.9738023E-01
        1   -1    0    0  501    0  0.00000000000E+00  0.00000000000E+00  0.44113323372E+03  0.44113323375E+03  0.50400001928E-02 0.  1.
       -1   -1    0    0    0  501  0.00000000000E+00  0.00000000000E+00 -0.26823406852E+03  0.26823406857E+03  0.50400001928E-02 0. -1.
    10030    2    1    2    0    0  0.00000000000E+00  0.00000000000E+00  0.17289916520E+03  0.70936730232E+03  0.68797372644E+03 0.  0.
        4    1    3    3  502    0  0.33020125616E+03  0.20654973910E+02  0.18353623872E+03  0.37834727611E+03  0.12699999809E+01 0.  1.
       -4    1    3    3    0  502 -0.33020125616E+03 -0.20654973910E+02 -0.10637073519E+02  0.33102002621E+03  0.12699999809E+01 0. -1.
</event>
<event>
 5   0  0.1784625E-02  0.6836951E+03  0.7818609E-02  0.9745529E-01
       -3   -1    0    0    0  501  0.00000000000E+00  0.00000000000E+00  0.96538743584E+02  0.96538796418E+02  0.10100000352E+00 0. -1.
        3   -1    0    0  501    0  0.00000000000E+00  0.00000000000E+00 -0.12104955512E+04  0.12104955554E+04  0.10100000352E+00 0.  1.
    10030    2    1    2    0    0  0.00000000000E+00  0.00000000000E+00 -0.11139568076E+04  0.13070343518E+04  0.68369512769E+03 0.  0.
        4    1    3    3  502    0 -0.17883099943E+03 -0.98526591115E+01 -0.34070843524E+00  0.17910703569E+03  0.12699999809E+01 0. -1.
       -4    1    3    3    0  502  0.17883099943E+03  0.98526591115E+01 -0.11136160992E+04  0.11279273161E+04  0.12699999809E+01 0.  1.
</event>
<event>
 5   0  0.4420645E-02  0.6831964E+03  0.7818609E-02  0.9746408E-01
       -2   -1    0    0    0  501  0.00000000000E+00  0.00000000000E+00  0.13368857969E+03  0.13368857971E+03  0.25500000920E-02 0.  1.
        2   -1    0    0  501    0  0.00000000000E+00  0.00000000000E+00 -0.87284446960E+03  0.87284446960E+03  0.25500000920E-02 0. -1.
    10030    2    1    2    0    0  0.00000000000E+00  0.00000000000E+00 -0.73915588991E+03  0.10065330493E+04  0.68319642107E+03 0.  0.
        5    1    3    3  502    0 -0.26682050604E+03 -0.20278978672E+03 -0.46675090335E+03  0.57462629231E+03  0.46999998093E+01 0. -1.
       -5    1    3    3    0  502  0.26682050604E+03  0.20278978672E+03 -0.27240498656E+03  0.43190675700E+03  0.46999998093E+01 0.  1.
</event>
<event>
 5   0  0.2684924E-02  0.7102927E+03  0.7818609E-02  0.9699790E-01
       -1   -1    0    0    0  501  0.00000000000E+00  0.00000000000E+00  0.24786226191E+03  0.24786226196E+03  0.50400001928E-02 0.  1.
        1   -1    0    0  501    0  0.00000000000E+00  0.00000000000E+00 -0.50886699660E+03  0.50886699662E+03  0.50400001928E-02 0. -1.
    10030    2    1    2    0    0  0.00000000000E+00  0.00000000000E+00 -0.26100473469E+03  0.75672925858E+03  0.71029268564E+03 0.  0.
        4    1    3    3  502    0  0.23914549486E+03 -0.15405241260E+03  0.96011341534E+02  0.30023741296E+03  0.12699999809E+01 0.  1.
       -4    1    3    3    0  502 -0.23914549486E+03  0.15405241260E+03 -0.35701607622E+03  0.45649184562E+03  0.12699999809E+01 0. -1.
</event>
<event>
 5   0  0.4365492E-02  0.7024921E+03  0.7818609E-02  0.9712980E-01
        2   -1    0    0  501    0  0.00000000000E+00  0.00000000000E+00  0.14048574171E+03  0.14048574173E+03  0.25500000920E-02 0. -1.
       -2   -1    0    0    0  501  0.00000000000E+00  0.00000000000E+00 -0.87819445610E+03  0.87819445611E+03  0.25500000920E-02 0.  1.
    10030    2    1    2    0    0  0.00000000000E+00  0.00000000000E+00 -0.73770871439E+03  0.10186801978E+04  0.70249213389E+03 0.  0.
        4    1    3    3  502    0  0.17856762042E+02  0.16014122899E+03  0.83724181258E+02  0.18159137810E+03  0.12699999809E+01 0. -1.
       -4    1    3    3    0  502 -0.17856762042E+02 -0.16014122899E+03 -0.82143289565E+03  0.83708881974E+03  0.12699999809E+01 0.  1.
</event>
<event>
 5   0  0.2750139E-02  0.7262030E+03  0.7818609E-02  0.9673442E-01
        1   -1    0    0  501    0  0.00000000000E+00  0.00000000000E+00  0.65205108436E+03  0.65205108438E+03  0.50400001928E-02 0. -1.
       -1   -1    0    0    0  501  0.00000000000E+00  0.00000000000E+00 -0.20219690790E+03  0.20219690796E+03  0.50400001928E-02 0.  1.
    10030    2    1    2    0    0  0.00000000000E+00  0.00000000000E+00  0.44985417647E+03  0.85424799234E+03  0.72620303795E+03 0.  0.
        2    1    3    3  502    0 -0.10026482548E+02  0.36180799102E+03  0.25896243921E+03  0.44504729821E+03  0.25500000920E-02 0. -1.
       -2    1    3    3    0  502  0.10026482548E+02 -0.36180799102E+03  0.19089173726E+03  0.40920069413E+03  0.25500000920E-02 0.  1.
</event>
<event>
 5   0  0.2750139E-02  0.6864196E+03  0.7818609E-02  0.9740742E-01
       -1   -1    0    0    0  501  0.00000000000E+00  0.00000000000E+00  0.94277438200E+03  0.94277438201E+03  0.50400001928E-02 0.  1.
        1   -1    0    0  501    0  0.00000000000E+00  0.00000000000E+00 -0.12494291697E+03  0.12494291707E+03  0.50400001928E-02 0. -1.
    10030    2    1    2    0    0  0.00000000000E+00  0.00000000000E+00  0.81783146503E+03  0.10677172991E+04  0.68641964247E+03 0.  0.
        2    1    3    3  502    0  0.27663607350E+03 -0.17485408973E+03  0.24807867072E+03  0.41066348357E+03  0.25500000920E-02 0.  1.
       -2    1    3    3    0  502 -0.27663607350E+03  0.17485408973E+03  0.56975279431E+03  0.65705381552E+03  0.25500000920E-02 0. -1.
</event>
<event>
 5   0  0.4503289E-02  0.7033881E+03  0.7818609E-02  0.9711456E-01
       -2   -1    0    0    0  501  0.00000000000E+00  0.00000000000E+00  0.13649614536E+03  0.13649614538E+03  0.25500000920E-02 0.  1.
        2   -1    0    0  501    0  0.00000000000E+00  0.00000000000E+00 -0.90616996338E+03  0.90616996338E+03  0.25500000920E-02 0. -1.
    10030    2    1    2    0    0  0.00000000000E+00  0.00000000000E+00 -0.76967381803E+03  0.10426661088E+04  0.70338810639E+03 0.  0.
        2    1    3    3  502    0 -0.19510749761E+03 -0.12435779626E+03 -0.77746870162E+03  0.81116544498E+03  0.25500000920E-02 0. -1.
       -2    1    3    3    0  502  0.19510749761E+03  0.12435779626E+03  0.77948835989E+01  0.23150066378E+03  0.25500000920E-02 0.  1.
</event>
<event>
 5   0  0.2777999E-02  0.7037427E+03  0.7818609E-02  0.9710853E-01
       -1   -1    0    0    0  501  0.00000000000E+00  0.00000000000E+00  0.26631596754E+03  0.26631596759E+03  0.50400001928E-02 0.  1.
        1   -1    0    0  501    0  0.00000000000E+00  0.00000000000E+00 -0.46491184993E+03  0.46491184996E+03  0.50400001928E-02 0. -1.
    10030    2    1    2    0    0  0.00000000000E+00  0.00000000000E+00 -0.19859588239E+03  0.73122781755E+03  0.70374270629E+03 0.  0.
        5    1    3    3  502    0 -0.77887751640E+02  0.26947161300E+02  0.25611180284E+03  0.26908734068E+03  0.46999998093E+01 0.  1.
       -5    1    3    3    0  502  0.77887751640E+02 -0.26947161300E+02 -0.45470768524E+03  0.46214047688E+03  0.46999998093E+01 0. -1.
</event>
<event>
 5   0  0.2684924E-02  0.6948508E+03  0.7818609E-02  0.9726079E-01
       -1   -1    0    0    0  501  0.00000000000E+00  0.00000000000E+00  0.12477655549E+03  0.12477655559E+03  0.50400001928E-02 0. -1.
        1   -1    0    0  501    0  0.00000000000E+00  0.00000000000E+00 -0.96736459620E+03  0.96736459621E+03  0.50400001928E-02 0.  1.
    10030    2    1    2    0    0  0.00000000000E+00  0.00000000000E+00 -0.84258804071E+03  0.10921411518E+04  0.69485083948E+03 0.  0.
        4    1    3    3  502    0  0.85328405087E+02 -0.24375901014E+03 -0.78655039795E+03  0.82786625318E+03  0.12699999809E+01 0.  1.
       -4    1    3    3    0  502 -0.85328405087E+02  0.24375901014E+03 -0.56037642755E+02  0.26427489862E+03  0.12699999809E+01 0. -1.
</event>
<event>
 5   0  0.2777999E-02  0.6975977E+03  0.7818609E-02  0.9721349E-01
       -1   -1    0    0    0  501  0.00000000000E+00  0.00000000000E+00  0.18544758194E+03  0.18544758201E+03  0.50400001928E-02 0. -1.
        1   -1    0    0  501    0  0.00000000000E+00  0.00000000000E+00 -0.65603781928E+03  0.65603781930E+03  0.50400001928E-02 0.  1.
    10030    2    1    2    0    0  0.00000000000E+00  0.00000000000E+00 -0.47059023734E+03  0.84148540131E+03  0.69759766997E+03 0.  0.
        5    1    3    3  502    0 -0.28392289327E+03  0.95637223521E+02 -0.45067230319E+03  0.54118971046E+03  0.46999998093E+01 0.  1.
       -5    1    3    3    0  502  0.28392289327E+03 -0.95637223521E+02 -0.19917934154E+02  0.30029569086E+03  0.46999998093E+01 0. -1.
</event>
<event>
 5   0  0.4503289E-02  0.6880957E+03  0.7818609E-02  0.9737810E-01
        2   -1    0    0  501    0  0.00000000000E+00  0.00000000000E+00  0.41363745670E+03  0.41363745671E+03  0.25500000920E-02 0.  1.
       -2   -1    0    0    0  501  0.00000000000E+00  0.00000000000E+00 -0.28616584449E+03  0.28616584450E+03  0.25500000920E-02 0. -1.
    10030    2    1    2    0    0  0.00000000000E+00  0.00000000000E+00  0.12747161222E+03  0.69980330120E+03  0.68809566810E+03 0.  0.
        2    1    3    3  502    0  0.24585977085E+03 -0.12909132408E+03 -0.14283913842E+03  0.31227330393E+03  0.25500000920E-02 0. -1.
       -2    1    3    3    0  502 -0.24585977085E+03  0.12909132408E+03  0.27031075064E+03  0.38752999728E+03  0.25500000920E-02 0.  1.
</event>
<event>
 5   0  0.4503289E-02  0.6846043E+03  0.7818609E-02  0.9743929E-01
       -2   -1    0    0    0  501  0.00000000000E+00  0.00000000000E+00  0.39048756467E+03  0.39048756468E+03  0.25500000920E-02 0. -1.
        2   -1    0    0  501    0  0.00000000000E+00  0.00000000000E+00 -0.30006269080E+03  0.30006269081E+03  0.25500000920E-02 0.  1.
    10030    2    1    2    0    0  0.00000000000E+00  0.00000000000E+00  0.90424873866E+02  0.69055025549E+03  0.68460426345E+03 0.  0.
        2    1    3    3  502    0 -0.12900597736E+03 -0.47587022227E+02  0.36140540600E+03  0.38667936895E+03  0.25500000920E-02 0. -1.
       -2    1    3    3    0  502  0.12900597736E+03  0.47587022227E+02 -0.27098053214E+03  0.30387088653E+03  0.25500000920E-02 0.  1.
</event>
<event>
 5   0  0.2684924E-02  0.6961067E+03  0.7818609E-02  0.9723913E-01
        1   -1    0    0  501    0  0.00000000000E+00  0.00000000000E+00  0.78577775864E+03  0.78577775866E+03  0.50400001928E-02 0.  1.
       -1   -1    0    0    0  501  0.00000000000E+00  0.00000000000E+00 -0.15416717574E+03  0.15416717583E+03  0.50400001928E-02 0. -1.
    10030    2    1    2    0    0  0.00000000000E+00  0.00000000000E+00  0.63161058290E+03  0.93994493448E+03  0.69610670980E+03 0.  0.
        4    1    3    3  502    0 -0.75900615460E+02 -0.32179723910E+03  0.46264045655E+03  0.56864063472E+03  0.12699999809E+01 0.  1.
       -4    1    3    3    0  502  0.75900615460E+02  0.32179723910E+03  0.16897012635E+03  0.37130429976E+03  0.12699999809E+01 0. -1.
</event>
<event>
 5   0  0.4299912E-02  0.7066025E+03  0.7818609E-02  0.9706007E-01
        2   -1    0    0  501    0  0.00000000000E+00  0.00000000000E+00  0.55913440598E+03  0.55913440599E+03  0.25500000920E-02 0. -1.
       -2   -1    0    0    0  501  0.00000000000E+00  0.00000000000E+00 -0.22324111412E+03  0.22324111414E+03  0.25500000920E-02 0.  1.
    10030    2    1    2    0    0  0.00000000000E+00  0.00000000000E+00  0.33589329186E+03  0.78237552012E+03  0.70660254102E+03 0.  0.
        3    1    3    3  502    0 -0.82201337257E+02  0.90138080791E+02  0.53507473754E+03  0.54880499124E+03  0.10100000352E+00 0. -1.
       -3    1    3    3    0  502  0.82201337257E+02 -0.90138080791E+02 -0.19918144568E+03  0.23357052888E+03  0.10100000352E+00 0.  1.
</event>
<event>
 5   0  0.4299912E-02  0.6868253E+03  0.7818609E-02  0.9740032E-01
       -2   -1    0    0    0  501  0.00000000000E+00  0.00000000000E+00  0.27720537352E+03  0.27720537353E+03  0.25500000920E-02 0.  1.
        2   -1    0    0  501    0  0.00000000000E+00  0.00000000000E+00 -0.42543278386E+03  0.42543278387E+03  0.25500000920E-02 0. -1.
    10030    2    1    2    0    0  0.00000000000E+00  0.00000000000E+00 -0.14822741034E+03  0.70263815740E+03  0.68682531626E+03 0.  0.
        3    1    3    3  502    0  0.13919732734E+03 -0.28334319262E+03  0.64176098173E+02  0.32214568524E+03  0.10100000352E+00 0.  1.
       -3    1    3    3    0  502 -0.13919732734E+03  0.28334319262E+03 -0.21240350851E+03  0.38049247216E+03  0.10100000352E+00 0. -1.
</event>
<event>
 5   0  0.4365492E-02  0.7027320E+03  0.7818609E-02  0.9712572E-01
       -2   -1    0    0    0  501  0.00000000000E+00  0.00000000000E+00  0.71181122379E+02  0.71181122425E+02  0.25500000920E-02 0.  1.
        2   -1    0    0  501    0  0.00000000000E+00  0.00000000000E+00 -0.17344213598E+04  0.17344213598E+04  0.25500000920E-02 0. -1.
    10030    2    1    2    0    0  0.00000000000E+00  0.00000000000E+00 -0.16632402374E+04  0.18056024822E+04  0.70273198053E+03 0.  0.
        4    1    3    3  502    0  0.14082958484E+03 -0.25293776547E+02 -0.70707404123E+01  0.14326323802E+03  0.12699999809E+01 0.  1.
       -4    1    3    3    0  502 -0.14082958484E+03  0.25293776547E+02 -0.16561694970E+04  0.16623392442E+04  0.12699999809E+01 0. -1.
</event>
<event>
 5   0  0.2684924E-02  0.7055117E+03  0.7818609E-02  0.9707853E-01
       -1   -1    0    0    0  501  0.00000000000E+00  0.00000000000E+00  0.14707207155E+04  0.14707207155E+04  0.50400001928E-02 0. -1.
        1   -1    0    0  501    0  0.00000000000E+00  0.00000000000E+00 -0.84609321540E+02  0.84609321690E+02  0.50400001928E-02 0.  1.
    10030    2    1    2    0    0  0.00000000000E+00  0.00000000000E+00  0.13861113939E+04  0.15553300372E+04  0.70551167825E+03 0.  0.
        4    1    3    3  502    0 -0.91164544487E+02 -0.98580122018E+02  0.14121759536E+04  0.14185455761E+04  0.12699999809E+01 0. -1.
       -4    1    3    3    0  502  0.91164544487E+02  0.98580122018E+02 -0.26064559646E+02  0.13678446110E+03  0.12699999809E+01 0.  1.
</event>
<event>
 5   0  0.2684924E-02  0.7079096E+03  0.7818609E-02  0.9703800E-01
       -1   -1    0    0    0  501  0.00000000000E+00  0.00000000000E+00  0.48342923693E+03  0.48342923696E+03  0.50400001928E-02 0.  1.
        1   -1    0    0  501    0  0.00000000000E+00  0.00000000000E+00 -0.25915687861E+03  0.25915687866E+03  0.50400001928E-02 0. -1.
    10030    2    1    2    0    0  0.00000000000E+00  0.00000000000E+00  0.22427235832E+03  0.74258611562E+03  0.70790963294E+03 0.  0.
        4    1    3    3  502    0 -0.11509173398E+03  0.21794428969E+03  0.37862069018E+03  0.45177545370E+03  0.12699999809E+01 0.  1.
       -4    1    3    3    0  502  0.11509173398E+03 -0.21794428969E+03 -0.15434833186E+03  0.29081066192E+03  0.12699999809E+01 0. -1.
</event>
<event>
 5   0  0.4420645E-02  0.6998011E+03  0.7818609E-02  0.9717572E-01
       -2   -1    0    0    0  501  0.00000000000E+00  0.00000000000E+00  0.30249843053E+03  0.30249843054E+03  0.25500000920E-02 0.  1.
        2   -1    0    0  501    0  0.00000000000E+00  0.00000000000E+00 -0.40473063578E+03  0.40473063579E+03  0.25500000920E-02 0. -1.
    10030    2    1    2    0    0  0.00000000000E+00  0.00000000000E+00 -0.10223220526E+03  0.70722906632E+03  0.69980106349E+03 0.  0.
        5    1    3    3  502    0 -0.30680534389E+01 -0.20491335334E+03 -0.33769150134E+03  0.39503991622E+03  0.46999998093E+01 0. -1.
       -5    1    3    3    0  502  0.30680534389E+01  0.20491335334E+03  0.23545929609E+03  0.31218915010E+03  0.46999998093E+01 0.  1.
</event>
<event>
 5   0  0.2684924E-02  0.7091175E+03  0.7818609E-02  0.9701766E-01
        1   -1    0    0  501    0  0.00000000000E+00  0.00000000000E+00  0.72751599444E+03  0.72751599445E+03  0.50400001928E-02 0.  1.
       -1   -1    0    0    0  501  0.00000000000E+00  0.00000000000E+00 -0.17279607345E+03  0.17279607352E+03  0.50400001928E-02 0. -1.
    10030    2    1    2    0    0  0.00000000000E+00  0.00000000000E+00  0.55471992099E+03  0.90031206797E+03  0.70911750013E+03 0.  0.
        4    1    3    3  502    0 -0.31066286044E+03 -0.17087479725E+03  0.27841088186E+03  0.45080355059E+03  0.12699999809E+01 0. -1.
       -4    1    3    3    0  502  0.31066286044E+03  0.17087479725E+03  0.27630903913E+03  0.44950851738E+03  0.12699999809E+01 0.  1.
</event>
<event>
 5   0  0.4299912E-02  0.7007144E+03  0.7818609E-02  0.9716011E-01
       -2   -1    0    0    0  501  0.00000000000E+00  0.00000000000E+00  0.61132764485E+02  0.61132764538E+02  0.25500000920E-02 0.  1.
        2   -1    0    0  501    0  0.00000000000E+00  0.00000000000E+00 -0.20079275301E+04  0.20079275301E+04  0.25500000920E-02 0. -1.
    10030    2    1    2    0    0  0.00000000000E+00  0.00000000000E+00 -0.19467947656E+04  0.20690602947E+04  0.70071438078E+03 0.  0.
        3    1    3    3  502    0  0.44636419711E+02 -0.30440840903E+03 -0.47847944504E+03  0.56885804818E+03  0.10100000352E+00 0.  1.
       -3    1    3    3    0  502 -0.44636419711E+02  0.30440840903E+03 -0.14683153206E+04  0.15002022465E+04  0.10100000352E+00 0. -1.
</event>
<event>
 5   0  0.4299912E-02  0.6963856E+03  0.7818609E-02  0.9723433E-01
       -2   -1    0    0    0  501  0.00000000000E+00  0.00000000000E+00  0.43508182011E+03  0.43508182011E+03  0.25500000920E-02 0. -1.
        2   -1    0    0  501    0  0.00000000000E+00  0.00000000000E+00 -0.27865612273E+03  0.27865612274E+03  0.25500000920E-02 0.  1.
    10030    2    1    2    0    0  0.00000000000E+00  0.00000000000E+00  0.15642569738E+03  0.71373794285E+03  0.69638556294E+03 0.  0.
        3    1    3    3  502    0  0.32971095147E+03 -0.11060813371E+03  0.95808394674E+02  0.36072528253E+03  0.10100000352E+00 0.  1.
       -3    1    3    3    0  502 -0.32971095147E+03  0.11060813371E+03  0.60617302707E+02  0.35301266033E+03  0.10100000352E+00 0. -1.
</event>
<event>
 5   0  0.2684924E-02  0.6895180E+03  0.7818609E-02  0.9735328E-01
       -1   -1    0    0    0  501  0.00000000000E+00  0.00000000000E+00  0.50883643029E+03  0.50883643031E+03  0.50400001928E-02 0.  1.
        1   -1    0    0  501    0  0.00000000000E+00  0.00000000000E+00 -0.23358933086E+03  0.23358933092E+03  0.50400001928E-02 0. -1.
    10030    2    1    2    0    0  0.00000000000E+00  0.00000000000E+00  0.27524709943E+03  0.74242576123E+03  0.68951798033E+03 0.  0.
        4    1    3    3  502    0  0.72586091103E+02 -0.19585487697E+03 -0.15770190097E+03  0.26172385433E+03  0.12699999809E+01 0. -1.
       -4    1    3    3    0  502 -0.72586091103E+02  0.19585487697E+03  0.43294900039E+03  0.48070190690E+03  0.12699999809E+01 0.  1.
</event>
<event>
 5   0  0.2758681E-02  0.6974864E+03  0.7818609E-02  0.9721540E-01
       -1   -1    0    0    0  501  0.00000000000E+00  0.00000000000E+00  0.71578222429E+02  0.71578222606E+02  0.50400001928E-02 0.  1.
        1   -1    0    0  501    0  0.00000000000E+00  0.00000000000E+00 -0.16991456665E+04  0.16991456665E+04  0.50400001928E-02 0. -1.
    10030    2    1    2    0    0  0.00000000000E+00  0.00000000000E+00 -0.16275674441E+04  0.17707238891E+04  0.69748642028E+03 0.  0.
        3    1    3    3  502    0  0.11061809378E+03  0.30766595383E+03 -0.50569633200E+03  0.60218227491E+03  0.10100000352E+00 0.  1.
       -3    1    3    3    0  502 -0.11061809378E+03 -0.30766595383E+03 -0.11218711121E+04  0.11685416142E+04  0.10100000352E+00 0. -1.
</event>
<event>
 5   0  0.2684924E-02  0.7411620E+03  0.7818609E-02  0.9649319E-01
        1   -1    0    0  501    0  0.00000000000E+00  0.00000000000E+00  0.15833464538E+03  0.15833464546E+03  0.50400001928E-02 0.  1.
       -1   -1    0    0    0  501  0.00000000000E+00  0.00000000000E+00 -0.86734192301E+03  0.86734192303E+03  0.50400001928E-02 0. -1.
    10030    2    1    2    0    0  0.00000000000E+00  0.00000000000E+00 -0.70900727764E+03  0.10256765685E+04  0.74116199538E+03 0.  0.
        4    1    3    3  502    0 -0.16327487925E+03  0.27838429428E+03 -0.60655217387E+03  0.68706888593E+03  0.12699999809E+01 0. -1.
       -4    1    3    3    0  502  0.16327487925E+03 -0.27838429428E+03 -0.10245510377E+03  0.33860768255E+03  0.12699999809E+01 0.  1.
</event>
<event>
 5   0  0.4420645E-02  0.6889050E+03  0.7818609E-02  0.9736396E-01
       -2   -1    0    0    0  501  0.00000000000E+00  0.00000000000E+00  0.10382780077E+03  0.10382780080E+03  0.25500000920E-02 0. -1.
        2   -1    0    0  501    0  0.00000000000E+00  0.00000000000E+00 -0.11427338057E+04  0.11427338057E+04  0.25500000920E-02 0.  1.
    10030    2    1    2    0    0  0.00000000000E+00  0.00000000000E+00 -0.10389060049E+04  0.12465616065E+04  0.68890503824E+03 0.  0.
        5    1    3    3  502    0 -0.54014555054E+02 -0.16987317483E+03 -0.10527163664E+04  0.10677117148E+04  0.46999998093E+01 0.  1.
       -5    1    3    3    0  502  0.54014555054E+02  0.16987317483E+03  0.13810361526E+02  0.17884989172E+03  0.46999998093E+01 0. -1.
</event>
<event>
 5   0  0.2684924E-02  0.6901644E+03  0.7818609E-02  0.9734202E-01
       -1   -1    0    0    0  501  0.00000000000E+00  0.00000000000E+00  0.13264016755E+03  0.13264016765E+03  0.50400001928E-02 0.  1.
        1   -1    0    0  501    0  0.00000000000E+00  0.00000000000E+00 -0.89778023604E+03  0.89778023606E+03  0.50400001928E-02 0. -1.
    10030    2    1    2    0    0  0.00000000000E+00  0.00000000000E+00 -0.76514006849E+03  0.10304204037E+04  0.69016438908E+03 0.  0.
        4    1    3    3  502    0  0.95826285381E+02  0.16107211385E+03 -0.81516408615E+03  0.83643350189E+03  0.12699999809E+01 0. -1.
       -4    1    3    3    0  502 -0.95826285381E+02 -0.16107211385E+03  0.50024017662E+02  0.19398690181E+03  0.12699999809E+01 0.  1.
</event>
<event>
 5   0  0.1784625E-02  0.6966235E+03  0.7818609E-02  0.9723024E-01
       -3   -1    0    0    0  501  0.00000000000E+00  0.00000000000E+00  0.54378957167E+03  0.54378958105E+03  0.10100000352E+00 0.  1.
        3   -1    0    0  501    0  0.00000000000E+00  0.00000000000E+00 -0.22310294631E+03  0.22310296917E+03  0.10100000352E+00 0. -1.
    10030    2    1    2    0    0  0.00000000000E+00  0.00000000000E+00  0.32068662536E+03  0.76689255022E+03  0.69662347929E+03 0.  0.
        2    1    3    3  502    0  0.23906414903E+03  0.74839563808E+02  0.42676418156E+03  0.49485381107E+03  0.25500000920E-02 0.  1.
       -2    1    3    3    0  502 -0.23906414903E+03 -0.74839563808E+02 -0.10607755620E+03  0.27203873915E+03  0.25500000920E-02 0. -1.
</event>
<event>
 5   0  0.2750139E-02  0.6918270E+03  0.7818609E-02  0.9731312E-01
       -1   -1    0    0    0  501  0.00000000000E+00  0.00000000000E+00  0.29450702496E+03  0.29450702500E+03  0.50400001928E-02 0.  1.
        1   -1    0    0  501    0  0.00000000000E+00  0.00000000000E+00 -0.40629299818E+03  0.40629299821E+03  0.50400001928E-02 0. -1.
    10030    2    1    2    0    0  0.00000000000E+00  0.00000000000E+00 -0.11178597321E+03  0.70080002321E+03  0.69182697889E+03 0.  0.
        2    1    3    3  502    0 -0.27503768619E+03 -0.15852743685E+03  0.83291700186E+02  0.32819839181E+03  0.25500000920E-02 0.  1.
       -2    1    3    3    0  502  0.27503768619E+03  0.15852743685E+03 -0.19507767340E+03  0.37260163140E+03  0.25500000920E-02 0. -1.
</event>
<event>
 5   0  0.2777999E-02  0.6968230E+03  0.7818609E-02  0.9722681E-01
        1   -1    0    0  501    0  0.00000000000E+00  0.00000000000E+00  0.21431383413E+03  0.21431383419E+03  0.50400001928E-02 0.  1.
       -1   -1    0    0    0  501  0.00000000000E+00  0.00000000000E+00 -0.56641496140E+03  0.56641496142E+03  0.50400001928E-02 0. -1.
    10030    2    1    2    0    0  0.00000000000E+00  0.00000000000E+00 -0.35210112727E+03  0.78072879562E+03  0.69682296782E+03 0.  0.
        5    1    3    3  502    0  0.15738425367E+03 -0.14892913117E+03  0.12959565116E+03  0.25252091441E+03  0.46999998093E+01 0.  1.
       -5    1    3    3    0  502 -0.15738425367E+03  0.14892913117E+03 -0.48169677843E+03  0.52820788120E+03  0.46999998093E+01 0. -1.
</event>
<event>
 5   0  0.4503289E-02  0.6967646E+03  0.7818609E-02  0.9722781E-01
       -2   -1    0    0    0  501  0.00000000000E+00  0.00000000000E+00  0.73028416026E+02  0.73028416071E+02  0.25500000920E-02 0.  1.
        2   -1    0    0  501    0  0.00000000000E+00  0.00000000000E+00 -0.16619591478E+04  0.16619591478E+04  0.25500000920E-02 0. -1.
    10030    2    1    2    0    0  0.00000000000E+00  0.00000000000E+00 -0.15889307317E+04  0.17349875638E+04  0.69676464922E+03 0.  0.
        2    1    3    3  502    0 -0.10571148422E+03  0.16405539697E+03 -0.15130594247E+04  0.15255942822E+04  0.25500000920E-02 0. -1.
       -2    1    3    3    0  502  0.10571148422E+03 -0.16405539697E+03 -0.75871307072E+02  0.20939328168E+03  0.25500000920E-02 0.  1.
</event>
<event>
 5   0  0.4365492E-02  0.7157325E+03  0.7818609E-02  0.9690699E-01
       -2   -1    0    0    0  501  0.00000000000E+00  0.00000000000E+00  0.33562165928E+03  0.33562165929E+03  0.25500000920E-02 0. -1.
        2   -1    0    0  501    0  0.00000000000E+00  0.00000000000E+00 -0.38158521286E+03  0.38158521287E+03  0.25500000920E-02 0.  1.
    10030    2    1    2    0    0  0.00000000000E+00  0.00000000000E+00 -0.45963553583E+02  0.71720687215E+03  0.71573252630E+03 0.  0.
        4    1    3    3  502    0 -0.93600935101E+02  0.28090690911E+03 -0.22438540624E+03  0.37151076710E+03  0.12699999809E+01 0.  1.
       -4    1    3    3    0  502  0.93600935101E+02 -0.28090690911E+03  0.17842185266E+03  0.34569610505E+03  0.12699999809E+01 0. -1.
</event>
<event>
 5   0  0.4299912E-02  0.5499888E+03  0.7818609E-02  0.1001497E+00
        2   -1    0    0  501    0  0.00000000000E+00  0.00000000000E+00  0.71056802159E+03  0.71056802160E+03  0.25500000920E-02 0.  1.
       -2   -1    0    0    0  501  0.00000000000E+00  0.00000000000E+00 -0.10642461774E+03  0.10642461777E+03  0.25500000920E-02 0. -1.
    10030    2    1    2    0    0  0.00000000000E+00  0.00000000000E+00  0.60414340385E+03  0.81699263936E+03  0.54998883657E+03 0.  0.
        3    1    3    3  502    0  0.23943157896E+02 -0.21752675380E+03  0.54944061892E+03  0.59141877494E+03  0.10100000352E+00 0.  1.
       -3    1    3    3    0  502 -0.23943157896E+02  0.21752675380E+03  0.54702784937E+02  0.22557386443E+03  0.10100000352E+00 0. -1.
</event>
<event>
 5   0  0.2684924E-02  0.7090860E+03  0.7818609E-02  0.9701819E-01
        1   -1    0    0  501    0  0.00000000000E+00  0.00000000000E+00  0.72245016838E+03  0.72245016840E+03  0.50400001928E-02 0. -1.
       -1   -1    0    0    0  501  0.00000000000E+00  0.00000000000E+00 -0.17399224217E+03  0.17399224224E+03  0.50400001928E-02 0.  1.
    10030    2    1    2    0    0  0.00000000000E+00  0.00000000000E+00  0.54845792621E+03  0.89644241064E+03  0.70908596007E+03 0.  0.
        4    1    3    3  502    0 -0.13927243322E+03  0.28189029461E+03  0.48134612311E+03  0.57493882455E+03  0.12699999809E+01 0.  1.
       -4    1    3    3    0  502  0.13927243322E+03 -0.28189029461E+03  0.67111803108E+02  0.32150358609E+03  0.12699999809E+01 0. -1.
</event>
<event>
 5   0  0.2758681E-02  0.6901292E+03  0.7818609E-02  0.9734263E-01
        1   -1    0    0  501    0  0.00000000000E+00  0.00000000000E+00  0.86461153885E+03  0.86461153887E+03  0.50400001928E-02 0.  1.
       -1   -1    0    0    0  501  0.00000000000E+00  0.00000000000E+00 -0.13771454463E+03  0.13771454472E+03  0.50400001928E-02 0. -1.
    10030    2    1    2    0    0  0.00000000000E+00  0.00000000000E+00  0.72689699422E+03  0.10023260836E+04  0.69012921807E+03 0.  0.
        3    1    3    3  502    0 -0.34056050415E+03  0.22513900424E+02  0.28965927404E+03  0.44765035232E+03  0.10100000352E+00 0. -1.
       -3    1    3    3    0  502  0.34056050415E+03 -0.22513900424E+02  0.43723772019E+03  0.55467573127E+03  0.10100000352E+00 0.  1.
</event>
<event>
 5   0  0.2777999E-02  0.7018593E+03  0.7818609E-02  0.9714058E-01
        1   -1    0    0  501    0  0.00000000000E+00  0.00000000000E+00  0.98246378094E+03  0.98246378096E+03  0.50400001928E-02 0. -1.
       -1   -1    0    0    0  501  0.00000000000E+00  0.00000000000E+00 -0.12534979691E+03  0.12534979701E+03  0.50400001928E-02 0.  1.
    10030    2    1    2    0    0  0.00000000000E+00  0.00000000000E+00  0.85711398403E+03  0.11078135780E+04  0.70185934624E+03 0.  0.
        5    1    3    3  502    0  0.55334022546E+02 -0.25460393025E+03  0.79954616761E+03  0.84094065158E+03  0.46999998093E+01 0. -1.
       -5    1    3    3    0  502 -0.55334022546E+02  0.25460393025E+03  0.57567816427E+02  0.26687292639E+03  0.46999998093E+01 0.  1.
</event>
<event>
 5   0  0.2777999E-02  0.6928404E+03  0.7818609E-02  0.9729555E-01
        1   -1    0    0  501    0  0.00000000000E+00  0.00000000000E+00  0.11328109450E+04  0.11328109450E+04  0.50400001928E-02 0.  1.
       -1   -1    0    0    0  501  0.00000000000E+00  0.00000000000E+00 -0.10593730884E+03  0.10593730896E+03  0.50400001928E-02 0. -1.
    10030    2    1    2    0    0  0.00000000000E+00  0.00000000000E+00  0.10268736361E+04  0.12387482539E+04  0.69284036549E+03 0.  0.
        5    1    3    3  502    0  0.48229374774E+02 -0.83855010257E+02  0.11081131745E+04  0.11123374636E+04  0.46999998093E+01 0.  1.
       -5    1    3    3    0  502 -0.48229374774E+02  0.83855010257E+02 -0.81239538357E+02  0.12641079039E+03  0.46999998093E+01 0. -1.
</event>
<event>
 5   0  0.4503289E-02  0.6928817E+03  0.7818609E-02  0.9729483E-01
       -2   -1    0    0    0  501  0.00000000000E+00  0.00000000000E+00  0.17194778538E+03  0.17194778540E+03  0.25500000920E-02 0.  1.
        2   -1    0    0  501    0  0.00000000000E+00  0.00000000000E+00 -0.69800999397E+03  0.69800999397E+03  0.25500000920E-02 0. -1.
    10030    2    1    2    0    0  0.00000000000E+00  0.00000000000E+00 -0.52606220858E+03  0.86995777937E+03  0.69288172915E+03 0.  0.
        2    1    3    3  502    0  0.78619331970E+01 -0.21378601002E+03  0.79107383238E+02  0.22808824205E+03  0.25500000920E-02 0.  1.
       -2    1    3    3    0  502 -0.78619331970E+01  0.21378601002E+03 -0.60516959182E+03  0.64186953732E+03  0.25500000920E-02 0. -1.
</event>
<event>
 5   0  0.4503289E-02  0.6933680E+03  0.7818609E-02  0.9728641E-01
        2   -1    0    0  501    0  0.00000000000E+00  0.00000000000E+00  0.15577496805E+04  0.15577496805E+04  0.25500000920E-02 0. -1.
       -2   -1    0    0    0  501  0.00000000000E+00  0.00000000000E+00 -0.77156042954E+02  0.77156042996E+02  0.25500000920E-02 0.  1.
    10030    2    1    2    0    0  0.00000000000E+00  0.00000000000E+00  0.14805936376E+04  0.16349057235E+04  0.69336801570E+03 0.  0.
        2    1    3    3  502    0  0.13943311606E+03 -0.28035373744E+03  0.10912229195E+04  0.11352564785E+04  0.25500000920E-02 0. -1.
       -2    1    3    3    0  502 -0.13943311606E+03  0.28035373744E+03  0.38937071812E+03  0.49964924506E+03  0.25500000920E-02 0.  1.
</event>
<event>
 5   0  0.2751729E-02  0.6361511E+03  0.7818609E-02  0.9833118E-01
        1   -1    0    0  501    0  0.00000000000E+00  0.00000000000E+00  0.53541427482E+03  0.53541427484E+03  0.50400001928E-02 0. -1.
       -1   -1    0    0    0  501  0.00000000000E+00  0.00000000000E+00 -0.18896032594E+03  0.18896032600E+03  0.50400001928E-02 0.  1.
    10030    2    1    2    0    0  0.00000000000E+00  0.00000000000E+00  0.34645394888E+03  0.72437460084E+03  0.63615110127E+03 0.  0.
        1    1    3    3  502    0 -0.30212524316E+03 -0.99179598783E+02  0.16472103962E+03  0.35811908115E+03  0.50400001928E-02 0. -1.
       -1    1    3    3    0  502  0.30212524316E+03  0.99179598783E+02  0.18173290926E+03  0.36625551969E+03  0.50400001928E-02 0.  1.
</event>
<event>
 5   0  0.2684924E-02  0.7038005E+03  0.7818609E-02  0.9710755E-01
        1   -1    0    0  501    0  0.00000000000E+00  0.00000000000E+00  0.22230531388E+04  0.22230531389E+04  0.50400001928E-02 0.  1.
       -1   -1    0    0    0  501  0.00000000000E+00  0.00000000000E+00 -0.55704380037E+02  0.55704380265E+02  0.50400001928E-02 0. -1.
    10030    2    1    2    0    0  0.00000000000E+00  0.00000000000E+00  0.21673487588E+04  0.22787575191E+04  0.70380053184E+03 0.  0.
        4    1    3    3  502    0  0.25984063070E+03  0.16150772273E+03  0.16466241607E+04  0.16748058507E+04  0.12699999809E+01 0.  1.
       -4    1    3    3    0  502 -0.25984063070E+03 -0.16150772273E+03  0.52072459809E+03  0.60395166845E+03  0.12699999809E+01 0. -1.
</event>
<event>
 5   0  0.4526837E-02  0.6827638E+03  0.7818609E-02  0.9747171E-01
        2   -1    0    0  501    0  0.00000000000E+00  0.00000000000E+00  0.11927562127E+03  0.11927562129E+03  0.25500000920E-02 0.  1.
       -2   -1    0    0    0  501  0.00000000000E+00  0.00000000000E+00 -0.97707823622E+03  0.97707823622E+03  0.25500000920E-02 0. -1.
    10030    2    1    2    0    0  0.00000000000E+00  0.00000000000E+00 -0.85780261495E+03  0.10963538575E+04  0.68276383521E+03 0.  0.
        1    1    3    3  502    0 -0.31768216564E+02  0.26104661658E+03 -0.79350658168E+02  0.27468360452E+03  0.50400001928E-02 0.  1.
       -1    1    3    3    0  502  0.31768216564E+02 -0.26104661658E+03 -0.77845195679E+03  0.82167025300E+03  0.50400001928E-02 0. -1.
</event>
<event>
 5   0  0.4420645E-02  0.6884338E+03  0.7818609E-02  0.9737219E-01
       -2   -1    0    0    0  501  0.00000000000E+00  0.00000000000E+00  0.31498003009E+03  0.31498003010E+03  0.25500000920E-02 0.  1.
        2   -1    0    0  501    0  0.00000000000E+00  0.00000000000E+00 -0.37616759394E+03  0.37616759395E+03  0.25500000920E-02 0. -1.
    10030    2    1    2    0    0  0.00000000000E+00  0.00000000000E+00 -0.61187563852E+02  0.69114762404E+03  0.68843381690E+03 0.  0.
        5    1    3    3  502    0  0.23537886574E+03 -0.18078447697E+03 -0.20557068480E+03  0.36106458425E+03  0.46999998093E+01 0. -1.
       -5    1    3    3    0  502 -0.23537886574E+03  0.18078447697E+03  0.14438312095E+03  0.33008303980E+03  0.46999998093E+01 0.  1.
</event>
<event>
 5   0  0.2750139E-02  0.7003945E+03  0.7818609E-02  0.9716558E-01
       -1   -1    0    0    0  501  0.00000000000E+00  0.00000000000E+00  0.17353870743E+03  0.17353870751E+03  0.50400001928E-02 0.  1.
        1   -1    0    0  501    0  0.00000000000E+00  0.00000000000E+00 -0.70669034283E+03  0.70669034285E+03  0.50400001928E-02 0. -1.
    10030    2    1    2    0    0  0.00000000000E+00  0.00000000000E+00 -0.53315163540E+03  0.88022905035E+03  0.70039454221E+03 0.  0.
        2    1    3    3  502    0  0.60917623026E+02  0.33490750524E+03 -0.16321425372E+03  0.37750878994E+03  0.25500000920E-02 0.  1.
       -2    1    3    3    0  502 -0.60917623026E+02 -0.33490750524E+03 -0.36993738168E+03  0.50272026041E+03  0.25500000920E-02 0. -1.
</event>
<event>
 5   0  0.2750139E-02  0.7021474E+03  0.7818609E-02  0.9713567E-01
        1   -1    0    0  501    0  0.00000000000E+00  0.00000000000E+00  0.19575880823E+04  0.19575880823E+04  0.50400001928E-02 0. -1.
       -1   -1    0    0    0  501  0.00000000000E+00  0.00000000000E+00 -0.62961535256E+02  0.62961535458E+02  0.50400001928E-02 0.  1.
    10030    2    1    2    0    0  0.00000000000E+00  0.00000000000E+00  0.18946265471E+04  0.20205496178E+04  0.70214742404E+03 0.  0.
        2    1    3    3  502    0  0.24715117466E+03  0.90403024307E+02  0.16160010429E+04  0.16372891560E+04  0.25500000920E-02 0. -1.
       -2    1    3    3    0  502 -0.24715117466E+03 -0.90403024307E+02  0.27862550419E+03  0.38326046174E+03  0.25500000920E-02 0.  1.
</event>
<event>
 5   0  0.2758681E-02  0.6983777E+03  0.7818609E-02  0.9720010E-01
        1   -1    0    0  501    0  0.00000000000E+00  0.00000000000E+00  0.10854368362E+04  0.10854368362E+04  0.50400001928E-02 0. -1.
       -1   -1    0    0    0  501  0.00000000000E+00  0.00000000000E+00 -0.11233529773E+03  0.11233529785E+03  0.50400001928E-02 0.  1.
    10030    2    1    2    0    0  0.00000000000E+00  0.00000000000E+00  0.97310153844E+03  0.11977721340E+04  0.69837774946E+03 0.  0.
        3    1    3    3  502    0 -0.28842929305E+03  0.16887379612E+03  0.65996068384E+03  0.73976883587E+03  0.10100000352E+00 0. -1.
       -3    1    3    3    0  502  0.28842929305E+03 -0.16887379612E+03  0.31314085460E+03  0.45800329816E+03  0.10100000352E+00 0.  1.
</event>
<event>
 5   0  0.4299912E-02  0.6998925E+03  0.7818609E-02  0.9717416E-01
        2   -1    0    0  501    0  0.00000000000E+00  0.00000000000E+00  0.94771869949E+03  0.94771869949E+03  0.25500000920E-02 0.  1.
       -2   -1    0    0    0  501  0.00000000000E+00  0.00000000000E+00 -0.12921807836E+03  0.12921807838E+03  0.25500000920E-02 0. -1.
    10030    2    1    2    0    0  0.00000000000E+00  0.00000000000E+00  0.81850062113E+03  0.10769367779E+04  0.69989253228E+03 0.  0.
        3    1    3    3  502    0  0.97279943884E+02  0.27595692475E+02  0.92474925659E+03  0.93026131140E+03  0.10100000352E+00 0.  1.
       -3    1    3    3    0  502 -0.97279943884E+02 -0.27595692475E+02 -0.10624863546E+03  0.14667546647E+03  0.10100000352E+00 0. -1.
</event>
<event>
 5   0  0.2777999E-02  0.6945540E+03  0.7818609E-02  0.9726591E-01
       -1   -1    0    0    0  501  0.00000000000E+00  0.00000000000E+00  0.37100948699E+03  0.37100948702E+03  0.50400001928E-02 0.  1.
        1   -1    0    0  501    0  0.00000000000E+00  0.00000000000E+00 -0.32506262469E+03  0.32506262472E+03  0.50400001928E-02 0. -1.
    10030    2    1    2    0    0  0.00000000000E+00  0.00000000000E+00  0.45946862302E+02  0.69607211175E+03  0.69455400841E+03 0.  0.
        5    1    3    3  502    0 -0.25626648553E+03 -0.23251613043E+03 -0.61238907845E+01  0.34611537751E+03  0.46999998093E+01 0. -1.
       -5    1    3    3    0  502  0.25626648553E+03  0.23251613043E+03  0.52070753087E+02  0.34995673424E+03  0.46999998093E+01 0.  1.
</event>
<event>
 5   0  0.2750139E-02  0.6976813E+03  0.7818609E-02  0.9721206E-01
       -1   -1    0    0    0  501  0.00000000000E+00  0.00000000000E+00  0.83699932919E+03  0.83699932920E+03  0.50400001928E-02 0.  1.
        1   -1    0    0  501    0  0.00000000000E+00  0.00000000000E+00 -0.14538815833E+03  0.14538815842E+03  0.50400001928E-02 0. -1.
    10030    2    1    2    0    0  0.00000000000E+00  0.00000000000E+00  0.69161117086E+03  0.98238748762E+03  0.69768127693E+03 0.  0.
        2    1    3    3  502    0 -0.16560413286E+03  0.10789414712E+03 -0.58936755628E+02  0.20625085933E+03  0.25500000920E-02 0. -1.
       -2    1    3    3    0  502  0.16560413286E+03 -0.10789414712E+03  0.75054792649E+03  0.77613662829E+03  0.25500000920E-02 0.  1.
</event>
<event>
 5   0  0.4299912E-02  0.6940070E+03  0.7818609E-02  0.9727536E-01
        2   -1    0    0  501    0  0.00000000000E+00  0.00000000000E+00  0.23907111397E+03  0.23907111398E+03  0.25500000920E-02 0. -1.
       -2   -1    0    0    0  501  0.00000000000E+00  0.00000000000E+00 -0.50366366317E+03  0.50366366318E+03  0.25500000920E-02 0.  1.
    10030    2    1    2    0    0  0.00000000000E+00  0.00000000000E+00 -0.26459254921E+03  0.74273477716E+03  0.69400701157E+03 0.  0.
        3    1    3    3  502    0 -0.67902547485E+02  0.44420503618E+02 -0.49336799295E+03  0.49999592375E+03  0.10100000352E+00 0.  1.
       -3    1    3    3    0  502  0.67902547485E+02 -0.44420503618E+02  0.22877544374E+03  0.24273885341E+03  0.10100000352E+00 0. -1.
</event>
<event>
 5   0  0.4420645E-02  0.7062341E+03  0.7818609E-02  0.9706630E-01
       -2   -1    0    0    0  501  0.00000000000E+00  0.00000000000E+00  0.14072585486E+03  0.14072585488E+03  0.25500000920E-02 0.  1.
        2   -1    0    0  501    0  0.00000000000E+00  0.00000000000E+00 -0.88606064048E+03  0.88606064048E+03  0.25500000920E-02 0. -1.
    10030    2    1    2    0    0  0.00000000000E+00  0.00000000000E+00 -0.74533478562E+03  0.10267864954E+04  0.70623407197E+03 0.  0.
        5    1    3    3  502    0 -0.12917154119E+03 -0.23676793452E+03 -0.41368023166E+02  0.27290611062E+03  0.46999998093E+01 0.  1.
       -5    1    3    3    0  502  0.12917154119E+03  0.23676793452E+03 -0.70396676245E+03  0.75388038475E+03  0.46999998093E+01 0. -1.
</event>
<event>
 5   0  0.4420645E-02  0.6957165E+03  0.7818609E-02  0.9724586E-01
        2   -1    0    0  501    0  0.00000000000E+00  0.00000000000E+00  0.46783846667E+03  0.46783846668E+03  0.25500000920E-02 0. -1.
       -2   -1    0    0    0  501  0.00000000000E+00  0.00000000000E+00 -0.25864770721E+03  0.25864770722E+03  0.25500000920E-02 0.  1.
    10030    2    1    2    0    0  0.00000000000E+00  0.00000000000E+00  0.20919075946E+03  0.72648617390E+03  0.69571645591E+03 0.  0.
        5    1    3    3  502    0  0.97299108356E+00  0.17071434952E+03  0.42104783066E+03  0.45436516321E+03  0.46999998093E+01 0. -1.
       -5    1    3    3    0  502 -0.97299108356E+00 -0.17071434952E+03 -0.21185707120E+03  0.27212101069E+03  0.46999998093E+01 0.  1.
</event>
<event>
 5   0  0.4420645E-02  0.6970746E+03  0.7818609E-02  0.9722248E-01
        2   -1    0    0  501    0  0.00000000000E+00  0.00000000000E+00  0.11186120134E+04  0.11186120134E+04  0.25500000920E-02 0. -1.
       -2   -1    0    0    0  501  0.00000000000E+00  0.00000000000E+00 -0.10859729798E+03  0.10859729801E+03  0.25500000920E-02 0.  1.
    10030    2    1    2    0    0  0.00000000000E+00  0.00000000000E+00  0.10100147154E+04  0.12272093114E+04  0.69707457899E+03 0.  0.
        5    1    3    3  502    0  0.13145096971E+03  0.31199038685E+03  0.35941816635E+03  0.49378220626E+03  0.46999998093E+01 0.  1.
       -5    1    3    3    0  502 -0.13145096971E+03 -0.31199038685E+03  0.65059654908E+03  0.73342710516E+03  0.46999998093E+01 0. -1.
</event>
<event>
 5   0  0.4503289E-02  0.6956523E+03  0.7818609E-02  0.9724696E-01
        2   -1    0    0  501    0  0.00000000000E+00  0.00000000000E+00  0.16252256267E+04  0.16252256267E+04  0.25500000920E-02 0.  1.
       -2   -1    0    0    0  501  0.00000000000E+00  0.00000000000E+00 -0.74440750278E+02  0.74440750322E+02  0.25500000920E-02 0. -1.
    10030    2    1    2    0    0  0.00000000000E+00  0.00000000000E+00  0.15507848764E+04  0.16996663770E+04  0.69565225526E+03 0.  0.
        2    1    3    3  502    0 -0.27307473614E+03 -0.11200225202E+03  0.32574642870E+03  0.43957371600E+03  0.25500000920E-02 0. -1.
       -2    1    3    3    0  502  0.27307473614E+03  0.11200225202E+03  0.12250384477E+04  0.12600926610E+04  0.25500000920E-02 0.  1.
</event>
<event>
 5   0  0.4365492E-02  0.7105159E+03  0.7818609E-02  0.9699416E-01
       -2   -1    0    0    0  501  0.00000000000E+00  0.00000000000E+00  0.63458334627E+02  0.63458334678E+02  0.25500000920E-02 0.  1.
        2   -1    0    0  501    0  0.00000000000E+00  0.00000000000E+00 -0.19888356378E+04  0.19888356378E+04  0.25500000920E-02 0. -1.
    10030    2    1    2    0    0  0.00000000000E+00  0.00000000000E+00 -0.19253773032E+04  0.20522939725E+04  0.71051586183E+03 0.  0.
        4    1    3    3  502    0 -0.10773528619E+03 -0.23042297527E+03 -0.16790313025E+04  0.16981900268E+04  0.12699999809E+01 0. -1.
       -4    1    3    3    0  502  0.10773528619E+03  0.23042297527E+03 -0.24634600076E+03  0.35410394577E+03  0.12699999809E+01 0.  1.
</event>
<event>
 5   0  0.4299912E-02  0.6858978E+03  0.7818609E-02  0.9741657E-01
       -2   -1    0    0    0  501  0.00000000000E+00  0.00000000000E+00  0.57856762736E+02  0.57856762792E+02  0.25500000920E-02 0. -1.
        2   -1    0    0  501    0  0.00000000000E+00  0.00000000000E+00 -0.20328470921E+04  0.20328470921E+04  0.25500000920E-02 0.  1.
    10030    2    1    2    0    0  0.00000000000E+00  0.00000000000E+00 -0.19749903294E+04  0.20907038549E+04  0.68589781148E+03 0.  0.
        3    1    3    3  502    0  0.31167606317E+03  0.14251670443E+03 -0.10261670422E+04  0.10818834448E+04  0.10100000352E+00 0.  1.
       -3    1    3    3    0  502 -0.31167606317E+03 -0.14251670443E+03 -0.94882328723E+03  0.10088204102E+04  0.10100000352E+00 0. -1.
</event>
<event>
 5   0  0.4420645E-02  0.6375526E+03  0.7818609E-02  0.9830420E-01
       -2   -1    0    0    0  501  0.00000000000E+00  0.00000000000E+00  0.16444604276E+03  0.16444604278E+03  0.25500000920E-02 0. -1.
        2   -1    0    0  501    0  0.00000000000E+00  0.00000000000E+00 -0.61794320242E+03  0.61794320242E+03  0.25500000920E-02 0.  1.
    10030    2    1    2    0    0  0.00000000000E+00  0.00000000000E+00 -0.45349715965E+03  0.78238924521E+03  0.63755255250E+03 0.  0.
        5    1    3    3  502    0 -0.15950173675E+03 -0.27570206058E+03 -0.21203300040E+03  0.38266501472E+03  0.46999998093E+01 0. -1.
       -5    1    3    3    0  502  0.15950173675E+03  0.27570206058E+03 -0.24146415925E+03  0.39972423049E+03  0.46999998093E+01 0.  1.
</event>
<event>
 5   0  0.4526837E-02  0.6985112E+03  0.7818609E-02  0.9719782E-01
        2   -1    0    0  501    0  0.00000000000E+00  0.00000000000E+00  0.27147922675E+03  0.27147922676E+03  0.25500000920E-02 0.  1.
       -2   -1    0    0    0  501  0.00000000000E+00  0.00000000000E+00 -0.44931425547E+03  0.44931425548E+03  0.25500000920E-02 0. -1.
    10030    2    1    2    0    0  0.00000000000E+00  0.00000000000E+00 -0.17783502873E+03  0.72079348224E+03  0.69851123584E+03 0.  0.
        1    1    3    3  502    0  0.75566568251E+02 -0.43184674624E+02  0.26010911310E+03  0.27428447478E+03  0.50400001928E-02 0.  1.
       -1    1    3    3    0  502 -0.75566568251E+02  0.43184674624E+02 -0.43794414183E+03  0.44650900746E+03  0.50400001928E-02 0. -1.
</event>
<event>
 5   0  0.2777999E-02  0.7063707E+03  0.7818609E-02  0.9706399E-01
       -1   -1    0    0    0  501  0.00000000000E+00  0.00000000000E+00  0.26320988850E+03  0.26320988855E+03  0.50400001928E-02 0.  1.
        1   -1    0    0  501    0  0.00000000000E+00  0.00000000000E+00 -0.47391794392E+03  0.47391794395E+03  0.50400001928E-02 0. -1.
    10030    2    1    2    0    0  0.00000000000E+00  0.00000000000E+00 -0.21070805542E+03  0.73712783250E+03  0.70637069364E+03 0.  0.
        5    1    3    3  502    0 -0.22360733231E+03  0.19466166155E+03  0.94898479793E+02  0.31132171946E+03  0.46999998093E+01 0.  1.
       -5    1    3    3    0  502  0.22360733231E+03 -0.19466166155E+03 -0.30560653522E+03  0.42580611304E+03  0.46999998093E+01 0. -1.
</event>
<event>
 5   0  0.4526837E-02  0.7015141E+03  0.7818609E-02  0.9714646E-01
        2   -1    0    0  501    0  0.00000000000E+00  0.00000000000E+00  0.40835090642E+03  0.40835090643E+03  0.25500000920E-02 0. -1.
       -2   -1    0    0    0  501  0.00000000000E+00  0.00000000000E+00 -0.30128620564E+03  0.30128620565E+03  0.25500000920E-02 0.  1.
    10030    2    1    2    0    0  0.00000000000E+00  0.00000000000E+00  0.10706470078E+03  0.70963711208E+03  0.70151406307E+03 0.  0.
        1    1    3    3  502    0 -0.26928225086E+03 -0.19107996918E+03  0.17324971629E+03  0.37288061021E+03  0.50400001928E-02 0. -1.
       -1    1    3    3    0  502  0.26928225086E+03  0.19107996918E+03 -0.66185015509E+02  0.33675650187E+03  0.50400001928E-02 0.  1.
</event>
<event>
 5   0  0.2750139E-02  0.6896903E+03  0.7818609E-02  0.9735027E-01
        1   -1    0    0  501    0  0.00000000000E+00  0.00000000000E+00  0.70995535199E+03  0.70995535201E+03  0.50400001928E-02 0. -1.
       -1   -1    0    0    0  501  0.00000000000E+00  0.00000000000E+00 -0.16750092396E+03  0.16750092403E+03  0.50400001928E-02 0.  1.
    10030    2    1    2    0    0  0.00000000000E+00  0.00000000000E+00  0.54245442803E+03  0.87745627604E+03  0.68969029996E+03 0.  0.
        2    1    3    3  502    0 -0.17936026885E+03 -0.12336931095E+03 -0.69031819611E+02  0.22837575408E+03  0.25500000920E-02 0.  1.
       -2    1    3    3    0  502  0.17936026885E+03  0.12336931095E+03  0.61148624764E+03  0.64908052196E+03  0.25500000920E-02 0. -1.
</event>
<event>
 5   0  0.4299912E-02  0.7192070E+03  0.7818609E-02  0.9684938E-01
        2   -1    0    0  501    0  0.00000000000E+00  0.00000000000E+00  0.32342252402E+03  0.32342252403E+03  0.25500000920E-02 0.  1.
       -2   -1    0    0    0  501  0.00000000000E+00  0.00000000000E+00 -0.39983201655E+03  0.39983201656E+03  0.25500000920E-02 0. -1.
    10030    2    1    2    0    0  0.00000000000E+00  0.00000000000E+00 -0.76409492530E+02  0.72325454059E+03  0.71920700770E+03 0.  0.
        3    1    3    3  502    0 -0.32050541113E+03  0.15116945406E+03 -0.99694155327E+02  0.36812342660E+03  0.10100000352E+00 0. -1.
       -3    1    3    3    0  502  0.32050541113E+03 -0.15116945406E+03  0.23284662797E+02  0.35513111399E+03  0.10100000352E+00 0.  1.
</event>
<event>
 5   0  0.2684924E-02  0.6953319E+03  0.7818609E-02  0.9725249E-01
        1   -1    0    0  501    0  0.00000000000E+00  0.00000000000E+00  0.32001029318E+03  0.32001029322E+03  0.50400001928E-02 0.  1.
       -1   -1    0    0    0  501  0.00000000000E+00  0.00000000000E+00 -0.37771162935E+03  0.37771162938E+03  0.50400001928E-02 0. -1.
    10030    2    1    2    0    0  0.00000000000E+00  0.00000000000E+00 -0.57701336169E+02  0.69772192260E+03  0.69533188987E+03 0.  0.
        4    1    3    3  502    0 -0.21326371991E+03  0.24331328369E+03  0.98815688534E+02  0.33830300243E+03  0.12699999809E+01 0. -1.
       -4    1    3    3    0  502  0.21326371991E+03 -0.24331328369E+03 -0.15651702470E+03  0.35941892017E+03  0.12699999809E+01 0.  1.
</event>
<event>
 5   0  0.2751729E-02  0.7016082E+03  0.7818609E-02  0.9714486E-01
       -1   -1    0    0    0  501  0.00000000000E+00  0.00000000000E+00  0.28124955647E+03  0.28124955651E+03  0.50400001928E-02 0. -1.
        1   -1    0    0  501    0  0.00000000000E+00  0.00000000000E+00 -0.43755990847E+03  0.43755990850E+03  0.50400001928E-02 0.  1.
    10030    2    1    2    0    0  0.00000000000E+00  0.00000000000E+00 -0.15631035200E+03  0.71880946501E+03  0.70160823886E+03 0.  0.
        1    1    3    3  502    0  0.15891011729E+03  0.29899115464E+03 -0.17213969876E+03  0.37984235130E+03  0.50400001928E-02 0.  1.
       -1    1    3    3    0  502 -0.15891011729E+03 -0.29899115464E+03  0.15829346762E+02  0.33896711370E+03  0.50400001928E-02 0. -1.
</event>
<event>
 5   0  0.2777999E-02  0.7064348E+03  0.7818609E-02  0.9706291E-01
        1   -1    0    0  501    0  0.00000000000E+00  0.00000000000E+00  0.40093468194E+03  0.40093468197E+03  0.50400001928E-02 0. -1.
       -1   -1    0    0    0  501  0.00000000000E+00  0.00000000000E+00 -0.31117920014E+03  0.31117920018E+03  0.50400001928E-02 0.  1.
    10030    2    1    2    0    0  0.00000000000E+00  0.00000000000E+00  0.89755481798E+02  0.71211388215E+03  0.70643480565E+03 0.  0.
        5    1    3    3  502    0  0.22673241371E+03  0.25466547804E+03  0.13769592073E+03  0.36775582893E+03  0.46999998093E+01 0.  1.
       -5    1    3    3    0  502 -0.22673241371E+03 -0.25466547804E+03 -0.47940438927E+02  0.34435805322E+03  0.46999998093E+01 0. -1.
</event>
<event>
 5   0  0.4365492E-02  0.7038865E+03  0.7818609E-02  0.9710609E-01
       -2   -1    0    0    0  501  0.00000000000E+00  0.00000000000E+00  0.11590812769E+03  0.11590812772E+03  0.25500000920E-02 0.  1.
        2   -1    0    0  501    0  0.00000000000E+00  0.00000000000E+00 -0.10686398877E+04  0.10686398877E+04  0.25500000920E-02 0. -1.
    10030    2    1    2    0    0  0.00000000000E+00  0.00000000000E+00 -0.95273176002E+03  0.11845480154E+04  0.70388649251E+03 0.  0.
        4    1    3    3  502    0 -0.17686691164E+02  0.32372428106E+03 -0.70681562218E+03  0.77762469473E+03  0.12699999809E+01 0. -1.
       -4    1    3    3    0  502  0.17686691164E+02 -0.32372428106E+03 -0.24591613784E+03  0.40692332071E+03  0.12699999809E+01 0.  1.
</event>
<event>
 5   0  0.2750139E-02  0.6993307E+03  0.7818609E-02  0.9718378E-01
        1   -1    0    0  501    0  0.00000000000E+00  0.00000000000E+00  0.53481381274E+03  0.53481381277E+03  0.50400001928E-02 0. -1.
       -1   -1    0    0    0  501  0.00000000000E+00  0.00000000000E+00 -0.22861385721E+03  0.22861385727E+03  0.50400001928E-02 0.  1.
    10030    2    1    2    0    0  0.00000000000E+00  0.00000000000E+00  0.30619995553E+03  0.76342767003E+03  0.69933067615E+03 0.  0.
        2    1    3    3  502    0  0.56350495065E+02 -0.18917567281E+03 -0.16197631753E+03  0.25534122449E+03  0.25500000920E-02 0.  1.
       -2    1    3    3    0  502 -0.56350495065E+02  0.18917567281E+03  0.46817627306E+03  0.50808644554E+03  0.25500000920E-02 0. -1.
</event>
<event>
 5   0  0.4503289E-02  0.6576532E+03  0.7818609E-02  0.9792523E-01
        2   -1    0    0  501    0  0.00000000000E+00  0.00000000000E+00  0.52190430840E+03  0.52190430841E+03  0.25500000920E-02 0.  1.
       -2   -1    0    0    0  501  0.00000000000E+00  0.00000000000E+00 -0.20717771881E+03  0.20717771883E+03  0.25500000920E-02 0. -1.
    10030    2    1    2    0    0  0.00000000000E+00  0.00000000000E+00  0.31472658959E+03  0.72908202724E+03  0.65765323404E+03 0.  0.
        2    1    3    3  502    0 -0.61806644084E+02  0.29984110601E+03  0.24319764625E+02  0.30710942848E+03  0.25500000920E-02 0. -1.
       -2    1    3    3    0  502  0.61806644084E+02 -0.29984110601E+03  0.29040682497E+03  0.42197259875E+03  0.25500000920E-02 0.  1.
</event>
<event>
 5   0  0.1784625E-02  0.6816450E+03  0.7818609E-02  0.9749147E-01
        3   -1    0    0  501    0  0.00000000000E+00  0.00000000000E+00  0.14779787893E+03  0.14779791344E+03  0.10100000352E+00 0.  1.
       -3   -1    0    0    0  501  0.00000000000E+00  0.00000000000E+00 -0.78593793777E+03  0.78593794426E+03  0.10100000352E+00 0. -1.
    10030    2    1    2    0    0  0.00000000000E+00  0.00000000000E+00 -0.63814005884E+03  0.93373585770E+03  0.68164500824E+03 0.  0.
        3    1    3    3  502    0  0.14130001826E+03 -0.23184560506E+03 -0.60127400842E+03  0.65973367592E+03  0.10100000352E+00 0. -1.
       -3    1    3    3    0  502 -0.14130001826E+03  0.23184560506E+03 -0.36866050417E+02  0.27400218178E+03  0.10100000352E+00 0.  1.
</event>
<event>
 5   0  0.4526837E-02  0.7155230E+03  0.7818609E-02  0.9691048E-01
       -2   -1    0    0    0  501  0.00000000000E+00  0.00000000000E+00  0.45126424624E+03  0.45126424625E+03  0.25500000920E-02 0.  1.
        2   -1    0    0  501    0  0.00000000000E+00  0.00000000000E+00 -0.28363271890E+03  0.28363271891E+03  0.25500000920E-02 0. -1.
    10030    2    1    2    0    0  0.00000000000E+00  0.00000000000E+00  0.16763152735E+03  0.73489696516E+03  0.71552303977E+03 0.  0.
        1    1    3    3  502    0 -0.79960109771E+02  0.15076060397E+03 -0.23913560741E+03  0.29378260265E+03  0.50400001928E-02 0. -1.
       -1    1    3    3    0  502  0.79960109771E+02 -0.15076060397E+03  0.40676713476E+03  0.44111436251E+03  0.50400001928E-02 0.  1.
</event>
<event>
 5   0  0.4420645E-02  0.6726611E+03  0.7818609E-02  0.9765162E-01
        2   -1    0    0  501    0  0.00000000000E+00  0.00000000000E+00  0.13546596164E+04  0.13546596164E+04  0.25500000920E-02 0.  1.
       -2   -1    0    0    0  501  0.00000000000E+00  0.00000000000E+00 -0.83503082254E+02  0.83503082293E+02  0.25500000920E-02 0. -1.
    10030    2    1    2    0    0  0.00000000000E+00  0.00000000000E+00  0.12711565342E+04  0.14381626987E+04  0.67266114324E+03 0.  0.
        5    1    3    3  502    0 -0.50300288374E+02 -0.18715612534E+03  0.47958727115E+02  0.19969893282E+03  0.46999998093E+01 0. -1.
       -5    1    3    3    0  502  0.50300288374E+02  0.18715612534E+03  0.12231978071E+04  0.12384637659E+04  0.46999998093E+01 0.  1.
</event>
<event>
 5   0  0.2750139E-02  0.6896269E+03  0.7818609E-02  0.9735138E-01
       -1   -1    0    0    0  501  0.00000000000E+00  0.00000000000E+00  0.15832414464E+03  0.15832414472E+03  0.50400001928E-02 0.  1.
        1   -1    0    0  501    0  0.00000000000E+00  0.00000000000E+00 -0.75096761612E+03  0.75096761614E+03  0.50400001928E-02 0. -1.
    10030    2    1    2    0    0  0.00000000000E+00  0.00000000000E+00 -0.59264347148E+03  0.90929176086E+03  0.68962687163E+03 0.  0.
        2    1    3    3  502    0 -0.12700962822E+03 -0.26824526317E+03 -0.52775739126E+03  0.60548726734E+03  0.25500000920E-02 0. -1.
       -2    1    3    3    0  502  0.12700962822E+03  0.26824526317E+03 -0.64886080220E+02  0.30380449352E+03  0.25500000920E-02 0.  1.
</event>
<event>
 5   0  0.2684924E-02  0.6332498E+03  0.7818609E-02  0.9838727E-01
        1   -1    0    0  501    0  0.00000000000E+00  0.00000000000E+00  0.42828034072E+03  0.42828034075E+03  0.50400001928E-02 0. -1.
       -1   -1    0    0    0  501  0.00000000000E+00  0.00000000000E+00 -0.23407878492E+03  0.23407878497E+03  0.50400001928E-02 0.  1.
    10030    2    1    2    0    0  0.00000000000E+00  0.00000000000E+00  0.19420155580E+03  0.66235912572E+03  0.63324984576E+03 0.  0.
        4    1    3    3  502    0 -0.18814823782E+03  0.11181179884E+03 -0.14221363573E+03  0.26101334993E+03  0.12699999809E+01 0.  1.
       -4    1    3    3    0  502  0.18814823782E+03 -0.11181179884E+03  0.33641519152E+03  0.40134577579E+03  0.12699999809E+01 0. -1.
</event>
<event>
 5   0  0.4365492E-02  0.6973833E+03  0.7818609E-02  0.9721718E-01
        2   -1    0    0  501    0  0.00000000000E+00  0.00000000000E+00  0.53972896105E+03  0.53972896105E+03  0.25500000920E-02 0.  1.
       -2   -1    0    0    0  501  0.00000000000E+00  0.00000000000E+00 -0.22527208714E+03  0.22527208715E+03  0.25500000920E-02 0. -1.
    10030    2    1    2    0    0  0.00000000000E+00  0.00000000000E+00  0.31445687391E+03  0.76500104820E+03  0.69738330795E+03 0.  0.
        4    1    3    3  502    0  0.83219348419E+02 -0.33090429754E+03  0.78421688331E+02  0.35010668115E+03  0.12699999809E+01 0. -1.
       -4    1    3    3    0  502 -0.83219348419E+02  0.33090429754E+03  0.23603518558E+03  0.41489436706E+03  0.12699999809E+01 0.  1.
</event>
<event>
 5   0  0.4299912E-02  0.6523953E+03  0.7818609E-02  0.9802295E-01
        2   -1    0    0  501    0  0.00000000000E+00  0.00000000000E+00  0.47793196835E+03  0.47793196836E+03  0.25500000920E-02 0. -1.
       -2   -1    0    0    0  501  0.00000000000E+00  0.00000000000E+00 -0.22263611495E+03  0.22263611496E+03  0.25500000920E-02 0.  1.
    10030    2    1    2    0    0  0.00000000000E+00  0.00000000000E+00  0.25529585341E+03  0.70056808332E+03  0.65239533000E+03 0.  0.
        3    1    3    3  502    0 -0.32084502499E+03  0.55838532976E+02  0.14760617579E+03  0.35755707958E+03  0.10100000352E+00 0.  1.
       -3    1    3    3    0  502  0.32084502499E+03 -0.55838532976E+02  0.10768967762E+03  0.34301100374E+03  0.10100000352E+00 0. -1.
</event>
<event>
 5   0  0.2751729E-02  0.6956592E+03  0.7818609E-02  0.9724684E-01
       -1   -1    0    0    0  501  0.00000000000E+00  0.00000000000E+00  0.13528041630E+03  0.13528041639E+03  0.50400001928E-02 0.  1.
        1   -1    0    0  501    0  0.00000000000E+00  0.00000000000E+00 -0.89433079084E+03  0.89433079085E+03  0.50400001928E-02 0. -1.
    10030    2    1    2    0    0  0.00000000000E+00  0.00000000000E+00 -0.75905037454E+03  0.10296112072E+04  0.69565923195E+03 0.  0.
        1    1    3    3  502    0 -0.27257775387E+03 -0.42860829520E+02 -0.69296688114E+03  0.74588121105E+03  0.50400001928E-02 0. -1.
       -1    1    3    3    0  502  0.27257775387E+03  0.42860829520E+02 -0.66083493392E+02  0.28372999619E+03  0.50400001928E-02 0.  1.
</event>
<event>
 5   0  0.2751729E-02  0.7007747E+03  0.7818609E-02  0.9715908E-01
       -1   -1    0    0    0  501  0.00000000000E+00  0.00000000000E+00  0.60757230724E+03  0.60757230726E+03  0.50400001928E-02 0. -1.
        1   -1    0    0  501    0  0.00000000000E+00  0.00000000000E+00 -0.20206864279E+03  0.20206864286E+03  0.50400001928E-02 0.  1.
    10030    2    1    2    0    0  0.00000000000E+00  0.00000000000E+00  0.40550366445E+03  0.80964095012E+03  0.70077474714E+03 0.  0.
        1    1    3    3  502    0  0.18915921050E+03 -0.23104484640E+03  0.41455762567E+03  0.51090209727E+03  0.50400001928E-02 0. -1.
       -1    1    3    3    0  502 -0.18915921050E+03  0.23104484640E+03 -0.90539612203E+01  0.29873885285E+03  0.50400001928E-02 0.  1.
</event>
<event>
 5   0  0.2750139E-02  0.6781462E+03  0.7818609E-02  0.9755353E-01
        1   -1    0    0  501    0  0.00000000000E+00  0.00000000000E+00  0.15866688295E+04  0.15866688295E+04  0.50400001928E-02 0.  1.
       -1   -1    0    0    0  501  0.00000000000E+00  0.00000000000E+00 -0.72460337169E+02  0.72460337344E+02  0.50400001928E-02 0. -1.
    10030    2    1    2    0    0  0.00000000000E+00  0.00000000000E+00  0.15142084924E+04  0.16591291669E+04  0.67814617455E+03 0.  0.
        2    1    3    3  502    0  0.70051453343E+02  0.32302420539E+03  0.94211889396E+03  0.99841867658E+03  0.25500000920E-02 0.  1.
       -2    1    3    3    0  502 -0.70051453343E+02 -0.32302420539E+03  0.57208959839E+03  0.66071049029E+03  0.25500000920E-02 0. -1.
</event>
<event>
 5   0  0.2750139E-02  0.5919523E+03  0.7818609E-02  0.9922245E-01
        1   -1    0    0  501    0  0.00000000000E+00  0.00000000000E+00  0.11433846166E+03  0.11433846177E+03  0.50400001928E-02 0. -1.
       -1   -1    0    0    0  501  0.00000000000E+00  0.00000000000E+00 -0.76616287572E+03  0.76616287574E+03  0.50400001928E-02 0.  1.
    10030    2    1    2    0    0  0.00000000000E+00  0.00000000000E+00 -0.65182441406E+03  0.88050133752E+03  0.59195231109E+03 0.  0.
        2    1    3    3  502    0 -0.20402163629E+03  0.27231962921E+01 -0.64483007680E+03  0.67634168275E+03  0.25500000920E-02 0.  1.
       -2    1    3    3    0  502  0.20402163629E+03 -0.27231962921E+01 -0.69943372604E+01  0.20415965476E+03  0.25500000920E-02 0. -1.
</event>
<event>
 5   0  0.4420645E-02  0.7115893E+03  0.7818609E-02  0.9697616E-01
        2   -1    0    0  501    0  0.00000000000E+00  0.00000000000E+00  0.49538985649E+03  0.49538985649E+03  0.25500000920E-02 0.  1.
       -2   -1    0    0    0  501  0.00000000000E+00  0.00000000000E+00 -0.25553577137E+03  0.25553577139E+03  0.25500000920E-02 0. -1.
    10030    2    1    2    0    0  0.00000000000E+00  0.00000000000E+00  0.23985408511E+03  0.75092562788E+03  0.71158928917E+03 0.  0.
        5    1    3    3  502    0 -0.39339529835E+02 -0.27220194457E+03 -0.11821624136E+03  0.29939717259E+03  0.46999998093E+01 0. -1.
       -5    1    3    3    0  502  0.39339529835E+02  0.27220194457E+03  0.35807032647E+03  0.45152845529E+03  0.46999998093E+01 0.  1.
</event>
<event>
 5   0  0.2777999E-02  0.7020604E+03  0.7818609E-02  0.9713715E-01
        1   -1    0    0  501    0  0.00000000000E+00  0.00000000000E+00  0.46293790960E+03  0.46293790963E+03  0.50400001928E-02 0. -1.
       -1   -1    0    0    0  501  0.00000000000E+00  0.00000000000E+00 -0.26617438093E+03  0.26617438098E+03  0.50400001928E-02 0.  1.
    10030    2    1    2    0    0  0.00000000000E+00  0.00000000000E+00  0.19676352867E+03  0.72911229061E+03  0.70206042910E+03 0.  0.
        5    1    3    3  502    0  0.31509532181E+03  0.15451873266E+03  0.91894390976E+02  0.36280541570E+03  0.46999998093E+01 0. -1.
       -5    1    3    3    0  502 -0.31509532181E+03 -0.15451873266E+03  0.10486913770E+03  0.36630687491E+03  0.46999998093E+01 0.  1.
</event>
<event>
 5   0  0.2758681E-02  0.7004261E+03  0.7818609E-02  0.9716504E-01
        1   -1    0    0  501    0  0.00000000000E+00  0.00000000000E+00  0.13868877307E+04  0.13868877307E+04  0.50400001928E-02 0.  1.
       -1   -1    0    0    0  501  0.00000000000E+00  0.00000000000E+00 -0.88434839447E+02  0.88434839590E+02  0.50400001928E-02 0. -1.
    10030    2    1    2    0    0  0.00000000000E+00  0.00000000000E+00  0.12984528913E+04  0.14753225703E+04  0.70042613860E+03 0.  0.
        3    1    3    3  502    0 -0.43301854506E+02  0.41777832625E+02  0.13759187658E+04  0.13772337849E+04  0.10100000352E+00 0.  1.
       -3    1    3    3    0  502  0.43301854506E+02 -0.41777832625E+02 -0.77465874560E+02  0.98088785418E+02  0.10100000352E+00 0. -1.
</event>
<event>
 5   0  0.2758681E-02  0.6879640E+03  0.7818609E-02  0.9738040E-01
       -1   -1    0    0    0  501  0.00000000000E+00  0.00000000000E+00  0.10255227865E+03  0.10255227877E+03  0.50400001928E-02 0. -1.
        1   -1    0    0  501    0  0.00000000000E+00  0.00000000000E+00 -0.11537881202E+04  0.11537881202E+04  0.50400001928E-02 0.  1.
    10030    2    1    2    0    0  0.00000000000E+00  0.00000000000E+00 -0.10512358416E+04  0.12563403990E+04  0.68796395512E+03 0.  0.
        3    1    3    3  502    0 -0.13811592313E+03 -0.60046764992E+01 -0.11008229918E+04  0.11094698436E+04  0.10100000352E+00 0.  1.
       -3    1    3    3    0  502  0.13811592313E+03  0.60046764992E+01  0.49587150262E+02  0.14687055537E+03  0.10100000352E+00 0. -1.
</event>
<event>
 5   0  0.2684924E-02  0.6992943E+03  0.7818609E-02  0.9718440E-01
       -1   -1    0    0    0  501  0.00000000000E+00  0.00000000000E+00  0.13457515393E+03  0.13457515402E+03  0.50400001928E-02 0. -1.
        1   -1    0    0  501    0  0.00000000000E+00  0.00000000000E+00 -0.90843750911E+03  0.90843750913E+03  0.50400001928E-02 0.  1.
    10030    2    1    2    0    0  0.00000000000E+00  0.00000000000E+00 -0.77386235519E+03  0.10430126631E+04  0.69929426618E+03 0.  0.
        4    1    3    3  502    0  0.11957025539E+03  0.30870580455E+03 -0.21914203155E+03  0.39701531788E+03  0.12699999809E+01 0. -1.
       -4    1    3    3    0  502 -0.11957025539E+03 -0.30870580455E+03 -0.55472032363E+03  0.64599734527E+03  0.12699999809E+01 0.  1.
</event>
<event>
 5   0  0.4503289E-02  0.7064082E+03  0.7818609E-02  0.9706336E-01
        2   -1    0    0  501    0  0.00000000000E+00  0.00000000000E+00  0.21312740500E+03  0.21312740502E+03  0.25500000920E-02 0.  1.
       -2   -1    0    0    0  501  0.00000000000E+00  0.00000000000E+00 -0.58534543617E+03  0.58534543617E+03  0.25500000920E-02 0. -1.
    10030    2    1    2    0    0  0.00000000000E+00  0.00000000000E+00 -0.37221803116E+03  0.79847284119E+03  0.70640824981E+03 0.  0.
        2    1    3    3  502    0 -0.30213830079E+03 -0.80649093454E+02 -0.51028553030E+00  0.31271726763E+03  0.25500000920E-02 0.  1.
       -2    1    3    3    0  502  0.30213830079E+03  0.80649093454E+02 -0.37170774563E+03  0.48575557356E+03  0.25500000920E-02 0. -1.
</event>
<event>
 5   0  0.4526837E-02  0.6952035E+03  0.7818609E-02  0.9725470E-01
        2   -1    0    0  501    0  0.00000000000E+00  0.00000000000E+00  0.12018600014E+03  0.12018600017E+03  0.25500000920E-02 0. -1.
       -2   -1    0    0    0  501  0.00000000000E+00  0.00000000000E+00 -0.10053332834E+04  0.10053332834E+04  0.25500000920E-02 0.  1.
    10030    2    1    2    0    0  0.00000000000E+00  0.00000000000E+00 -0.88514728323E+03  0.11255192835E+04  0.69520352748E+03 0.  0.
        1    1    3    3  502    0 -0.12283524672E+03  0.27863040458E+03 -0.71398114007E+03  0.77620388339E+03  0.50400001928E-02 0.  1.
       -1    1    3    3    0  502  0.12283524672E+03 -0.27863040458E+03 -0.17116614316E+03  0.34931540015E+03  0.50400001928E-02 0. -1.
</event>
<event>
 5   0  0.2777999E-02  0.6988079E+03  0.7818609E-02  0.9719273E-01
       -1   -1    0    0    0  501  0.00000000000E+00  0.00000000000E+00  0.47044453473E+03  0.47044453476E+03  0.50400001928E-02 0.  1.
        1   -1    0    0  501    0  0.00000000000E+00  0.00000000000E+00 -0.25950586187E+03  0.25950586192E+03  0.50400001928E-02 0. -1.
    10030    2    1    2    0    0  0.00000000000E+00  0.00000000000E+00  0.21093867286E+03  0.72995039667E+03  0.69880788339E+03 0.  0.
        5    1    3    3  502    0 -0.75166234518E+02 -0.10818443905E+03 -0.23253619155E+03  0.26729946884E+03  0.46999998093E+01 0. -1.
       -5    1    3    3    0  502  0.75166234518E+02  0.10818443905E+03  0.44347486441E+03  0.46265092783E+03  0.46999998093E+01 0.  1.
</event>
<event>
 5   0  0.2750139E-02  0.6982771E+03  0.7818609E-02  0.9720183E-01
       -1   -1    0    0    0  501  0.00000000000E+00  0.00000000000E+00  0.44739616378E+03  0.44739616381E+03  0.50400001928E-02 0.  1.
        1   -1    0    0  501    0  0.00000000000E+00  0.00000000000E+00 -0.27246037523E+03  0.27246037527E+03  0.50400001928E-02 0. -1.
    10030    2    1    2    0    0  0.00000000000E+00  0.00000000000E+00  0.17493578855E+03  0.71985653908E+03  0.69827709882E+03 0.  0.
        2    1    3    3  502    0  0.33574788362E+03 -0.95754906272E+02  0.88955843909E+02  0.36028986331E+03  0.25500000920E-02 0. -1.
       -2    1    3    3    0  502 -0.33574788362E+03  0.95754906272E+02  0.85979944641E+02  0.35956667577E+03  0.25500000920E-02 0.  1.
</event>
<event>
 5   0  0.2758681E-02  0.6999945E+03  0.7818609E-02  0.9717242E-01
       -1   -1    0    0    0  501  0.00000000000E+00  0.00000000000E+00  0.60281737247E+03  0.60281737249E+03  0.50400001928E-02 0. -1.
        1   -1    0    0  501    0  0.00000000000E+00  0.00000000000E+00 -0.20320928631E+03  0.20320928637E+03  0.50400001928E-02 0.  1.
    10030    2    1    2    0    0  0.00000000000E+00  0.00000000000E+00  0.39960808616E+03  0.80602665886E+03  0.69999453731E+03 0.  0.
        3    1    3    3  502    0 -0.24974561397E+03 -0.21429840060E+03  0.33702497382E+03  0.47104407371E+03  0.10100000352E+00 0. -1.
       -3    1    3    3    0  502  0.24974561397E+03  0.21429840060E+03  0.62583112334E+02  0.33498258515E+03  0.10100000352E+00 0.  1.
</event>
<event>
 5   0  0.4503289E-02  0.6485574E+03  0.7818609E-02  0.9809490E-01
       -2   -1    0    0    0  501  0.00000000000E+00  0.00000000000E+00  0.15161519099E+03  0.15161519102E+03  0.25500000920E-02 0.  1.
        2   -1    0    0  501    0  0.00000000000E+00  0.00000000000E+00 -0.69357610947E+03  0.69357610947E+03  0.25500000920E-02 0. -1.
    10030    2    1    2    0    0  0.00000000000E+00  0.00000000000E+00 -0.54196091847E+03  0.84519130049E+03  0.64855739705E+03 0.  0.
        2    1    3    3  502    0 -0.11436511117E+01  0.30569837205E+03 -0.12999595634E+03  0.33219234080E+03  0.25500000920E-02 0.  1.
       -2    1    3    3    0  502  0.11436511117E+01 -0.30569837205E+03 -0.41196496213E+03  0.51299895969E+03  0.25500000920E-02 0. -1.
</event>
<event>
 5   0  0.4526837E-02  0.6788826E+03  0.7818609E-02  0.9754043E-01
       -2   -1    0    0    0  501  0.00000000000E+00  0.00000000000E+00  0.94800069840E+02  0.94800069874E+02  0.25500000920E-02 0. -1.
        2   -1    0    0  501    0  0.00000000000E+00  0.00000000000E+00 -0.12154041021E+04  0.12154041021E+04  0.25500000920E-02 0.  1.
    10030    2    1    2    0    0  0.00000000000E+00  0.00000000000E+00 -0.11206040322E+04  0.13102041720E+04  0.67888259305E+03 0.  0.
        1    1    3    3  502    0  0.47070176953E+02  0.24220201119E+03 -0.10102020457E+04  0.10398969126E+04  0.50400001928E-02 0.  1.
       -1    1    3    3    0  502 -0.47070176953E+02 -0.24220201119E+03 -0.11040198656E+03  0.27030725932E+03  0.50400001928E-02 0. -1.
</event>
<event>
 5   0  0.2751729E-02  0.6766372E+03  0.7818609E-02  0.9758041E-01
       -1   -1    0    0    0  501  0.00000000000E+00  0.00000000000E+00  0.59038538945E+02  0.59038539160E+02  0.50400001928E-02 0. -1.
        1   -1    0    0  501    0  0.00000000000E+00  0.00000000000E+00 -0.19387246491E+04  0.19387246491E+04  0.50400001928E-02 0.  1.
    10030    2    1    2    0    0  0.00000000000E+00  0.00000000000E+00 -0.18796861102E+04  0.19977631883E+04  0.67663718763E+03 0.  0.
        1    1    3    3  502    0  0.26368329738E+03  0.20003333552E+03 -0.73280533517E+03  0.80408076455E+03  0.50400001928E-02 0.  1.
       -1    1    3    3    0  502 -0.26368329738E+03 -0.20003333552E+03 -0.11468807750E+04  0.11936824237E+04  0.50400001928E-02 0. -1.
</event>
<event>
 5   0  0.4503289E-02  0.6952936E+03  0.7818609E-02  0.9725315E-01
       -2   -1    0    0    0  501  0.00000000000E+00  0.00000000000E+00  0.52326070188E+02  0.52326070251E+02  0.25500000920E-02 0.  1.
        2   -1    0    0  501    0  0.00000000000E+00  0.00000000000E+00 -0.23097146837E+04  0.23097146837E+04  0.25500000920E-02 0. -1.
    10030    2    1    2    0    0  0.00000000000E+00  0.00000000000E+00 -0.22573886135E+04  0.23620407540E+04  0.69529358614E+03 0.  0.
        2    1    3    3  502    0  0.25283893114E+03  0.17566847255E+03 -0.16772250435E+04  0.17052480124E+04  0.25500000920E-02 0. -1.
       -2    1    3    3    0  502 -0.25283893114E+03 -0.17566847255E+03 -0.58016357007E+03  0.65679274158E+03  0.25500000920E-02 0.  1.
</event>
<event>
 5   0  0.2750139E-02  0.7147342E+03  0.7818609E-02  0.9692361E-01
        1   -1    0    0  501    0  0.00000000000E+00  0.00000000000E+00  0.10304255250E+04  0.10304255250E+04  0.50400001928E-02 0.  1.
       -1   -1    0    0    0  501  0.00000000000E+00  0.00000000000E+00 -0.12394030686E+03  0.12394030696E+03  0.50400001928E-02 0. -1.
    10030    2    1    2    0    0  0.00000000000E+00  0.00000000000E+00  0.90648521812E+03  0.11543658320E+04  0.71473423264E+03 0.  0.
        2    1    3    3  502    0  0.32244090661E+03 -0.14413438665E+03  0.36524724148E+03  0.50808307105E+03  0.25500000920E-02 0. -1.
       -2    1    3    3    0  502 -0.32244090661E+03  0.14413438665E+03  0.54123797664E+03  0.64628276090E+03  0.25500000920E-02 0.  1.
</event>
<event>
 5   0  0.1784625E-02  0.7000720E+03  0.7818609E-02  0.9717109E-01
       -3   -1    0    0    0  501  0.00000000000E+00  0.00000000000E+00  0.85001799741E+02  0.85001859745E+02  0.10100000352E+00 0.  1.
        3   -1    0    0  501    0  0.00000000000E+00  0.00000000000E+00 -0.14414417203E+04  0.14414417238E+04  0.10100000352E+00 0. -1.
    10030    2    1    2    0    0  0.00000000000E+00  0.00000000000E+00 -0.13564399205E+04  0.15264435835E+04  0.70007196470E+03 0.  0.
        4    1    3    3  502    0  0.30103280640E+03 -0.17112879685E+03 -0.78977855076E+03  0.86235583594E+03  0.12699999809E+01 0. -1.
       -4    1    3    3    0  502 -0.30103280640E+03  0.17112879685E+03 -0.56666136976E+03  0.66408774760E+03  0.12699999809E+01 0.  1.
</event>
<event>
 5   0  0.2758681E-02  0.7013925E+03  0.7818609E-02  0.9714854E-01
       -1   -1    0    0    0  501  0.00000000000E+00  0.00000000000E+00  0.11161854800E+03  0.11161854811E+03  0.50400001928E-02 0.  1.
        1   -1    0    0  501    0  0.00000000000E+00  0.00000000000E+00 -0.11018587343E+04  0.11018587344E+04  0.50400001928E-02 0. -1.
    10030    2    1    2    0    0  0.00000000000E+00  0.00000000000E+00 -0.99024018634E+03  0.12134772825E+04  0.70139253519E+03 0.  0.
        3    1    3    3  502    0 -0.16324757327E+03  0.28353005295E+03 -0.71361158386E+03  0.78503539024E+03  0.10100000352E+00 0.  1.
       -3    1    3    3    0  502  0.16324757327E+03 -0.28353005295E+03 -0.27662860247E+03  0.42844189222E+03  0.10100000352E+00 0. -1.
</event>
<event>
 5   0  0.4420645E-02  0.7067980E+03  0.7818609E-02  0.9705677E-01
       -2   -1    0    0    0  501  0.00000000000E+00  0.00000000000E+00  0.61123277797E+03  0.61123277798E+03  0.25500000920E-02 0. -1.
        2   -1    0    0  501    0  0.00000000000E+00  0.00000000000E+00 -0.20432617779E+03  0.20432617781E+03  0.25500000920E-02 0.  1.
    10030    2    1    2    0    0  0.00000000000E+00  0.00000000000E+00  0.40690660018E+03  0.81555895579E+03  0.70679801152E+03 0.  0.
        5    1    3    3  502    0  0.34380199003E+03  0.44180580845E+02  0.12420415230E+03  0.36823972290E+03  0.46999998093E+01 0.  1.
       -5    1    3    3    0  502 -0.34380199003E+03 -0.44180580845E+02  0.28270244789E+03  0.44731923289E+03  0.46999998093E+01 0. -1.
</event>
<event>
 5   0  0.4503289E-02  0.7053833E+03  0.7818609E-02  0.9708070E-01
        2   -1    0    0  501    0  0.00000000000E+00  0.00000000000E+00  0.74992795052E+03  0.74992795052E+03  0.25500000920E-02 0. -1.
       -2   -1    0    0    0  501  0.00000000000E+00  0.00000000000E+00 -0.16587114039E+03  0.16587114041E+03  0.25500000920E-02 0.  1.
    10030    2    1    2    0    0  0.00000000000E+00  0.00000000000E+00  0.58405681013E+03  0.91579909093E+03  0.70538331246E+03 0.  0.
        2    1    3    3  502    0 -0.24706933760E+03  0.17273297023E+03  0.52969697443E+03  0.60947421710E+03  0.25500000920E-02 0. -1.
       -2    1    3    3    0  502  0.24706933760E+03 -0.17273297023E+03  0.54359835701E+02  0.30632487384E+03  0.25500000920E-02 0.  1.
</event>
<event>
 5   0  0.2777999E-02  0.6981808E+03  0.7818609E-02  0.9720348E-01
       -1   -1    0    0    0  501  0.00000000000E+00  0.00000000000E+00  0.18378580503E+03  0.18378580510E+03  0.50400001928E-02 0. -1.
        1   -1    0    0  501    0  0.00000000000E+00  0.00000000000E+00 -0.66307690106E+03  0.66307690108E+03  0.50400001928E-02 0.  1.
    10030    2    1    2    0    0  0.00000000000E+00  0.00000000000E+00 -0.47929109603E+03  0.84686270618E+03  0.69818084218E+03 0.  0.
        5    1    3    3  502    0  0.18518683016E+03  0.28948821466E+03 -0.31386858617E+03  0.46543868326E+03  0.46999998093E+01 0.  1.
       -5    1    3    3    0  502 -0.18518683016E+03 -0.28948821466E+03 -0.16542250986E+03  0.38142402292E+03  0.46999998093E+01 0. -1.
</event>
<event>
 5   0  0.2777999E-02  0.6977436E+03  0.7818609E-02  0.9721099E-01
       -1   -1    0    0    0  501  0.00000000000E+00  0.00000000000E+00  0.59770335230E+03  0.59770335232E+03  0.50400001928E-02 0. -1.
        1   -1    0    0  501    0  0.00000000000E+00  0.00000000000E+00 -0.20363200860E+03  0.20363200866E+03  0.50400001928E-02 0.  1.
    10030    2    1    2    0    0  0.00000000000E+00  0.00000000000E+00  0.39407134370E+03  0.80133536098E+03  0.69774360394E+03 0.  0.
        5    1    3    3  502    0  0.17044553778E+02 -0.34796632769E+03  0.17654391538E+03  0.39059048385E+03  0.46999998093E+01 0.  1.
       -5    1    3    3    0  502 -0.17044553778E+02  0.34796632769E+03  0.21752742832E+03  0.41074487713E+03  0.46999998093E+01 0. -1.
</event>
<event>
 5   0  0.2750139E-02  0.7060001E+03  0.7818609E-02  0.9707026E-01
        1   -1    0    0  501    0  0.00000000000E+00  0.00000000000E+00  0.67164464090E+03  0.67164464092E+03  0.50400001928E-02 0. -1.
       -1   -1    0    0    0  501  0.00000000000E+00  0.00000000000E+00 -0.18552821491E+03  0.18552821497E+03  0.50400001928E-02 0.  1.
    10030    2    1    2    0    0  0.00000000000E+00  0.00000000000E+00  0.48611642600E+03  0.85717285590E+03  0.70600008871E+03 0.  0.
        2    1    3    3  502    0  0.24369631858E+03 -0.23148983727E+03  0.11210367667E+03  0.35432001747E+03  0.25500000920E-02 0. -1.
       -2    1    3    3    0  502 -0.24369631858E+03  0.23148983727E+03  0.37401274933E+03  0.50285283843E+03  0.25500000920E-02 0.  1.
</event>
<event>
 5   0  0.2751729E-02  0.6832669E+03  0.7818609E-02  0.9746284E-01
        1   -1    0    0  501    0  0.00000000000E+00  0.00000000000E+00  0.13611850641E+03  0.13611850650E+03  0.50400001928E-02 0.  1.
       -1   -1    0    0    0  501  0.00000000000E+00  0.00000000000E+00 -0.85743964697E+03  0.85743964699E+03  0.50400001928E-02 0. -1.
    10030    2    1    2    0    0  0.00000000000E+00  0.00000000000E+00 -0.72132114056E+03  0.99355815349E+03  0.68326687066E+03 0.  0.
        1    1    3    3  502    0 -0.23603977045E+03 -0.62484698972E+02 -0.13204999869E+02  0.24452705963E+03  0.50400001928E-02 0.  1.
       -1    1    3    3    0  502  0.23603977045E+03  0.62484698972E+02 -0.70811614069E+03  0.74903109387E+03  0.50400001928E-02 0. -1.
</event>
<event>
 5   0  0.4503289E-02  0.7033756E+03  0.7818609E-02  0.9711477E-01
       -2   -1    0    0    0  501  0.00000000000E+00  0.00000000000E+00  0.45051509571E+03  0.45051509572E+03  0.25500000920E-02 0. -1.
        2   -1    0    0  501    0  0.00000000000E+00  0.00000000000E+00 -0.27453974813E+03  0.27453974815E+03  0.25500000920E-02 0.  1.
    10030    2    1    2    0    0  0.00000000000E+00  0.00000000000E+00  0.17597534757E+03  0.72505484386E+03  0.70337557795E+03 0.  0.
        2    1    3    3  502    0 -0.61711311697E+02  0.27776788037E+03  0.30104887815E+03  0.41423870944E+03  0.25500000920E-02 0. -1.
       -2    1    3    3    0  502  0.61711311697E+02 -0.27776788037E+03 -0.12507353058E+03  0.31081613442E+03  0.25500000920E-02 0.  1.
</event>
<event>
 5   0  0.2751729E-02  0.7136729E+03  0.7818609E-02  0.9694131E-01
       -1   -1    0    0    0  501  0.00000000000E+00  0.00000000000E+00  0.15972849595E+03  0.15972849603E+03  0.50400001928E-02 0.  1.
        1   -1    0    0  501    0  0.00000000000E+00  0.00000000000E+00 -0.79717929285E+03  0.79717929286E+03  0.50400001928E-02 0. -1.
    10030    2    1    2    0    0  0.00000000000E+00  0.00000000000E+00 -0.63745079689E+03  0.95690778889E+03  0.71367289285E+03 0.  0.
        1    1    3    3  502    0  0.21509451782E+03  0.14791616578E+03  0.74757912678E+01  0.26115269704E+03  0.50400001928E-02 0.  1.
       -1    1    3    3    0  502 -0.21509451782E+03 -0.14791616578E+03 -0.64492658816E+03  0.69575509185E+03  0.50400001928E-02 0. -1.
</event>
<event>
 5   0  0.1784625E-02  0.6942260E+03  0.7818609E-02  0.9727158E-01
       -3   -1    0    0    0  501  0.00000000000E+00  0.00000000000E+00  0.89404274392E+02  0.89404331442E+02  0.10100000352E+00 0.  1.
        3   -1    0    0  501    0  0.00000000000E+00  0.00000000000E+00 -0.13476693988E+04  0.13476694026E+04  0.10100000352E+00 0. -1.
    10030    2    1    2    0    0  0.00000000000E+00  0.00000000000E+00 -0.12582651244E+04  0.14370737340E+04  0.69422603936E+03 0.  0.
        1    1    3    3  502    0  0.81142284392E+02 -0.64068190716E+02  0.56792454770E+02  0.11795840929E+03  0.50400001928E-02 0.  1.
       -1    1    3    3    0  502 -0.81142284392E+02  0.64068190716E+02 -0.13150575792E+04  0.13191153247E+04  0.50400001928E-02 0. -1.
</event>
<event>
 5   0  0.4420645E-02  0.6970580E+03  0.7818609E-02  0.9722277E-01
        2   -1    0    0  501    0  0.00000000000E+00  0.00000000000E+00  0.18225197582E+04  0.18225197582E+04  0.25500000920E-02 0.  1.
       -2   -1    0    0    0  501  0.00000000000E+00  0.00000000000E+00 -0.66650843565E+02  0.66650843614E+02  0.25500000920E-02 0. -1.
    10030    2    1    2    0    0  0.00000000000E+00  0.00000000000E+00  0.17558689147E+04  0.18891706018E+04  0.69705804449E+03 0.  0.
        5    1    3    3  502    0  0.85543055889E+02  0.67551608526E+02  0.17750475281E+04  0.17783972141E+04  0.46999998093E+01 0.  1.
       -5    1    3    3    0  502 -0.85543055889E+02 -0.67551608526E+02 -0.19178613391E+02  0.11077338776E+03  0.46999998093E+01 0. -1.
</event>
<event>
 5   0  0.2758681E-02  0.6798178E+03  0.7818609E-02  0.9752383E-01
        1   -1    0    0  501    0  0.00000000000E+00  0.00000000000E+00  0.33520872974E+03  0.33520872978E+03  0.50400001928E-02 0.  1.
       -1   -1    0    0    0  501  0.00000000000E+00  0.00000000000E+00 -0.34467493160E+03  0.34467493164E+03  0.50400001928E-02 0. -1.
    10030    2    1    2    0    0  0.00000000000E+00  0.00000000000E+00 -0.94662018612E+01  0.67988366142E+03  0.67981775800E+03 0.  0.
        3    1    3    3  502    0 -0.31067144770E+03  0.88070940669E+02  0.10141293529E+03  0.33846393109E+03  0.10100000352E+00 0.  1.
       -3    1    3    3    0  502  0.31067144770E+03 -0.88070940669E+02 -0.11087913715E+03  0.34141973033E+03  0.10100000352E+00 0. -1.
</event>
<event>
 5   0  0.2777999E-02  0.6988902E+03  0.7818609E-02  0.9719132E-01
       -1   -1    0    0    0  501  0.00000000000E+00  0.00000000000E+00  0.79381125345E+02  0.79381125505E+02  0.50400001928E-02 0.  1.
        1   -1    0    0  501    0  0.00000000000E+00  0.00000000000E+00 -0.15382986903E+04  0.15382986903E+04  0.50400001928E-02 0. -1.
    10030    2    1    2    0    0  0.00000000000E+00  0.00000000000E+00 -0.14589175650E+04  0.16176798158E+04  0.69889020966E+03 0.  0.
        5    1    3    3  502    0 -0.22368394005E+03 -0.24550546213E+03 -0.47821249724E+03  0.58225142291E+03  0.46999998093E+01 0.  1.
       -5    1    3    3    0  502  0.22368394005E+03  0.24550546213E+03 -0.98070506772E+03  0.10354283929E+04  0.46999998093E+01 0. -1.
</event>
<event>
 5   0  0.2777999E-02  0.6998163E+03  0.7818609E-02  0.9717546E-01
       -1   -1    0    0    0  501  0.00000000000E+00  0.00000000000E+00  0.24599621258E+03  0.24599621263E+03  0.50400001928E-02 0.  1.
        1   -1    0    0  501    0  0.00000000000E+00  0.00000000000E+00 -0.49771383982E+03  0.49771383985E+03  0.50400001928E-02 0. -1.
    10030    2    1    2    0    0  0.00000000000E+00  0.00000000000E+00 -0.25171762724E+03  0.74371005248E+03  0.69981631754E+03 0.  0.
        5    1    3    3  502    0 -0.20880182623E+03 -0.20783210124E+03  0.74714953820E+02  0.30396841820E+03  0.46999998093E+01 0.  1.
       -5    1    3    3    0  502  0.20880182623E+03  0.20783210124E+03 -0.32643258106E+03  0.43974163428E+03  0.46999998093E+01 0. -1.
</event>
<event>
 5   0  0.4503289E-02  0.7117742E+03  0.7818609E-02  0.9697306E-01
       -2   -1    0    0    0  501  0.00000000000E+00  0.00000000000E+00  0.12982620103E+03  0.12982620106E+03  0.25500000920E-02 0. -1.
        2   -1    0    0  501    0  0.00000000000E+00  0.00000000000E+00 -0.97557833820E+03  0.97557833820E+03  0.25500000920E-02 0.  1.
    10030    2    1    2    0    0  0.00000000000E+00  0.00000000000E+00 -0.84575213716E+03  0.11054045393E+04  0.71177420429E+03 0.  0.
        2    1    3    3  502    0  0.40125668684E+02 -0.25790154517E+03 -0.79860703655E+03  0.84017645476E+03  0.25500000920E-02 0.  1.
       -2    1    3    3    0  502 -0.40125668684E+02  0.25790154517E+03 -0.47145100612E+02  0.26522808450E+03  0.25500000920E-02 0. -1.
</event>
<event>
 5   0  0.2777999E-02  0.7083167E+03  0.7818609E-02  0.9703114E-01
        1   -1    0    0  501    0  0.00000000000E+00  0.00000000000E+00  0.80813251291E+03  0.80813251292E+03  0.50400001928E-02 0. -1.
       -1   -1    0    0    0  501  0.00000000000E+00  0.00000000000E+00 -0.15520740413E+03  0.15520740421E+03  0.50400001928E-02 0.  1.
    10030    2    1    2    0    0  0.00000000000E+00  0.00000000000E+00  0.65292510878E+03  0.96333991713E+03  0.70831673583E+03 0.  0.
        5    1    3    3  502    0 -0.77654171598E+02  0.19747120695E+03  0.71205523969E+03  0.74301399873E+03  0.46999998093E+01 0. -1.
       -5    1    3    3    0  502  0.77654171598E+02 -0.19747120695E+03 -0.59130130908E+02  0.22032591840E+03  0.46999998093E+01 0.  1.
</event>
<event>
 5   0  0.2751729E-02  0.7071320E+03  0.7818609E-02  0.9705113E-01
       -1   -1    0    0    0  501  0.00000000000E+00  0.00000000000E+00  0.25440582808E+03  0.25440582813E+03  0.50400001928E-02 0.  1.
        1   -1    0    0  501    0  0.00000000000E+00  0.00000000000E+00 -0.49137605664E+03  0.49137605667E+03  0.50400001928E-02 0. -1.
    10030    2    1    2    0    0  0.00000000000E+00  0.00000000000E+00 -0.23697022856E+03  0.74578188480E+03  0.70713204599E+03 0.  0.
        1    1    3    3  502    0 -0.12506302542E+03  0.25402018181E+03 -0.34181837574E+03  0.44385449769E+03  0.50400001928E-02 0. -1.
       -1    1    3    3    0  502  0.12506302542E+03 -0.25402018181E+03  0.10484814718E+03  0.30192738711E+03  0.50400001928E-02 0.  1.
</event>
<event>
 5   0  0.4503289E-02  0.7154043E+03  0.7818609E-02  0.9691245E-01
       -2   -1    0    0    0  501  0.00000000000E+00  0.00000000000E+00  0.10645827917E+03  0.10645827920E+03  0.25500000920E-02 0.  1.
        2   -1    0    0  501    0  0.00000000000E+00  0.00000000000E+00 -0.12018871383E+04  0.12018871383E+04  0.25500000920E-02 0. -1.
    10030    2    1    2    0    0  0.00000000000E+00  0.00000000000E+00 -0.10954288591E+04  0.13083454175E+04  0.71540432349E+03 0.  0.
        2    1    3    3  502    0  0.56778860591E+02 -0.29060500754E+03 -0.18069204553E+03  0.34687854465E+03  0.25500000920E-02 0.  1.
       -2    1    3    3    0  502 -0.56778860591E+02  0.29060500754E+03 -0.91473681362E+03  0.96146687286E+03  0.25500000920E-02 0. -1.
</event>
<event>
 5   0  0.1784625E-02  0.7171901E+03  0.7818609E-02  0.9688278E-01
        4   -1    0    0  501    0  0.00000000000E+00  0.00000000000E+00  0.29722401722E+03  0.29722673048E+03  0.12699999809E+01 0.  1.
       -4   -1    0    0    0  501  0.00000000000E+00  0.00000000000E+00 -0.43263234903E+03  0.43263421308E+03  0.12699999809E+01 0. -1.
    10030    2    1    2    0    0  0.00000000000E+00  0.00000000000E+00 -0.13540833181E+03  0.72986094356E+03  0.71719005892E+03 0.  0.
        1    1    3    3  502    0 -0.23580842014E+03 -0.26555685595E+03 -0.11822333620E+03  0.37430310178E+03  0.50400001928E-02 0. -1.
       -1    1    3    3    0  502  0.23580842014E+03  0.26555685595E+03 -0.17184995608E+02  0.35555784178E+03  0.50400001928E-02 0.  1.
</event>
<event>
 5   0  0.2750139E-02  0.6977367E+03  0.7818609E-02  0.9721111E-01
       -1   -1    0    0    0  501  0.00000000000E+00  0.00000000000E+00  0.41978117912E+03  0.41978117915E+03  0.50400001928E-02 0. -1.
        1   -1    0    0  501    0  0.00000000000E+00  0.00000000000E+00 -0.28993467635E+03  0.28993467639E+03  0.50400001928E-02 0.  1.
    10030    2    1    2    0    0  0.00000000000E+00  0.00000000000E+00  0.12984650278E+03  0.70971585554E+03  0.69773668481E+03 0.  0.
        2    1    3    3  502    0 -0.20195887496E+03  0.18308373740E+03 -0.15653488544E+03  0.31434091754E+03  0.25500000920E-02 0.  1.
       -2    1    3    3    0  502  0.20195887496E+03 -0.18308373740E+03  0.28638138822E+03  0.39537493800E+03  0.25500000920E-02 0. -1.
</event>
<event>
 5   0  0.2750139E-02  0.7065493E+03  0.7818609E-02  0.9706097E-01
       -1   -1    0    0    0  501  0.00000000000E+00  0.00000000000E+00  0.99845988074E+03  0.99845988075E+03  0.50400001928E-02 0.  1.
        1   -1    0    0  501    0  0.00000000000E+00  0.00000000000E+00 -0.12499549835E+03  0.12499549845E+03  0.50400001928E-02 0. -1.
    10030    2    1    2    0    0  0.00000000000E+00  0.00000000000E+00  0.87346438240E+03  0.11234553792E+04  0.70654933426E+03 0.  0.
        2    1    3    3  502    0 -0.27453021539E+03  0.20680533949E+03  0.56657008273E+03  0.66267408751E+03  0.25500000920E-02 0. -1.
       -2    1    3    3    0  502  0.27453021539E+03 -0.20680533949E+03  0.30689429966E+03  0.46078129169E+03  0.25500000920E-02 0.  1.
</event>
<event>
 5   0  0.2684924E-02  0.7006170E+03  0.7818609E-02  0.9716178E-01
       -1   -1    0    0    0  501  0.00000000000E+00  0.00000000000E+00  0.26262352487E+03  0.26262352492E+03  0.50400001928E-02 0.  1.
        1   -1    0    0  501    0  0.00000000000E+00  0.00000000000E+00 -0.46726983798E+03  0.46726983801E+03  0.50400001928E-02 0. -1.
    10030    2    1    2    0    0  0.00000000000E+00  0.00000000000E+00 -0.20464631311E+03  0.72989336293E+03  0.70061701933E+03 0.  0.
        4    1    3    3  502    0 -0.30264894598E+03  0.11553274147E+03 -0.24119857500E+03  0.40388434525E+03  0.12699999809E+01 0.  1.
       -4    1    3    3    0  502  0.30264894598E+03 -0.11553274147E+03  0.36552261896E+02  0.32600901768E+03  0.12699999809E+01 0. -1.
</event>
<event>
 5   0  0.2777999E-02  0.6988304E+03  0.7818609E-02  0.9719234E-01
        1   -1    0    0  501    0  0.00000000000E+00  0.00000000000E+00  0.58716682175E+03  0.58716682177E+03  0.50400001928E-02 0. -1.
       -1   -1    0    0    0  501  0.00000000000E+00  0.00000000000E+00 -0.20793234620E+03  0.20793234626E+03  0.50400001928E-02 0.  1.
    10030    2    1    2    0    0  0.00000000000E+00  0.00000000000E+00  0.37923447555E+03  0.79509916802E+03  0.69883037967E+03 0.  0.
        5    1    3    3  502    0  0.33640947115E+03  0.33167837130E+02  0.89149703533E+02  0.34963008643E+03  0.46999998093E+01 0.  1.
       -5    1    3    3    0  502 -0.33640947115E+03 -0.33167837130E+02  0.29008477202E+03  0.44546908159E+03  0.46999998093E+01 0. -1.
</event>
<event>
 5   0  0.2758681E-02  0.6790856E+03  0.7818609E-02  0.9753682E-01
       -1   -1    0    0    0  501  0.00000000000E+00  0.00000000000E+00  0.15272923656E+03  0.15272923665E+03  0.50400001928E-02 0. -1.
        1   -1    0    0  501    0  0.00000000000E+00  0.00000000000E+00 -0.75486084229E+03  0.75486084231E+03  0.50400001928E-02 0.  1.
    10030    2    1    2    0    0  0.00000000000E+00  0.00000000000E+00 -0.60213160573E+03  0.90759007896E+03  0.67908562111E+03 0.  0.
        3    1    3    3  502    0 -0.79051983144E+02  0.13100261586E+02  0.13991154274E+03  0.16123300805E+03  0.10100000352E+00 0. -1.
       -3    1    3    3    0  502  0.79051983144E+02 -0.13100261586E+02 -0.74204314847E+03  0.74635707090E+03  0.10100000352E+00 0.  1.
</event>
<event>
 5   0  0.4420645E-02  0.6965781E+03  0.7818609E-02  0.9723102E-01
       -2   -1    0    0    0  501  0.00000000000E+00  0.00000000000E+00  0.78455527108E+02  0.78455527149E+02  0.25500000920E-02 0. -1.
        2   -1    0    0  501    0  0.00000000000E+00  0.00000000000E+00 -0.15461660469E+04  0.15461660469E+04  0.25500000920E-02 0.  1.
    10030    2    1    2    0    0  0.00000000000E+00  0.00000000000E+00 -0.14677105198E+04  0.16246215740E+04  0.69657812839E+03 0.  0.
        5    1    3    3  502    0  0.10014744560E+03 -0.33147661314E+03 -0.82039941320E+03  0.89049623418E+03  0.46999998093E+01 0.  1.
       -5    1    3    3    0  502 -0.10014744560E+03  0.33147661314E+03 -0.64731110655E+03  0.73412533983E+03  0.46999998093E+01 0. -1.
</event>
<event>
 5   0  0.2777999E-02  0.7129799E+03  0.7818609E-02  0.9695289E-01
        1   -1    0    0  501    0  0.00000000000E+00  0.00000000000E+00  0.11302704082E+04  0.11302704082E+04  0.50400001928E-02 0.  1.
       -1   -1    0    0    0  501  0.00000000000E+00  0.00000000000E+00 -0.11243777402E+03  0.11243777414E+03  0.50400001928E-02 0. -1.
    10030    2    1    2    0    0  0.00000000000E+00  0.00000000000E+00  0.10178326341E+04  0.12427081823E+04  0.71297991224E+03 0.  0.
        5    1    3    3  502    0  0.43182856661E+02  0.15249670628E+03  0.10654232211E+04  0.10771577111E+04  0.46999998093E+01 0.  1.
       -5    1    3    3    0  502 -0.43182856661E+02 -0.15249670628E+03 -0.47590586997E+02  0.16555047117E+03  0.46999998093E+01 0. -1.
</event>
<event>
 5   0  0.4526837E-02  0.6894563E+03  0.7818609E-02  0.9735435E-01
        2   -1    0    0  501    0  0.00000000000E+00  0.00000000000E+00  0.50740994600E+03  0.50740994600E+03  0.25500000920E-02 0. -1.
       -2   -1    0    0    0  501  0.00000000000E+00  0.00000000000E+00 -0.23420410498E+03  0.23420410499E+03  0.25500000920E-02 0.  1.
    10030    2    1    2    0    0  0.00000000000E+00  0.00000000000E+00  0.27320584102E+03  0.74161405100E+03  0.68945628510E+03 0.  0.
        1    1    3    3  502    0 -0.16397950984E+03  0.17026195929E+03 -0.13329553148E+03  0.27137817370E+03  0.50400001928E-02 0.  1.
       -1    1    3    3    0  502  0.16397950984E+03 -0.17026195929E+03  0.40650137250E+03  0.47023587729E+03  0.50400001928E-02 0. -1.
</event>
<event>
 5   0  0.2758681E-02  0.7231440E+03  0.7818609E-02  0.9678451E-01
        1   -1    0    0  501    0  0.00000000000E+00  0.00000000000E+00  0.90365431290E+03  0.90365431292E+03  0.50400001928E-02 0.  1.
       -1   -1    0    0    0  501  0.00000000000E+00  0.00000000000E+00 -0.14467293292E+03  0.14467293301E+03  0.50400001928E-02 0. -1.
    10030    2    1    2    0    0  0.00000000000E+00  0.00000000000E+00  0.75898137999E+03  0.10483272459E+04  0.72314402395E+03 0.  0.
        3    1    3    3  502    0 -0.48187890265E+01  0.16277430930E+03 -0.88501349338E+02  0.18534075518E+03  0.10100000352E+00 0. -1.
       -3    1    3    3    0  502  0.48187890265E+01 -0.16277430930E+03  0.84748272932E+03  0.86298649074E+03  0.10100000352E+00 0.  1.
</event>
<event>
 5   0  0.2750139E-02  0.7052654E+03  0.7818609E-02  0.9708270E-01
       -1   -1    0    0    0  501  0.00000000000E+00  0.00000000000E+00  0.21189826250E+03  0.21189826256E+03  0.50400001928E-02 0. -1.
        1   -1    0    0  501    0  0.00000000000E+00  0.00000000000E+00 -0.58683743092E+03  0.58683743095E+03  0.50400001928E-02 0.  1.
    10030    2    1    2    0    0  0.00000000000E+00  0.00000000000E+00 -0.37493916842E+03  0.79873569351E+03  0.70526543093E+03 0.  0.
        2    1    3    3  502    0 -0.32030349998E+02  0.33952426579E+03 -0.28906447256E+03  0.44705809431E+03  0.25500000920E-02 0. -1.
       -2    1    3    3    0  502  0.32030349998E+02 -0.33952426579E+03 -0.85874695863E+02  0.35167759920E+03  0.25500000920E-02 0.  1.
</event>
<event>
 5   0  0.1784625E-02  0.6836082E+03  0.7818609E-02  0.9745682E-01
       -3   -1    0    0    0  501  0.00000000000E+00  0.00000000000E+00  0.14106382841E+03  0.14106386457E+03  0.10100000352E+00 0. -1.
        3   -1    0    0  501    0  0.00000000000E+00  0.00000000000E+00 -0.82820687565E+03  0.82820688180E+03  0.10100000352E+00 0.  1.
    10030    2    1    2    0    0  0.00000000000E+00  0.00000000000E+00 -0.68714304723E+03  0.96927074637E+03  0.68360823021E+03 0.  0.
        4    1    3    3  502    0  0.19150408295E+03  0.10292294936E+03  0.30385995399E+02  0.21952646516E+03  0.12699999809E+01 0. -1.
       -4    1    3    3    0  502 -0.19150408295E+03 -0.10292294936E+03 -0.71752904263E+03  0.74974428121E+03  0.12699999809E+01 0.  1.
</event>
<event>
 5   0  0.4526837E-02  0.7186463E+03  0.7818609E-02  0.9685865E-01
        2   -1    0    0  501    0  0.00000000000E+00  0.00000000000E+00  0.85901422392E+03  0.85901422393E+03  0.25500000920E-02 0.  1.
       -2   -1    0    0    0  501  0.00000000000E+00  0.00000000000E+00 -0.15030382906E+03  0.15030382908E+03  0.25500000920E-02 0. -1.
    10030    2    1    2    0    0  0.00000000000E+00  0.00000000000E+00  0.70871039487E+03  0.10093180530E+04  0.71864630266E+03 0.  0.
        1    1    3    3  502    0  0.19472207255E+03  0.28993453816E+03  0.23572596279E+03  0.42136142623E+03  0.50400001928E-02 0. -1.
       -1    1    3    3    0  502 -0.19472207255E+03 -0.28993453816E+03  0.47298443208E+03  0.58795662677E+03  0.50400001928E-02 0.  1.
</event>
<event>
 5   0  0.4299912E-02  0.6974092E+03  0.7818609E-02  0.9721673E-01
       -2   -1    0    0    0  501  0.00000000000E+00  0.00000000000E+00  0.11563452222E+03  0.11563452225E+03  0.25500000920E-02 0. -1.
        2   -1    0    0  501    0  0.00000000000E+00  0.00000000000E+00 -0.10515450407E+04  0.10515450407E+04  0.25500000920E-02 0.  1.
    10030    2    1    2    0    0  0.00000000000E+00  0.00000000000E+00 -0.93591051849E+03  0.11671795630E+04  0.69740922965E+03 0.  0.
        3    1    3    3  502    0  0.19122924762E+00  0.26572264500E+03 -0.84585525970E+03  0.88661135296E+03  0.10100000352E+00 0.  1.
       -3    1    3    3    0  502 -0.19122924762E+00 -0.26572264500E+03 -0.90055258797E+02  0.28056821002E+03  0.10100000352E+00 0. -1.
</event>
<event>
 5   0  0.4526837E-02  0.7737781E+03  0.7818609E-02  0.9598767E-01
       -2   -1    0    0    0  501  0.00000000000E+00  0.00000000000E+00  0.37004933348E+03  0.37004933349E+03  0.25500000920E-02 0. -1.
        2   -1    0    0  501    0  0.00000000000E+00  0.00000000000E+00 -0.40449508735E+03  0.40449508736E+03  0.25500000920E-02 0.  1.
    10030    2    1    2    0    0  0.00000000000E+00  0.00000000000E+00 -0.34445753866E+02  0.77454442085E+03  0.77377810121E+03 0.  0.
        1    1    3    3  502    0 -0.12496998361E+03 -0.18931822035E+03 -0.33094074918E+03  0.40122395847E+03  0.50400001928E-02 0.  1.
       -1    1    3    3    0  502  0.12496998361E+03  0.18931822035E+03  0.29649499531E+03  0.37332046238E+03  0.50400001928E-02 0. -1.
</event>
<event>
 5   0  0.4299912E-02  0.8561232E+03  0.7818609E-02  0.9482155E-01
       -2   -1    0    0    0  501  0.00000000000E+00  0.00000000000E+00  0.75548487139E+02  0.75548487182E+02  0.25500000920E-02 0.  1.
        2   -1    0    0  501    0  0.00000000000E+00  0.00000000000E+00 -0.24254186976E+04  0.24254186976E+04  0.25500000920E-02 0. -1.
    10030    2    1    2    0    0  0.00000000000E+00  0.00000000000E+00 -0.23498702105E+04  0.25009671848E+04  0.85612315315E+03 0.  0.
        3    1    3    3  502    0  0.45225285709E+02  0.38737066594E+03 -0.65947081495E+03  0.76616129194E+03  0.10100000352E+00 0.  1.
       -3    1    3    3    0  502 -0.45225285709E+02 -0.38737066594E+03 -0.16903993955E+04  0.17348058929E+04  0.10100000352E+00 0. -1.
</event>
<event>
 5   0  0.4503289E-02  0.7062494E+03  0.7818609E-02  0.9706604E-01
        2   -1    0    0  501    0  0.00000000000E+00  0.00000000000E+00  0.27155542622E+03  0.27155542623E+03  0.25500000920E-02 0. -1.
       -2   -1    0    0    0  501  0.00000000000E+00  0.00000000000E+00 -0.45919561902E+03  0.45919561903E+03  0.25500000920E-02 0.  1.
    10030    2    1    2    0    0  0.00000000000E+00  0.00000000000E+00 -0.18764019281E+03  0.73075104526E+03  0.70624942349E+03 0.  0.
        2    1    3    3  502    0  0.22124167499E+03 -0.23335837582E+03  0.57163683382E+02  0.32660633340E+03  0.25500000920E-02 0. -1.
       -2    1    3    3    0  502 -0.22124167499E+03  0.23335837582E+03 -0.24480387619E+03  0.40414471185E+03  0.25500000920E-02 0.  1.
</event>
<event>
 5   0  0.4526837E-02  0.7037232E+03  0.7818609E-02  0.9710886E-01
        2   -1    0    0  501    0  0.00000000000E+00  0.00000000000E+00  0.11197153786E+04  0.11197153786E+04  0.25500000920E-02 0.  1.
       -2   -1    0    0    0  501  0.00000000000E+00  0.00000000000E+00 -0.11056968598E+03  0.11056968601E+03  0.25500000920E-02 0. -1.
    10030    2    1    2    0    0  0.00000000000E+00  0.00000000000E+00  0.10091456926E+04  0.12302850646E+04  0.70372317800E+03 0.  0.
        1    1    3    3  502    0  0.15194588569E+02  0.19110233384E+03 -0.11251995567E+02  0.19203537421E+03  0.50400001928E-02 0. -1.
       -1    1    3    3    0  502 -0.15194588569E+02 -0.19110233384E+03  0.10203976882E+04  0.10382496904E+04  0.50400001928E-02 0.  1.
</event>
<event>
 5   0  0.2777999E-02  0.7030687E+03  0.7818609E-02  0.9711999E-01
       -1   -1    0    0    0  501  0.00000000000E+00  0.00000000000E+00  0.17756389472E+04  0.17756389472E+04  0.50400001928E-02 0.  1.
        1   -1    0    0  501    0  0.00000000000E+00  0.00000000000E+00 -0.69595454888E+02  0.69595455070E+02  0.50400001928E-02 0. -1.
    10030    2    1    2    0    0  0.00000000000E+00  0.00000000000E+00  0.17060434923E+04  0.18452344023E+04  0.70306870339E+03 0.  0.
        5    1    3    3  502    0  0.13157422080E+03  0.19149535556E+03  0.15452849049E+04  0.15626611194E+04  0.46999998093E+01 0.  1.
       -5    1    3    3    0  502 -0.13157422080E+03 -0.19149535556E+03  0.16075858745E+03  0.28257328291E+03  0.46999998093E+01 0. -1.
</event>
<event>
 5   0  0.2758681E-02  0.6883624E+03  0.7818609E-02  0.9737344E-01
        1   -1    0    0  501    0  0.00000000000E+00  0.00000000000E+00  0.94146944665E+03  0.94146944667E+03  0.50400001928E-02 0.  1.
       -1   -1    0    0    0  501  0.00000000000E+00  0.00000000000E+00 -0.12582532843E+03  0.12582532853E+03  0.50400001928E-02 0. -1.
    10030    2    1    2    0    0  0.00000000000E+00  0.00000000000E+00  0.81564411822E+03  0.10672947752E+04  0.68836241151E+03 0.  0.
        3    1    3    3  502    0  0.82777171789E+02 -0.17580419551E+03 -0.32639574235E+02  0.19703940554E+03  0.10100000352E+00 0. -1.
       -3    1    3    3    0  502 -0.82777171789E+02  0.17580419551E+03  0.84828369246E+03  0.87025536966E+03  0.10100000352E+00 0.  1.
</event>
<event>
 5   0  0.4503289E-02  0.6778008E+03  0.7818609E-02  0.9755967E-01
       -2   -1    0    0    0  501  0.00000000000E+00  0.00000000000E+00  0.12217761698E+03  0.12217761700E+03  0.25500000920E-02 0. -1.
        2   -1    0    0  501    0  0.00000000000E+00  0.00000000000E+00 -0.94005346510E+03  0.94005346510E+03  0.25500000920E-02 0.  1.
    10030    2    1    2    0    0  0.00000000000E+00  0.00000000000E+00 -0.81787584812E+03  0.10622310821E+04  0.67780083273E+03 0.  0.
        2    1    3    3  502    0 -0.24162544274E+03 -0.11961826025E+03 -0.87143827313E+02  0.28334683589E+03  0.25500000920E-02 0. -1.
       -2    1    3    3    0  502  0.24162544274E+03  0.11961826025E+03 -0.73073202081E+03  0.77888424622E+03  0.25500000920E-02 0.  1.
</event>
<event>
 5   0  0.2758681E-02  0.6956300E+03  0.7818609E-02  0.9724735E-01
       -1   -1    0    0    0  501  0.00000000000E+00  0.00000000000E+00  0.12215497016E+03  0.12215497027E+03  0.50400001928E-02 0. -1.
        1   -1    0    0  501    0  0.00000000000E+00  0.00000000000E+00 -0.99034272610E+03  0.99034272611E+03  0.50400001928E-02 0.  1.
    10030    2    1    2    0    0  0.00000000000E+00  0.00000000000E+00 -0.86818775594E+03  0.11124976964E+04  0.69563003449E+03 0.  0.
        3    1    3    3  502    0 -0.22174607425E+03  0.22615954697E+02 -0.86110839125E+03  0.88948888387E+03  0.10100000352E+00 0.  1.
       -3    1    3    3    0  502  0.22174607425E+03 -0.22615954697E+02 -0.70793646897E+01  0.22300881251E+03  0.10100000352E+00 0. -1.
</event>
<event>
 5   0  0.2758681E-02  0.7035749E+03  0.7818609E-02  0.9711138E-01
       -1   -1    0    0    0  501  0.00000000000E+00  0.00000000000E+00  0.33817979466E+03  0.33817979470E+03  0.50400001928E-02 0.  1.
        1   -1    0    0  501    0  0.00000000000E+00  0.00000000000E+00 -0.36594265885E+03  0.36594265889E+03  0.50400001928E-02 0. -1.
    10030    2    1    2    0    0  0.00000000000E+00  0.00000000000E+00 -0.27762864190E+02  0.70412245359E+03  0.70357490932E+03 0.  0.
        3    1    3    3  502    0 -0.28650635472E+03 -0.16211736004E+03  0.11025732549E+03  0.34716655620E+03  0.10100000352E+00 0.  1.
       -3    1    3    3    0  502  0.28650635472E+03  0.16211736004E+03 -0.13802018968E+03  0.35695589739E+03  0.10100000352E+00 0. -1.
</event>
<event>
 5   0  0.4420645E-02  0.6966427E+03  0.7818609E-02  0.9722991E-01
       -2   -1    0    0    0  501  0.00000000000E+00  0.00000000000E+00  0.45560058661E+03  0.45560058662E+03  0.25500000920E-02 0.  1.
        2   -1    0    0  501    0  0.00000000000E+00  0.00000000000E+00 -0.26630293989E+03  0.26630293990E+03  0.25500000920E-02 0. -1.
    10030    2    1    2    0    0  0.00000000000E+00  0.00000000000E+00  0.18929764673E+03  0.72190352652E+03  0.69664273666E+03 0.  0.
        5    1    3    3  502    0  0.10131219148E+03  0.32686004241E+03  0.27459173934E+02  0.34333328371E+03  0.46999998093E+01 0. -1.
       -5    1    3    3    0  502 -0.10131219148E+03 -0.32686004241E+03  0.16183847279E+03  0.37857024281E+03  0.46999998093E+01 0.  1.
</event>
<event>
 5   0  0.4299912E-02  0.7044115E+03  0.7818609E-02  0.9709717E-01
        2   -1    0    0  501    0  0.00000000000E+00  0.00000000000E+00  0.60732699287E+03  0.60732699287E+03  0.25500000920E-02 0. -1.
       -2   -1    0    0    0  501  0.00000000000E+00  0.00000000000E+00 -0.20425389106E+03  0.20425389108E+03  0.25500000920E-02 0.  1.
    10030    2    1    2    0    0  0.00000000000E+00  0.00000000000E+00  0.40307310181E+03  0.81158088395E+03  0.70441153156E+03 0.  0.
        3    1    3    3  502    0  0.24033251822E+03 -0.52103589621E+02  0.49203675762E+03  0.55006789073E+03  0.10100000352E+00 0. -1.
       -3    1    3    3    0  502 -0.24033251822E+03  0.52103589621E+02 -0.88963655810E+02  0.26151299322E+03  0.10100000352E+00 0.  1.
</event>
<event>
 5   0  0.2777999E-02  0.6945562E+03  0.7818609E-02  0.9726587E-01
       -1   -1    0    0    0  501  0.00000000000E+00  0.00000000000E+00  0.81074098288E+02  0.81074098444E+02  0.50400001928E-02 0. -1.
        1   -1    0    0  501    0  0.00000000000E+00  0.00000000000E+00 -0.14875537498E+04  0.14875537498E+04  0.50400001928E-02 0.  1.
    10030    2    1    2    0    0  0.00000000000E+00  0.00000000000E+00 -0.14064796515E+04  0.15686278482E+04  0.69455620089E+03 0.  0.
        5    1    3    3  502    0 -0.10550390658E+03 -0.28652591802E+03 -0.32972694126E+03  0.44941086079E+03  0.46999998093E+01 0. -1.
       -5    1    3    3    0  502  0.10550390658E+03  0.28652591802E+03 -0.10767527102E+04  0.11192169874E+04  0.46999998093E+01 0.  1.
</event>
<event>
 5   0  0.4503289E-02  0.6945355E+03  0.7818609E-02  0.9726623E-01
        2   -1    0    0  501    0  0.00000000000E+00  0.00000000000E+00  0.33924788044E+03  0.33924788045E+03  0.25500000920E-02 0.  1.
       -2   -1    0    0    0  501  0.00000000000E+00  0.00000000000E+00 -0.35547722482E+03  0.35547722482E+03  0.25500000920E-02 0. -1.
    10030    2    1    2    0    0  0.00000000000E+00  0.00000000000E+00 -0.16229344376E+02  0.69472510527E+03  0.69453551405E+03 0.  0.
        2    1    3    3  502    0  0.12528707885E+03 -0.19518771622E+03 -0.26664179412E+03  0.35340195680E+03  0.25500000920E-02 0. -1.
       -2    1    3    3    0  502 -0.12528707885E+03  0.19518771622E+03  0.25041244974E+03  0.34132314847E+03  0.25500000920E-02 0.  1.
</event>
<event>
 5   0  0.2751729E-02  0.6991594E+03  0.7818609E-02  0.9718671E-01
       -1   -1    0    0    0  501  0.00000000000E+00  0.00000000000E+00  0.12977934496E+03  0.12977934505E+03  0.50400001928E-02 0.  1.
        1   -1    0    0  501    0  0.00000000000E+00  0.00000000000E+00 -0.94164406162E+03  0.94164406163E+03  0.50400001928E-02 0. -1.
    10030    2    1    2    0    0  0.00000000000E+00  0.00000000000E+00 -0.81186471666E+03  0.10714234067E+04  0.69915935110E+03 0.  0.
        1    1    3    3  502    0  0.15613083115E+03 -0.56262425033E+02 -0.87742681181E+03  0.89298382237E+03  0.50400001928E-02 0. -1.
       -1    1    3    3    0  502 -0.15613083115E+03  0.56262425033E+02  0.65562095148E+02  0.17843958432E+03  0.50400001928E-02 0.  1.
</event>
<event>
 5   0  0.1784625E-02  0.6937413E+03  0.7818609E-02  0.9727996E-01
       -3   -1    0    0    0  501  0.00000000000E+00  0.00000000000E+00  0.18511230613E+03  0.18511233368E+03  0.10100000352E+00 0.  1.
        3   -1    0    0  501    0  0.00000000000E+00  0.00000000000E+00 -0.64997965363E+03  0.64997966148E+03  0.10100000352E+00 0. -1.
    10030    2    1    2    0    0  0.00000000000E+00  0.00000000000E+00 -0.46486734751E+03  0.83509199516E+03  0.69374129876E+03 0.  0.
        2    1    3    3  502    0  0.14115971377E+03  0.23998588815E+03  0.16600205336E+02  0.27891729621E+03  0.25500000920E-02 0.  1.
       -2    1    3    3    0  502 -0.14115971377E+03 -0.23998588815E+03 -0.48146755284E+03  0.55617469895E+03  0.25500000920E-02 0. -1.
</event>
<event>
 5   0  0.4526837E-02  0.7110124E+03  0.7818609E-02  0.9698583E-01
       -2   -1    0    0    0  501  0.00000000000E+00  0.00000000000E+00  0.10142730298E+03  0.10142730302E+03  0.25500000920E-02 0. -1.
        2   -1    0    0  501    0  0.00000000000E+00  0.00000000000E+00 -0.12460615933E+04  0.12460615933E+04  0.25500000920E-02 0.  1.
    10030    2    1    2    0    0  0.00000000000E+00  0.00000000000E+00 -0.11446342903E+04  0.13474888963E+04  0.71101242403E+03 0.  0.
        1    1    3    3  502    0 -0.23331058624E+03  0.33584758798E+02 -0.10766704395E+04  0.11021710398E+04  0.50400001928E-02 0.  1.
       -1    1    3    3    0  502  0.23331058624E+03 -0.33584758798E+02 -0.67963850795E+02  0.24531785649E+03  0.50400001928E-02 0. -1.
</event>
<event>
 5   0  0.2750139E-02  0.7033556E+03  0.7818609E-02  0.9711511E-01
        1   -1    0    0  501    0  0.00000000000E+00  0.00000000000E+00  0.59408241264E+03  0.59408241266E+03  0.50400001928E-02 0.  1.
       -1   -1    0    0    0  501  0.00000000000E+00  0.00000000000E+00 -0.20818203686E+03  0.20818203692E+03  0.50400001928E-02 0. -1.
    10030    2    1    2    0    0  0.00000000000E+00  0.00000000000E+00  0.38590037578E+03  0.80226444959E+03  0.70335563341E+03 0.  0.
        2    1    3    3  502    0 -0.27042926839E+03 -0.18020269021E+03  0.34628795933E+03  0.47488982885E+03  0.25500000920E-02 0.  1.
       -2    1    3    3    0  502  0.27042926839E+03  0.18020269021E+03  0.39612416451E+02  0.32737462074E+03  0.25500000920E-02 0. -1.
</event>
<event>
 5   0  0.2758681E-02  0.7571562E+03  0.7818609E-02  0.9624190E-01
        1   -1    0    0  501    0  0.00000000000E+00  0.00000000000E+00  0.50598154686E+03  0.50598154689E+03  0.50400001928E-02 0.  1.
       -1   -1    0    0    0  501  0.00000000000E+00  0.00000000000E+00 -0.28325412368E+03  0.28325412372E+03  0.50400001928E-02 0. -1.
    10030    2    1    2    0    0  0.00000000000E+00  0.00000000000E+00  0.22272742318E+03  0.78923567061E+03  0.75715615214E+03 0.  0.
        3    1    3    3  502    0 -0.18146767246E+03 -0.27719492002E+03  0.30230162326E+03  0.44850175190E+03  0.10100000352E+00 0.  1.
       -3    1    3    3    0  502  0.18146767246E+03  0.27719492002E+03 -0.79574200075E+02  0.34073391870E+03  0.10100000352E+00 0. -1.
</event>
<event>
 5   0  0.2777999E-02  0.7258070E+03  0.7818609E-02  0.9674089E-01
        1   -1    0    0  501    0  0.00000000000E+00  0.00000000000E+00  0.87456807754E+03  0.87456807755E+03  0.50400001928E-02 0.  1.
       -1   -1    0    0    0  501  0.00000000000E+00  0.00000000000E+00 -0.15058742746E+03  0.15058742755E+03  0.50400001928E-02 0. -1.
    10030    2    1    2    0    0  0.00000000000E+00  0.00000000000E+00  0.72398065007E+03  0.10251555051E+04  0.72580701840E+03 0.  0.
        5    1    3    3  502    0 -0.21132276165E+03  0.17504505550E+03  0.26618600127E+02  0.27573306098E+03  0.46999998093E+01 0. -1.
       -5    1    3    3    0  502  0.21132276165E+03 -0.17504505550E+03  0.69736204994E+03  0.74942244412E+03  0.46999998093E+01 0.  1.
</event>
<event>
 5   0  0.2750139E-02  0.7053807E+03  0.7818609E-02  0.9708075E-01
        1   -1    0    0  501    0  0.00000000000E+00  0.00000000000E+00  0.88046008605E+03  0.88046008607E+03  0.50400001928E-02 0. -1.
       -1   -1    0    0    0  501  0.00000000000E+00  0.00000000000E+00 -0.14127894654E+03  0.14127894663E+03  0.50400001928E-02 0.  1.
    10030    2    1    2    0    0  0.00000000000E+00  0.00000000000E+00  0.73918113951E+03  0.10217390327E+04  0.70538067307E+03 0.  0.
        2    1    3    3  502    0 -0.53438756342E+02 -0.24256264657E+03  0.68937555792E+01  0.24847507333E+03  0.25500000920E-02 0.  1.
       -2    1    3    3    0  502  0.53438756342E+02  0.24256264657E+03  0.73228738393E+03  0.77326395937E+03  0.25500000920E-02 0. -1.
</event>
<event>
 5   0  0.1784625E-02  0.5865257E+03  0.7818609E-02  0.9933762E-01
        3   -1    0    0  501    0  0.00000000000E+00  0.00000000000E+00  0.19755588782E+03  0.19755591364E+03  0.10100000352E+00 0.  1.
       -3   -1    0    0    0  501  0.00000000000E+00  0.00000000000E+00 -0.43533555038E+03  0.43533556210E+03  0.10100000352E+00 0. -1.
    10030    2    1    2    0    0  0.00000000000E+00  0.00000000000E+00 -0.23777966256E+03  0.63289147574E+03  0.58652574721E+03 0.  0.
        3    1    3    3  502    0  0.89527783269E+02  0.26384867696E+03 -0.21762012011E+03  0.35353907166E+03  0.10100000352E+00 0. -1.
       -3    1    3    3    0  502 -0.89527783269E+02 -0.26384867696E+03 -0.20159542453E+02  0.27935240408E+03  0.10100000352E+00 0.  1.
</event>
<event>
 5   0  0.4365492E-02  0.7098499E+03  0.7818609E-02  0.9700534E-01
        2   -1    0    0  501    0  0.00000000000E+00  0.00000000000E+00  0.21092059972E+03  0.21092059974E+03  0.25500000920E-02 0. -1.
       -2   -1    0    0    0  501  0.00000000000E+00  0.00000000000E+00 -0.59724711344E+03  0.59724711344E+03  0.25500000920E-02 0.  1.
    10030    2    1    2    0    0  0.00000000000E+00  0.00000000000E+00 -0.38632651371E+03  0.80816771318E+03  0.70984989782E+03 0.  0.
        4    1    3    3  502    0  0.12392477404E+03 -0.27277147594E+03  0.23477473642E+02  0.30052359704E+03  0.12699999809E+01 0. -1.
       -4    1    3    3    0  502 -0.12392477404E+03  0.27277147594E+03 -0.40980398736E+03  0.50764411615E+03  0.12699999809E+01 0.  1.
</event>
<event>
 5   0  0.2684924E-02  0.7120453E+03  0.7818609E-02  0.9696852E-01
       -1   -1    0    0    0  501  0.00000000000E+00  0.00000000000E+00  0.18484460888E+03  0.18484460895E+03  0.50400001928E-02 0. -1.
        1   -1    0    0  501    0  0.00000000000E+00  0.00000000000E+00 -0.68572264746E+03  0.68572264747E+03  0.50400001928E-02 0.  1.
    10030    2    1    2    0    0  0.00000000000E+00  0.00000000000E+00 -0.50087803858E+03  0.87056725642E+03  0.71204532048E+03 0.  0.
        4    1    3    3  502    0 -0.13785951261E+03 -0.13437053309E+03 -0.61659514793E+03  0.64595036553E+03  0.12699999809E+01 0.  1.
       -4    1    3    3    0  502  0.13785951261E+03  0.13437053309E+03  0.11571710935E+03  0.22461689089E+03  0.12699999809E+01 0. -1.
</event>
<event>
 5   0  0.2758681E-02  0.7174047E+03  0.7818609E-02  0.9687922E-01
       -1   -1    0    0    0  501  0.00000000000E+00  0.00000000000E+00  0.10739026297E+03  0.10739026309E+03  0.50400001928E-02 0. -1.
        1   -1    0    0  501    0  0.00000000000E+00  0.00000000000E+00 -0.11981288029E+04  0.11981288029E+04  0.50400001928E-02 0.  1.
    10030    2    1    2    0    0  0.00000000000E+00  0.00000000000E+00 -0.10907385400E+04  0.13055190660E+04  0.71740467606E+03 0.  0.
        3    1    3    3  502    0  0.11372269999E+03 -0.14071303426E+03  0.18276272279E+02  0.18184345694E+03  0.10100000352E+00 0. -1.
       -3    1    3    3    0  502 -0.11372269999E+03  0.14071303426E+03 -0.11090148122E+04  0.11236756091E+04  0.10100000352E+00 0.  1.
</event>
<event>
 5   0  0.1784625E-02  0.7012669E+03  0.7818609E-02  0.9715068E-01
       -4   -1    0    0    0  501  0.00000000000E+00  0.00000000000E+00  0.22786773516E+03  0.22787127425E+03  0.12699999809E+01 0. -1.
        4   -1    0    0  501    0  0.00000000000E+00  0.00000000000E+00 -0.53953183186E+03  0.53953332658E+03  0.12699999809E+01 0.  1.
    10030    2    1    2    0    0  0.00000000000E+00  0.00000000000E+00 -0.31166409670E+03  0.76740460084E+03  0.70126693364E+03 0.  0.
        2    1    3    3  502    0 -0.33733355431E+02 -0.33899603055E+03 -0.24665055717E+03  0.42058619255E+03  0.25500000920E-02 0. -1.
       -2    1    3    3    0  502  0.33733355431E+02  0.33899603055E+03 -0.65013539526E+02  0.34681840829E+03  0.25500000920E-02 0.  1.
</event>
<event>
 5   0  0.4526837E-02  0.5320958E+03  0.7818609E-02  0.1005725E+00
        2   -1    0    0  501    0  0.00000000000E+00  0.00000000000E+00  0.26915917820E+03  0.26915917821E+03  0.25500000920E-02 0.  1.
       -2   -1    0    0    0  501  0.00000000000E+00  0.00000000000E+00 -0.26297263366E+03  0.26297263367E+03  0.25500000920E-02 0. -1.
    10030    2    1    2    0    0  0.00000000000E+00  0.00000000000E+00  0.61865445435E+01  0.53213181188E+03  0.53209584840E+03 0.  0.
        1    1    3    3  502    0 -0.34785079445E+02  0.24717500288E+03 -0.88978221385E+02  0.26499548620E+03  0.50400001928E-02 0. -1.
       -1    1    3    3    0  502  0.34785079445E+02 -0.24717500288E+03  0.95164765929E+02  0.26713632568E+03  0.50400001928E-02 0.  1.
</event>
<event>
 5   0  0.4299912E-02  0.7179377E+03  0.7818609E-02  0.9687039E-01
        2   -1    0    0  501    0  0.00000000000E+00  0.00000000000E+00  0.22424590106E+04  0.22424590106E+04  0.25500000920E-02 0. -1.
       -2   -1    0    0    0  501  0.00000000000E+00  0.00000000000E+00 -0.57463098419E+02  0.57463098476E+02  0.25500000920E-02 0.  1.
    10030    2    1    2    0    0  0.00000000000E+00  0.00000000000E+00  0.21849959122E+04  0.22999221091E+04  0.71793772124E+03 0.  0.
        3    1    3    3  502    0  0.11907333298E+03 -0.34564959262E+02  0.13311653945E+02  0.12470126449E+03  0.10100000352E+00 0.  1.
       -3    1    3    3    0  502 -0.11907333298E+03  0.34564959262E+02  0.21716842582E+04  0.21752208446E+04  0.10100000352E+00 0. -1.
</event>
<event>
 5   0  0.4299912E-02  0.7166403E+03  0.7818609E-02  0.9689191E-01
        2   -1    0    0  501    0  0.00000000000E+00  0.00000000000E+00  0.45734087258E+03  0.45734087258E+03  0.25500000920E-02 0. -1.
       -2   -1    0    0    0  501  0.00000000000E+00  0.00000000000E+00 -0.28073883028E+03  0.28073883029E+03  0.25500000920E-02 0.  1.
    10030    2    1    2    0    0  0.00000000000E+00  0.00000000000E+00  0.17660204230E+03  0.73807970288E+03  0.71664033270E+03 0.  0.
        3    1    3    3  502    0  0.17797778554E+03  0.19813591221E+03 -0.15857707376E+03  0.30996875710E+03  0.10100000352E+00 0.  1.
       -3    1    3    3    0  502 -0.17797778554E+03 -0.19813591221E+03  0.33517911606E+03  0.42811094578E+03  0.10100000352E+00 0. -1.
</event>
<event>
 5   0  0.2684924E-02  0.6987412E+03  0.7818609E-02  0.9719387E-01
        1   -1    0    0  501    0  0.00000000000E+00  0.00000000000E+00  0.13877913098E+03  0.13877913107E+03  0.50400001928E-02 0. -1.
       -1   -1    0    0    0  501  0.00000000000E+00  0.00000000000E+00 -0.87952563518E+03  0.87952563519E+03  0.50400001928E-02 0.  1.
    10030    2    1    2    0    0  0.00000000000E+00  0.00000000000E+00 -0.74074650420E+03  0.10183047663E+04  0.69874116345E+03 0.  0.
        4    1    3    3  502    0 -0.37551856571E+02  0.33572875105E+02  0.13345601815E+03  0.14265132861E+03  0.12699999809E+01 0. -1.
       -4    1    3    3    0  502  0.37551856571E+02 -0.33572875105E+02 -0.87420252235E+03  0.87565343764E+03  0.12699999809E+01 0.  1.
</event>
<event>
 5   0  0.4526837E-02  0.6934498E+03  0.7818609E-02  0.9728500E-01
       -2   -1    0    0    0  501  0.00000000000E+00  0.00000000000E+00  0.36123814265E+03  0.36123814266E+03  0.25500000920E-02 0. -1.
        2   -1    0    0  501    0  0.00000000000E+00  0.00000000000E+00 -0.33279474630E+03  0.33279474631E+03  0.25500000920E-02 0.  1.
    10030    2    1    2    0    0  0.00000000000E+00  0.00000000000E+00  0.28443396343E+02  0.69403288897E+03  0.69344979932E+03 0.  0.
        1    1    3    3  502    0 -0.24350997523E+02  0.34200594002E+02 -0.33024135572E+03  0.33289939135E+03  0.50400001928E-02 0.  1.
       -1    1    3    3    0  502  0.24350997523E+02 -0.34200594002E+02  0.35868475206E+03  0.36113349761E+03  0.50400001928E-02 0. -1.
</event>
<event>
 5   0  0.2750139E-02  0.7083740E+03  0.7818609E-02  0.9703018E-01
       -1   -1    0    0    0  501  0.00000000000E+00  0.00000000000E+00  0.15567450384E+03  0.15567450392E+03  0.50400001928E-02 0.  1.
        1   -1    0    0  501    0  0.00000000000E+00  0.00000000000E+00 -0.80583791130E+03  0.80583791132E+03  0.50400001928E-02 0. -1.
    10030    2    1    2    0    0  0.00000000000E+00  0.00000000000E+00 -0.65016340746E+03  0.96151241524E+03  0.70837396074E+03 0.  0.
        2    1    3    3  502    0  0.28240452366E+03 -0.94513863859E+02 -0.64826664130E+02  0.30477480512E+03  0.25500000920E-02 0.  1.
       -2    1    3    3    0  502 -0.28240452366E+03  0.94513863859E+02 -0.58533674333E+03  0.65673761012E+03  0.25500000920E-02 0. -1.
</event>
<event>
 5   0  0.2751729E-02  0.6771134E+03  0.7818609E-02  0.9757192E-01
       -1   -1    0    0    0  501  0.00000000000E+00  0.00000000000E+00  0.35399574025E+03  0.35399574029E+03  0.50400001928E-02 0.  1.
        1   -1    0    0  501    0  0.00000000000E+00  0.00000000000E+00 -0.32379099847E+03  0.32379099851E+03  0.50400001928E-02 0. -1.
    10030    2    1    2    0    0  0.00000000000E+00  0.00000000000E+00  0.30204741781E+02  0.67778673880E+03  0.67711338553E+03 0.  0.
        1    1    3    3  502    0 -0.98824864185E+02 -0.12862779365E+03  0.31256647964E+03  0.35214949567E+03  0.50400001928E-02 0.  1.
       -1    1    3    3    0  502  0.98824864185E+02  0.12862779365E+03 -0.28236173786E+03  0.32563724313E+03  0.50400001928E-02 0. -1.
</event>
<event>
 5   0  0.2777999E-02  0.6793399E+03  0.7818609E-02  0.9753231E-01
       -1   -1    0    0    0  501  0.00000000000E+00  0.00000000000E+00  0.65742197552E+02  0.65742197745E+02  0.50400001928E-02 0.  1.
        1   -1    0    0  501    0  0.00000000000E+00  0.00000000000E+00 -0.17549714508E+04  0.17549714508E+04  0.50400001928E-02 0. -1.
    10030    2    1    2    0    0  0.00000000000E+00  0.00000000000E+00 -0.16892292533E+04  0.18207136486E+04  0.67933991492E+03 0.  0.
        5    1    3    3  502    0 -0.26556599491E+03 -0.20111837438E+02 -0.14095026915E+04  0.14344510138E+04  0.46999998093E+01 0. -1.
       -5    1    3    3    0  502  0.26556599491E+03  0.20111837438E+02 -0.27972656173E+03  0.38626263474E+03  0.46999998093E+01 0.  1.
</event>
<event>
 5   0  0.4503289E-02  0.6945762E+03  0.7818609E-02  0.9726553E-01
       -2   -1    0    0    0  501  0.00000000000E+00  0.00000000000E+00  0.49725051120E+03  0.49725051120E+03  0.25500000920E-02 0. -1.
        2   -1    0    0  501    0  0.00000000000E+00  0.00000000000E+00 -0.24255181057E+03  0.24255181058E+03  0.25500000920E-02 0.  1.
    10030    2    1    2    0    0  0.00000000000E+00  0.00000000000E+00  0.25469870063E+03  0.73980232178E+03  0.69457616372E+03 0.  0.
        2    1    3    3  502    0  0.14030886909E+03  0.27321255373E+03  0.30000725315E+03  0.42934372036E+03  0.25500000920E-02 0. -1.
       -2    1    3    3    0  502 -0.14030886909E+03 -0.27321255373E+03 -0.45308552522E+02  0.31045860142E+03  0.25500000920E-02 0.  1.
</event>
<event>
 5   0  0.4526837E-02  0.6788466E+03  0.7818609E-02  0.9754107E-01
        2   -1    0    0  501    0  0.00000000000E+00  0.00000000000E+00  0.75191854953E+03  0.75191854953E+03  0.25500000920E-02 0.  1.
       -2   -1    0    0    0  501  0.00000000000E+00  0.00000000000E+00 -0.15321897447E+03  0.15321897449E+03  0.25500000920E-02 0. -1.
    10030    2    1    2    0    0  0.00000000000E+00  0.00000000000E+00  0.59869957505E+03  0.90513752402E+03  0.67884663675E+03 0.  0.
        1    1    3    3  502    0 -0.62857476600E+02  0.90682898550E+02  0.72733880836E+03  0.73566037859E+03  0.50400001928E-02 0.  1.
       -1    1    3    3    0  502  0.62857476600E+02 -0.90682898550E+02 -0.12863923331E+03  0.16947714544E+03  0.50400001928E-02 0. -1.
</event>
<event>
 5   0  0.4299912E-02  0.6431916E+03  0.7818609E-02  0.9819639E-01
       -2   -1    0    0    0  501  0.00000000000E+00  0.00000000000E+00  0.47307613318E+03  0.47307613319E+03  0.25500000920E-02 0. -1.
        2   -1    0    0  501    0  0.00000000000E+00  0.00000000000E+00 -0.21861988108E+03  0.21861988109E+03  0.25500000920E-02 0.  1.
    10030    2    1    2    0    0  0.00000000000E+00  0.00000000000E+00  0.25445625210E+03  0.69169601428E+03  0.64319156706E+03 0.  0.
        3    1    3    3  502    0  0.13550107814E+03 -0.24386299342E+03  0.29927435925E+03  0.40913916219E+03  0.10100000352E+00 0. -1.
       -3    1    3    3    0  502 -0.13550107814E+03  0.24386299342E+03 -0.44818107145E+02  0.28255685209E+03  0.10100000352E+00 0.  1.
</event>
<event>
 5   0  0.2777999E-02  0.7058851E+03  0.7818609E-02  0.9707221E-01
        1   -1    0    0  501    0  0.00000000000E+00  0.00000000000E+00  0.59330428623E+03  0.59330428625E+03  0.50400001928E-02 0. -1.
       -1   -1    0    0    0  501  0.00000000000E+00  0.00000000000E+00 -0.20995707086E+03  0.20995707092E+03  0.50400001928E-02 0.  1.
    10030    2    1    2    0    0  0.00000000000E+00  0.00000000000E+00  0.38334721537E+03  0.80326135717E+03  0.70588506174E+03 0.  0.
        5    1    3    3  502    0 -0.20702059205E+03 -0.74854612574E+02  0.50556118115E+03  0.55142990165E+03  0.46999998093E+01 0. -1.
       -5    1    3    3    0  502  0.20702059205E+03  0.74854612574E+02 -0.12221396578E+03  0.25183145552E+03  0.46999998093E+01 0.  1.
</event>
<event>
 5   0  0.1784625E-02  0.6939797E+03  0.7818609E-02  0.9727583E-01
       -4   -1    0    0    0  501  0.00000000000E+00  0.00000000000E+00  0.61274193120E+03  0.61274324733E+03  0.12699999809E+01 0.  1.
        4   -1    0    0  501    0  0.00000000000E+00  0.00000000000E+00 -0.19649344804E+03  0.19649755220E+03  0.12699999809E+01 0. -1.
    10030    2    1    2    0    0  0.00000000000E+00  0.00000000000E+00  0.41624848316E+03  0.80924079953E+03  0.69397973450E+03 0.  0.
        2    1    3    3  502    0 -0.29147460015E+03  0.17445938891E+03  0.12559981305E+03  0.36217238155E+03  0.25500000920E-02 0. -1.
       -2    1    3    3    0  502  0.29147460015E+03 -0.17445938891E+03  0.29064867011E+03  0.44706841798E+03  0.25500000920E-02 0.  1.
</event>
<event>
 5   0  0.4365492E-02  0.6968193E+03  0.7818609E-02  0.9722687E-01
        2   -1    0    0  501    0  0.00000000000E+00  0.00000000000E+00  0.17782243305E+04  0.17782243305E+04  0.25500000920E-02 0.  1.
       -2   -1    0    0    0  501  0.00000000000E+00  0.00000000000E+00 -0.68264320987E+02  0.68264321034E+02  0.25500000920E-02 0. -1.
    10030    2    1    2    0    0  0.00000000000E+00  0.00000000000E+00  0.17099600095E+04  0.18464886515E+04  0.69681927794E+03 0.  0.
        4    1    3    3  502    0 -0.17524131095E+03 -0.29214302470E+03  0.10484504006E+04  0.11024095969E+04  0.12699999809E+01 0.  1.
       -4    1    3    3    0  502  0.17524131095E+03  0.29214302470E+03  0.66150960890E+03  0.74407905461E+03  0.12699999809E+01 0. -1.
</event>
<event>
 5   0  0.4526837E-02  0.6944381E+03  0.7818609E-02  0.9726791E-01
       -2   -1    0    0    0  501  0.00000000000E+00  0.00000000000E+00  0.13560498349E+03  0.13560498351E+03  0.25500000920E-02 0.  1.
        2   -1    0    0  501    0  0.00000000000E+00  0.00000000000E+00 -0.88906083615E+03  0.88906083615E+03  0.25500000920E-02 0. -1.
    10030    2    1    2    0    0  0.00000000000E+00  0.00000000000E+00 -0.75345585266E+03  0.10246658197E+04  0.69443813265E+03 0.  0.
        1    1    3    3  502    0 -0.91259113872E+02 -0.13907919395E+03  0.72982314461E+02  0.18165259785E+03  0.50400001928E-02 0.  1.
       -1    1    3    3    0  502  0.91259113872E+02  0.13907919395E+03 -0.82643816713E+03  0.84301322182E+03  0.50400001928E-02 0. -1.
</event>
<event>
 5   0  0.2684924E-02  0.7041178E+03  0.7818609E-02  0.9710216E-01
       -1   -1    0    0    0  501  0.00000000000E+00  0.00000000000E+00  0.14195777351E+03  0.14195777360E+03  0.50400001928E-02 0.  1.
        1   -1    0    0  501    0  0.00000000000E+00  0.00000000000E+00 -0.87311504507E+03  0.87311504508E+03  0.50400001928E-02 0. -1.
    10030    2    1    2    0    0  0.00000000000E+00  0.00000000000E+00 -0.73115727156E+03  0.10150728187E+04  0.70411779660E+03 0.  0.
        4    1    3    3  502    0  0.98030081381E+02 -0.12995020614E+03  0.84445592380E+02  0.18338381582E+03  0.12699999809E+01 0.  1.
       -4    1    3    3    0  502 -0.98030081381E+02  0.12995020614E+03 -0.81560286394E+03  0.83168900287E+03  0.12699999809E+01 0. -1.
</event>
<event>
 5   0  0.2777999E-02  0.6935286E+03  0.7818609E-02  0.9728364E-01
        1   -1    0    0  501    0  0.00000000000E+00  0.00000000000E+00  0.84679484795E+03  0.84679484797E+03  0.50400001928E-02 0. -1.
       -1   -1    0    0    0  501  0.00000000000E+00  0.00000000000E+00 -0.14200073390E+03  0.14200073399E+03  0.50400001928E-02 0.  1.
    10030    2    1    2    0    0  0.00000000000E+00  0.00000000000E+00  0.70479411406E+03  0.98879558196E+03  0.69352862932E+03 0.  0.
        5    1    3    3  502    0  0.95137625024E+02 -0.28032658745E+03  0.60977967687E+03  0.67785507865E+03  0.46999998093E+01 0. -1.
       -5    1    3    3    0  502 -0.95137625024E+02  0.28032658745E+03  0.95014437188E+02  0.31094050331E+03  0.46999998093E+01 0.  1.
</event>
<event>
 5   0  0.4420645E-02  0.7014089E+03  0.7818609E-02  0.9714826E-01
        2   -1    0    0  501    0  0.00000000000E+00  0.00000000000E+00  0.67833178812E+03  0.67833178813E+03  0.25500000920E-02 0.  1.
       -2   -1    0    0    0  501  0.00000000000E+00  0.00000000000E+00 -0.18131778721E+03  0.18131778722E+03  0.25500000920E-02 0. -1.
    10030    2    1    2    0    0  0.00000000000E+00  0.00000000000E+00  0.49701400092E+03  0.85964957535E+03  0.70140892160E+03 0.  0.
        5    1    3    3  502    0  0.11195597888E+03  0.45895731479E+02 -0.15488425748E+03  0.19660056609E+03  0.46999998093E+01 0. -1.
       -5    1    3    3    0  502 -0.11195597888E+03 -0.45895731479E+02  0.65189825840E+03  0.66304900926E+03  0.46999998093E+01 0.  1.
</event>
<event>
 5   0  0.4420645E-02  0.7354573E+03  0.7818609E-02  0.9658446E-01
       -2   -1    0    0    0  501  0.00000000000E+00  0.00000000000E+00  0.46529109994E+03  0.46529109995E+03  0.25500000920E-02 0.  1.
        2   -1    0    0  501    0  0.00000000000E+00  0.00000000000E+00 -0.29062315822E+03  0.29062315823E+03  0.25500000920E-02 0. -1.
    10030    2    1    2    0    0  0.00000000000E+00  0.00000000000E+00  0.17466794172E+03  0.75591425818E+03  0.73545732429E+03 0.  0.
        5    1    3    3  502    0  0.10353871176E+03 -0.21836502997E+03 -0.19750018911E+03  0.31214093907E+03  0.46999998093E+01 0. -1.
       -5    1    3    3    0  502 -0.10353871176E+03  0.21836502997E+03  0.37216813083E+03  0.44377331911E+03  0.46999998093E+01 0.  1.
</event>
<event>
 5   0  0.4420645E-02  0.6991573E+03  0.7818609E-02  0.9718674E-01
       -2   -1    0    0    0  501  0.00000000000E+00  0.00000000000E+00  0.10231615545E+03  0.10231615548E+03  0.25500000920E-02 0.  1.
        2   -1    0    0  501    0  0.00000000000E+00  0.00000000000E+00 -0.11943884892E+04  0.11943884892E+04  0.25500000920E-02 0. -1.
    10030    2    1    2    0    0  0.00000000000E+00  0.00000000000E+00 -0.10920723337E+04  0.12967046447E+04  0.69915731665E+03 0.  0.
        5    1    3    3  502    0 -0.30122635687E+03  0.13109151235E+03 -0.32455398176E+03  0.46182213000E+03  0.46999998093E+01 0.  1.
       -5    1    3    3    0  502  0.30122635687E+03 -0.13109151235E+03 -0.76751835199E+03  0.83488251469E+03  0.46999998093E+01 0. -1.
</event>
<event>
 5   0  0.4365492E-02  0.7034381E+03  0.7818609E-02  0.9711371E-01
        2   -1    0    0  501    0  0.00000000000E+00  0.00000000000E+00  0.13721397388E+04  0.13721397388E+04  0.25500000920E-02 0. -1.
       -2   -1    0    0    0  501  0.00000000000E+00  0.00000000000E+00 -0.90155739738E+02  0.90155739774E+02  0.25500000920E-02 0.  1.
    10030    2    1    2    0    0  0.00000000000E+00  0.00000000000E+00  0.12819839991E+04  0.14622954786E+04  0.70343805187E+03 0.  0.
        4    1    3    3  502    0 -0.29980105182E+02 -0.46713681255E+02  0.13629726805E+04  0.13641030443E+04  0.12699999809E+01 0. -1.
       -4    1    3    3    0  502  0.29980105182E+02  0.46713681255E+02 -0.80988681464E+02  0.98192434272E+02  0.12699999809E+01 0.  1.
</event>
<event>
 5   0  0.4365492E-02  0.6750842E+03  0.7818609E-02  0.9760817E-01
       -2   -1    0    0    0  501  0.00000000000E+00  0.00000000000E+00  0.12866448841E+03  0.12866448844E+03  0.25500000920E-02 0.  1.
        2   -1    0    0  501    0  0.00000000000E+00  0.00000000000E+00 -0.88551763000E+03  0.88551763000E+03  0.25500000920E-02 0. -1.
    10030    2    1    2    0    0  0.00000000000E+00  0.00000000000E+00 -0.75685314159E+03  0.10141821184E+04  0.67508421062E+03 0.  0.
        4    1    3    3  502    0 -0.30964503176E+03  0.12101850179E+03 -0.29073087951E+03  0.44164644306E+03  0.12699999809E+01 0. -1.
       -4    1    3    3    0  502  0.30964503176E+03 -0.12101850179E+03 -0.46612226208E+03  0.57253567538E+03  0.12699999809E+01 0.  1.
</event>
<event>
 5   0  0.2777999E-02  0.7126987E+03  0.7818609E-02  0.9695759E-01
        1   -1    0    0  501    0  0.00000000000E+00  0.00000000000E+00  0.40204859747E+03  0.40204859750E+03  0.50400001928E-02 0. -1.
       -1   -1    0    0    0  501  0.00000000000E+00  0.00000000000E+00 -0.31584459588E+03  0.31584459592E+03  0.50400001928E-02 0.  1.
    10030    2    1    2    0    0  0.00000000000E+00  0.00000000000E+00  0.86204001596E+02  0.71789319342E+03  0.71269874931E+03 0.  0.
        5    1    3    3  502    0 -0.30691485813E+02 -0.33046289754E+03  0.17372013447E+03  0.37463111066E+03  0.46999998093E+01 0. -1.
       -5    1    3    3    0  502  0.30691485813E+02  0.33046289754E+03 -0.87516132874E+02  0.34326208277E+03  0.46999998093E+01 0.  1.
</event>
<event>
 5   0  0.4299912E-02  0.6895895E+03  0.7818609E-02  0.9735203E-01
        2   -1    0    0  501    0  0.00000000000E+00  0.00000000000E+00  0.60044933833E+03  0.60044933834E+03  0.25500000920E-02 0.  1.
       -2   -1    0    0    0  501  0.00000000000E+00  0.00000000000E+00 -0.19799077667E+03  0.19799077669E+03  0.25500000920E-02 0. -1.
    10030    2    1    2    0    0  0.00000000000E+00  0.00000000000E+00  0.40245856166E+03  0.79844011503E+03  0.68958953257E+03 0.  0.
        3    1    3    3  502    0  0.61166998269E+02  0.62664241617E+02  0.58735949380E+03  0.59385132315E+03  0.10100000352E+00 0.  1.
       -3    1    3    3    0  502 -0.61166998269E+02 -0.62664241617E+02 -0.18490093214E+03  0.20458879188E+03  0.10100000352E+00 0. -1.
</event>
<event>
 5   0  0.4503289E-02  0.7824818E+03  0.7818609E-02  0.9585726E-01
       -2   -1    0    0    0  501  0.00000000000E+00  0.00000000000E+00  0.31166784661E+03  0.31166784662E+03  0.25500000920E-02 0.  1.
        2   -1    0    0  501    0  0.00000000000E+00  0.00000000000E+00 -0.49113006808E+03  0.49113006809E+03  0.25500000920E-02 0. -1.
    10030    2    1    2    0    0  0.00000000000E+00  0.00000000000E+00 -0.17946222147E+03  0.80279791470E+03  0.78248182274E+03 0.  0.
        2    1    3    3  502    0  0.29215815528E+03 -0.24562438132E+03 -0.17787880325E+03  0.42110401690E+03  0.25500000920E-02 0.  1.
       -2    1    3    3    0  502 -0.29215815528E+03  0.24562438132E+03 -0.15834182178E+01  0.38169389780E+03  0.25500000920E-02 0. -1.
</event>
<event>
 5   0  0.2751729E-02  0.6800748E+03  0.7818609E-02  0.9751927E-01
        1   -1    0    0  501    0  0.00000000000E+00  0.00000000000E+00  0.44984803080E+03  0.44984803083E+03  0.50400001928E-02 0. -1.
       -1   -1    0    0    0  501  0.00000000000E+00  0.00000000000E+00 -0.25703223250E+03  0.25703223255E+03  0.50400001928E-02 0.  1.
    10030    2    1    2    0    0  0.00000000000E+00  0.00000000000E+00  0.19281579830E+03  0.70688026338E+03  0.68007483020E+03 0.  0.
        1    1    3    3  502    0  0.53896518362E+02  0.15481073605E+03 -0.21325111094E+03  0.26897441334E+03  0.50400001928E-02 0.  1.
       -1    1    3    3    0  502 -0.53896518362E+02 -0.15481073605E+03  0.40606690925E+03  0.43790585004E+03  0.50400001928E-02 0. -1.
</event>
<event>
 5   0  0.4420645E-02  0.7052106E+03  0.7818609E-02  0.9708363E-01
        2   -1    0    0  501    0  0.00000000000E+00  0.00000000000E+00  0.90348502022E+03  0.90348502022E+03  0.25500000920E-02 0.  1.
       -2   -1    0    0    0  501  0.00000000000E+00  0.00000000000E+00 -0.13761214639E+03  0.13761214642E+03  0.25500000920E-02 0. -1.
    10030    2    1    2    0    0  0.00000000000E+00  0.00000000000E+00  0.76587287382E+03  0.10410971666E+04  0.70521064337E+03 0.  0.
        5    1    3    3  502    0 -0.24655618974E+03 -0.21101916434E+03  0.17950043869E+03  0.37089289546E+03  0.46999998093E+01 0.  1.
       -5    1    3    3    0  502  0.24655618974E+03  0.21101916434E+03  0.58637243513E+03  0.67020427117E+03  0.46999998093E+01 0. -1.
</event>
<event>
 5   0  0.4503289E-02  0.7007112E+03  0.7818609E-02  0.9716017E-01
       -2   -1    0    0    0  501  0.00000000000E+00  0.00000000000E+00  0.39855138990E+02  0.39855139071E+02  0.25500000920E-02 0. -1.
        2   -1    0    0  501    0  0.00000000000E+00  0.00000000000E+00 -0.30798800665E+04  0.30798800665E+04  0.25500000920E-02 0.  1.
    10030    2    1    2    0    0  0.00000000000E+00  0.00000000000E+00 -0.30400249275E+04  0.31197352056E+04  0.70071120514E+03 0.  0.
        2    1    3    3  502    0  0.26681431533E+03  0.12704285136E+03 -0.23579247452E+04  0.23763709452E+04  0.25500000920E-02 0.  1.
       -2    1    3    3    0  502 -0.26681431533E+03 -0.12704285136E+03 -0.68210018228E+03  0.74336426039E+03  0.25500000920E-02 0. -1.
</event>
<event>
 5   0  0.2751729E-02  0.5481366E+03  0.7818609E-02  0.1001926E+00
       -1   -1    0    0    0  501  0.00000000000E+00  0.00000000000E+00  0.13740322130E+04  0.13740322130E+04  0.50400001928E-02 0.  1.
        1   -1    0    0  501    0  0.00000000000E+00  0.00000000000E+00 -0.54666436294E+02  0.54666436526E+02  0.50400001928E-02 0. -1.
    10030    2    1    2    0    0  0.00000000000E+00  0.00000000000E+00  0.13193657767E+04  0.14286986495E+04  0.54813664212E+03 0.  0.
        1    1    3    3  502    0  0.84614753078E+00  0.11843269007E+03  0.15477787293E+02  0.11944278951E+03  0.50400001928E-02 0. -1.
       -1    1    3    3    0  502 -0.84614753078E+00 -0.11843269007E+03  0.13038879894E+04  0.13092558600E+04  0.50400001928E-02 0.  1.
</event>
<event>
 5   0  0.4420645E-02  0.6812562E+03  0.7818609E-02  0.9749835E-01
       -2   -1    0    0    0  501  0.00000000000E+00  0.00000000000E+00  0.18491173568E+03  0.18491173570E+03  0.25500000920E-02 0.  1.
        2   -1    0    0  501    0  0.00000000000E+00  0.00000000000E+00 -0.62747500639E+03  0.62747500640E+03  0.25500000920E-02 0. -1.
    10030    2    1    2    0    0  0.00000000000E+00  0.00000000000E+00 -0.44256327071E+03  0.81238674209E+03  0.68125617072E+03 0.  0.
        5    1    3    3  502    0  0.18453775143E+02 -0.20050732635E+02 -0.62613431225E+03  0.62674463753E+03  0.46999998093E+01 0. -1.
       -5    1    3    3    0  502 -0.18453775143E+02  0.20050732635E+02  0.18357104154E+03  0.18564210456E+03  0.46999998093E+01 0.  1.
</event>
<event>
 5   0  0.4420645E-02  0.6913311E+03  0.7818609E-02  0.9732173E-01
       -2   -1    0    0    0  501  0.00000000000E+00  0.00000000000E+00  0.65813259879E+03  0.65813259880E+03  0.25500000920E-02 0. -1.
        2   -1    0    0  501    0  0.00000000000E+00  0.00000000000E+00 -0.18155108826E+03  0.18155108828E+03  0.25500000920E-02 0.  1.
    10030    2    1    2    0    0  0.00000000000E+00  0.00000000000E+00  0.47658151053E+03  0.83968368708E+03  0.69133114942E+03 0.  0.
        5    1    3    3  502    0  0.19790931577E+03 -0.22442199453E+03  0.44841572186E+03  0.53910303144E+03  0.46999998093E+01 0. -1.
       -5    1    3    3    0  502 -0.19790931577E+03  0.22442199453E+03  0.28165788675E+02  0.30058065564E+03  0.46999998093E+01 0.  1.
</event>
<event>
 5   0  0.4299912E-02  0.6937774E+03  0.7818609E-02  0.9727933E-01
        2   -1    0    0  501    0  0.00000000000E+00  0.00000000000E+00  0.15680836772E+04  0.15680836772E+04  0.25500000920E-02 0. -1.
       -2   -1    0    0    0  501  0.00000000000E+00  0.00000000000E+00 -0.76738100180E+02  0.76738100223E+02  0.25500000920E-02 0.  1.
    10030    2    1    2    0    0  0.00000000000E+00  0.00000000000E+00  0.14913455770E+04  0.16448217774E+04  0.69377737739E+03 0.  0.
        3    1    3    3  502    0  0.10284252055E+03 -0.15042537811E+03  0.14454761508E+04  0.14569165010E+04  0.10100000352E+00 0. -1.
       -3    1    3    3    0  502 -0.10284252055E+03  0.15042537811E+03  0.45869426216E+02  0.18790527633E+03  0.10100000352E+00 0.  1.
</event>
<event>
 5   0  0.1784625E-02  0.7073224E+03  0.7818609E-02  0.9704791E-01
       -4   -1    0    0    0  501  0.00000000000E+00  0.00000000000E+00  0.38404241518E+03  0.38404451508E+03  0.12699999809E+01 0. -1.
        4   -1    0    0  501    0  0.00000000000E+00  0.00000000000E+00 -0.32567914900E+03  0.32568162520E+03  0.12699999809E+01 0.  1.
    10030    2    1    2    0    0  0.00000000000E+00  0.00000000000E+00  0.58363266186E+02  0.70972614027E+03  0.70732236169E+03 0.  0.
        1    1    3    3  502    0  0.10359117079E+03  0.17099643779E+03  0.32190120636E+03  0.37893442584E+03  0.50400001928E-02 0. -1.
       -1    1    3    3    0  502 -0.10359117079E+03 -0.17099643779E+03 -0.26353794018E+03  0.33079171444E+03  0.50400001928E-02 0.  1.
</event>
<event>
 5   0  0.2777999E-02  0.6984462E+03  0.7818609E-02  0.9719893E-01
       -1   -1    0    0    0  501  0.00000000000E+00  0.00000000000E+00  0.21484138237E+04  0.21484138237E+04  0.50400001928E-02 0.  1.
        1   -1    0    0  501    0  0.00000000000E+00  0.00000000000E+00 -0.56765953899E+02  0.56765954122E+02  0.50400001928E-02 0. -1.
    10030    2    1    2    0    0  0.00000000000E+00  0.00000000000E+00  0.20916478698E+04  0.22051797778E+04  0.69844616206E+03 0.  0.
        5    1    3    3  502    0 -0.13628987026E+03 -0.30862982583E+03  0.76154078310E+03  0.83294282663E+03  0.46999998093E+01 0.  1.
       -5    1    3    3    0  502  0.13628987026E+03  0.30862982583E+03  0.13301070867E+04  0.13722369512E+04  0.46999998093E+01 0. -1.
</event>
<event>
 5   0  0.4503289E-02  0.7041886E+03  0.7818609E-02  0.9710096E-01
        2   -1    0    0  501    0  0.00000000000E+00  0.00000000000E+00  0.18300907847E+03  0.18300907848E+03  0.25500000920E-02 0. -1.
       -2   -1    0    0    0  501  0.00000000000E+00  0.00000000000E+00 -0.67740023960E+03  0.67740023960E+03  0.25500000920E-02 0.  1.
    10030    2    1    2    0    0  0.00000000000E+00  0.00000000000E+00 -0.49439116113E+03  0.86040931809E+03  0.70418859295E+03 0.  0.
        2    1    3    3  502    0  0.57069630013E+02 -0.63641891047E+02  0.17013767040E+03  0.19040498907E+03  0.25500000920E-02 0. -1.
       -2    1    3    3    0  502 -0.57069630013E+02  0.63641891047E+02 -0.66452883153E+03  0.67000432902E+03  0.25500000920E-02 0.  1.
</event>
<event>
 5   0  0.4526837E-02  0.6897056E+03  0.7818609E-02  0.9735001E-01
        2   -1    0    0  501    0  0.00000000000E+00  0.00000000000E+00  0.45311004516E+03  0.45311004517E+03  0.25500000920E-02 0.  1.
       -2   -1    0    0    0  501  0.00000000000E+00  0.00000000000E+00 -0.26246038469E+03  0.26246038471E+03  0.25500000920E-02 0. -1.
    10030    2    1    2    0    0  0.00000000000E+00  0.00000000000E+00  0.19064966047E+03  0.71557042988E+03  0.68970555100E+03 0.  0.
        1    1    3    3  502    0  0.25893951209E+03  0.64176191069E+02  0.32204957305E+03  0.41819156131E+03  0.50400001928E-02 0.  1.
       -1    1    3    3    0  502 -0.25893951209E+03 -0.64176191069E+02 -0.13139991258E+03  0.29737886857E+03  0.50400001928E-02 0. -1.
</event>
<event>
 5   0  0.2750139E-02  0.6985466E+03  0.7818609E-02  0.9719721E-01
        1   -1    0    0  501    0  0.00000000000E+00  0.00000000000E+00  0.65177746355E+03  0.65177746357E+03  0.50400001928E-02 0.  1.
       -1   -1    0    0    0  501  0.00000000000E+00  0.00000000000E+00 -0.18716792496E+03  0.18716792502E+03  0.50400001928E-02 0. -1.
    10030    2    1    2    0    0  0.00000000000E+00  0.00000000000E+00  0.46460953859E+03  0.83894538859E+03  0.69854659235E+03 0.  0.
        2    1    3    3  502    0  0.22821994943E+03 -0.47003224251E+02 -0.80178544765E+02  0.24641884557E+03  0.25500000920E-02 0. -1.
       -2    1    3    3    0  502 -0.22821994943E+03  0.47003224251E+02  0.54478808335E+03  0.59252654302E+03  0.25500000920E-02 0.  1.
</event>
<event>
 5   0  0.2751729E-02  0.7076261E+03  0.7818609E-02  0.9704279E-01
       -1   -1    0    0    0  501  0.00000000000E+00  0.00000000000E+00  0.22330560119E+03  0.22330560124E+03  0.50400001928E-02 0. -1.
        1   -1    0    0  501    0  0.00000000000E+00  0.00000000000E+00 -0.56059355994E+03  0.56059355996E+03  0.50400001928E-02 0.  1.
    10030    2    1    2    0    0  0.00000000000E+00  0.00000000000E+00 -0.33728795875E+03  0.78389916120E+03  0.70762612149E+03 0.  0.
        1    1    3    3  502    0  0.16758966587E+03 -0.19932888209E+03 -0.43397088417E+03  0.50611167510E+03  0.50400001928E-02 0.  1.
       -1    1    3    3    0  502 -0.16758966587E+03  0.19932888209E+03  0.96682925420E+02  0.27778748610E+03  0.50400001928E-02 0. -1.
</event>
<event>
 5   0  0.4503289E-02  0.6942631E+03  0.7818609E-02  0.9727094E-01
       -2   -1    0    0    0  501  0.00000000000E+00  0.00000000000E+00  0.17817675675E+03  0.17817675677E+03  0.25500000920E-02 0.  1.
        2   -1    0    0  501    0  0.00000000000E+00  0.00000000000E+00 -0.67629652577E+03  0.67629652578E+03  0.25500000920E-02 0. -1.
    10030    2    1    2    0    0  0.00000000000E+00  0.00000000000E+00 -0.49811976902E+03  0.85447328255E+03  0.69426312469E+03 0.  0.
        2    1    3    3  502    0 -0.13466054416E+03  0.81803812146E+02  0.13163199674E+03  0.20531027350E+03  0.25500000920E-02 0.  1.
       -2    1    3    3    0  502  0.13466054416E+03 -0.81803812146E+02 -0.62975176576E+03  0.64916300905E+03  0.25500000920E-02 0. -1.
</event>
<event>
 5   0  0.2751729E-02  0.7131052E+03  0.7818609E-02  0.9695079E-01
        1   -1    0    0  501    0  0.00000000000E+00  0.00000000000E+00  0.41512792955E+03  0.41512792958E+03  0.50400001928E-02 0. -1.
       -1   -1    0    0    0  501  0.00000000000E+00  0.00000000000E+00 -0.30624237449E+03  0.30624237454E+03  0.50400001928E-02 0.  1.
    10030    2    1    2    0    0  0.00000000000E+00  0.00000000000E+00  0.10888555506E+03  0.72137030412E+03  0.71310521774E+03 0.  0.
        1    1    3    3  502    0 -0.21500927313E+03 -0.23450476048E+03 -0.10838333080E+03  0.33610774559E+03  0.50400001928E-02 0.  1.
       -1    1    3    3    0  502  0.21500927313E+03  0.23450476048E+03  0.21726888586E+03  0.38526255854E+03  0.50400001928E-02 0. -1.
</event>
<event>
 5   0  0.2751729E-02  0.7003965E+03  0.7818609E-02  0.9716554E-01
        1   -1    0    0  501    0  0.00000000000E+00  0.00000000000E+00  0.28004631933E+03  0.28004631938E+03  0.50400001928E-02 0.  1.
       -1   -1    0    0    0  501  0.00000000000E+00  0.00000000000E+00 -0.43792333088E+03  0.43792333091E+03  0.50400001928E-02 0. -1.
    10030    2    1    2    0    0  0.00000000000E+00  0.00000000000E+00 -0.15787701154E+03  0.71796965029E+03  0.70039650767E+03 0.  0.
        1    1    3    3  502    0 -0.90625121297E+02 -0.19755728760E+03  0.20253609515E+03  0.29709033030E+03  0.50400001928E-02 0.  1.
       -1    1    3    3    0  502  0.90625121297E+02  0.19755728760E+03 -0.36041310669E+03  0.42087931999E+03  0.50400001928E-02 0. -1.
</event>
<event>
 5   0  0.2750139E-02  0.7496453E+03  0.7818609E-02  0.9635907E-01
        1   -1    0    0  501    0  0.00000000000E+00  0.00000000000E+00  0.12147805649E+04  0.12147805649E+04  0.50400001928E-02 0. -1.
       -1   -1    0    0    0  501  0.00000000000E+00  0.00000000000E+00 -0.11565218326E+03  0.11565218337E+03  0.50400001928E-02 0.  1.
    10030    2    1    2    0    0  0.00000000000E+00  0.00000000000E+00  0.10991283816E+04  0.13304327483E+04  0.74964531505E+03 0.  0.
        2    1    3    3  502    0 -0.30706497839E+03 -0.20001480771E+03  0.40985181981E+03  0.54979390544E+03  0.25500000920E-02 0.  1.
       -2    1    3    3    0  502  0.30706497839E+03  0.20001480771E+03  0.68927656180E+03  0.78063884281E+03  0.25500000920E-02 0. -1.
</event>
<event>
 5   0  0.4365492E-02  0.7101994E+03  0.7818609E-02  0.9699947E-01
       -2   -1    0    0    0  501  0.00000000000E+00  0.00000000000E+00  0.15738791256E+03  0.15738791258E+03  0.25500000920E-02 0.  1.
        2   -1    0    0  501    0  0.00000000000E+00  0.00000000000E+00 -0.80117830950E+03  0.80117830951E+03  0.25500000920E-02 0. -1.
    10030    2    1    2    0    0  0.00000000000E+00  0.00000000000E+00 -0.64379039694E+03  0.95856622209E+03  0.71019935717E+03 0.  0.
        4    1    3    3  502    0  0.10752682508E+03  0.12588197093E+03 -0.74589861468E+03  0.76405146751E+03  0.12699999809E+01 0. -1.
       -4    1    3    3    0  502 -0.10752682508E+03 -0.12588197093E+03  0.10210821774E+03  0.19451475458E+03  0.12699999809E+01 0.  1.
</event>
<event>
 5   0  0.4420645E-02  0.6991037E+03  0.7818609E-02  0.9718766E-01
       -2   -1    0    0    0  501  0.00000000000E+00  0.00000000000E+00  0.25101277886E+03  0.25101277887E+03  0.25500000920E-02 0. -1.
        2   -1    0    0  501    0  0.00000000000E+00  0.00000000000E+00 -0.48677398907E+03  0.48677398908E+03  0.25500000920E-02 0.  1.
    10030    2    1    2    0    0  0.00000000000E+00  0.00000000000E+00 -0.23576121021E+03  0.73778676795E+03  0.69910368811E+03 0.  0.
        5    1    3    3  502    0  0.69497483263E+02 -0.11283174446E+03  0.22343989604E+03  0.25982374771E+03  0.46999998093E+01 0. -1.
       -5    1    3    3    0  502 -0.69497483263E+02  0.11283174446E+03 -0.45920110625E+03  0.47796302024E+03  0.46999998093E+01 0.  1.
</event>
<event>
 5   0  0.4365492E-02  0.7031335E+03  0.7818609E-02  0.9711888E-01
       -2   -1    0    0    0  501  0.00000000000E+00  0.00000000000E+00  0.26076939577E+03  0.26076939578E+03  0.25500000920E-02 0. -1.
        2   -1    0    0  501    0  0.00000000000E+00  0.00000000000E+00 -0.47397888392E+03  0.47397888393E+03  0.25500000920E-02 0.  1.
    10030    2    1    2    0    0  0.00000000000E+00  0.00000000000E+00 -0.21320948815E+03  0.73474827971E+03  0.70313352124E+03 0.  0.
        4    1    3    3  502    0 -0.81584454087E+02  0.66425718099E+02  0.24393183380E+03  0.26565532484E+03  0.12699999809E+01 0. -1.
       -4    1    3    3    0  502  0.81584454087E+02 -0.66425718099E+02 -0.45714132195E+03  0.46909295487E+03  0.12699999809E+01 0.  1.
</event>
<event>
 5   0  0.4526837E-02  0.6962608E+03  0.7818609E-02  0.9723648E-01
        2   -1    0    0  501    0  0.00000000000E+00  0.00000000000E+00  0.44829259448E+03  0.44829259448E+03  0.25500000920E-02 0.  1.
       -2   -1    0    0    0  501  0.00000000000E+00  0.00000000000E+00 -0.27034745365E+03  0.27034745366E+03  0.25500000920E-02 0. -1.
    10030    2    1    2    0    0  0.00000000000E+00  0.00000000000E+00  0.17794514083E+03  0.71864004814E+03  0.69626075981E+03 0.  0.
        1    1    3    3  502    0  0.51884525801E+02  0.23952676125E+03  0.34416370672E+03  0.42250885248E+03  0.50400001928E-02 0.  1.
       -1    1    3    3    0  502 -0.51884525801E+02 -0.23952676125E+03 -0.16621856589E+03  0.29613119566E+03  0.50400001928E-02 0. -1.
</event>
<event>
 5   0  0.4420645E-02  0.6986909E+03  0.7818609E-02  0.9719474E-01
        2   -1    0    0  501    0  0.00000000000E+00  0.00000000000E+00  0.16188550998E+04  0.16188550998E+04  0.25500000920E-02 0. -1.
       -2   -1    0    0    0  501  0.00000000000E+00  0.00000000000E+00 -0.75388002467E+02  0.75388002510E+02  0.25500000920E-02 0.  1.
    10030    2    1    2    0    0  0.00000000000E+00  0.00000000000E+00  0.15434670973E+04  0.16942431023E+04  0.69869092536E+03 0.  0.
        5    1    3    3  502    0  0.14653195018E+03  0.27951215287E+03  0.40863625155E+03  0.51633742078E+03  0.46999998093E+01 0.  1.
       -5    1    3    3    0  502 -0.14653195018E+03 -0.27951215287E+03  0.11348308458E+04  0.11779056815E+04  0.46999998093E+01 0. -1.
</event>
<event>
 5   0  0.4299912E-02  0.6980486E+03  0.7818609E-02  0.9720575E-01
        2   -1    0    0  501    0  0.00000000000E+00  0.00000000000E+00  0.22855877428E+03  0.22855877430E+03  0.25500000920E-02 0.  1.
       -2   -1    0    0    0  501  0.00000000000E+00  0.00000000000E+00 -0.53298302353E+03  0.53298302353E+03  0.25500000920E-02 0. -1.
    10030    2    1    2    0    0  0.00000000000E+00  0.00000000000E+00 -0.30442424924E+03  0.76154179783E+03  0.69804855584E+03 0.  0.
        3    1    3    3  502    0  0.23734916267E+03  0.16311666269E+03 -0.36731706391E+03  0.46675850963E+03  0.10100000352E+00 0. -1.
       -3    1    3    3    0  502 -0.23734916267E+03 -0.16311666269E+03  0.62892814666E+02  0.29478328821E+03  0.10100000352E+00 0.  1.
</event>
<event>
 5   0  0.4365492E-02  0.7074875E+03  0.7818609E-02  0.9704513E-01
       -2   -1    0    0    0  501  0.00000000000E+00  0.00000000000E+00  0.85859452120E+02  0.85859452158E+02  0.25500000920E-02 0.  1.
        2   -1    0    0  501    0  0.00000000000E+00  0.00000000000E+00 -0.14574359381E+04  0.14574359381E+04  0.25500000920E-02 0. -1.
    10030    2    1    2    0    0  0.00000000000E+00  0.00000000000E+00 -0.13715764860E+04  0.15432953902E+04  0.70748752971E+03 0.  0.
        4    1    3    3  502    0  0.47596058731E+02 -0.12948365854E+03 -0.13963327871E+04  0.14031315933E+04  0.12699999809E+01 0. -1.
       -4    1    3    3    0  502 -0.47596058731E+02  0.12948365854E+03  0.24756301186E+02  0.14016379698E+03  0.12699999809E+01 0.  1.
</event>
<event>
 5   0  0.2758681E-02  0.6987141E+03  0.7818609E-02  0.9719434E-01
       -1   -1    0    0    0  501  0.00000000000E+00  0.00000000000E+00  0.59926378495E+03  0.59926378498E+03  0.50400001928E-02 0. -1.
        1   -1    0    0  501    0  0.00000000000E+00  0.00000000000E+00 -0.20366714773E+03  0.20366714779E+03  0.50400001928E-02 0.  1.
    10030    2    1    2    0    0  0.00000000000E+00  0.00000000000E+00  0.39559663723E+03  0.80293093277E+03  0.69871409275E+03 0.  0.
        3    1    3    3  502    0  0.37635507523E+02 -0.33657859254E+03  0.29630951167E+03  0.45000101921E+03  0.10100000352E+00 0. -1.
       -3    1    3    3    0  502 -0.37635507523E+02  0.33657859254E+03  0.99287125557E+02  0.35292991356E+03  0.10100000352E+00 0.  1.
</event>
<event>
 5   0  0.2750139E-02  0.6976813E+03  0.7818609E-02  0.9721206E-01
        1   -1    0    0  501    0  0.00000000000E+00  0.00000000000E+00  0.25353523360E+03  0.25353523365E+03  0.50400001928E-02 0.  1.
       -1   -1    0    0    0  501  0.00000000000E+00  0.00000000000E+00 -0.47997193282E+03  0.47997193285E+03  0.50400001928E-02 0. -1.
    10030    2    1    2    0    0  0.00000000000E+00  0.00000000000E+00 -0.22643669922E+03  0.73350716650E+03  0.69768129153E+03 0.  0.
        2    1    3    3  502    0 -0.19431537117E+03 -0.72439940736E+02  0.18169193123E+03  0.27571355854E+03  0.25500000920E-02 0.  1.
       -2    1    3    3    0  502  0.19431537117E+03  0.72439940736E+02 -0.40812863045E+03  0.45779360795E+03  0.25500000920E-02 0. -1.
</event>
<event>
 5   0  0.2758681E-02  0.6980028E+03  0.7818609E-02  0.9720654E-01
        1   -1    0    0  501    0  0.00000000000E+00  0.00000000000E+00  0.23059368967E+04  0.23059368967E+04  0.50400001928E-02 0.  1.
       -1   -1    0    0    0  501  0.00000000000E+00  0.00000000000E+00 -0.52821041084E+02  0.52821041324E+02  0.50400001928E-02 0. -1.
    10030    2    1    2    0    0  0.00000000000E+00  0.00000000000E+00  0.22531158556E+04  0.23587579380E+04  0.69800283050E+03 0.  0.
        3    1    3    3  502    0 -0.92840248547E+02  0.90831634595E+02  0.22212217010E+04  0.22250158545E+04  0.10100000352E+00 0.  1.
       -3    1    3    3    0  502  0.92840248547E+02 -0.90831634595E+02  0.31894154552E+02  0.13374208346E+03  0.10100000352E+00 0. -1.
</event>
<event>
 5   0  0.4365492E-02  0.7029425E+03  0.7818609E-02  0.9712213E-01
       -2   -1    0    0    0  501  0.00000000000E+00  0.00000000000E+00  0.19713237065E+03  0.19713237067E+03  0.25500000920E-02 0. -1.
        2   -1    0    0  501    0  0.00000000000E+00  0.00000000000E+00 -0.62664521538E+03  0.62664521538E+03  0.25500000920E-02 0.  1.
    10030    2    1    2    0    0  0.00000000000E+00  0.00000000000E+00 -0.42951284473E+03  0.82377758605E+03  0.70294254921E+03 0.  0.
        4    1    3    3  502    0 -0.39540453392E+02  0.32610920755E+03 -0.68293527712E+02  0.33552389115E+03  0.12699999809E+01 0. -1.
       -4    1    3    3    0  502  0.39540453392E+02 -0.32610920755E+03 -0.36121931701E+03  0.48825369490E+03  0.12699999809E+01 0.  1.
</event>
<event>
 5   0  0.2751729E-02  0.6441643E+03  0.7818609E-02  0.9817791E-01
        1   -1    0    0  501    0  0.00000000000E+00  0.00000000000E+00  0.16952100140E+04  0.16952100140E+04  0.50400001928E-02 0.  1.
       -1   -1    0    0    0  501  0.00000000000E+00  0.00000000000E+00 -0.61194144678E+02  0.61194144885E+02  0.50400001928E-02 0. -1.
    10030    2    1    2    0    0  0.00000000000E+00  0.00000000000E+00  0.16340158694E+04  0.17564041589E+04  0.64416434874E+03 0.  0.
        1    1    3    3  502    0 -0.23284839526E+03  0.19435917393E+03  0.52153447754E+03  0.60331755731E+03  0.50400001928E-02 0. -1.
       -1    1    3    3    0  502  0.23284839526E+03 -0.19435917393E+03  0.11124813918E+04  0.11530866016E+04  0.50400001928E-02 0.  1.
</event>
<event>
 5   0  0.2777999E-02  0.6020303E+03  0.7818609E-02  0.9901203E-01
        1   -1    0    0  501    0  0.00000000000E+00  0.00000000000E+00  0.23921082196E+03  0.23921082201E+03  0.50400001928E-02 0.  1.
       -1   -1    0    0    0  501  0.00000000000E+00  0.00000000000E+00 -0.37878774606E+03  0.37878774610E+03  0.50400001928E-02 0. -1.
    10030    2    1    2    0    0  0.00000000000E+00  0.00000000000E+00 -0.13957692411E+03  0.61799856811E+03  0.60203032518E+03 0.  0.
        5    1    3    3  502    0  0.13933100489E+03 -0.17362914758E+03  0.13813733053E+03  0.26203858856E+03  0.46999998093E+01 0.  1.
       -5    1    3    3    0  502 -0.13933100489E+03  0.17362914758E+03 -0.27771425463E+03  0.35595997954E+03  0.46999998093E+01 0. -1.
</event>
<event>
 5   0  0.2751729E-02  0.6998592E+03  0.7818609E-02  0.9717473E-01
        1   -1    0    0  501    0  0.00000000000E+00  0.00000000000E+00  0.17668685200E+04  0.17668685200E+04  0.50400001928E-02 0. -1.
       -1   -1    0    0    0  501  0.00000000000E+00  0.00000000000E+00 -0.69303807565E+02  0.69303807748E+02  0.50400001928E-02 0.  1.
    10030    2    1    2    0    0  0.00000000000E+00  0.00000000000E+00  0.16975647124E+04  0.18361723277E+04  0.69985917463E+03 0.  0.
        1    1    3    3  502    0 -0.12894627024E+03  0.10937165444E+03  0.16525792622E+04  0.16612066449E+04  0.50400001928E-02 0. -1.
       -1    1    3    3    0  502  0.12894627024E+03 -0.10937165444E+03  0.44985450265E+02  0.17496568282E+03  0.50400001928E-02 0.  1.
</event>
<event>
 5   0  0.2750139E-02  0.7357159E+03  0.7818609E-02  0.9658030E-01
        1   -1    0    0  501    0  0.00000000000E+00  0.00000000000E+00  0.37974619146E+03  0.37974619149E+03  0.50400001928E-02 0.  1.
       -1   -1    0    0    0  501  0.00000000000E+00  0.00000000000E+00 -0.35634183339E+03  0.35634183343E+03  0.50400001928E-02 0. -1.
    10030    2    1    2    0    0  0.00000000000E+00  0.00000000000E+00  0.23404358064E+02  0.73608802492E+03  0.73571585306E+03 0.  0.
        2    1    3    3  502    0 -0.41735488537E+01  0.69008430648E+02 -0.34978361078E+03  0.35655035603E+03  0.25500000920E-02 0. -1.
       -2    1    3    3    0  502  0.41735488537E+01 -0.69008430648E+02  0.37318796884E+03  0.37953766889E+03  0.25500000920E-02 0.  1.
</event>
<event>
 5   0  0.4420645E-02  0.7022225E+03  0.7818609E-02  0.9713439E-01
        2   -1    0    0  501    0  0.00000000000E+00  0.00000000000E+00  0.65453856067E+03  0.65453856068E+03  0.25500000920E-02 0. -1.
       -2   -1    0    0    0  501  0.00000000000E+00  0.00000000000E+00 -0.18834507300E+03  0.18834507302E+03  0.25500000920E-02 0.  1.
    10030    2    1    2    0    0  0.00000000000E+00  0.00000000000E+00  0.46619348767E+03  0.84288363370E+03  0.70222250890E+03 0.  0.
        5    1    3    3  502    0 -0.12950393649E+03 -0.12236662596E+03 -0.13000830165E+03  0.22061076405E+03  0.46999998093E+01 0.  1.
       -5    1    3    3    0  502  0.12950393649E+03  0.12236662596E+03  0.59620178932E+03  0.62227286965E+03  0.46999998093E+01 0. -1.
</event>
<event>
 5   0  0.4365492E-02  0.7037888E+03  0.7818609E-02  0.9710775E-01
       -2   -1    0    0    0  501  0.00000000000E+00  0.00000000000E+00  0.94063599669E+02  0.94063599704E+02  0.25500000920E-02 0. -1.
        2   -1    0    0  501    0  0.00000000000E+00  0.00000000000E+00 -0.13164462204E+04  0.13164462204E+04  0.25500000920E-02 0.  1.
    10030    2    1    2    0    0  0.00000000000E+00  0.00000000000E+00 -0.12223826208E+04  0.14105098201E+04  0.70378880437E+03 0.  0.
        4    1    3    3  502    0 -0.82169371771E+02 -0.17903367452E+02  0.73623029034E+02  0.11177790268E+03  0.12699999809E+01 0. -1.
       -4    1    3    3    0  502  0.82169371771E+02  0.17903367452E+02 -0.12960056498E+04  0.12987319175E+04  0.12699999809E+01 0.  1.
</event>
<event>
 5   0  0.2758681E-02  0.7093034E+03  0.7818609E-02  0.9701453E-01
        1   -1    0    0  501    0  0.00000000000E+00  0.00000000000E+00  0.59040044056E+03  0.59040044059E+03  0.50400001928E-02 0. -1.
       -1   -1    0    0    0  501  0.00000000000E+00  0.00000000000E+00 -0.21303817179E+03  0.21303817185E+03  0.50400001928E-02 0.  1.
    10030    2    1    2    0    0  0.00000000000E+00  0.00000000000E+00  0.37736226877E+03  0.80343861244E+03  0.70930340621E+03 0.  0.
        3    1    3    3  502    0 -0.70530859324E+02 -0.32695382289E+03  0.55114793329E+02  0.33898533163E+03  0.10100000352E+00 0.  1.
       -3    1    3    3    0  502  0.70530859324E+02  0.32695382289E+03  0.32224747544E+03  0.46445328080E+03  0.10100000352E+00 0. -1.
</event>
<event>
 5   0  0.1784625E-02  0.7036865E+03  0.7818609E-02  0.9710948E-01
        4   -1    0    0  501    0  0.00000000000E+00  0.00000000000E+00  0.27311468268E+03  0.27311763545E+03  0.12699999809E+01 0. -1.
       -4   -1    0    0    0  501  0.00000000000E+00  0.00000000000E+00 -0.45326000393E+03  0.45326178315E+03  0.12699999809E+01 0.  1.
    10030    2    1    2    0    0  0.00000000000E+00  0.00000000000E+00 -0.18014532125E+03  0.72637941860E+03  0.70368652325E+03 0.  0.
        3    1    3    3  502    0 -0.23331959098E+03  0.16640767214E+03  0.12062777469E+03  0.31093506574E+03  0.10100000352E+00 0. -1.
       -3    1    3    3    0  502  0.23331959098E+03 -0.16640767214E+03 -0.30077309594E+03  0.41544435286E+03  0.10100000352E+00 0.  1.
</event>
<event>
 5   0  0.4365492E-02  0.7010348E+03  0.7818609E-02  0.9715464E-01
       -2   -1    0    0    0  501  0.00000000000E+00  0.00000000000E+00  0.18656897290E+03  0.18656897292E+03  0.25500000920E-02 0. -1.
        2   -1    0    0  501    0  0.00000000000E+00  0.00000000000E+00 -0.65853632290E+03  0.65853632291E+03  0.25500000920E-02 0.  1.
    10030    2    1    2    0    0  0.00000000000E+00  0.00000000000E+00 -0.47196735001E+03  0.84510529582E+03  0.70103479340E+03 0.  0.
        4    1    3    3  502    0  0.14903973476E+03  0.22475411870E+03  0.33936652523E+02  0.27180979690E+03  0.12699999809E+01 0. -1.
       -4    1    3    3    0  502 -0.14903973476E+03 -0.22475411870E+03 -0.50590400253E+03  0.57329549892E+03  0.12699999809E+01 0.  1.
</event>
<event>
 5   0  0.2684924E-02  0.6961484E+03  0.7818609E-02  0.9723842E-01
       -1   -1    0    0    0  501  0.00000000000E+00  0.00000000000E+00  0.54021015663E+03  0.54021015665E+03  0.50400001928E-02 0. -1.
        1   -1    0    0  501    0  0.00000000000E+00  0.00000000000E+00 -0.22427500636E+03  0.22427500641E+03  0.50400001928E-02 0.  1.
    10030    2    1    2    0    0  0.00000000000E+00  0.00000000000E+00  0.31593515027E+03  0.76448516306E+03  0.69614836448E+03 0.  0.
        4    1    3    3  502    0  0.17704213090E+03 -0.11711891231E+02 -0.17088250783E+03  0.24634027054E+03  0.12699999809E+01 0.  1.
       -4    1    3    3    0  502 -0.17704213090E+03  0.11711891231E+02  0.48681765810E+03  0.51814489252E+03  0.12699999809E+01 0. -1.
</event>
<event>
 5   0  0.4526837E-02  0.6982312E+03  0.7818609E-02  0.9720262E-01
       -2   -1    0    0    0  501  0.00000000000E+00  0.00000000000E+00  0.18795505777E+03  0.18795505779E+03  0.25500000920E-02 0.  1.
        2   -1    0    0  501    0  0.00000000000E+00  0.00000000000E+00 -0.64846192264E+03  0.64846192265E+03  0.25500000920E-02 0. -1.
    10030    2    1    2    0    0  0.00000000000E+00  0.00000000000E+00 -0.46050686487E+03  0.83641698044E+03  0.69823118849E+03 0.  0.
        1    1    3    3  502    0 -0.28808432417E+03  0.19549303517E+03 -0.19920949247E+03  0.40111659969E+03  0.50400001928E-02 0. -1.
       -1    1    3    3    0  502  0.28808432417E+03 -0.19549303517E+03 -0.26129737240E+03  0.43530038075E+03  0.50400001928E-02 0.  1.
</event>
<event>
 5   0  0.2684924E-02  0.6959276E+03  0.7818609E-02  0.9724222E-01
       -1   -1    0    0    0  501  0.00000000000E+00  0.00000000000E+00  0.24560810024E+03  0.24560810029E+03  0.50400001928E-02 0. -1.
        1   -1    0    0  501    0  0.00000000000E+00  0.00000000000E+00 -0.49297562725E+03  0.49297562727E+03  0.50400001928E-02 0.  1.
    10030    2    1    2    0    0  0.00000000000E+00  0.00000000000E+00 -0.24736752701E+03  0.73858372756E+03  0.69592760342E+03 0.  0.
        4    1    3    3  502    0  0.24915733265E+03 -0.24052523552E+03 -0.87765132793E+02  0.35726194419E+03  0.12699999809E+01 0. -1.
       -4    1    3    3    0  502 -0.24915733265E+03  0.24052523552E+03 -0.15960239421E+03  0.38132178337E+03  0.12699999809E+01 0.  1.
</event>
<event>
 5   0  0.2751729E-02  0.6958851E+03  0.7818609E-02  0.9724295E-01
        1   -1    0    0  501    0  0.00000000000E+00  0.00000000000E+00  0.21381659205E+03  0.21381659211E+03  0.50400001928E-02 0.  1.
       -1   -1    0    0    0  501  0.00000000000E+00  0.00000000000E+00 -0.56620504608E+03  0.56620504610E+03  0.50400001928E-02 0. -1.
    10030    2    1    2    0    0  0.00000000000E+00  0.00000000000E+00 -0.35238845403E+03  0.78002163821E+03  0.69588514393E+03 0.  0.
        1    1    3    3  502    0  0.24862482230E+03  0.53158093200E+02 -0.44245109651E+03  0.51029702915E+03  0.50400001928E-02 0. -1.
       -1    1    3    3    0  502 -0.24862482230E+03 -0.53158093200E+02  0.90062642477E+02  0.26972460906E+03  0.50400001928E-02 0.  1.
</event>
<event>
 5   0  0.4299912E-02  0.6990336E+03  0.7818609E-02  0.9718886E-01
       -2   -1    0    0    0  501  0.00000000000E+00  0.00000000000E+00  0.12587493240E+03  0.12587493243E+03  0.25500000920E-02 0.  1.
        2   -1    0    0  501    0  0.00000000000E+00  0.00000000000E+00 -0.97050290358E+03  0.97050290358E+03  0.25500000920E-02 0. -1.
    10030    2    1    2    0    0  0.00000000000E+00  0.00000000000E+00 -0.84462797118E+03  0.10963778360E+04  0.69903358260E+03 0.  0.
        3    1    3    3  502    0 -0.22615178354E+03  0.10513207356E+03 -0.80638334391E+03  0.84406841525E+03  0.10100000352E+00 0. -1.
       -3    1    3    3    0  502  0.22615178354E+03 -0.10513207356E+03 -0.38244627268E+02  0.25230942076E+03  0.10100000352E+00 0.  1.
</event>
<event>
 5   0  0.2777999E-02  0.6975751E+03  0.7818609E-02  0.9721388E-01
       -1   -1    0    0    0  501  0.00000000000E+00  0.00000000000E+00  0.17804508963E+03  0.17804508970E+03  0.50400001928E-02 0. -1.
        1   -1    0    0  501    0  0.00000000000E+00  0.00000000000E+00 -0.68326939308E+03  0.68326939310E+03  0.50400001928E-02 0.  1.
    10030    2    1    2    0    0  0.00000000000E+00  0.00000000000E+00 -0.50522430345E+03  0.86131448280E+03  0.69757511529E+03 0.  0.
        5    1    3    3  502    0  0.11459688744E+03 -0.13364315886E+02  0.15376036800E+03  0.19228986535E+03  0.46999998093E+01 0. -1.
       -5    1    3    3    0  502 -0.11459688744E+03  0.13364315886E+02 -0.65898467145E+03  0.66902461745E+03  0.46999998093E+01 0.  1.
</event>
<event>
 5   0  0.4299912E-02  0.7021968E+03  0.7818609E-02  0.9713483E-01
        2   -1    0    0  501    0  0.00000000000E+00  0.00000000000E+00  0.14218613477E+03  0.14218613479E+03  0.25500000920E-02 0. -1.
       -2   -1    0    0    0  501  0.00000000000E+00  0.00000000000E+00 -0.86696273208E+03  0.86696273208E+03  0.25500000920E-02 0.  1.
    10030    2    1    2    0    0  0.00000000000E+00  0.00000000000E+00 -0.72477659731E+03  0.10091488669E+04  0.70219678119E+03 0.  0.
        3    1    3    3  502    0 -0.67542663315E+02 -0.12123681059E+03 -0.82587076786E+03  0.83745024390E+03  0.10100000352E+00 0.  1.
       -3    1    3    3    0  502  0.67542663315E+02  0.12123681059E+03  0.10109417055E+03  0.17169862297E+03  0.10100000352E+00 0. -1.
</event>
<event>
 5   0  0.4365492E-02  0.6908148E+03  0.7818609E-02  0.9733070E-01
       -2   -1    0    0    0  501  0.00000000000E+00  0.00000000000E+00  0.86110915320E+03  0.86110915320E+03  0.25500000920E-02 0.  1.
        2   -1    0    0  501    0  0.00000000000E+00  0.00000000000E+00 -0.13854951541E+03  0.13854951544E+03  0.25500000920E-02 0. -1.
    10030    2    1    2    0    0  0.00000000000E+00  0.00000000000E+00  0.72255963779E+03  0.99965866864E+03  0.69081475348E+03 0.  0.
        4    1    3    3  502    0 -0.37981391347E+02  0.12029523962E+03  0.82657840834E+03  0.83615011140E+03  0.12699999809E+01 0.  1.
       -4    1    3    3    0  502  0.37981391347E+02 -0.12029523962E+03 -0.10401877055E+03  0.16350855724E+03  0.12699999809E+01 0. -1.
</event>
<event>
 5   0  0.4299912E-02  0.7123291E+03  0.7818609E-02  0.9696377E-01
       -2   -1    0    0    0  501  0.00000000000E+00  0.00000000000E+00  0.17508802110E+03  0.17508802112E+03  0.25500000920E-02 0. -1.
        2   -1    0    0  501    0  0.00000000000E+00  0.00000000000E+00 -0.72451094803E+03  0.72451094803E+03  0.25500000920E-02 0.  1.
    10030    2    1    2    0    0  0.00000000000E+00  0.00000000000E+00 -0.54942292692E+03  0.89959896916E+03  0.71232910419E+03 0.  0.
        3    1    3    3  502    0  0.31128462289E+03 -0.12094516804E+03 -0.43106275877E+03  0.54528979664E+03  0.10100000352E+00 0.  1.
       -3    1    3    3    0  502 -0.31128462289E+03  0.12094516804E+03 -0.11836016815E+03  0.35430917251E+03  0.10100000352E+00 0. -1.
</event>
<event>
 5   0  0.4526837E-02  0.7009846E+03  0.7818609E-02  0.9715550E-01
       -2   -1    0    0    0  501  0.00000000000E+00  0.00000000000E+00  0.31578028355E+03  0.31578028356E+03  0.25500000920E-02 0.  1.
        2   -1    0    0  501    0  0.00000000000E+00  0.00000000000E+00 -0.38902002281E+03  0.38902002282E+03  0.25500000920E-02 0. -1.
    10030    2    1    2    0    0  0.00000000000E+00  0.00000000000E+00 -0.73239739264E+02  0.70480030637E+03  0.70098460215E+03 0.  0.
        1    1    3    3  502    0 -0.20539843699E+03  0.20343778470E+03  0.16262390230E+03  0.33169561919E+03  0.50400001928E-02 0.  1.
       -1    1    3    3    0  502  0.20539843699E+03 -0.20343778470E+03 -0.23586364157E+03  0.37310468719E+03  0.50400001928E-02 0. -1.
</event>
<event>
 5   0  0.1784625E-02  0.6882852E+03  0.7818609E-02  0.9737478E-01
        4   -1    0    0  501    0  0.00000000000E+00  0.00000000000E+00  0.14101023089E+04  0.14101028808E+04  0.12699999809E+01 0. -1.
       -4   -1    0    0    0  501  0.00000000000E+00  0.00000000000E+00 -0.83984357412E+02  0.83993959246E+02  0.12699999809E+01 0.  1.
    10030    2    1    2    0    0  0.00000000000E+00  0.00000000000E+00  0.13261179515E+04  0.14940968400E+04  0.68828522155E+03 0.  0.
        3    1    3    3  502    0 -0.80446419011E+01  0.24891022043E+03  0.11786440453E+04  0.12046670950E+04  0.10100000352E+00 0. -1.
       -3    1    3    3    0  502  0.80446419011E+01 -0.24891022043E+03  0.14747390615E+03  0.28942974500E+03  0.10100000352E+00 0.  1.
</event>
<event>
 5   0  0.2684924E-02  0.7112910E+03  0.7818609E-02  0.9698116E-01
       -1   -1    0    0    0  501  0.00000000000E+00  0.00000000000E+00  0.62062496895E+03  0.62062496897E+03  0.50400001928E-02 0. -1.
        1   -1    0    0  501    0  0.00000000000E+00  0.00000000000E+00 -0.20380057352E+03  0.20380057358E+03  0.50400001928E-02 0.  1.
    10030    2    1    2    0    0  0.00000000000E+00  0.00000000000E+00  0.41682439543E+03  0.82442554256E+03  0.71129100837E+03 0.  0.
        4    1    3    3  502    0 -0.32587692169E+02  0.34879679940E+03  0.27949306446E+03  0.44815081271E+03  0.12699999809E+01 0.  1.
       -4    1    3    3    0  502  0.32587692169E+02 -0.34879679940E+03  0.13733133098E+03  0.37627472985E+03  0.12699999809E+01 0. -1.
</event>
<event>
 5   0  0.4420645E-02  0.7084403E+03  0.7818609E-02  0.9702906E-01
       -2   -1    0    0    0  501  0.00000000000E+00  0.00000000000E+00  0.11238471292E+03  0.11238471295E+03  0.25500000920E-02 0.  1.
        2   -1    0    0  501    0  0.00000000000E+00  0.00000000000E+00 -0.11164499187E+04  0.11164499187E+04  0.25500000920E-02 0. -1.
    10030    2    1    2    0    0  0.00000000000E+00  0.00000000000E+00 -0.10040652058E+04  0.12288346317E+04  0.70844026884E+03 0.  0.
        5    1    3    3  502    0  0.47783287488E+02 -0.32600464409E+03 -0.27662246828E+03  0.43023755123E+03  0.46999998093E+01 0.  1.
       -5    1    3    3    0  502 -0.47783287488E+02  0.32600464409E+03 -0.72744273752E+03  0.79859708045E+03  0.46999998093E+01 0. -1.
</event>
<event>
 5   0  0.2751729E-02  0.7015301E+03  0.7818609E-02  0.9714619E-01
        1   -1    0    0  501    0  0.00000000000E+00  0.00000000000E+00  0.71831110909E+03  0.71831110911E+03  0.50400001928E-02 0.  1.
       -1   -1    0    0    0  501  0.00000000000E+00  0.00000000000E+00 -0.17128530115E+03  0.17128530122E+03  0.50400001928E-02 0. -1.
    10030    2    1    2    0    0  0.00000000000E+00  0.00000000000E+00  0.54702580794E+03  0.88959641033E+03  0.70153014099E+03 0.  0.
        1    1    3    3  502    0  0.27979919955E+03  0.87505546659E+02  0.29291995517E+02  0.29462320647E+03  0.50400001928E-02 0.  1.
       -1    1    3    3    0  502 -0.27979919955E+03 -0.87505546659E+02  0.51773381242E+03  0.59497320386E+03  0.50400001928E-02 0. -1.
</event>
<event>
 5   0  0.1784625E-02  0.6872279E+03  0.7818609E-02  0.9739327E-01
        3   -1    0    0  501    0  0.00000000000E+00  0.00000000000E+00  0.43069607998E+03  0.43069609182E+03  0.10100000352E+00 0.  1.
       -3   -1    0    0    0  501  0.00000000000E+00  0.00000000000E+00 -0.27413887482E+03  0.27413889343E+03  0.10100000352E+00 0. -1.
    10030    2    1    2    0    0  0.00000000000E+00  0.00000000000E+00  0.15655720516E+03  0.70483498525E+03  0.68722790830E+03 0.  0.
        5    1    3    3  502    0 -0.28790277193E+03 -0.18282012241E+03  0.35530326529E+02  0.34292229054E+03  0.46999998093E+01 0. -1.
       -5    1    3    3    0  502  0.28790277193E+03  0.18282012241E+03  0.12102687863E+03  0.36191269471E+03  0.46999998093E+01 0.  1.
</event>
<event>
 5   0  0.2684924E-02  0.7014596E+03  0.7818609E-02  0.9714739E-01
        1   -1    0    0  501    0  0.00000000000E+00  0.00000000000E+00  0.14522296254E+04  0.14522296254E+04  0.50400001928E-02 0.  1.
       -1   -1    0    0    0  501  0.00000000000E+00  0.00000000000E+00 -0.84705183296E+02  0.84705183446E+02  0.50400001928E-02 0. -1.
    10030    2    1    2    0    0  0.00000000000E+00  0.00000000000E+00  0.13675244421E+04  0.15369348089E+04  0.70145955473E+03 0.  0.
        4    1    3    3  502    0  0.30142108394E+03  0.12092220489E+03  0.97388368965E+03  0.10266099081E+04  0.12699999809E+01 0. -1.
       -4    1    3    3    0  502 -0.30142108394E+03 -0.12092220489E+03  0.39364075248E+03  0.51032490081E+03  0.12699999809E+01 0.  1.
</event>
<event>
 5   0  0.2777999E-02  0.6981125E+03  0.7818609E-02  0.9720466E-01
        1   -1    0    0  501    0  0.00000000000E+00  0.00000000000E+00  0.57134788785E+03  0.57134788787E+03  0.50400001928E-02 0.  1.
       -1   -1    0    0    0  501  0.00000000000E+00  0.00000000000E+00 -0.21325058233E+03  0.21325058239E+03  0.50400001928E-02 0. -1.
    10030    2    1    2    0    0  0.00000000000E+00  0.00000000000E+00  0.35809730552E+03  0.78459847026E+03  0.69811251193E+03 0.  0.
        5    1    3    3  502    0 -0.51631714660E+02  0.27642561044E+03  0.41140018030E+03  0.49834641608E+03  0.46999998093E+01 0.  1.
       -5    1    3    3    0  502  0.51631714660E+02 -0.27642561044E+03 -0.53302874777E+02  0.28625205418E+03  0.46999998093E+01 0. -1.
</event>
<event>
 5   0  0.4365492E-02  0.6990547E+03  0.7818609E-02  0.9718850E-01
       -2   -1    0    0    0  501  0.00000000000E+00  0.00000000000E+00  0.20061888616E+03  0.20061888618E+03  0.25500000920E-02 0.  1.
        2   -1    0    0  501    0  0.00000000000E+00  0.00000000000E+00 -0.60896244215E+03  0.60896244215E+03  0.25500000920E-02 0. -1.
    10030    2    1    2    0    0  0.00000000000E+00  0.00000000000E+00 -0.40834355599E+03  0.80958132833E+03  0.69905469562E+03 0.  0.
        4    1    3    3  502    0  0.14916278111E+03 -0.25925995638E+02 -0.56901473462E+03  0.58881327570E+03  0.12699999809E+01 0. -1.
       -4    1    3    3    0  502 -0.14916278111E+03  0.25925995638E+02  0.16067117864E+03  0.22076805263E+03  0.12699999809E+01 0.  1.
</event>
<event>
 5   0  0.2751729E-02  0.7058530E+03  0.7818609E-02  0.9707275E-01
       -1   -1    0    0    0  501  0.00000000000E+00  0.00000000000E+00  0.23619596769E+03  0.23619596774E+03  0.50400001928E-02 0. -1.
        1   -1    0    0  501    0  0.00000000000E+00  0.00000000000E+00 -0.52734652719E+03  0.52734652722E+03  0.50400001928E-02 0.  1.
    10030    2    1    2    0    0  0.00000000000E+00  0.00000000000E+00 -0.29115055951E+03  0.76354249496E+03  0.70585302529E+03 0.  0.
        1    1    3    3  502    0 -0.67001947335E+02  0.26722546526E+03 -0.38419036853E+03  0.47275887039E+03  0.50400001928E-02 0.  1.
       -1    1    3    3    0  502  0.67001947335E+02 -0.26722546526E+03  0.93039809025E+02  0.29078362457E+03  0.50400001928E-02 0. -1.
</event>
<event>
 5   0  0.4503289E-02  0.6989161E+03  0.7818609E-02  0.9719088E-01
        2   -1    0    0  501    0  0.00000000000E+00  0.00000000000E+00  0.60953493313E+03  0.60953493314E+03  0.25500000920E-02 0.  1.
       -2   -1    0    0    0  501  0.00000000000E+00  0.00000000000E+00 -0.20035099673E+03  0.20035099675E+03  0.25500000920E-02 0. -1.
    10030    2    1    2    0    0  0.00000000000E+00  0.00000000000E+00  0.40918393640E+03  0.80988592988E+03  0.69891610771E+03 0.  0.
        2    1    3    3  502    0 -0.85734837996E+02 -0.24853582477E+03  0.47136285368E+03  0.53972535467E+03  0.25500000920E-02 0.  1.
       -2    1    3    3    0  502  0.85734837996E+02  0.24853582477E+03 -0.62178917272E+02  0.27016057522E+03  0.25500000920E-02 0. -1.
</event>
<event>
 5   0  0.4420645E-02  0.7095159E+03  0.7818609E-02  0.9701096E-01
        2   -1    0    0  501    0  0.00000000000E+00  0.00000000000E+00  0.16213395956E+04  0.16213395956E+04  0.25500000920E-02 0. -1.
       -2   -1    0    0    0  501  0.00000000000E+00  0.00000000000E+00 -0.77622966230E+02  0.77622966272E+02  0.25500000920E-02 0.  1.
    10030    2    1    2    0    0  0.00000000000E+00  0.00000000000E+00  0.15437166294E+04  0.16989625619E+04  0.70951585948E+03 0.  0.
        5    1    3    3  502    0  0.19355060085E+03 -0.27990714387E+03  0.53215019467E+03  0.63167694589E+03  0.46999998093E+01 0.  1.
       -5    1    3    3    0  502 -0.19355060085E+03  0.27990714387E+03  0.10115664347E+04  0.10672856160E+04  0.46999998093E+01 0. -1.
</event>
<event>
 5   0  0.2758681E-02  0.7308895E+03  0.7818609E-02  0.9665818E-01
        1   -1    0    0  501    0  0.00000000000E+00  0.00000000000E+00  0.13675150332E+04  0.13675150332E+04  0.50400001928E-02 0. -1.
       -1   -1    0    0    0  501  0.00000000000E+00  0.00000000000E+00 -0.97658801688E+02  0.97658801818E+02  0.50400001928E-02 0.  1.
    10030    2    1    2    0    0  0.00000000000E+00  0.00000000000E+00  0.12698562315E+04  0.14651738350E+04  0.73088953894E+03 0.  0.
        3    1    3    3  502    0  0.10357428513E+03 -0.11608000325E+03  0.12978191948E+04  0.13071101225E+04  0.10100000352E+00 0. -1.
       -3    1    3    3    0  502 -0.10357428513E+03  0.11608000325E+03 -0.27962963328E+02  0.15806371251E+03  0.10100000352E+00 0.  1.
</event>
<event>
 5   0  0.1784625E-02  0.6740786E+03  0.7818609E-02  0.9762618E-01
       -3   -1    0    0    0  501  0.00000000000E+00  0.00000000000E+00  0.60510505242E+03  0.60510506085E+03  0.10100000352E+00 0.  1.
        3   -1    0    0  501    0  0.00000000000E+00  0.00000000000E+00 -0.18772854012E+03  0.18772856729E+03  0.10100000352E+00 0. -1.
    10030    2    1    2    0    0  0.00000000000E+00  0.00000000000E+00  0.41737651231E+03  0.79283362814E+03  0.67407863702E+03 0.  0.
        4    1    3    3  502    0 -0.56478462747E+02 -0.26261839078E+03 -0.30730733993E+02  0.27037793335E+03  0.12699999809E+01 0. -1.
       -4    1    3    3    0  502  0.56478462747E+02  0.26261839078E+03  0.44810724630E+03  0.52245569479E+03  0.12699999809E+01 0.  1.
</event>
<event>
 5   0  0.2777999E-02  0.7035849E+03  0.7818609E-02  0.9711121E-01
        1   -1    0    0  501    0  0.00000000000E+00  0.00000000000E+00  0.15267180181E+03  0.15267180189E+03  0.50400001928E-02 0.  1.
       -1   -1    0    0    0  501  0.00000000000E+00  0.00000000000E+00 -0.81061414608E+03  0.81061414609E+03  0.50400001928E-02 0. -1.
    10030    2    1    2    0    0  0.00000000000E+00  0.00000000000E+00 -0.65794234427E+03  0.96328594799E+03  0.70358488415E+03 0.  0.
        5    1    3    3  502    0  0.77670826905E+02 -0.27671023529E+02 -0.79715393652E+03  0.80142057086E+03  0.46999998093E+01 0. -1.
       -5    1    3    3    0  502 -0.77670826905E+02  0.27671023529E+02  0.13921159225E+03  0.16186537712E+03  0.46999998093E+01 0.  1.
</event>
<event>
 5   0  0.4503289E-02  0.6487320E+03  0.7818609E-02  0.9809161E-01
       -2   -1    0    0    0  501  0.00000000000E+00  0.00000000000E+00  0.21012047713E+03  0.21012047715E+03  0.25500000920E-02 0.  1.
        2   -1    0    0  501    0  0.00000000000E+00  0.00000000000E+00 -0.50072840845E+03  0.50072840846E+03  0.25500000920E-02 0. -1.
    10030    2    1    2    0    0  0.00000000000E+00  0.00000000000E+00 -0.29060793132E+03  0.71084888561E+03  0.64873196964E+03 0.  0.
        2    1    3    3  502    0 -0.28077284066E+03 -0.15825894603E+03 -0.10528263385E+03  0.33906299570E+03  0.25500000920E-02 0. -1.
       -2    1    3    3    0  502  0.28077284066E+03  0.15825894603E+03 -0.18532529746E+03  0.37178588991E+03  0.25500000920E-02 0.  1.
</event>
<event>
 5   0  0.2684924E-02  0.7242254E+03  0.7818609E-02  0.9676678E-01
        1   -1    0    0  501    0  0.00000000000E+00  0.00000000000E+00  0.59555360233E+03  0.59555360236E+03  0.50400001928E-02 0.  1.
       -1   -1    0    0    0  501  0.00000000000E+00  0.00000000000E+00 -0.22017429462E+03  0.22017429468E+03  0.50400001928E-02 0. -1.
    10030    2    1    2    0    0  0.00000000000E+00  0.00000000000E+00  0.37537930771E+03  0.81572789703E+03  0.72422536364E+03 0.  0.
        4    1    3    3  502    0  0.88215698511E+02  0.23398031951E+03  0.48268719156E+03  0.54361506342E+03  0.12699999809E+01 0.  1.
       -4    1    3    3    0  502 -0.88215698511E+02 -0.23398031951E+03 -0.10730788384E+03  0.27211283361E+03  0.12699999809E+01 0. -1.
</event>
<event>
 5   0  0.4299912E-02  0.6804780E+03  0.7818609E-02  0.9751212E-01
       -2   -1    0    0    0  501  0.00000000000E+00  0.00000000000E+00  0.10396575936E+03  0.10396575940E+03  0.25500000920E-02 0. -1.
        2   -1    0    0  501    0  0.00000000000E+00  0.00000000000E+00 -0.11134681452E+04  0.11134681452E+04  0.25500000920E-02 0.  1.
    10030    2    1    2    0    0  0.00000000000E+00  0.00000000000E+00 -0.10095023858E+04  0.12174339046E+04  0.68047795338E+03 0.  0.
        3    1    3    3  502    0 -0.12420918003E+03 -0.23637534248E+02 -0.10698757178E+04  0.10773210827E+04  0.10100000352E+00 0.  1.
       -3    1    3    3    0  502  0.12420918003E+03  0.23637534248E+02  0.60373332028E+02  0.14011282186E+03  0.10100000352E+00 0. -1.
</event>
<event>
 5   0  0.4420645E-02  0.7052277E+03  0.7818609E-02  0.9708334E-01
        2   -1    0    0  501    0  0.00000000000E+00  0.00000000000E+00  0.34744043930E+03  0.34744043931E+03  0.25500000920E-02 0.  1.
       -2   -1    0    0    0  501  0.00000000000E+00  0.00000000000E+00 -0.35786425786E+03  0.35786425787E+03  0.25500000920E-02 0. -1.
    10030    2    1    2    0    0  0.00000000000E+00  0.00000000000E+00 -0.10423818565E+02  0.70530469718E+03  0.70522766527E+03 0.  0.
        5    1    3    3  502    0  0.19104518421E+03  0.37295897834E+02 -0.29922561647E+03  0.35699762738E+03  0.46999998093E+01 0. -1.
       -5    1    3    3    0  502 -0.19104518421E+03 -0.37295897834E+02  0.28880179790E+03  0.34830706980E+03  0.46999998093E+01 0.  1.
</event>
<event>
 5   0  0.4526837E-02  0.7123334E+03  0.7818609E-02  0.9696370E-01
       -2   -1    0    0    0  501  0.00000000000E+00  0.00000000000E+00  0.41308761884E+03  0.41308761885E+03  0.25500000920E-02 0. -1.
        2   -1    0    0  501    0  0.00000000000E+00  0.00000000000E+00 -0.30708909649E+03  0.30708909650E+03  0.25500000920E-02 0.  1.
    10030    2    1    2    0    0  0.00000000000E+00  0.00000000000E+00  0.10599852236E+03  0.72017671535E+03  0.71233335917E+03 0.  0.
        1    1    3    3  502    0  0.22376102806E+03 -0.24423530056E+03  0.18534062786E+03  0.37956689539E+03  0.50400001928E-02 0. -1.
       -1    1    3    3    0  502 -0.22376102806E+03  0.24423530056E+03 -0.79342105502E+02  0.34060981995E+03  0.50400001928E-02 0.  1.
</event>
<event>
 5   0  0.2684924E-02  0.6920103E+03  0.7818609E-02  0.9730994E-01
        1   -1    0    0  501    0  0.00000000000E+00  0.00000000000E+00  0.27703669854E+03  0.27703669859E+03  0.50400001928E-02 0. -1.
       -1   -1    0    0    0  501  0.00000000000E+00  0.00000000000E+00 -0.43214331789E+03  0.43214331792E+03  0.50400001928E-02 0.  1.
    10030    2    1    2    0    0  0.00000000000E+00  0.00000000000E+00 -0.15510661935E+03  0.70918001651E+03  0.69201028349E+03 0.  0.
        4    1    3    3  502    0 -0.74109723537E+02 -0.33444736509E+03 -0.27655896149E+02  0.34367681422E+03  0.12699999809E+01 0. -1.
       -4    1    3    3    0  502  0.74109723537E+02  0.33444736509E+03 -0.12745072320E+03  0.36550320229E+03  0.12699999809E+01 0.  1.
</event>
<event>
 5   0  0.4526837E-02  0.7024435E+03  0.7818609E-02  0.9713063E-01
       -2   -1    0    0    0  501  0.00000000000E+00  0.00000000000E+00  0.95050912286E+02  0.95050912320E+02  0.25500000920E-02 0. -1.
        2   -1    0    0  501    0  0.00000000000E+00  0.00000000000E+00 -0.12977961140E+04  0.12977961140E+04  0.25500000920E-02 0.  1.
    10030    2    1    2    0    0  0.00000000000E+00  0.00000000000E+00 -0.12027452017E+04  0.13928470263E+04  0.70244346283E+03 0.  0.
        1    1    3    3  502    0 -0.18556670521E+02  0.10041532008E+03  0.64966064145E+02  0.12102964944E+03  0.50400001928E-02 0. -1.
       -1    1    3    3    0  502  0.18556670521E+02 -0.10041532008E+03 -0.12677112658E+04  0.12718173768E+04  0.50400001928E-02 0.  1.
</event>
<event>
 5   0  0.2684924E-02  0.6913169E+03  0.7818609E-02  0.9732198E-01
       -1   -1    0    0    0  501  0.00000000000E+00  0.00000000000E+00  0.14522517098E+04  0.14522517098E+04  0.50400001928E-02 0. -1.
        1   -1    0    0  501    0  0.00000000000E+00  0.00000000000E+00 -0.82272087585E+02  0.82272087739E+02  0.50400001928E-02 0.  1.
    10030    2    1    2    0    0  0.00000000000E+00  0.00000000000E+00  0.13699796223E+04  0.15345237976E+04  0.69131694610E+03 0.  0.
        4    1    3    3  502    0  0.71300435814E+02  0.30295195822E+03  0.10187927603E+04  0.10652717693E+04  0.12699999809E+01 0. -1.
       -4    1    3    3    0  502 -0.71300435814E+02 -0.30295195822E+03  0.35118686196E+03  0.46925202828E+03  0.12699999809E+01 0.  1.
</event>
<event>
 5   0  0.4365492E-02  0.6936755E+03  0.7818609E-02  0.9728109E-01
       -2   -1    0    0    0  501  0.00000000000E+00  0.00000000000E+00  0.68195005781E+03  0.68195005782E+03  0.25500000920E-02 0.  1.
        2   -1    0    0  501    0  0.00000000000E+00  0.00000000000E+00 -0.17640065015E+03  0.17640065017E+03  0.25500000920E-02 0. -1.
    10030    2    1    2    0    0  0.00000000000E+00  0.00000000000E+00  0.50554940766E+03  0.85835070799E+03  0.69367552524E+03 0.  0.
        4    1    3    3  502    0 -0.18723414526E+03 -0.29043508942E+03  0.21594989239E+03  0.40748636203E+03  0.12699999809E+01 0.  1.
       -4    1    3    3    0  502  0.18723414526E+03  0.29043508942E+03  0.28959951527E+03  0.45086434596E+03  0.12699999809E+01 0. -1.
</event>
<event>
 5   0  0.2751729E-02  0.6986292E+03  0.7818609E-02  0.9719579E-01
        1   -1    0    0  501    0  0.00000000000E+00  0.00000000000E+00  0.12103496940E+03  0.12103496950E+03  0.50400001928E-02 0.  1.
       -1   -1    0    0    0  501  0.00000000000E+00  0.00000000000E+00 -0.10081440906E+04  0.10081440906E+04  0.50400001928E-02 0. -1.
    10030    2    1    2    0    0  0.00000000000E+00  0.00000000000E+00 -0.88710912117E+03  0.11291790601E+04  0.69862919841E+03 0.  0.
        1    1    3    3  502    0 -0.33294955109E+03  0.73857609324E+02 -0.56569150061E+03  0.66054312798E+03  0.50400001928E-02 0. -1.
       -1    1    3    3    0  502  0.33294955109E+03 -0.73857609324E+02 -0.32141762056E+03  0.46863593211E+03  0.50400001928E-02 0.  1.
</event>
<event>
 5   0  0.4420645E-02  0.6730576E+03  0.7818609E-02  0.9764450E-01
        2   -1    0    0  501    0  0.00000000000E+00  0.00000000000E+00  0.10628202376E+04  0.10628202376E+04  0.25500000920E-02 0. -1.
       -2   -1    0    0    0  501  0.00000000000E+00  0.00000000000E+00 -0.10655764374E+03  0.10655764377E+03  0.25500000920E-02 0.  1.
    10030    2    1    2    0    0  0.00000000000E+00  0.00000000000E+00  0.95626259389E+03  0.11693778814E+04  0.67305756145E+03 0.  0.
        5    1    3    3  502    0  0.29356916058E+03  0.50877803606E+01  0.76372702708E+03  0.81823578475E+03  0.46999998093E+01 0. -1.
       -5    1    3    3    0  502 -0.29356916058E+03 -0.50877803606E+01  0.19253556681E+03  0.35114209665E+03  0.46999998093E+01 0.  1.
</event>
<event>
 5   0  0.4420645E-02  0.7068841E+03  0.7818609E-02  0.9705531E-01
       -2   -1    0    0    0  501  0.00000000000E+00  0.00000000000E+00  0.88224157699E+02  0.88224157736E+02  0.25500000920E-02 0.  1.
        2   -1    0    0  501    0  0.00000000000E+00  0.00000000000E+00 -0.14159533476E+04  0.14159533476E+04  0.25500000920E-02 0. -1.
    10030    2    1    2    0    0  0.00000000000E+00  0.00000000000E+00 -0.13277291899E+04  0.15041775053E+04  0.70688412477E+03 0.  0.
        5    1    3    3  502    0  0.33587154177E+03 -0.38846996273E+02 -0.88274269519E+03  0.94529124485E+03  0.46999998093E+01 0. -1.
       -5    1    3    3    0  502 -0.33587154177E+03  0.38846996273E+02 -0.44498649472E+03  0.55888626050E+03  0.46999998093E+01 0.  1.
</event>
<event>
 5   0  0.4503289E-02  0.6889008E+03  0.7818609E-02  0.9736404E-01
       -2   -1    0    0    0  501  0.00000000000E+00  0.00000000000E+00  0.11102696322E+03  0.11102696325E+03  0.25500000920E-02 0. -1.
        2   -1    0    0  501    0  0.00000000000E+00  0.00000000000E+00 -0.10686241053E+04  0.10686241053E+04  0.25500000920E-02 0.  1.
    10030    2    1    2    0    0  0.00000000000E+00  0.00000000000E+00 -0.95759714212E+03  0.11796510686E+04  0.68890083252E+03 0.  0.
        2    1    3    3  502    0  0.30322921933E+03 -0.14599678695E+03 -0.35316323989E+03  0.48783941545E+03  0.25500000920E-02 0. -1.
       -2    1    3    3    0  502 -0.30322921933E+03  0.14599678695E+03 -0.60443390223E+03  0.69181165315E+03  0.25500000920E-02 0.  1.
</event>
<event>
 5   0  0.4503289E-02  0.7134404E+03  0.7818609E-02  0.9694519E-01
       -2   -1    0    0    0  501  0.00000000000E+00  0.00000000000E+00  0.93274063775E+02  0.93274063810E+02  0.25500000920E-02 0. -1.
        2   -1    0    0  501    0  0.00000000000E+00  0.00000000000E+00 -0.13642518060E+04  0.13642518060E+04  0.25500000920E-02 0.  1.
    10030    2    1    2    0    0  0.00000000000E+00  0.00000000000E+00 -0.12709777422E+04  0.14575258698E+04  0.71344042494E+03 0.  0.
        2    1    3    3  502    0  0.34801261148E+02  0.35500863450E+03 -0.64091391496E+03  0.73349362965E+03  0.25500000920E-02 0.  1.
       -2    1    3    3    0  502 -0.34801261148E+02 -0.35500863450E+03 -0.63006382726E+03  0.72403224015E+03  0.25500000920E-02 0. -1.
</event>
<event>
 5   0  0.4526837E-02  0.6829967E+03  0.7818609E-02  0.9746760E-01
       -2   -1    0    0    0  501  0.00000000000E+00  0.00000000000E+00  0.18716322482E+03  0.18716322483E+03  0.25500000920E-02 0.  1.
        2   -1    0    0  501    0  0.00000000000E+00  0.00000000000E+00 -0.62309841912E+03  0.62309841913E+03  0.25500000920E-02 0. -1.
    10030    2    1    2    0    0  0.00000000000E+00  0.00000000000E+00 -0.43593519431E+03  0.81026164396E+03  0.68299666035E+03 0.  0.
        1    1    3    3  502    0 -0.12939672851E+03  0.16100362579E+03  0.10465273198E+03  0.23155533940E+03  0.50400001928E-02 0.  1.
       -1    1    3    3    0  502  0.12939672851E+03 -0.16100362579E+03 -0.54058792629E+03  0.57870630456E+03  0.50400001928E-02 0. -1.
</event>
<event>
 5   0  0.2758681E-02  0.7014470E+03  0.7818609E-02  0.9714761E-01
        1   -1    0    0  501    0  0.00000000000E+00  0.00000000000E+00  0.17002040514E+03  0.17002040521E+03  0.50400001928E-02 0.  1.
       -1   -1    0    0    0  501  0.00000000000E+00  0.00000000000E+00 -0.72348351812E+03  0.72348351814E+03  0.50400001928E-02 0. -1.
    10030    2    1    2    0    0  0.00000000000E+00  0.00000000000E+00 -0.55346311299E+03  0.89350392335E+03  0.70144696422E+03 0.  0.
        3    1    3    3  502    0  0.26018020085E+03  0.11150548178E+03 -0.12960157847E+02  0.28336405078E+03  0.10100000352E+00 0.  1.
       -3    1    3    3    0  502 -0.26018020085E+03 -0.11150548178E+03 -0.54050295514E+03  0.61013987257E+03  0.10100000352E+00 0. -1.
</event>
<event>
 5   0  0.2758681E-02  0.6947707E+03  0.7818609E-02  0.9726217E-01
        1   -1    0    0  501    0  0.00000000000E+00  0.00000000000E+00  0.40000557441E+03  0.40000557444E+03  0.50400001928E-02 0.  1.
       -1   -1    0    0    0  501  0.00000000000E+00  0.00000000000E+00 -0.30168722310E+03  0.30168722314E+03  0.50400001928E-02 0. -1.
    10030    2    1    2    0    0  0.00000000000E+00  0.00000000000E+00  0.98318351314E+02  0.70169279758E+03  0.69477067006E+03 0.  0.
        3    1    3    3  502    0 -0.38318841074E+02  0.93099244667E+02  0.38494840470E+03  0.39789582484E+03  0.10100000352E+00 0.  1.
       -3    1    3    3    0  502  0.38318841074E+02 -0.93099244667E+02 -0.28663005339E+03  0.30379697274E+03  0.10100000352E+00 0. -1.
</event>
<event>
 5   0  0.1784625E-02  0.6851736E+03  0.7818609E-02  0.9742929E-01
       -3   -1    0    0    0  501  0.00000000000E+00  0.00000000000E+00  0.41504267531E+03  0.41504268760E+03  0.10100000352E+00 0.  1.
        3   -1    0    0  501    0  0.00000000000E+00  0.00000000000E+00 -0.28277981613E+03  0.28277983417E+03  0.10100000352E+00 0. -1.
    10030    2    1    2    0    0  0.00000000000E+00  0.00000000000E+00  0.13226285918E+03  0.69782252176E+03  0.68517356047E+03 0.  0.
        2    1    3    3  502    0  0.86968037110E+01 -0.57676005076E+02  0.40994844255E+03  0.41407714440E+03  0.25500000920E-02 0.  1.
       -2    1    3    3    0  502 -0.86968037110E+01  0.57676005076E+02 -0.27768558337E+03  0.28374537736E+03  0.25500000920E-02 0. -1.
</event>
<event>
 5   0  0.4299912E-02  0.8172959E+03  0.7818609E-02  0.9535314E-01
       -2   -1    0    0    0  501  0.00000000000E+00  0.00000000000E+00  0.73701479875E+02  0.73701479919E+02  0.25500000920E-02 0. -1.
        2   -1    0    0  501    0  0.00000000000E+00  0.00000000000E+00 -0.22658046761E+04  0.22658046761E+04  0.25500000920E-02 0.  1.
    10030    2    1    2    0    0  0.00000000000E+00  0.00000000000E+00 -0.21921031962E+04  0.23395061560E+04  0.81729592630E+03 0.  0.
        3    1    3    3  502    0 -0.11872660411E+03 -0.27392460827E+02  0.20493478788E+02  0.12355705689E+03  0.10100000352E+00 0. -1.
       -3    1    3    3    0  502  0.11872660411E+03  0.27392460827E+02 -0.22125966750E+04  0.22159490991E+04  0.10100000352E+00 0.  1.
</event>
<event>
 5   0  0.2684924E-02  0.7021733E+03  0.7818609E-02  0.9713523E-01
       -1   -1    0    0    0  501  0.00000000000E+00  0.00000000000E+00  0.17965379180E+03  0.17965379187E+03  0.50400001928E-02 0.  1.
        1   -1    0    0  501    0  0.00000000000E+00  0.00000000000E+00 -0.68610763048E+03  0.68610763050E+03  0.50400001928E-02 0. -1.
    10030    2    1    2    0    0  0.00000000000E+00  0.00000000000E+00 -0.50645383868E+03  0.86576142237E+03  0.70217330464E+03 0.  0.
        4    1    3    3  502    0 -0.17068635379E+03 -0.29393844409E+03 -0.14484728335E+03  0.36948070136E+03  0.12699999809E+01 0.  1.
       -4    1    3    3    0  502  0.17068635379E+03  0.29393844409E+03 -0.36160655532E+03  0.49628072100E+03  0.12699999809E+01 0. -1.
</event>
<event>
 5   0  0.4503289E-02  0.6953571E+03  0.7818609E-02  0.9725205E-01
       -2   -1    0    0    0  501  0.00000000000E+00  0.00000000000E+00  0.31273739057E+03  0.31273739058E+03  0.25500000920E-02 0.  1.
        2   -1    0    0  501    0  0.00000000000E+00  0.00000000000E+00 -0.38652359116E+03  0.38652359117E+03  0.25500000920E-02 0. -1.
    10030    2    1    2    0    0  0.00000000000E+00  0.00000000000E+00 -0.73786200591E+02  0.69926098175E+03  0.69535711487E+03 0.  0.
        2    1    3    3  502    0 -0.12418817429E+03  0.94377314350E+02 -0.34936349759E+03  0.38260244843E+03  0.25500000920E-02 0. -1.
       -2    1    3    3    0  502  0.12418817429E+03 -0.94377314350E+02  0.27557729699E+03  0.31665853332E+03  0.25500000920E-02 0.  1.
</event>
<event>
 5   0  0.2684924E-02  0.6846532E+03  0.7818609E-02  0.9743843E-01
       -1   -1    0    0    0  501  0.00000000000E+00  0.00000000000E+00  0.35043102427E+03  0.35043102430E+03  0.50400001928E-02 0. -1.
        1   -1    0    0  501    0  0.00000000000E+00  0.00000000000E+00 -0.33440957547E+03  0.33440957551E+03  0.50400001928E-02 0.  1.
    10030    2    1    2    0    0  0.00000000000E+00  0.00000000000E+00  0.16021448791E+02  0.68484059981E+03  0.68465316791E+03 0.  0.
        4    1    3    3  502    0  0.11225419130E+03  0.10796130119E+03  0.31293714024E+03  0.34955387662E+03  0.12699999809E+01 0. -1.
       -4    1    3    3    0  502 -0.11225419130E+03 -0.10796130119E+03 -0.29691569145E+03  0.33528672319E+03  0.12699999809E+01 0.  1.
</event>
<event>
 5   0  0.2751729E-02  0.6964819E+03  0.7818609E-02  0.9723268E-01
        1   -1    0    0  501    0  0.00000000000E+00  0.00000000000E+00  0.86894749464E+03  0.86894749465E+03  0.50400001928E-02 0.  1.
       -1   -1    0    0    0  501  0.00000000000E+00  0.00000000000E+00 -0.13956167464E+03  0.13956167473E+03  0.50400001928E-02 0. -1.
    10030    2    1    2    0    0  0.00000000000E+00  0.00000000000E+00  0.72938582000E+03  0.10085091694E+04  0.69648192389E+03 0.  0.
        1    1    3    3  502    0 -0.27551033575E+02  0.12932063475E+03 -0.10180039757E+03  0.16687182804E+03  0.50400001928E-02 0. -1.
       -1    1    3    3    0  502  0.27551033575E+02 -0.12932063475E+03  0.83118621757E+03  0.84163734134E+03  0.50400001928E-02 0.  1.
</event>
<event>
 5   0  0.2750139E-02  0.7063937E+03  0.7818609E-02  0.9706360E-01
        1   -1    0    0  501    0  0.00000000000E+00  0.00000000000E+00  0.51996085531E+03  0.51996085533E+03  0.50400001928E-02 0.  1.
       -1   -1    0    0    0  501  0.00000000000E+00  0.00000000000E+00 -0.23991806255E+03  0.23991806260E+03  0.50400001928E-02 0. -1.
    10030    2    1    2    0    0  0.00000000000E+00  0.00000000000E+00  0.28004279276E+03  0.75987891793E+03  0.70639366089E+03 0.  0.
        2    1    3    3  502    0  0.12455663180E+03 -0.54277261868E+02  0.49072397123E+03  0.50918600887E+03  0.25500000920E-02 0.  1.
       -2    1    3    3    0  502 -0.12455663180E+03  0.54277261868E+02 -0.21068117848E+03  0.25069290906E+03  0.25500000920E-02 0. -1.
</event>
<event>
 5   0  0.2758681E-02  0.6996426E+03  0.7818609E-02  0.9717844E-01
       -1   -1    0    0    0  501  0.00000000000E+00  0.00000000000E+00  0.20286206385E+03  0.20286206391E+03  0.50400001928E-02 0. -1.
        1   -1    0    0  501    0  0.00000000000E+00  0.00000000000E+00 -0.60324212073E+03  0.60324212075E+03  0.50400001928E-02 0.  1.
    10030    2    1    2    0    0  0.00000000000E+00  0.00000000000E+00 -0.40038005688E+03  0.80610418467E+03  0.69964259918E+03 0.  0.
        3    1    3    3  502    0  0.12436580977E+03  0.15397216759E+03 -0.53252671579E+03  0.56811882231E+03  0.10100000352E+00 0.  1.
       -3    1    3    3    0  502 -0.12436580977E+03 -0.15397216759E+03  0.13214665891E+03  0.23798536235E+03  0.10100000352E+00 0. -1.
</event>
<event>
 5   0  0.4365492E-02  0.6957525E+03  0.7818609E-02  0.9724524E-01
        2   -1    0    0  501    0  0.00000000000E+00  0.00000000000E+00  0.26378587109E+03  0.26378587110E+03  0.25500000920E-02 0.  1.
       -2   -1    0    0    0  501  0.00000000000E+00  0.00000000000E+00 -0.45877319613E+03  0.45877319613E+03  0.25500000920E-02 0. -1.
    10030    2    1    2    0    0  0.00000000000E+00  0.00000000000E+00 -0.19498732504E+03  0.72255906723E+03  0.69575250536E+03 0.  0.
        4    1    3    3  502    0 -0.28459545823E+03 -0.18380519698E+03 -0.15473882790E+02  0.33914595565E+03  0.12699999809E+01 0.  1.
       -4    1    3    3    0  502  0.28459545823E+03  0.18380519698E+03 -0.17951344225E+03  0.38341311158E+03  0.12699999809E+01 0. -1.
</event>
<event>
 5   0  0.4365492E-02  0.6921884E+03  0.7818609E-02  0.9730685E-01
       -2   -1    0    0    0  501  0.00000000000E+00  0.00000000000E+00  0.58799902415E+02  0.58799902470E+02  0.25500000920E-02 0. -1.
        2   -1    0    0  501    0  0.00000000000E+00  0.00000000000E+00 -0.20370982500E+04  0.20370982500E+04  0.25500000920E-02 0.  1.
    10030    2    1    2    0    0  0.00000000000E+00  0.00000000000E+00 -0.19782983476E+04  0.20958981525E+04  0.69218835116E+03 0.  0.
        4    1    3    3  502    0  0.19832095468E+02  0.97842983346E+02  0.14247771952E+02  0.10085223501E+03  0.12699999809E+01 0. -1.
       -4    1    3    3    0  502 -0.19832095468E+02 -0.97842983346E+02 -0.19925461196E+04  0.19950459175E+04  0.12699999809E+01 0.  1.
</event>
<event>
 5   0  0.2750139E-02  0.6993936E+03  0.7818609E-02  0.9718270E-01
       -1   -1    0    0    0  501  0.00000000000E+00  0.00000000000E+00  0.19573850231E+03  0.19573850238E+03  0.50400001928E-02 0. -1.
        1   -1    0    0  501    0  0.00000000000E+00  0.00000000000E+00 -0.62475115331E+03  0.62475115333E+03  0.50400001928E-02 0.  1.
    10030    2    1    2    0    0  0.00000000000E+00  0.00000000000E+00 -0.42901265100E+03  0.82048965571E+03  0.69939360907E+03 0.  0.
        2    1    3    3  502    0 -0.63160714575E+02  0.54814885595E+02  0.18383432649E+03  0.20196288558E+03  0.25500000920E-02 0. -1.
       -2    1    3    3    0  502  0.63160714575E+02 -0.54814885595E+02 -0.61284697749E+03  0.61852677013E+03  0.25500000920E-02 0.  1.
</event>
<event>
 5   0  0.4365492E-02  0.7148868E+03  0.7818609E-02  0.9692107E-01
       -2   -1    0    0    0  501  0.00000000000E+00  0.00000000000E+00  0.12515654880E+03  0.12515654882E+03  0.25500000920E-02 0. -1.
        2   -1    0    0  501    0  0.00000000000E+00  0.00000000000E+00 -0.10208478624E+04  0.10208478624E+04  0.25500000920E-02 0.  1.
    10030    2    1    2    0    0  0.00000000000E+00  0.00000000000E+00 -0.89569131362E+03  0.11460044112E+04  0.71488683111E+03 0.  0.
        4    1    3    3  502    0 -0.70999393272E+02 -0.21354057603E+03 -0.26582249792E+01  0.22505370585E+03  0.12699999809E+01 0. -1.
       -4    1    3    3    0  502  0.70999393272E+02  0.21354057603E+03 -0.89303308864E+03  0.92095070539E+03  0.12699999809E+01 0.  1.
</event>
<event>
 5   0  0.4526837E-02  0.7034189E+03  0.7818609E-02  0.9711403E-01
        2   -1    0    0  501    0  0.00000000000E+00  0.00000000000E+00  0.11971815702E+04  0.11971815702E+04  0.25500000920E-02 0. -1.
       -2   -1    0    0    0  501  0.00000000000E+00  0.00000000000E+00 -0.10332563133E+03  0.10332563136E+03  0.25500000920E-02 0.  1.
    10030    2    1    2    0    0  0.00000000000E+00  0.00000000000E+00  0.10938559389E+04  0.13005072016E+04  0.70341891239E+03 0.  0.
        1    1    3    3  502    0  0.17544665387E+03  0.28074970615E+03  0.32740925315E+03  0.46561652133E+03  0.50400001928E-02 0.  1.
       -1    1    3    3    0  502 -0.17544665387E+03 -0.28074970615E+03  0.76644668573E+03  0.83489068024E+03  0.50400001928E-02 0. -1.
</event>
<event>
 5   0  0.1784625E-02  0.7107311E+03  0.7818609E-02  0.9699055E-01
        3   -1    0    0  501    0  0.00000000000E+00  0.00000000000E+00  0.35039740478E+03  0.35039741934E+03  0.10100000352E+00 0.  1.
       -3   -1    0    0    0  501  0.00000000000E+00  0.00000000000E+00 -0.36040412700E+03  0.36040414116E+03  0.10100000352E+00 0. -1.
    10030    2    1    2    0    0  0.00000000000E+00  0.00000000000E+00 -0.10006722220E+02  0.71080156050E+03  0.71073111928E+03 0.  0.
        3    1    3    3  502    0 -0.23600435662E+03 -0.21455704246E+03 -0.16170931800E+03  0.35760689946E+03  0.10100000352E+00 0. -1.
       -3    1    3    3    0  502  0.23600435662E+03  0.21455704246E+03  0.15170259578E+03  0.35319466103E+03  0.10100000352E+00 0.  1.
</event>
<event>
 5   0  0.4365492E-02  0.7130330E+03  0.7818609E-02  0.9695200E-01
        2   -1    0    0  501    0  0.00000000000E+00  0.00000000000E+00  0.15336957955E+04  0.15336957955E+04  0.25500000920E-02 0. -1.
       -2   -1    0    0    0  501  0.00000000000E+00  0.00000000000E+00 -0.82874335513E+02  0.82874335552E+02  0.25500000920E-02 0.  1.
    10030    2    1    2    0    0  0.00000000000E+00  0.00000000000E+00  0.14508214600E+04  0.16165701310E+04  0.71303301456E+03 0.  0.
        4    1    3    3  502    0 -0.16485950107E+03  0.19971834296E+03  0.16990057925E+03  0.30973196693E+03  0.12699999809E+01 0.  1.
       -4    1    3    3    0  502  0.16485950107E+03 -0.19971834296E+03  0.12809208807E+04  0.13068381641E+04  0.12699999809E+01 0. -1.
</event>
<event>
 5   0  0.2758681E-02  0.7033259E+03  0.7818609E-02  0.9711561E-01
       -1   -1    0    0    0  501  0.00000000000E+00  0.00000000000E+00  0.67140377475E+02  0.67140377664E+02  0.50400001928E-02 0.  1.
        1   -1    0    0  501    0  0.00000000000E+00  0.00000000000E+00 -0.18419144044E+04  0.18419144044E+04  0.50400001928E-02 0. -1.
    10030    2    1    2    0    0  0.00000000000E+00  0.00000000000E+00 -0.17747740270E+04  0.19090547821E+04  0.70332589481E+03 0.  0.
        3    1    3    3  502    0 -0.17841866219E+03 -0.12447445448E+03 -0.16373451741E+04  0.16517343425E+04  0.10100000352E+00 0. -1.
       -3    1    3    3    0  502  0.17841866219E+03  0.12447445448E+03 -0.13742885283E+03  0.25732043958E+03  0.10100000352E+00 0.  1.
</event>
<event>
 5   0  0.4420645E-02  0.6980128E+03  0.7818609E-02  0.9720637E-01
       -2   -1    0    0    0  501  0.00000000000E+00  0.00000000000E+00  0.12857667742E+03  0.12857667744E+03  0.25500000920E-02 0. -1.
        2   -1    0    0  501    0  0.00000000000E+00  0.00000000000E+00 -0.94733715684E+03  0.94733715684E+03  0.25500000920E-02 0.  1.
    10030    2    1    2    0    0  0.00000000000E+00  0.00000000000E+00 -0.81876047942E+03  0.10759138343E+04  0.69801279082E+03 0.  0.
        5    1    3    3  502    0  0.23889723409E+03  0.22681214672E+03 -0.58692690359E+03  0.67306828667E+03  0.46999998093E+01 0.  1.
       -5    1    3    3    0  502 -0.23889723409E+03 -0.22681214672E+03 -0.23183357583E+03  0.40284554762E+03  0.46999998093E+01 0. -1.
</event>
<event>
 5   0  0.2758681E-02  0.6007359E+03  0.7818609E-02  0.9903880E-01
       -1   -1    0    0    0  501  0.00000000000E+00  0.00000000000E+00  0.27289603316E+03  0.27289603321E+03  0.50400001928E-02 0. -1.
        1   -1    0    0  501    0  0.00000000000E+00  0.00000000000E+00 -0.33060545544E+03  0.33060545548E+03  0.50400001928E-02 0.  1.
    10030    2    1    2    0    0  0.00000000000E+00  0.00000000000E+00 -0.57709422276E+02  0.60350148868E+03  0.60073593985E+03 0.  0.
        3    1    3    3  502    0  0.20450214333E+03  0.12270370855E+03  0.15458816335E+03  0.28420914336E+03  0.10100000352E+00 0. -1.
       -3    1    3    3    0  502 -0.20450214333E+03 -0.12270370855E+03 -0.21229758562E+03  0.31929234532E+03  0.10100000352E+00 0.  1.
</event>
<event>
 5   0  0.2758681E-02  0.7024826E+03  0.7818609E-02  0.9712996E-01
        1   -1    0    0  501    0  0.00000000000E+00  0.00000000000E+00  0.69301316013E+03  0.69301316015E+03  0.50400001928E-02 0. -1.
       -1   -1    0    0    0  501  0.00000000000E+00  0.00000000000E+00 -0.17802035444E+03  0.17802035452E+03  0.50400001928E-02 0.  1.
    10030    2    1    2    0    0  0.00000000000E+00  0.00000000000E+00  0.51499280568E+03  0.87103351466E+03  0.70248259321E+03 0.  0.
        3    1    3    3  502    0 -0.10270539792E+03 -0.81575374042E+02 -0.14651636418E+03  0.19664688043E+03  0.10100000352E+00 0.  1.
       -3    1    3    3    0  502  0.10270539792E+03  0.81575374042E+02  0.66150916986E+03  0.67438663423E+03  0.10100000352E+00 0. -1.
</event>
<event>
 5   0  0.4299912E-02  0.6997350E+03  0.7818609E-02  0.9717685E-01
        2   -1    0    0  501    0  0.00000000000E+00  0.00000000000E+00  0.79772926455E+03  0.79772926456E+03  0.25500000920E-02 0. -1.
       -2   -1    0    0    0  501  0.00000000000E+00  0.00000000000E+00 -0.15344462620E+03  0.15344462623E+03  0.25500000920E-02 0.  1.
    10030    2    1    2    0    0  0.00000000000E+00  0.00000000000E+00  0.64428463835E+03  0.95117389078E+03  0.69973500362E+03 0.  0.
        3    1    3    3  502    0  0.28614323525E+03  0.67630683282E+02  0.57989807525E+03  0.65017970461E+03  0.10100000352E+00 0.  1.
       -3    1    3    3    0  502 -0.28614323525E+03 -0.67630683282E+02  0.64386563101E+02  0.30099418618E+03  0.10100000352E+00 0. -1.
</event>
<event>
 5   0  0.2751729E-02  0.7199464E+03  0.7818609E-02  0.9683716E-01
        1   -1    0    0  501    0  0.00000000000E+00  0.00000000000E+00  0.17809935253E+04  0.17809935253E+04  0.50400001928E-02 0.  1.
       -1   -1    0    0    0  501  0.00000000000E+00  0.00000000000E+00 -0.72757543039E+02  0.72757543214E+02  0.50400001928E-02 0. -1.
    10030    2    1    2    0    0  0.00000000000E+00  0.00000000000E+00  0.17082359823E+04  0.18537510685E+04  0.71994642367E+03 0.  0.
        1    1    3    3  502    0 -0.56091535132E+02  0.27399868448E+03  0.14376440429E+04  0.14645961674E+04  0.50400001928E-02 0.  1.
       -1    1    3    3    0  502  0.56091535132E+02 -0.27399868448E+03  0.27059193938E+03  0.38915490115E+03  0.50400001928E-02 0. -1.
</event>
<event>
 5   0  0.2684924E-02  0.7058364E+03  0.7818609E-02  0.9707303E-01
       -1   -1    0    0    0  501  0.00000000000E+00  0.00000000000E+00  0.51214673218E+03  0.51214673221E+03  0.50400001928E-02 0.  1.
        1   -1    0    0  501    0  0.00000000000E+00  0.00000000000E+00 -0.24319450721E+03  0.24319450726E+03  0.50400001928E-02 0. -1.
    10030    2    1    2    0    0  0.00000000000E+00  0.00000000000E+00  0.26895222497E+03  0.75534123947E+03  0.70583644616E+03 0.  0.
        4    1    3    3  502    0  0.15128583855E+02  0.24215397615E+03  0.40873649980E+03  0.47532574239E+03  0.12699999809E+01 0.  1.
       -4    1    3    3    0  502 -0.15128583855E+02 -0.24215397615E+03 -0.13978427483E+03  0.28001549708E+03  0.12699999809E+01 0. -1.
</event>
<event>
 5   0  0.2777999E-02  0.6991780E+03  0.7818609E-02  0.9718639E-01
       -1   -1    0    0    0  501  0.00000000000E+00  0.00000000000E+00  0.48032330185E+03  0.48032330188E+03  0.50400001928E-02 0. -1.
        1   -1    0    0  501    0  0.00000000000E+00  0.00000000000E+00 -0.25443795379E+03  0.25443795384E+03  0.50400001928E-02 0.  1.
    10030    2    1    2    0    0  0.00000000000E+00  0.00000000000E+00  0.22588534806E+03  0.73476125572E+03  0.69917802629E+03 0.  0.
        5    1    3    3  502    0 -0.10870211517E+02 -0.31648988980E+03  0.26848326628E+03  0.41519798424E+03  0.46999998093E+01 0.  1.
       -5    1    3    3    0  502  0.10870211517E+02  0.31648988980E+03 -0.42597918225E+02  0.31956327148E+03  0.46999998093E+01 0. -1.
</event>
<event>
 5   0  0.1784625E-02  0.6876971E+03  0.7818609E-02  0.9738506E-01
       -3   -1    0    0    0  501  0.00000000000E+00  0.00000000000E+00  0.10401113452E+04  0.10401113502E+04  0.10100000352E+00 0.  1.
        3   -1    0    0  501    0  0.00000000000E+00  0.00000000000E+00 -0.11367223501E+03  0.11367227988E+03  0.10100000352E+00 0. -1.
    10030    2    1    2    0    0  0.00000000000E+00  0.00000000000E+00  0.92643911024E+03  0.11537836300E+04  0.68769705536E+03 0.  0.
        5    1    3    3  502    0 -0.19496984739E+03  0.21807887401E+03  0.16011704607E+03  0.33351341070E+03  0.46999998093E+01 0. -1.
       -5    1    3    3    0  502  0.19496984739E+03 -0.21807887401E+03  0.76632206417E+03  0.82027021933E+03  0.46999998093E+01 0.  1.
</event>
<event>
 5   0  0.2684924E-02  0.6846281E+03  0.7818609E-02  0.9743887E-01
        1   -1    0    0  501    0  0.00000000000E+00  0.00000000000E+00  0.14809856226E+03  0.14809856234E+03  0.50400001928E-02 0.  1.
       -1   -1    0    0    0  501  0.00000000000E+00  0.00000000000E+00 -0.79122252494E+03  0.79122252496E+03  0.50400001928E-02 0. -1.
    10030    2    1    2    0    0  0.00000000000E+00  0.00000000000E+00 -0.64312396268E+03  0.93932108730E+03  0.68462812801E+03 0.  0.
        4    1    3    3  502    0  0.24802794438E+03  0.79705369016E+01 -0.64506681534E+03  0.69115425182E+03  0.12699999809E+01 0. -1.
       -4    1    3    3    0  502 -0.24802794438E+03 -0.79705369016E+01  0.19428526621E+01  0.24816683548E+03  0.12699999809E+01 0.  1.
</event>
<event>
 5   0  0.2751729E-02  0.6956851E+03  0.7818609E-02  0.9724640E-01
       -1   -1    0    0    0  501  0.00000000000E+00  0.00000000000E+00  0.20006986642E+03  0.20006986648E+03  0.50400001928E-02 0.  1.
        1   -1    0    0  501    0  0.00000000000E+00  0.00000000000E+00 -0.60476091047E+03  0.60476091049E+03  0.50400001928E-02 0. -1.
    10030    2    1    2    0    0  0.00000000000E+00  0.00000000000E+00 -0.40469104405E+03  0.80483077697E+03  0.69568508567E+03 0.  0.
        1    1    3    3  502    0  0.30682413330E+03  0.75601137307E+02 -0.34146940867E+02  0.31784051714E+03  0.50400001928E-02 0.  1.
       -1    1    3    3    0  502 -0.30682413330E+03 -0.75601137307E+02 -0.37054410318E+03  0.48699025983E+03  0.50400001928E-02 0. -1.
</event>
<event>
 5   0  0.4365492E-02  0.7070454E+03  0.7818609E-02  0.9705259E-01
       -2   -1    0    0    0  501  0.00000000000E+00  0.00000000000E+00  0.69944615658E+02  0.69944615705E+02  0.25500000920E-02 0. -1.
        2   -1    0    0  501    0  0.00000000000E+00  0.00000000000E+00 -0.17868178393E+04  0.17868178393E+04  0.25500000920E-02 0.  1.
    10030    2    1    2    0    0  0.00000000000E+00  0.00000000000E+00 -0.17168732237E+04  0.18567624550E+04  0.70704536508E+03 0.  0.
        4    1    3    3  502    0 -0.17082364853E+03  0.75791973359E+02 -0.16464881464E+04  0.16570606420E+04  0.12699999809E+01 0.  1.
       -4    1    3    3    0  502  0.17082364853E+03 -0.75791973359E+02 -0.70385077252E+02  0.19970181302E+03  0.12699999809E+01 0. -1.
</event>
<event>
 5   0  0.2684924E-02  0.7032627E+03  0.7818609E-02  0.9711669E-01
       -1   -1    0    0    0  501  0.00000000000E+00  0.00000000000E+00  0.21363809954E+03  0.21363809960E+03  0.50400001928E-02 0. -1.
        1   -1    0    0  501    0  0.00000000000E+00  0.00000000000E+00 -0.57875730580E+03  0.57875730582E+03  0.50400001928E-02 0.  1.
    10030    2    1    2    0    0  0.00000000000E+00  0.00000000000E+00 -0.36511920626E+03  0.79239540542E+03  0.70326271319E+03 0.  0.
        4    1    3    3  502    0 -0.67304465755E+02  0.51566981221E+02 -0.56706414584E+03  0.57336934262E+03  0.12699999809E+01 0.  1.
       -4    1    3    3    0  502  0.67304465755E+02 -0.51566981221E+02  0.20194493958E+03  0.21902606280E+03  0.12699999809E+01 0. -1.
</event>
<event>
 5   0  0.2684924E-02  0.7194212E+03  0.7818609E-02  0.9684584E-01
        1   -1    0    0  501    0  0.00000000000E+00  0.00000000000E+00  0.23147481715E+03  0.23147481721E+03  0.50400001928E-02 0.  1.
       -1   -1    0    0    0  501  0.00000000000E+00  0.00000000000E+00 -0.55898827870E+03  0.55898827872E+03  0.50400001928E-02 0. -1.
    10030    2    1    2    0    0  0.00000000000E+00  0.00000000000E+00 -0.32751346155E+03  0.79046309593E+03  0.71942118299E+03 0.  0.
        4    1    3    3  502    0 -0.33748006251E+03  0.98622025861E+02 -0.24722548291E+03  0.42981524970E+03  0.12699999809E+01 0. -1.
       -4    1    3    3    0  502  0.33748006251E+03 -0.98622025861E+02 -0.80287978643E+02  0.36064784623E+03  0.12699999809E+01 0.  1.
</event>
<event>
 5   0  0.2758681E-02  0.6995100E+03  0.7818609E-02  0.9718071E-01
       -1   -1    0    0    0  501  0.00000000000E+00  0.00000000000E+00  0.11319401252E+03  0.11319401263E+03  0.50400001928E-02 0.  1.
        1   -1    0    0  501    0  0.00000000000E+00  0.00000000000E+00 -0.10806981852E+04  0.10806981852E+04  0.50400001928E-02 0. -1.
    10030    2    1    2    0    0  0.00000000000E+00  0.00000000000E+00 -0.96750417269E+03  0.11938921979E+04  0.69951001130E+03 0.  0.
        3    1    3    3  502    0 -0.22030412131E+03 -0.22245669345E+02 -0.94583776595E+03  0.97141024566E+03  0.10100000352E+00 0. -1.
       -3    1    3    3    0  502  0.22030412131E+03  0.22245669345E+02 -0.21666406744E+02  0.22248195219E+03  0.10100000352E+00 0.  1.
</event>
<event>
 5   0  0.2758681E-02  0.6984541E+03  0.7818609E-02  0.9719880E-01
        1   -1    0    0  501    0  0.00000000000E+00  0.00000000000E+00  0.62098034093E+03  0.62098034095E+03  0.50400001928E-02 0.  1.
       -1   -1    0    0    0  501  0.00000000000E+00  0.00000000000E+00 -0.19639838464E+03  0.19639838470E+03  0.50400001928E-02 0. -1.
    10030    2    1    2    0    0  0.00000000000E+00  0.00000000000E+00  0.42458195629E+03  0.81737872565E+03  0.69845410984E+03 0.  0.
        3    1    3    3  502    0 -0.21465554883E+03  0.71084754280E+02 -0.99161991124E+02  0.24690718422E+03  0.10100000352E+00 0. -1.
       -3    1    3    3    0  502  0.21465554883E+03 -0.71084754280E+02  0.52374394741E+03  0.57047154144E+03  0.10100000352E+00 0.  1.
</event>
<event>
 5   0  0.1784625E-02  0.7044295E+03  0.7818609E-02  0.9709687E-01
        3   -1    0    0  501    0  0.00000000000E+00  0.00000000000E+00  0.35776601240E+03  0.35776602666E+03  0.10100000352E+00 0.  1.
       -3   -1    0    0    0  501  0.00000000000E+00  0.00000000000E+00 -0.34674958116E+03  0.34674959587E+03  0.10100000352E+00 0. -1.
    10030    2    1    2    0    0  0.00000000000E+00  0.00000000000E+00  0.11016431237E+02  0.70451562253E+03  0.70442948592E+03 0.  0.
        3    1    3    3  502    0 -0.33590978246E+03 -0.86234128000E+02 -0.56009533989E+02  0.35129586516E+03  0.10100000352E+00 0. -1.
       -3    1    3    3    0  502  0.33590978246E+03  0.86234128000E+02  0.67025965227E+02  0.35321975737E+03  0.10100000352E+00 0.  1.
</event>
<event>
 5   0  0.4365492E-02  0.7352824E+03  0.7818609E-02  0.9658727E-01
        2   -1    0    0  501    0  0.00000000000E+00  0.00000000000E+00  0.35502968173E+03  0.35502968174E+03  0.25500000920E-02 0. -1.
       -2   -1    0    0    0  501  0.00000000000E+00  0.00000000000E+00 -0.38070075561E+03  0.38070075562E+03  0.25500000920E-02 0.  1.
    10030    2    1    2    0    0  0.00000000000E+00  0.00000000000E+00 -0.25671073880E+02  0.73573043736E+03  0.73528244398E+03 0.  0.
        4    1    3    3  502    0 -0.32366442834E+03  0.11350108767E+03  0.11959802578E+03  0.36324435267E+03  0.12699999809E+01 0. -1.
       -4    1    3    3    0  502  0.32366442834E+03 -0.11350108767E+03 -0.14526909966E+03  0.37248608469E+03  0.12699999809E+01 0.  1.
</event>
<event>
 5   0  0.2750139E-02  0.6399692E+03  0.7818609E-02  0.9825785E-01
       -1   -1    0    0    0  501  0.00000000000E+00  0.00000000000E+00  0.21784879683E+03  0.21784879689E+03  0.50400001928E-02 0.  1.
        1   -1    0    0  501    0  0.00000000000E+00  0.00000000000E+00 -0.47000558706E+03  0.47000558709E+03  0.50400001928E-02 0. -1.
    10030    2    1    2    0    0  0.00000000000E+00  0.00000000000E+00 -0.25215679023E+03  0.68785438398E+03  0.63996922325E+03 0.  0.
        2    1    3    3  502    0 -0.11177516652E+03  0.18364192942E+03 -0.38081876347E+03  0.43731107544E+03  0.25500000920E-02 0. -1.
       -2    1    3    3    0  502  0.11177516652E+03 -0.18364192942E+03  0.12866197324E+03  0.25054330854E+03  0.25500000920E-02 0.  1.
</event>
<event>
 5   0  0.2684924E-02  0.7024343E+03  0.7818609E-02  0.9713078E-01
        1   -1    0    0  501    0  0.00000000000E+00  0.00000000000E+00  0.18126933287E+03  0.18126933294E+03  0.50400001928E-02 0. -1.
       -1   -1    0    0    0  501  0.00000000000E+00  0.00000000000E+00 -0.68049843587E+03  0.68049843589E+03  0.50400001928E-02 0.  1.
    10030    2    1    2    0    0  0.00000000000E+00  0.00000000000E+00 -0.49922910300E+03  0.86176776883E+03  0.70243433153E+03 0.  0.
        4    1    3    3  502    0  0.23420035822E+03  0.19241338023E+03 -0.31945773253E+02  0.30478658437E+03  0.12699999809E+01 0.  1.
       -4    1    3    3    0  502 -0.23420035822E+03 -0.19241338023E+03 -0.46728332974E+03  0.55698118446E+03  0.12699999809E+01 0. -1.
</event>
<event>
 5   0  0.4365492E-02  0.7132878E+03  0.7818609E-02  0.9694774E-01
       -2   -1    0    0    0  501  0.00000000000E+00  0.00000000000E+00  0.87346759654E+02  0.87346759691E+02  0.25500000920E-02 0.  1.
        2   -1    0    0  501    0  0.00000000000E+00  0.00000000000E+00 -0.14562060164E+04  0.14562060164E+04  0.25500000920E-02 0. -1.
    10030    2    1    2    0    0  0.00000000000E+00  0.00000000000E+00 -0.13688592567E+04  0.15435527761E+04  0.71328781554E+03 0.  0.
        4    1    3    3  502    0  0.18122349486E+03  0.17322729670E+03 -0.12333500627E+04  0.12585720645E+04  0.12699999809E+01 0. -1.
       -4    1    3    3    0  502 -0.18122349486E+03 -0.17322729670E+03 -0.13550919400E+03  0.28498071158E+03  0.12699999809E+01 0.  1.
</event>
<event>
 5   0  0.4420645E-02  0.7030133E+03  0.7818609E-02  0.9712093E-01
        2   -1    0    0  501    0  0.00000000000E+00  0.00000000000E+00  0.20567972799E+04  0.20567972799E+04  0.25500000920E-02 0.  1.
       -2   -1    0    0    0  501  0.00000000000E+00  0.00000000000E+00 -0.60072478120E+02  0.60072478174E+02  0.25500000920E-02 0. -1.
    10030    2    1    2    0    0  0.00000000000E+00  0.00000000000E+00  0.19967248017E+04  0.21168697580E+04  0.70301325635E+03 0.  0.
        5    1    3    3  502    0 -0.93982151556E+02  0.21404800533E+03  0.20805703668E+03  0.31298404736E+03  0.46999998093E+01 0. -1.
       -5    1    3    3    0  502  0.93982151556E+02 -0.21404800533E+03  0.17886677651E+04  0.18038857107E+04  0.46999998093E+01 0.  1.
</event>
<event>
 5   0  0.2684924E-02  0.6996573E+03  0.7818609E-02  0.9717818E-01
        1   -1    0    0  501    0  0.00000000000E+00  0.00000000000E+00  0.29112004987E+03  0.29112004991E+03  0.50400001928E-02 0. -1.
       -1   -1    0    0    0  501  0.00000000000E+00  0.00000000000E+00 -0.42037670608E+03  0.42037670611E+03  0.50400001928E-02 0.  1.
    10030    2    1    2    0    0  0.00000000000E+00  0.00000000000E+00 -0.12925665622E+03  0.71149675602E+03  0.69965730944E+03 0.  0.
        4    1    3    3  502    0  0.20815089688E+03 -0.21324748666E+03  0.12171322544E+03  0.32189595926E+03  0.12699999809E+01 0. -1.
       -4    1    3    3    0  502 -0.20815089688E+03  0.21324748666E+03 -0.25096988166E+03  0.38960079676E+03  0.12699999809E+01 0.  1.
</event>
<event>
 5   0  0.4365492E-02  0.7081110E+03  0.7818609E-02  0.9703461E-01
        2   -1    0    0  501    0  0.00000000000E+00  0.00000000000E+00  0.65562274564E+03  0.65562274565E+03  0.25500000920E-02 0. -1.
       -2   -1    0    0    0  501  0.00000000000E+00  0.00000000000E+00 -0.19120032212E+03  0.19120032213E+03  0.25500000920E-02 0.  1.
    10030    2    1    2    0    0  0.00000000000E+00  0.00000000000E+00  0.46442242353E+03  0.84682306778E+03  0.70811095222E+03 0.  0.
        4    1    3    3  502    0 -0.22456283324E+03  0.88954871592E+02  0.54178801407E+03  0.59319246484E+03  0.12699999809E+01 0. -1.
       -4    1    3    3    0  502  0.22456283324E+03 -0.88954871592E+02 -0.77365590540E+02  0.25363060295E+03  0.12699999809E+01 0.  1.
</event>
<event>
 5   0  0.4299912E-02  0.6994940E+03  0.7818609E-02  0.9718098E-01
        2   -1    0    0  501    0  0.00000000000E+00  0.00000000000E+00  0.17479578004E+04  0.17479578004E+04  0.25500000920E-02 0. -1.
       -2   -1    0    0    0  501  0.00000000000E+00  0.00000000000E+00 -0.69980501596E+02  0.69980501643E+02  0.25500000920E-02 0.  1.
    10030    2    1    2    0    0  0.00000000000E+00  0.00000000000E+00  0.16779772988E+04  0.18179383020E+04  0.69949399907E+03 0.  0.
        3    1    3    3  502    0  0.16400150474E+03 -0.30879336064E+03  0.86121224264E+03  0.92948177508E+03  0.10100000352E+00 0.  1.
       -3    1    3    3    0  502 -0.16400150474E+03  0.30879336064E+03  0.81676505616E+03  0.88845652696E+03  0.10100000352E+00 0. -1.
</event>
<event>
 5   0  0.2777999E-02  0.6984258E+03  0.7818609E-02  0.9719928E-01
        1   -1    0    0  501    0  0.00000000000E+00  0.00000000000E+00  0.84431891483E+03  0.84431891485E+03  0.50400001928E-02 0. -1.
       -1   -1    0    0    0  501  0.00000000000E+00  0.00000000000E+00 -0.14443552290E+03  0.14443552299E+03  0.50400001928E-02 0.  1.
    10030    2    1    2    0    0  0.00000000000E+00  0.00000000000E+00  0.69988339193E+03  0.98875443784E+03  0.69842578421E+03 0.  0.
        5    1    3    3  502    0 -0.32665874147E+03 -0.12331046494E+03  0.34425247626E+03  0.49035014179E+03  0.46999998093E+01 0.  1.
       -5    1    3    3    0  502  0.32665874147E+03  0.12331046494E+03  0.35563091567E+03  0.49840429605E+03  0.46999998093E+01 0. -1.
</event>
<event>
 5   0  0.4503289E-02  0.7057835E+03  0.7818609E-02  0.9707392E-01
       -2   -1    0    0    0  501  0.00000000000E+00  0.00000000000E+00  0.37320161185E+03  0.37320161186E+03  0.25500000920E-02 0.  1.
        2   -1    0    0  501    0  0.00000000000E+00  0.00000000000E+00 -0.33368719854E+03  0.33368719855E+03  0.25500000920E-02 0. -1.
    10030    2    1    2    0    0  0.00000000000E+00  0.00000000000E+00  0.39514413316E+02  0.70688881041E+03  0.70578353722E+03 0.  0.
        2    1    3    3  502    0  0.16802465582E+03  0.28222623082E+03  0.14898899550E+03  0.36066833949E+03  0.25500000920E-02 0.  1.
       -2    1    3    3    0  502 -0.16802465582E+03 -0.28222623082E+03 -0.10947458218E+03  0.34622047091E+03  0.25500000920E-02 0. -1.
</event>
<event>
 5   0  0.2777999E-02  0.7511492E+03  0.7818609E-02  0.9633549E-01
        1   -1    0    0  501    0  0.00000000000E+00  0.00000000000E+00  0.97597773746E+03  0.97597773747E+03  0.50400001928E-02 0. -1.
       -1   -1    0    0    0  501  0.00000000000E+00  0.00000000000E+00 -0.14452815974E+03  0.14452815982E+03  0.50400001928E-02 0.  1.
    10030    2    1    2    0    0  0.00000000000E+00  0.00000000000E+00  0.83144957772E+03  0.11205058973E+04  0.75114916334E+03 0.  0.
        5    1    3    3  502    0 -0.36920591309E+02  0.13681094734E+03  0.93452212458E+03  0.94521640734E+03  0.46999998093E+01 0. -1.
       -5    1    3    3    0  502  0.36920591309E+02 -0.13681094734E+03 -0.10307254686E+03  0.17528948996E+03  0.46999998093E+01 0.  1.
</event>
<event>
 5   0  0.4503289E-02  0.6990030E+03  0.7818609E-02  0.9718939E-01
       -2   -1    0    0    0  501  0.00000000000E+00  0.00000000000E+00  0.20588908987E+03  0.20588908988E+03  0.25500000920E-02 0. -1.
        2   -1    0    0  501    0  0.00000000000E+00  0.00000000000E+00 -0.59328693749E+03  0.59328693750E+03  0.25500000920E-02 0.  1.
    10030    2    1    2    0    0  0.00000000000E+00  0.00000000000E+00 -0.38739784763E+03  0.79917602738E+03  0.69900302602E+03 0.  0.
        2    1    3    3  502    0 -0.18793374860E+03 -0.28580054749E+03 -0.11164903399E+03  0.35981461005E+03  0.25500000920E-02 0.  1.
       -2    1    3    3    0  502  0.18793374860E+03  0.28580054749E+03 -0.27574881363E+03  0.43936141733E+03  0.25500000920E-02 0. -1.
</event>
<event>
 5   0  0.2758681E-02  0.6879347E+03  0.7818609E-02  0.9738091E-01
        1   -1    0    0  501    0  0.00000000000E+00  0.00000000000E+00  0.16503638549E+04  0.16503638549E+04  0.50400001928E-02 0.  1.
       -1   -1    0    0    0  501  0.00000000000E+00  0.00000000000E+00 -0.71689368373E+02  0.71689368550E+02  0.50400001928E-02 0. -1.
    10030    2    1    2    0    0  0.00000000000E+00  0.00000000000E+00  0.15786744866E+04  0.17220532235E+04  0.68793471349E+03 0.  0.
        3    1    3    3  502    0  0.14993740162E+03  0.28717232946E+03  0.10787205308E+04  0.11263157483E+04  0.10100000352E+00 0.  1.
       -3    1    3    3    0  502 -0.14993740162E+03 -0.28717232946E+03  0.49995395578E+03  0.59573747516E+03  0.10100000352E+00 0. -1.
</event>
<event>
 5   0  0.4299912E-02  0.7229203E+03  0.7818609E-02  0.9678819E-01
       -2   -1    0    0    0  501  0.00000000000E+00  0.00000000000E+00  0.14942335552E+03  0.14942335554E+03  0.25500000920E-02 0.  1.
        2   -1    0    0  501    0  0.00000000000E+00  0.00000000000E+00 -0.87438422077E+03  0.87438422077E+03  0.25500000920E-02 0. -1.
    10030    2    1    2    0    0  0.00000000000E+00  0.00000000000E+00 -0.72496086525E+03  0.10238075763E+04  0.72292025644E+03 0.  0.
        3    1    3    3  502    0 -0.85229705088E-01 -0.15149123428E+03  0.10229534266E+03  0.18279482667E+03  0.10100000352E+00 0.  1.
       -3    1    3    3    0  502  0.85229705088E-01  0.15149123428E+03 -0.82725620791E+03  0.84101274964E+03  0.10100000352E+00 0. -1.
</event>
<event>
 5   0  0.2750139E-02  0.7063281E+03  0.7818609E-02  0.9706471E-01
       -1   -1    0    0    0  501  0.00000000000E+00  0.00000000000E+00  0.14665592285E+03  0.14665592294E+03  0.50400001928E-02 0. -1.
        1   -1    0    0  501    0  0.00000000000E+00  0.00000000000E+00 -0.85045900930E+03  0.85045900932E+03  0.50400001928E-02 0.  1.
    10030    2    1    2    0    0  0.00000000000E+00  0.00000000000E+00 -0.70380308645E+03  0.99711493226E+03  0.70632811329E+03 0.  0.
        2    1    3    3  502    0  0.14827259582E+03 -0.31503347665E+03 -0.26845660829E+03  0.43965873654E+03  0.25500000920E-02 0. -1.
       -2    1    3    3    0  502 -0.14827259582E+03  0.31503347665E+03 -0.43534647816E+03  0.55745619571E+03  0.25500000920E-02 0.  1.
</event>
<event>
 5   0  0.2751729E-02  0.7088200E+03  0.7818609E-02  0.9702267E-01
       -1   -1    0    0    0  501  0.00000000000E+00  0.00000000000E+00  0.15309097075E+03  0.15309097083E+03  0.50400001928E-02 0. -1.
        1   -1    0    0  501    0  0.00000000000E+00  0.00000000000E+00 -0.82046936493E+03  0.82046936494E+03  0.50400001928E-02 0.  1.
    10030    2    1    2    0    0  0.00000000000E+00  0.00000000000E+00 -0.66737839418E+03  0.97356033577E+03  0.70882000985E+03 0.  0.
        1    1    3    3  502    0 -0.11987486292E+02 -0.16843929297E+03  0.94283725104E+02  0.19340350588E+03  0.50400001928E-02 0. -1.
       -1    1    3    3    0  502  0.11987486292E+02  0.16843929297E+03 -0.76166211929E+03  0.78015682989E+03  0.50400001928E-02 0.  1.
</event>
<event>
 5   0  0.4503289E-02  0.6973480E+03  0.7818609E-02  0.9721778E-01
       -2   -1    0    0    0  501  0.00000000000E+00  0.00000000000E+00  0.72875407173E+03  0.72875407173E+03  0.25500000920E-02 0.  1.
        2   -1    0    0  501    0  0.00000000000E+00  0.00000000000E+00 -0.16682384008E+03  0.16682384010E+03  0.25500000920E-02 0. -1.
    10030    2    1    2    0    0  0.00000000000E+00  0.00000000000E+00  0.56193023164E+03  0.89557791184E+03  0.69734798410E+03 0.  0.
        2    1    3    3  502    0 -0.28809674489E+03  0.24965674260E+02  0.30779252554E+02  0.29080987209E+03  0.25500000920E-02 0. -1.
       -2    1    3    3    0  502  0.28809674489E+03 -0.24965674260E+02  0.53115097909E+03  0.60476803975E+03  0.25500000920E-02 0.  1.
</event>
<event>
 5   0  0.2758681E-02  0.7027982E+03  0.7818609E-02  0.9712459E-01
        1   -1    0    0  501    0  0.00000000000E+00  0.00000000000E+00  0.59891681201E+03  0.59891681203E+03  0.50400001928E-02 0. -1.
       -1   -1    0    0    0  501  0.00000000000E+00  0.00000000000E+00 -0.20617440811E+03  0.20617440817E+03  0.50400001928E-02 0.  1.
    10030    2    1    2    0    0  0.00000000000E+00  0.00000000000E+00  0.39274240390E+03  0.80509122021E+03  0.70279817660E+03 0.  0.
        3    1    3    3  502    0 -0.57810179603E+02  0.29752982141E+03  0.40005810328E+03  0.50190886394E+03  0.10100000352E+00 0. -1.
       -3    1    3    3    0  502  0.57810179603E+02 -0.29752982141E+03 -0.73156993844E+01  0.30318235627E+03  0.10100000352E+00 0.  1.
</event>
<event>
 5   0  0.4365492E-02  0.6954588E+03  0.7818609E-02  0.9725030E-01
       -2   -1    0    0    0  501  0.00000000000E+00  0.00000000000E+00  0.11832965509E+03  0.11832965511E+03  0.25500000920E-02 0. -1.
        2   -1    0    0  501    0  0.00000000000E+00  0.00000000000E+00 -0.10218547498E+04  0.10218547498E+04  0.25500000920E-02 0.  1.
    10030    2    1    2    0    0  0.00000000000E+00  0.00000000000E+00 -0.90352509470E+03  0.11401844049E+04  0.69545875538E+03 0.  0.
        4    1    3    3  502    0 -0.13780000202E+03 -0.47637201139E+02 -0.96931618363E+03  0.98022120985E+03  0.12699999809E+01 0.  1.
       -4    1    3    3    0  502  0.13780000202E+03  0.47637201139E+02  0.65791088931E+02  0.15996319506E+03  0.12699999809E+01 0. -1.
</event>
<event>
 5   0  0.4299912E-02  0.7080883E+03  0.7818609E-02  0.9703499E-01
       -2   -1    0    0    0  501  0.00000000000E+00  0.00000000000E+00  0.27795940538E+03  0.27795940540E+03  0.25500000920E-02 0. -1.
        2   -1    0    0  501    0  0.00000000000E+00  0.00000000000E+00 -0.45095529516E+03  0.45095529516E+03  0.25500000920E-02 0.  1.
    10030    2    1    2    0    0  0.00000000000E+00  0.00000000000E+00 -0.17299588977E+03  0.72891470056E+03  0.70808831569E+03 0.  0.
        3    1    3    3  502    0  0.29162702514E+03  0.98560143103E+01  0.11990828126E+03  0.31547023461E+03  0.10100000352E+00 0. -1.
       -3    1    3    3    0  502 -0.29162702514E+03 -0.98560143103E+01 -0.29290417103E+03  0.41344446595E+03  0.10100000352E+00 0.  1.
</event>
<event>
 5   0  0.4420645E-02  0.6911501E+03  0.7818609E-02  0.9732488E-01
       -2   -1    0    0    0  501  0.00000000000E+00  0.00000000000E+00  0.22112249824E+03  0.22112249825E+03  0.25500000920E-02 0.  1.
        2   -1    0    0  501    0  0.00000000000E+00  0.00000000000E+00 -0.54007215458E+03  0.54007215459E+03  0.25500000920E-02 0. -1.
    10030    2    1    2    0    0  0.00000000000E+00  0.00000000000E+00 -0.31894965634E+03  0.76119465284E+03  0.69115006781E+03 0.  0.
        5    1    3    3  502    0 -0.89155708711E+02 -0.14490214735E+03 -0.49071179713E+03  0.51938957492E+03  0.46999998093E+01 0. -1.
       -5    1    3    3    0  502  0.89155708711E+02  0.14490214735E+03  0.17176214079E+03  0.24180507792E+03  0.46999998093E+01 0.  1.
</event>
<event>
 5   0  0.2684924E-02  0.6965773E+03  0.7818609E-02  0.9723103E-01
        1   -1    0    0  501    0  0.00000000000E+00  0.00000000000E+00  0.12545404671E+03  0.12545404681E+03  0.50400001928E-02 0.  1.
       -1   -1    0    0    0  501  0.00000000000E+00  0.00000000000E+00 -0.96692764061E+03  0.96692764062E+03  0.50400001928E-02 0. -1.
    10030    2    1    2    0    0  0.00000000000E+00  0.00000000000E+00 -0.84147359390E+03  0.10923816874E+04  0.69657730499E+03 0.  0.
        4    1    3    3  502    0 -0.19063098253E+03  0.27552348520E+03 -0.27155026315E+03  0.43127082061E+03  0.12699999809E+01 0.  1.
       -4    1    3    3    0  502  0.19063098253E+03 -0.27552348520E+03 -0.56992333075E+03  0.66111086682E+03  0.12699999809E+01 0. -1.
</event>
<event>
 5   0  0.2751729E-02  0.6967871E+03  0.7818609E-02  0.9722743E-01
        1   -1    0    0  501    0  0.00000000000E+00  0.00000000000E+00  0.12762860669E+04  0.12762860669E+04  0.50400001928E-02 0.  1.
       -1   -1    0    0    0  501  0.00000000000E+00  0.00000000000E+00 -0.95102554345E+02  0.95102554478E+02  0.50400001928E-02 0. -1.
    10030    2    1    2    0    0  0.00000000000E+00  0.00000000000E+00  0.11811835125E+04  0.13713886213E+04  0.69678709842E+03 0.  0.
        1    1    3    3  502    0 -0.16727819201E+03  0.16515597674E+03  0.84504423181E+02  0.24979889458E+03  0.50400001928E-02 0. -1.
       -1    1    3    3    0  502  0.16727819201E+03 -0.16515597674E+03  0.10966790893E+04  0.11215897268E+04  0.50400001928E-02 0.  1.
</event>
<event>
 5   0  0.2777999E-02  0.7120836E+03  0.7818609E-02  0.9696788E-01
        1   -1    0    0  501    0  0.00000000000E+00  0.00000000000E+00  0.14429015913E+03  0.14429015921E+03  0.50400001928E-02 0.  1.
       -1   -1    0    0    0  501  0.00000000000E+00  0.00000000000E+00 -0.87854759457E+03  0.87854759458E+03  0.50400001928E-02 0. -1.
    10030    2    1    2    0    0  0.00000000000E+00  0.00000000000E+00 -0.73425743544E+03  0.10228377538E+04  0.71208362507E+03 0.  0.
        5    1    3    3  502    0  0.32022449854E+02  0.33019281024E+03 -0.55270237147E+03  0.64463534704E+03  0.46999998093E+01 0. -1.
       -5    1    3    3    0  502 -0.32022449854E+02 -0.33019281024E+03 -0.18155506398E+03  0.37820240676E+03  0.46999998093E+01 0.  1.
</event>
<event>
 5   0  0.4365492E-02  0.7152521E+03  0.7818609E-02  0.9691499E-01
       -2   -1    0    0    0  501  0.00000000000E+00  0.00000000000E+00  0.77757414979E+02  0.77757415021E+02  0.25500000920E-02 0. -1.
        2   -1    0    0  501    0  0.00000000000E+00  0.00000000000E+00 -0.16448128482E+04  0.16448128482E+04  0.25500000920E-02 0.  1.
    10030    2    1    2    0    0  0.00000000000E+00  0.00000000000E+00 -0.15670554332E+04  0.17225702632E+04  0.71525211006E+03 0.  0.
        4    1    3    3  502    0  0.12964486750E+03  0.16365063646E+03 -0.14827989278E+04  0.14974256562E+04  0.12699999809E+01 0.  1.
       -4    1    3    3    0  502 -0.12964486750E+03 -0.16365063646E+03 -0.84256505379E+02  0.22514460704E+03  0.12699999809E+01 0. -1.
</event>
<event>
 5   0  0.4526837E-02  0.6938828E+03  0.7818609E-02  0.9727751E-01
       -2   -1    0    0    0  501  0.00000000000E+00  0.00000000000E+00  0.27624266799E+03  0.27624266800E+03  0.25500000920E-02 0. -1.
        2   -1    0    0  501    0  0.00000000000E+00  0.00000000000E+00 -0.43573410389E+03  0.43573410389E+03  0.25500000920E-02 0.  1.
    10030    2    1    2    0    0  0.00000000000E+00  0.00000000000E+00 -0.15949143589E+03  0.71197677190E+03  0.69388284717E+03 0.  0.
        1    1    3    3  502    0 -0.16581602761E+02 -0.92954639212E+02  0.26280527987E+03  0.27925280599E+03  0.50400001928E-02 0. -1.
       -1    1    3    3    0  502  0.16581602761E+02  0.92954639212E+02 -0.42229671576E+03  0.43272396591E+03  0.50400001928E-02 0.  1.
</event>
<event>
 5   0  0.4420645E-02  0.7009370E+03  0.7818609E-02  0.9715631E-01
        2   -1    0    0  501    0  0.00000000000E+00  0.00000000000E+00  0.20027272094E+03  0.20027272096E+03  0.25500000920E-02 0. -1.
       -2   -1    0    0    0  501  0.00000000000E+00  0.00000000000E+00 -0.61330449024E+03  0.61330449025E+03  0.25500000920E-02 0.  1.
    10030    2    1    2    0    0  0.00000000000E+00  0.00000000000E+00 -0.41303176930E+03  0.81357721120E+03  0.70093697016E+03 0.  0.
        5    1    3    3  502    0 -0.58236500963E+02 -0.61405642874E+02  0.18819692593E+03  0.20640328473E+03  0.46999998093E+01 0. -1.
       -5    1    3    3    0  502  0.58236500963E+02  0.61405642874E+02 -0.60122869523E+03  0.60717392647E+03  0.46999998093E+01 0.  1.
</event>
<event>
 5   0  0.4365492E-02  0.7020462E+03  0.7818609E-02  0.9713739E-01
       -2   -1    0    0    0  501  0.00000000000E+00  0.00000000000E+00  0.72501920241E+02  0.72501920286E+02  0.25500000920E-02 0.  1.
        2   -1    0    0  501    0  0.00000000000E+00  0.00000000000E+00 -0.16995028666E+04  0.16995028666E+04  0.25500000920E-02 0. -1.
    10030    2    1    2    0    0  0.00000000000E+00  0.00000000000E+00 -0.16270009463E+04  0.17720047868E+04  0.70204621307E+03 0.  0.
        4    1    3    3  502    0 -0.11757176434E+03 -0.29119605359E+03 -0.41763892039E+03  0.52253434540E+03  0.12699999809E+01 0. -1.
       -4    1    3    3    0  502  0.11757176434E+03  0.29119605359E+03 -0.12093620259E+04  0.12494704415E+04  0.12699999809E+01 0.  1.
</event>
<event>
 5   0  0.4503289E-02  0.7190117E+03  0.7818609E-02  0.9685261E-01
        2   -1    0    0  501    0  0.00000000000E+00  0.00000000000E+00  0.13313366866E+04  0.13313366866E+04  0.25500000920E-02 0.  1.
       -2   -1    0    0    0  501  0.00000000000E+00  0.00000000000E+00 -0.97078703605E+02  0.97078703639E+02  0.25500000920E-02 0. -1.
    10030    2    1    2    0    0  0.00000000000E+00  0.00000000000E+00  0.12342579830E+04  0.14284153903E+04  0.71901165394E+03 0.  0.
        2    1    3    3  502    0 -0.31001101677E+03 -0.14133451600E+03  0.38920909718E+03  0.51726781967E+03  0.25500000920E-02 0. -1.
       -2    1    3    3    0  502  0.31001101677E+03  0.14133451600E+03  0.84504888583E+03  0.91114757058E+03  0.25500000920E-02 0.  1.
</event>
<event>
 5   0  0.4420645E-02  0.7376609E+03  0.7818609E-02  0.9654910E-01
        2   -1    0    0  501    0  0.00000000000E+00  0.00000000000E+00  0.95688072747E+03  0.95688072747E+03  0.25500000920E-02 0. -1.
       -2   -1    0    0    0  501  0.00000000000E+00  0.00000000000E+00 -0.14216600661E+03  0.14216600664E+03  0.25500000920E-02 0.  1.
    10030    2    1    2    0    0  0.00000000000E+00  0.00000000000E+00  0.81471472086E+03  0.10990467341E+04  0.73766092981E+03 0.  0.
        5    1    3    3  502    0 -0.13816949072E+03 -0.33736197820E+03  0.32427032891E+03  0.48793160249E+03  0.46999998093E+01 0.  1.
       -5    1    3    3    0  502  0.13816949072E+03  0.33736197820E+03  0.49044439195E+03  0.61111513162E+03  0.46999998093E+01 0. -1.
</event>
<event>
 5   0  0.4420645E-02  0.6932012E+03  0.7818609E-02  0.9728930E-01
       -2   -1    0    0    0  501  0.00000000000E+00  0.00000000000E+00  0.24373123831E+03  0.24373123833E+03  0.25500000920E-02 0.  1.
        2   -1    0    0  501    0  0.00000000000E+00  0.00000000000E+00 -0.49288712594E+03  0.49288712595E+03  0.25500000920E-02 0. -1.
    10030    2    1    2    0    0  0.00000000000E+00  0.00000000000E+00 -0.24915588763E+03  0.73661836427E+03  0.69320123935E+03 0.  0.
        5    1    3    3  502    0 -0.44758515665E+01 -0.20776335293E+03 -0.41930150905E+03  0.46799731790E+03  0.46999998093E+01 0. -1.
       -5    1    3    3    0  502  0.44758515665E+01  0.20776335293E+03  0.17014562142E+03  0.26862104637E+03  0.46999998093E+01 0.  1.
</event>
<event>
 5   0  0.1784625E-02  0.6866315E+03  0.7818609E-02  0.9740371E-01
       -4   -1    0    0    0  501  0.00000000000E+00  0.00000000000E+00  0.79655701135E+03  0.79655802376E+03  0.12699999809E+01 0. -1.
        4   -1    0    0  501    0  0.00000000000E+00  0.00000000000E+00 -0.14796510102E+03  0.14797055119E+03  0.12699999809E+01 0.  1.
    10030    2    1    2    0    0  0.00000000000E+00  0.00000000000E+00  0.64859191033E+03  0.94452857495E+03  0.68663146065E+03 0.  0.
        3    1    3    3  502    0  0.19814001760E+03 -0.21407069557E+03  0.57335112104E+03  0.64328628733E+03  0.10100000352E+00 0. -1.
       -3    1    3    3    0  502 -0.19814001760E+03  0.21407069557E+03  0.75240789289E+02  0.30124228762E+03  0.10100000352E+00 0.  1.
</event>
<event>
 5   0  0.2750139E-02  0.6950818E+03  0.7818609E-02  0.9725680E-01
       -1   -1    0    0    0  501  0.00000000000E+00  0.00000000000E+00  0.21378244567E+03  0.21378244573E+03  0.50400001928E-02 0.  1.
        1   -1    0    0  501    0  0.00000000000E+00  0.00000000000E+00 -0.56498883227E+03  0.56498883230E+03  0.50400001928E-02 0. -1.
    10030    2    1    2    0    0  0.00000000000E+00  0.00000000000E+00 -0.35120638660E+03  0.77877127803E+03  0.69508184949E+03 0.  0.
        2    1    3    3  502    0 -0.20709928782E+03  0.20805362433E+03 -0.38403496263E+03  0.48338315873E+03  0.25500000920E-02 0. -1.
       -2    1    3    3    0  502  0.20709928782E+03 -0.20805362433E+03  0.32828576023E+02  0.29538811930E+03  0.25500000920E-02 0.  1.
</event>
<event>
 5   0  0.1784625E-02  0.6955919E+03  0.7818609E-02  0.9724800E-01
        4   -1    0    0  501    0  0.00000000000E+00  0.00000000000E+00  0.71059004735E+03  0.71059118225E+03  0.12699999809E+01 0.  1.
       -4   -1    0    0    0  501  0.00000000000E+00  0.00000000000E+00 -0.17022394971E+03  0.17022868723E+03  0.12699999809E+01 0. -1.
    10030    2    1    2    0    0  0.00000000000E+00  0.00000000000E+00  0.54036609764E+03  0.88081986948E+03  0.69559192275E+03 0.  0.
        2    1    3    3  502    0 -0.26653159785E+03  0.52774658522E+02  0.54510986658E+03  0.60907226492E+03  0.25500000920E-02 0.  1.
       -2    1    3    3    0  502  0.26653159785E+03 -0.52774658522E+02 -0.47437689454E+01  0.27174760457E+03  0.25500000920E-02 0. -1.
</event>
<event>
 5   0  0.2758681E-02  0.6998527E+03  0.7818609E-02  0.9717484E-01
        1   -1    0    0  501    0  0.00000000000E+00  0.00000000000E+00  0.14724863728E+04  0.14724863728E+04  0.50400001928E-02 0.  1.
       -1   -1    0    0    0  501  0.00000000000E+00  0.00000000000E+00 -0.83157613649E+02  0.83157613801E+02  0.50400001928E-02 0. -1.
    10030    2    1    2    0    0  0.00000000000E+00  0.00000000000E+00  0.13893287591E+04  0.15556439866E+04  0.69985270740E+03 0.  0.
        3    1    3    3  502    0 -0.34043737674E+03  0.20916128440E+02  0.86846176141E+03  0.93303854859E+03  0.10100000352E+00 0.  1.
       -3    1    3    3    0  502  0.34043737674E+03 -0.20916128440E+02  0.52086699771E+03  0.62260543799E+03  0.10100000352E+00 0. -1.
</event>
<event>
 5   0  0.4299912E-02  0.7030837E+03  0.7818609E-02  0.9711973E-01
       -2   -1    0    0    0  501  0.00000000000E+00  0.00000000000E+00  0.12934777725E+03  0.12934777727E+03  0.25500000920E-02 0. -1.
        2   -1    0    0  501    0  0.00000000000E+00  0.00000000000E+00 -0.95542158313E+03  0.95542158313E+03  0.25500000920E-02 0.  1.
    10030    2    1    2    0    0  0.00000000000E+00  0.00000000000E+00 -0.82607380588E+03  0.10847693604E+04  0.70308365969E+03 0.  0.
        3    1    3    3  502    0  0.88696830109E+02 -0.43371473960E+02  0.10751654430E+03  0.14597270267E+03  0.10100000352E+00 0. -1.
       -3    1    3    3    0  502 -0.88696830109E+02  0.43371473960E+02 -0.93359035018E+03  0.93879665774E+03  0.10100000352E+00 0.  1.
</event>
<event>
 5   0  0.2751729E-02  0.6972725E+03  0.7818609E-02  0.9721908E-01
        1   -1    0    0  501    0  0.00000000000E+00  0.00000000000E+00  0.80597715096E+03  0.80597715097E+03  0.50400001928E-02 0. -1.
       -1   -1    0    0    0  501  0.00000000000E+00  0.00000000000E+00 -0.15080731211E+03  0.15080731219E+03  0.50400001928E-02 0.  1.
    10030    2    1    2    0    0  0.00000000000E+00  0.00000000000E+00  0.65516983885E+03  0.95678446317E+03  0.69727253726E+03 0.  0.
        1    1    3    3  502    0 -0.16901002049E+03  0.22914842148E+03  0.51527848557E+02  0.28935878299E+03  0.50400001928E-02 0.  1.
       -1    1    3    3    0  502  0.16901002049E+03 -0.22914842148E+03  0.60364199029E+03  0.66742568018E+03  0.50400001928E-02 0. -1.
</event>
<event>
 5   0  0.2750139E-02  0.7031003E+03  0.7818609E-02  0.9711945E-01
        1   -1    0    0  501    0  0.00000000000E+00  0.00000000000E+00  0.15353006818E+04  0.15353006818E+04  0.50400001928E-02 0.  1.
       -1   -1    0    0    0  501  0.00000000000E+00  0.00000000000E+00 -0.80497273220E+02  0.80497273377E+02  0.50400001928E-02 0. -1.
    10030    2    1    2    0    0  0.00000000000E+00  0.00000000000E+00  0.14548034086E+04  0.16157979552E+04  0.70310033022E+03 0.  0.
        2    1    3    3  502    0  0.28699723942E+03 -0.14625509811E+03  0.40378854345E+03  0.51652991877E+03  0.25500000920E-02 0. -1.
       -2    1    3    3    0  502 -0.28699723942E+03  0.14625509811E+03  0.10510148651E+04  0.10992680364E+04  0.25500000920E-02 0.  1.
</event>
<event>
 5   0  0.2777999E-02  0.7024495E+03  0.7818609E-02  0.9713052E-01
        1   -1    0    0  501    0  0.00000000000E+00  0.00000000000E+00  0.77453190443E+03  0.77453190445E+03  0.50400001928E-02 0. -1.
       -1   -1    0    0    0  501  0.00000000000E+00  0.00000000000E+00 -0.15926886834E+03  0.15926886842E+03  0.50400001928E-02 0.  1.
    10030    2    1    2    0    0  0.00000000000E+00  0.00000000000E+00  0.61526303609E+03  0.93380077287E+03  0.70244948562E+03 0.  0.
        5    1    3    3  502    0  0.34977322540E+03 -0.20694892874E+01  0.26578048454E+03  0.43932556032E+03  0.46999998093E+01 0.  1.
       -5    1    3    3    0  502 -0.34977322540E+03  0.20694892874E+01  0.34948255155E+03  0.49447521256E+03  0.46999998093E+01 0. -1.
</event>
<event>
 5   0  0.4503289E-02  0.7302946E+03  0.7818609E-02  0.9666782E-01
       -2   -1    0    0    0  501  0.00000000000E+00  0.00000000000E+00  0.58460255519E+02  0.58460255575E+02  0.25500000920E-02 0. -1.
        2   -1    0    0  501    0  0.00000000000E+00  0.00000000000E+00 -0.22807385903E+04  0.22807385903E+04  0.25500000920E-02 0.  1.
    10030    2    1    2    0    0  0.00000000000E+00  0.00000000000E+00 -0.22222783348E+04  0.23391988459E+04  0.73029462775E+03 0.  0.
        2    1    3    3  502    0 -0.97574935054E+01 -0.54667696685E+02 -0.22671339989E+04  0.22678139991E+04  0.25500000920E-02 0.  1.
       -2    1    3    3    0  502  0.97574935054E+01  0.54667696685E+02  0.44855664087E+02  0.71384846764E+02  0.25500000920E-02 0. -1.
</event>
<event>
 5   0  0.4365492E-02  0.6935243E+03  0.7818609E-02  0.9728371E-01
       -2   -1    0    0    0  501  0.00000000000E+00  0.00000000000E+00  0.74034004174E+02  0.74034004218E+02  0.25500000920E-02 0. -1.
        2   -1    0    0  501    0  0.00000000000E+00  0.00000000000E+00 -0.16241722427E+04  0.16241722427E+04  0.25500000920E-02 0.  1.
    10030    2    1    2    0    0  0.00000000000E+00  0.00000000000E+00 -0.15501382385E+04  0.16982062469E+04  0.69352425951E+03 0.  0.
        4    1    3    3  502    0  0.81147937857E+02 -0.29033040362E+01  0.50420242067E+02  0.95588862860E+02  0.12699999809E+01 0. -1.
       -4    1    3    3    0  502 -0.81147937857E+02  0.29033040362E+01 -0.16005584805E+04  0.16026173840E+04  0.12699999809E+01 0.  1.
</event>
<event>
 5   0  0.2758681E-02  0.7027167E+03  0.7818609E-02  0.9712598E-01
        1   -1    0    0  501    0  0.00000000000E+00  0.00000000000E+00  0.14920522685E+03  0.14920522694E+03  0.50400001928E-02 0. -1.
       -1   -1    0    0    0  501  0.00000000000E+00  0.00000000000E+00 -0.82740192848E+03  0.82740192849E+03  0.50400001928E-02 0.  1.
    10030    2    1    2    0    0  0.00000000000E+00  0.00000000000E+00 -0.67819670162E+03  0.97660715543E+03  0.70271670675E+03 0.  0.
        3    1    3    3  502    0  0.89816872691E+02  0.29400119343E+03 -0.10263941502E+03  0.32409664002E+03  0.10100000352E+00 0. -1.
       -3    1    3    3    0  502 -0.89816872691E+02 -0.29400119343E+03 -0.57555728660E+03  0.65251051541E+03  0.10100000352E+00 0.  1.
</event>
<event>
 5   0  0.4503289E-02  0.7098747E+03  0.7818609E-02  0.9700493E-01
        2   -1    0    0  501    0  0.00000000000E+00  0.00000000000E+00  0.80824106060E+03  0.80824106061E+03  0.25500000920E-02 0. -1.
       -2   -1    0    0    0  501  0.00000000000E+00  0.00000000000E+00 -0.15586998056E+03  0.15586998058E+03  0.25500000920E-02 0.  1.
    10030    2    1    2    0    0  0.00000000000E+00  0.00000000000E+00  0.65237108004E+03  0.96411104119E+03  0.70987468870E+03 0.  0.
        2    1    3    3  502    0  0.11637034524E+03  0.22083822813E+03  0.66888164530E+03  0.71394273978E+03  0.25500000920E-02 0. -1.
       -2    1    3    3    0  502 -0.11637034524E+03 -0.22083822813E+03 -0.16510565260E+02  0.25016830141E+03  0.25500000920E-02 0.  1.
</event>
<event>
 5   0  0.2777999E-02  0.5460246E+03  0.7818609E-02  0.1002418E+00
       -1   -1    0    0    0  501  0.00000000000E+00  0.00000000000E+00  0.10469536503E+03  0.10469536515E+03  0.50400001928E-02 0.  1.
        1   -1    0    0  501    0  0.00000000000E+00  0.00000000000E+00 -0.71192951080E+03  0.71192951082E+03  0.50400001928E-02 0. -1.
    10030    2    1    2    0    0  0.00000000000E+00  0.00000000000E+00 -0.60723414578E+03  0.81662487597E+03  0.54602461507E+03 0.  0.
        5    1    3    3  502    0 -0.17357391073E+02 -0.21141735772E+03 -0.46676812759E+02  0.21725421289E+03  0.46999998093E+01 0.  1.
       -5    1    3    3    0  502  0.17357391073E+02  0.21141735772E+03 -0.56055733302E+03  0.59937066308E+03  0.46999998093E+01 0. -1.
</event>
<event>
 5   0  0.1784625E-02  0.7093594E+03  0.7818609E-02  0.9701359E-01
        3   -1    0    0  501    0  0.00000000000E+00  0.00000000000E+00  0.22718785262E+03  0.22718787508E+03  0.10100000352E+00 0. -1.
       -3   -1    0    0    0  501  0.00000000000E+00  0.00000000000E+00 -0.55371651233E+03  0.55371652155E+03  0.10100000352E+00 0.  1.
    10030    2    1    2    0    0  0.00000000000E+00  0.00000000000E+00 -0.32652865971E+03  0.78090439662E+03  0.70935936665E+03 0.  0.
        2    1    3    3  502    0  0.35274350867E+01 -0.32331744716E+03 -0.32374469097E+03  0.45755572270E+03  0.25500000920E-02 0.  1.
       -2    1    3    3    0  502 -0.35274350867E+01  0.32331744716E+03 -0.27839687352E+01  0.32334867392E+03  0.25500000920E-02 0. -1.
</event>
<event>
 5   0  0.2684924E-02  0.7030016E+03  0.7818609E-02  0.9712113E-01
        1   -1    0    0  501    0  0.00000000000E+00  0.00000000000E+00  0.25222996432E+03  0.25222996437E+03  0.50400001928E-02 0.  1.
       -1   -1    0    0    0  501  0.00000000000E+00  0.00000000000E+00 -0.48984196000E+03  0.48984196003E+03  0.50400001928E-02 0. -1.
    10030    2    1    2    0    0  0.00000000000E+00  0.00000000000E+00 -0.23761199568E+03  0.74207192440E+03  0.70300162197E+03 0.  0.
        4    1    3    3  502    0 -0.11866607060E+03 -0.20008941884E+03 -0.39695347576E+03  0.46009899659E+03  0.12699999809E+01 0. -1.
       -4    1    3    3    0  502  0.11866607060E+03  0.20008941884E+03  0.15934148008E+03  0.28197292781E+03  0.12699999809E+01 0.  1.
</event>
<event>
 5   0  0.2750139E-02  0.7031697E+03  0.7818609E-02  0.9711827E-01
        1   -1    0    0  501    0  0.00000000000E+00  0.00000000000E+00  0.47288012077E+03  0.47288012080E+03  0.50400001928E-02 0.  1.
       -1   -1    0    0    0  501  0.00000000000E+00  0.00000000000E+00 -0.26140218690E+03  0.26140218695E+03  0.50400001928E-02 0. -1.
    10030    2    1    2    0    0  0.00000000000E+00  0.00000000000E+00  0.21147793387E+03  0.73428230775E+03  0.70316967437E+03 0.  0.
        2    1    3    3  502    0 -0.16359871740E+03  0.26840283050E+03 -0.58733227942E+02  0.31977212484E+03  0.25500000920E-02 0.  1.
       -2    1    3    3    0  502  0.16359871740E+03 -0.26840283050E+03  0.27021116182E+03  0.41451018290E+03  0.25500000920E-02 0. -1.
</event>
<event>
 5   0  0.2777999E-02  0.6931287E+03  0.7818609E-02  0.9729056E-01
       -1   -1    0    0    0  501  0.00000000000E+00  0.00000000000E+00  0.18909862676E+03  0.18909862683E+03  0.50400001928E-02 0. -1.
        1   -1    0    0  501    0  0.00000000000E+00  0.00000000000E+00 -0.63515450117E+03  0.63515450119E+03  0.50400001928E-02 0.  1.
    10030    2    1    2    0    0  0.00000000000E+00  0.00000000000E+00 -0.44605587441E+03  0.82425312802E+03  0.69312868644E+03 0.  0.
        5    1    3    3  502    0 -0.14499212668E+03 -0.18489644296E+02 -0.59666476692E+03  0.61432525410E+03  0.46999998093E+01 0.  1.
       -5    1    3    3    0  502  0.14499212668E+03  0.18489644296E+02  0.15060889252E+03  0.20992787392E+03  0.46999998093E+01 0. -1.
</event>
<event>
 5   0  0.2751729E-02  0.7104947E+03  0.7818609E-02  0.9699451E-01
        1   -1    0    0  501    0  0.00000000000E+00  0.00000000000E+00  0.24769907250E+03  0.24769907255E+03  0.50400001928E-02 0. -1.
       -1   -1    0    0    0  501  0.00000000000E+00  0.00000000000E+00 -0.50949193225E+03  0.50949193228E+03  0.50400001928E-02 0.  1.
    10030    2    1    2    0    0  0.00000000000E+00  0.00000000000E+00 -0.26179285975E+03  0.75719100483E+03  0.71049469834E+03 0.  0.
        1    1    3    3  502    0 -0.99238773623E+02 -0.27503933425E+03  0.84120308090E+02  0.30425514923E+03  0.50400001928E-02 0. -1.
       -1    1    3    3    0  502  0.99238773623E+02  0.27503933425E+03 -0.34591316784E+03  0.45293585560E+03  0.50400001928E-02 0.  1.
</event>
<event>
 5   0  0.4299912E-02  0.6941746E+03  0.7818609E-02  0.9727247E-01
       -2   -1    0    0    0  501  0.00000000000E+00  0.00000000000E+00  0.12674353063E+03  0.12674353065E+03  0.25500000920E-02 0.  1.
        2   -1    0    0  501    0  0.00000000000E+00  0.00000000000E+00 -0.95049889129E+03  0.95049889130E+03  0.25500000920E-02 0. -1.
    10030    2    1    2    0    0  0.00000000000E+00  0.00000000000E+00 -0.82375536066E+03  0.10772424220E+04  0.69417457561E+03 0.  0.
        3    1    3    3  502    0 -0.32181327714E+03  0.11987681634E+03 -0.49001576084E+03  0.59837253656E+03  0.10100000352E+00 0. -1.
       -3    1    3    3    0  502  0.32181327714E+03 -0.11987681634E+03 -0.33373959983E+03  0.47886988539E+03  0.10100000352E+00 0.  1.
</event>
<event>
 5   0  0.4299912E-02  0.7978168E+03  0.7818609E-02  0.9563183E-01
       -2   -1    0    0    0  501  0.00000000000E+00  0.00000000000E+00  0.31033875633E+03  0.31033875634E+03  0.25500000920E-02 0.  1.
        2   -1    0    0  501    0  0.00000000000E+00  0.00000000000E+00 -0.51275557621E+03  0.51275557622E+03  0.25500000920E-02 0. -1.
    10030    2    1    2    0    0  0.00000000000E+00  0.00000000000E+00 -0.20241681989E+03  0.82309433256E+03  0.79781684071E+03 0.  0.
        3    1    3    3  502    0  0.38767136631E+03 -0.22244890343E+01 -0.19817501370E+03  0.43539336566E+03  0.10100000352E+00 0. -1.
       -3    1    3    3    0  502 -0.38767136631E+03  0.22244890343E+01 -0.42418061911E+01  0.38770096689E+03  0.10100000352E+00 0.  1.
</event>
<event>
 5   0  0.2777999E-02  0.7046144E+03  0.7818609E-02  0.9709373E-01
       -1   -1    0    0    0  501  0.00000000000E+00  0.00000000000E+00  0.12004287732E+03  0.12004287743E+03  0.50400001928E-02 0. -1.
        1   -1    0    0  501    0  0.00000000000E+00  0.00000000000E+00 -0.10339669016E+04  0.10339669016E+04  0.50400001928E-02 0.  1.
    10030    2    1    2    0    0  0.00000000000E+00  0.00000000000E+00 -0.91392402428E+03  0.11540097790E+04  0.70461439665E+03 0.  0.
        5    1    3    3  502    0  0.31716714377E+03 -0.14794501963E+03 -0.39113295259E+03  0.52487122470E+03  0.46999998093E+01 0.  1.
       -5    1    3    3    0  502 -0.31716714377E+03  0.14794501963E+03 -0.52279107169E+03  0.62913855434E+03  0.46999998093E+01 0. -1.
</event>
<event>
 5   0  0.2751729E-02  0.7009980E+03  0.7818609E-02  0.9715527E-01
        1   -1    0    0  501    0  0.00000000000E+00  0.00000000000E+00  0.10471383496E+04  0.10471383496E+04  0.50400001928E-02 0. -1.
       -1   -1    0    0    0  501  0.00000000000E+00  0.00000000000E+00 -0.11731932684E+03  0.11731932695E+03  0.50400001928E-02 0.  1.
    10030    2    1    2    0    0  0.00000000000E+00  0.00000000000E+00  0.92981902279E+03  0.11644576766E+04  0.70099804951E+03 0.  0.
        1    1    3    3  502    0  0.34403471813E+02 -0.24514137034E+03  0.87709944981E+03  0.91136235121E+03  0.50400001928E-02 0. -1.
       -1    1    3    3    0  502 -0.34403471813E+02  0.24514137034E+03  0.52719572981E+02  0.25309532538E+03  0.50400001928E-02 0.  1.
</event>
<event>
 5   0  0.2758681E-02  0.6919633E+03  0.7818609E-02  0.9731076E-01
        1   -1    0    0  501    0  0.00000000000E+00  0.00000000000E+00  0.74861550556E+03  0.74861550557E+03  0.50400001928E-02 0.  1.
       -1   -1    0    0    0  501  0.00000000000E+00  0.00000000000E+00 -0.15989958291E+03  0.15989958299E+03  0.50400001928E-02 0. -1.
    10030    2    1    2    0    0  0.00000000000E+00  0.00000000000E+00  0.58871592264E+03  0.90851508857E+03  0.69196331447E+03 0.  0.
        3    1    3    3  502    0  0.25862754155E+03 -0.95198601980E+02  0.56898899215E+03  0.63221789160E+03  0.10100000352E+00 0.  1.
       -3    1    3    3    0  502 -0.25862754155E+03  0.95198601980E+02  0.19726930495E+02  0.27629719697E+03  0.10100000352E+00 0. -1.
</event>
<event>
 5   0  0.4503289E-02  0.7035099E+03  0.7818609E-02  0.9711249E-01
       -2   -1    0    0    0  501  0.00000000000E+00  0.00000000000E+00  0.44038075435E+03  0.44038075436E+03  0.25500000920E-02 0. -1.
        2   -1    0    0  501    0  0.00000000000E+00  0.00000000000E+00 -0.28096493221E+03  0.28096493222E+03  0.25500000920E-02 0.  1.
    10030    2    1    2    0    0  0.00000000000E+00  0.00000000000E+00  0.15941582214E+03  0.72134568658E+03  0.70350991123E+03 0.  0.
        2    1    3    3  502    0 -0.96069754763E+00  0.34123311411E+03 -0.78417537698E+01  0.34132455847E+03  0.25500000920E-02 0. -1.
       -2    1    3    3    0  502  0.96069754763E+00 -0.34123311411E+03  0.16725757591E+03  0.38002112811E+03  0.25500000920E-02 0.  1.
</event>
<event>
 5   0  0.4503289E-02  0.7035707E+03  0.7818609E-02  0.9711145E-01
        2   -1    0    0  501    0  0.00000000000E+00  0.00000000000E+00  0.12103460569E+04  0.12103460569E+04  0.25500000920E-02 0. -1.
       -2   -1    0    0    0  501  0.00000000000E+00  0.00000000000E+00 -0.10224590139E+03  0.10224590142E+03  0.25500000920E-02 0.  1.
    10030    2    1    2    0    0  0.00000000000E+00  0.00000000000E+00  0.11081001555E+04  0.13125919583E+04  0.70357067477E+03 0.  0.
        2    1    3    3  502    0 -0.12704315495E+03  0.19779851135E+03  0.10422879907E+04  0.10684701540E+04  0.25500000920E-02 0. -1.
       -2    1    3    3    0  502  0.12704315495E+03 -0.19779851135E+03  0.65812164773E+02  0.24412180433E+03  0.25500000920E-02 0.  1.
</event>
<event>
 5   0  0.2684924E-02  0.6883542E+03  0.7818609E-02  0.9737358E-01
       -1   -1    0    0    0  501  0.00000000000E+00  0.00000000000E+00  0.34355410794E+03  0.34355410797E+03  0.50400001928E-02 0.  1.
        1   -1    0    0  501    0  0.00000000000E+00  0.00000000000E+00 -0.34480121934E+03  0.34480121937E+03  0.50400001928E-02 0. -1.
    10030    2    1    2    0    0  0.00000000000E+00  0.00000000000E+00 -0.12471113972E+01  0.68835532735E+03  0.68835419763E+03 0.  0.
        4    1    3    3  502    0 -0.34268227531E+03  0.66728784744E+01  0.30690922586E+02  0.34412093041E+03  0.12699999809E+01 0.  1.
       -4    1    3    3    0  502  0.34268227531E+03 -0.66728784744E+01 -0.31938033983E+02  0.34423439694E+03  0.12699999809E+01 0. -1.
</event>
<event>
 5   0  0.4526837E-02  0.6897757E+03  0.7818609E-02  0.9734879E-01
       -2   -1    0    0    0  501  0.00000000000E+00  0.00000000000E+00  0.10038008943E+03  0.10038008946E+03  0.25500000920E-02 0. -1.
        2   -1    0    0  501    0  0.00000000000E+00  0.00000000000E+00 -0.11849722906E+04  0.11849722906E+04  0.25500000920E-02 0.  1.
    10030    2    1    2    0    0  0.00000000000E+00  0.00000000000E+00 -0.10845922012E+04  0.12853523801E+04  0.68977568680E+03 0.  0.
        1    1    3    3  502    0 -0.30338877026E+03 -0.17041503010E+02 -0.84628440960E+03  0.89918433077E+03  0.50400001928E-02 0.  1.
       -1    1    3    3    0  502  0.30338877026E+03  0.17041503010E+02 -0.23830779156E+03  0.38616804928E+03  0.50400001928E-02 0. -1.
</event>
<event>
 5   0  0.1784625E-02  0.7007422E+03  0.7818609E-02  0.9715964E-01
        3   -1    0    0  501    0  0.00000000000E+00  0.00000000000E+00  0.10100705560E+04  0.10100705610E+04  0.10100000352E+00 0.  1.
       -3   -1    0    0    0  501  0.00000000000E+00  0.00000000000E+00 -0.12153595877E+03  0.12153600073E+03  0.10100000352E+00 0. -1.
    10030    2    1    2    0    0  0.00000000000E+00  0.00000000000E+00  0.88853459719E+03  0.11316065617E+04  0.70074223518E+03 0.  0.
        2    1    3    3  502    0  0.20806227776E+03 -0.25243222139E+03  0.64691870437E+03  0.72492464980E+03  0.25500000920E-02 0.  1.
       -2    1    3    3    0  502 -0.20806227776E+03  0.25243222139E+03  0.24161589282E+03  0.40668191194E+03  0.25500000920E-02 0. -1.
</event>
<event>
 5   0  0.4420645E-02  0.6831722E+03  0.7818609E-02  0.9746451E-01
        2   -1    0    0  501    0  0.00000000000E+00  0.00000000000E+00  0.34078689676E+03  0.34078689677E+03  0.25500000920E-02 0. -1.
       -2   -1    0    0    0  501  0.00000000000E+00  0.00000000000E+00 -0.34238714122E+03  0.34238714123E+03  0.25500000920E-02 0.  1.
    10030    2    1    2    0    0  0.00000000000E+00  0.00000000000E+00 -0.16002444525E+01  0.68317403800E+03  0.68317216382E+03 0.  0.
        5    1    3    3  502    0  0.81068920845E+02  0.19795105603E+03 -0.26707546819E+03  0.34221073363E+03  0.46999998093E+01 0.  1.
       -5    1    3    3    0  502 -0.81068920845E+02 -0.19795105603E+03  0.26547522373E+03  0.34096330437E+03  0.46999998093E+01 0. -1.
</event>
<event>
 5   0  0.4420645E-02  0.7048579E+03  0.7818609E-02  0.9708960E-01
        2   -1    0    0  501    0  0.00000000000E+00  0.00000000000E+00  0.25420065889E+03  0.25420065891E+03  0.25500000920E-02 0.  1.
       -2   -1    0    0    0  501  0.00000000000E+00  0.00000000000E+00 -0.48861460630E+03  0.48861460631E+03  0.25500000920E-02 0. -1.
    10030    2    1    2    0    0  0.00000000000E+00  0.00000000000E+00 -0.23441394741E+03  0.74281526521E+03  0.70485787184E+03 0.  0.
        5    1    3    3  502    0  0.17089248277E+03 -0.65876789333E+02 -0.43448455692E+03  0.47153251451E+03  0.46999998093E+01 0. -1.
       -5    1    3    3    0  502 -0.17089248277E+03  0.65876789333E+02  0.20007060951E+03  0.27128275070E+03  0.46999998093E+01 0.  1.
</event>
<event>
 5   0  0.1784625E-02  0.6004928E+03  0.7818609E-02  0.9904384E-01
        3   -1    0    0  501    0  0.00000000000E+00  0.00000000000E+00  0.76406279748E+02  0.76406346503E+02  0.10100000352E+00 0. -1.
       -3   -1    0    0    0  501  0.00000000000E+00  0.00000000000E+00 -0.11798489405E+04  0.11798489448E+04  0.10100000352E+00 0.  1.
    10030    2    1    2    0    0  0.00000000000E+00  0.00000000000E+00 -0.11034426607E+04  0.12562552913E+04  0.60049284043E+03 0.  0.
        3    1    3    3  502    0 -0.23427599752E+03  0.38957983226E+02 -0.16741780416E+03  0.29057133172E+03  0.10100000352E+00 0. -1.
       -3    1    3    3    0  502  0.23427599752E+03 -0.38957983226E+02 -0.93602485655E+03  0.96568395956E+03  0.10100000352E+00 0.  1.
</event>
<event>
 5   0  0.4503289E-02  0.6850265E+03  0.7818609E-02  0.9743187E-01
        2   -1    0    0  501    0  0.00000000000E+00  0.00000000000E+00  0.35693305342E+03  0.35693305343E+03  0.25500000920E-02 0. -1.
       -2   -1    0    0    0  501  0.00000000000E+00  0.00000000000E+00 -0.32867599354E+03  0.32867599355E+03  0.25500000920E-02 0.  1.
    10030    2    1    2    0    0  0.00000000000E+00  0.00000000000E+00  0.28257059882E+02  0.68560904697E+03  0.68502649865E+03 0.  0.
        2    1    3    3  502    0 -0.20288912826E+03 -0.79132687917E+02  0.27871927808E+03  0.35370950884E+03  0.25500000920E-02 0. -1.
       -2    1    3    3    0  502  0.20288912826E+03  0.79132687917E+02 -0.25046221820E+03  0.33189953813E+03  0.25500000920E-02 0.  1.
</event>
<event>
 5   0  0.2777999E-02  0.7449511E+03  0.7818609E-02  0.9643305E-01
       -1   -1    0    0    0  501  0.00000000000E+00  0.00000000000E+00  0.19116488633E+03  0.19116488639E+03  0.50400001928E-02 0.  1.
        1   -1    0    0  501    0  0.00000000000E+00  0.00000000000E+00 -0.72575071625E+03  0.72575071626E+03  0.50400001928E-02 0. -1.
    10030    2    1    2    0    0  0.00000000000E+00  0.00000000000E+00 -0.53458582992E+03  0.91691560266E+03  0.74495114796E+03 0.  0.
        5    1    3    3  502    0 -0.72511068492E+02  0.31307418414E+03 -0.35572261672E+02  0.32335858676E+03  0.46999998093E+01 0.  1.
       -5    1    3    3    0  502  0.72511068492E+02 -0.31307418414E+03 -0.49901356825E+03  0.59355701590E+03  0.46999998093E+01 0. -1.
</event>
<event>
 5   0  0.4299912E-02  0.6934802E+03  0.7818609E-02  0.9728447E-01
       -2   -1    0    0    0  501  0.00000000000E+00  0.00000000000E+00  0.32834550886E+03  0.32834550887E+03  0.25500000920E-02 0.  1.
        2   -1    0    0  501    0  0.00000000000E+00  0.00000000000E+00 -0.36616520463E+03  0.36616520464E+03  0.25500000920E-02 0. -1.
    10030    2    1    2    0    0  0.00000000000E+00  0.00000000000E+00 -0.37819695768E+02  0.69451071351E+03  0.69348021009E+03 0.  0.
        3    1    3    3  502    0 -0.25265342199E+02  0.21857501526E+03  0.24947216984E+03  0.33264056959E+03  0.10100000352E+00 0.  1.
       -3    1    3    3    0  502  0.25265342199E+02 -0.21857501526E+03 -0.28729186560E+03  0.36187014392E+03  0.10100000352E+00 0. -1.
</event>
<event>
 5   0  0.2758681E-02  0.7009862E+03  0.7818609E-02  0.9715547E-01
       -1   -1    0    0    0  501  0.00000000000E+00  0.00000000000E+00  0.21427957601E+03  0.21427957607E+03  0.50400001928E-02 0. -1.
        1   -1    0    0  501    0  0.00000000000E+00  0.00000000000E+00 -0.57329500050E+03  0.57329500052E+03  0.50400001928E-02 0.  1.
    10030    2    1    2    0    0  0.00000000000E+00  0.00000000000E+00 -0.35901542449E+03  0.78757457659E+03  0.70098619007E+03 0.  0.
        3    1    3    3  502    0  0.13813401933E+03  0.93709789479E+02  0.16675431284E+03  0.23594394036E+03  0.10100000352E+00 0. -1.
       -3    1    3    3    0  502 -0.13813401933E+03 -0.93709789479E+02 -0.52576973733E+03  0.55163063623E+03  0.10100000352E+00 0.  1.
</event>
<event>
 5   0  0.4365492E-02  0.7035748E+03  0.7818609E-02  0.9711138E-01
        2   -1    0    0  501    0  0.00000000000E+00  0.00000000000E+00  0.85899830180E+03  0.85899830180E+03  0.25500000920E-02 0.  1.
       -2   -1    0    0    0  501  0.00000000000E+00  0.00000000000E+00 -0.14406823231E+03  0.14406823233E+03  0.25500000920E-02 0. -1.
    10030    2    1    2    0    0  0.00000000000E+00  0.00000000000E+00  0.71493006949E+03  0.10030665341E+04  0.70357477758E+03 0.  0.
        4    1    3    3  502    0 -0.31010832163E+03 -0.11076921929E+02  0.59372631638E+03  0.66992717589E+03  0.12699999809E+01 0.  1.
       -4    1    3    3    0  502  0.31010832163E+03  0.11076921929E+02  0.12120375311E+03  0.33313935824E+03  0.12699999809E+01 0. -1.
</event>
<event>
 5   0  0.2750139E-02  0.6960825E+03  0.7818609E-02  0.9723955E-01
        1   -1    0    0  501    0  0.00000000000E+00  0.00000000000E+00  0.22446244897E+04  0.22446244897E+04  0.50400001928E-02 0. -1.
       -1   -1    0    0    0  501  0.00000000000E+00  0.00000000000E+00 -0.53965695466E+02  0.53965695701E+02  0.50400001928E-02 0.  1.
    10030    2    1    2    0    0  0.00000000000E+00  0.00000000000E+00  0.21906587942E+04  0.22985901854E+04  0.69608252937E+03 0.  0.
        2    1    3    3  502    0 -0.42885396490E+02  0.11781535045E+03  0.21674610627E+04  0.21710843079E+04  0.25500000920E-02 0. -1.
       -2    1    3    3    0  502  0.42885396490E+02 -0.11781535045E+03  0.23197731589E+02  0.12750587748E+03  0.25500000920E-02 0.  1.
</event>
<event>
 5   0  0.2751729E-02  0.7059273E+03  0.7818609E-02  0.9707149E-01
        1   -1    0    0  501    0  0.00000000000E+00  0.00000000000E+00  0.84178315551E+03  0.84178315553E+03  0.50400001928E-02 0.  1.
       -1   -1    0    0    0  501  0.00000000000E+00  0.00000000000E+00 -0.14799932455E+03  0.14799932464E+03  0.50400001928E-02 0. -1.
    10030    2    1    2    0    0  0.00000000000E+00  0.00000000000E+00  0.69378383096E+03  0.98978248017E+03  0.70592730075E+03 0.  0.
        1    1    3    3  502    0 -0.15486938878E+03 -0.10698939321E+03 -0.71752715492E+02  0.20144406183E+03  0.50400001928E-02 0. -1.
       -1    1    3    3    0  502  0.15486938878E+03  0.10698939321E+03  0.76553654645E+03  0.78833841833E+03  0.50400001928E-02 0.  1.
</event>
<event>
 5   0  0.4420645E-02  0.7112636E+03  0.7818609E-02  0.9698162E-01
        2   -1    0    0  501    0  0.00000000000E+00  0.00000000000E+00  0.12750999108E+04  0.12750999108E+04  0.25500000920E-02 0. -1.
       -2   -1    0    0    0  501  0.00000000000E+00  0.00000000000E+00 -0.99187498026E+02  0.99187498059E+02  0.25500000920E-02 0.  1.
    10030    2    1    2    0    0  0.00000000000E+00  0.00000000000E+00  0.11759124128E+04  0.13742874089E+04  0.71126357958E+03 0.  0.
        5    1    3    3  502    0  0.18622521123E+03 -0.62983958102E+02  0.15414936154E+02  0.19724735367E+03  0.46999998093E+01 0.  1.
       -5    1    3    3    0  502 -0.18622521123E+03  0.62983958102E+02  0.11604974766E+04  0.11770400552E+04  0.46999998093E+01 0. -1.
</event>
<event>
 5   0  0.2777999E-02  0.7170387E+03  0.7818609E-02  0.9688529E-01
       -1   -1    0    0    0  501  0.00000000000E+00  0.00000000000E+00  0.12236022799E+03  0.12236022809E+03  0.50400001928E-02 0.  1.
        1   -1    0    0  501    0  0.00000000000E+00  0.00000000000E+00 -0.10504729515E+04  0.10504729516E+04  0.50400001928E-02 0. -1.
    10030    2    1    2    0    0  0.00000000000E+00  0.00000000000E+00 -0.92811272356E+03  0.11728331797E+04  0.71703865981E+03 0.  0.
        5    1    3    3  502    0 -0.69625732536E+02  0.39110926733E+01  0.11110864363E+03  0.13126408482E+03  0.46999998093E+01 0.  1.
       -5    1    3    3    0  502  0.69625732536E+02 -0.39110926733E+01 -0.10392213672E+04  0.10415690948E+04  0.46999998093E+01 0. -1.
</event>
<event>
 5   0  0.4299912E-02  0.7014062E+03  0.7818609E-02  0.9714830E-01
        2   -1    0    0  501    0  0.00000000000E+00  0.00000000000E+00  0.28709728369E+03  0.28709728370E+03  0.25500000920E-02 0. -1.
       -2   -1    0    0    0  501  0.00000000000E+00  0.00000000000E+00 -0.42840064388E+03  0.42840064388E+03  0.25500000920E-02 0.  1.
    10030    2    1    2    0    0  0.00000000000E+00  0.00000000000E+00 -0.14130336018E+03  0.71549792759E+03  0.70140619101E+03 0.  0.
        3    1    3    3  502    0 -0.32689273943E+02 -0.73334628279E+02  0.27759553169E+03  0.28897378038E+03  0.10100000352E+00 0. -1.
       -3    1    3    3    0  502  0.32689273943E+02  0.73334628279E+02 -0.41889889187E+03  0.42652414720E+03  0.10100000352E+00 0.  1.
</event>
<event>
 5   0  0.4526837E-02  0.7171108E+03  0.7818609E-02  0.9688410E-01
        2   -1    0    0  501    0  0.00000000000E+00  0.00000000000E+00  0.61803086255E+03  0.61803086256E+03  0.25500000920E-02 0.  1.
       -2   -1    0    0    0  501  0.00000000000E+00  0.00000000000E+00 -0.20801869752E+03  0.20801869754E+03  0.25500000920E-02 0. -1.
    10030    2    1    2    0    0  0.00000000000E+00  0.00000000000E+00  0.41001216503E+03  0.82604956009E+03  0.71711080054E+03 0.  0.
        1    1    3    3  502    0 -0.21670213246E+03  0.98153104600E+02 -0.10401630706E+03  0.25964059451E+03  0.50400001928E-02 0. -1.
       -1    1    3    3    0  502  0.21670213246E+03 -0.98153104600E+02  0.51402847209E+03  0.56640896559E+03  0.50400001928E-02 0.  1.
</event>
<event>
 5   0  0.2750139E-02  0.7004476E+03  0.7818609E-02  0.9716467E-01
       -1   -1    0    0    0  501  0.00000000000E+00  0.00000000000E+00  0.62438204502E+03  0.62438204504E+03  0.50400001928E-02 0. -1.
        1   -1    0    0  501    0  0.00000000000E+00  0.00000000000E+00 -0.19644497483E+03  0.19644497489E+03  0.50400001928E-02 0.  1.
    10030    2    1    2    0    0  0.00000000000E+00  0.00000000000E+00  0.42793707020E+03  0.82082701994E+03  0.70044761447E+03 0.  0.
        2    1    3    3  502    0  0.16685803644E+03 -0.26296406922E+03  0.40170416104E+03  0.50828922773E+03  0.25500000920E-02 0.  1.
       -2    1    3    3    0  502 -0.16685803644E+03  0.26296406922E+03  0.26232909155E+02  0.31253779220E+03  0.25500000920E-02 0. -1.
</event>
<event>
 5   0  0.1784625E-02  0.6965385E+03  0.7818609E-02  0.9723170E-01
        4   -1    0    0  501    0  0.00000000000E+00  0.00000000000E+00  0.27888146320E+03  0.27888435492E+03  0.12699999809E+01 0.  1.
       -4   -1    0    0    0  501  0.00000000000E+00  0.00000000000E+00 -0.43491521929E+03  0.43491707355E+03  0.12699999809E+01 0. -1.
    10030    2    1    2    0    0  0.00000000000E+00  0.00000000000E+00 -0.15603375609E+03  0.71380142847E+03  0.69653854613E+03 0.  0.
        3    1    3    3  502    0  0.44428676174E+02 -0.19853850833E+03  0.21165459532E+03  0.29357984345E+03  0.10100000352E+00 0.  1.
       -3    1    3    3    0  502 -0.44428676174E+02  0.19853850833E+03 -0.36768835141E+03  0.42022158502E+03  0.10100000352E+00 0. -1.
</event>
<event>
 5   0  0.4299912E-02  0.7025527E+03  0.7818609E-02  0.9712877E-01
       -2   -1    0    0    0  501  0.00000000000E+00  0.00000000000E+00  0.13256721939E+03  0.13256721941E+03  0.25500000920E-02 0. -1.
        2   -1    0    0  501    0  0.00000000000E+00  0.00000000000E+00 -0.93081140608E+03  0.93081140608E+03  0.25500000920E-02 0.  1.
    10030    2    1    2    0    0  0.00000000000E+00  0.00000000000E+00 -0.79824418669E+03  0.10633786255E+04  0.70255271658E+03 0.  0.
        3    1    3    3  502    0  0.53577745701E+02 -0.18093623011E+03  0.49337235845E+02  0.19504529536E+03  0.10100000352E+00 0. -1.
       -3    1    3    3    0  502 -0.53577745701E+02  0.18093623011E+03 -0.84758142254E+03  0.86833333014E+03  0.10100000352E+00 0.  1.
</event>
<event>
 5   0  0.4299912E-02  0.7232787E+03  0.7818609E-02  0.9678230E-01
        2   -1    0    0  501    0  0.00000000000E+00  0.00000000000E+00  0.10143554300E+04  0.10143554300E+04  0.25500000920E-02 0.  1.
       -2   -1    0    0    0  501  0.00000000000E+00  0.00000000000E+00 -0.12893213154E+03  0.12893213156E+03  0.25500000920E-02 0. -1.
    10030    2    1    2    0    0  0.00000000000E+00  0.00000000000E+00  0.88542329848E+03  0.11432875616E+04  0.72327866758E+03 0.  0.
        3    1    3    3  502    0  0.40513425373E+02  0.27849970369E+03  0.80170689891E+03  0.84966898528E+03  0.10100000352E+00 0.  1.
       -3    1    3    3    0  502 -0.40513425373E+02 -0.27849970369E+03  0.83716399565E+02  0.29361857630E+03  0.10100000352E+00 0. -1.
</event>
<event>
 5   0  0.2750139E-02  0.7106686E+03  0.7818609E-02  0.9699159E-01
        1   -1    0    0  501    0  0.00000000000E+00  0.00000000000E+00  0.14757739042E+04  0.14757739042E+04  0.50400001928E-02 0. -1.
       -1   -1    0    0    0  501  0.00000000000E+00  0.00000000000E+00 -0.85556792740E+02  0.85556792889E+02  0.50400001928E-02 0.  1.
    10030    2    1    2    0    0  0.00000000000E+00  0.00000000000E+00  0.13902171115E+04  0.15613306971E+04  0.71066864903E+03 0.  0.
        2    1    3    3  502    0  0.29529956811E+03 -0.14567677764E+03  0.40167345340E+03  0.51938918129E+03  0.25500000920E-02 0. -1.
       -2    1    3    3    0  502 -0.29529956811E+03  0.14567677764E+03  0.98854365810E+03  0.10419415158E+04  0.25500000920E-02 0.  1.
</event>
<event>
 5   0  0.2684924E-02  0.6764620E+03  0.7818609E-02  0.9758354E-01
       -1   -1    0    0    0  501  0.00000000000E+00  0.00000000000E+00  0.72127541248E+02  0.72127541424E+02  0.50400001928E-02 0.  1.
        1   -1    0    0  501    0  0.00000000000E+00  0.00000000000E+00 -0.15860824197E+04  0.15860824197E+04  0.50400001928E-02 0. -1.
    10030    2    1    2    0    0  0.00000000000E+00  0.00000000000E+00 -0.15139548784E+04  0.16582099611E+04  0.67646204712E+03 0.  0.
        4    1    3    3  502    0 -0.68774911812E+02  0.16507339668E+03 -0.14607151147E+04  0.14716213759E+04  0.12699999809E+01 0. -1.
       -4    1    3    3    0  502  0.68774911812E+02 -0.16507339668E+03 -0.53239763722E+02  0.18658858520E+03  0.12699999809E+01 0.  1.
</event>
<event>
 5   0  0.2751729E-02  0.6890044E+03  0.7818609E-02  0.9736223E-01
        1   -1    0    0  501    0  0.00000000000E+00  0.00000000000E+00  0.77494745731E+03  0.77494745732E+03  0.50400001928E-02 0.  1.
       -1   -1    0    0    0  501  0.00000000000E+00  0.00000000000E+00 -0.15314814019E+03  0.15314814027E+03  0.50400001928E-02 0. -1.
    10030    2    1    2    0    0  0.00000000000E+00  0.00000000000E+00  0.62179931712E+03  0.92809559759E+03  0.68900438859E+03 0.  0.
        1    1    3    3  502    0  0.20606813464E+03 -0.14260277727E+03  0.62932470022E+03  0.67738409085E+03  0.50400001928E-02 0.  1.
       -1    1    3    3    0  502 -0.20606813464E+03  0.14260277727E+03 -0.75253830996E+01  0.25071150675E+03  0.50400001928E-02 0. -1.
</event>
<event>
 5   0  0.2751729E-02  0.7038102E+03  0.7818609E-02  0.9710738E-01
       -1   -1    0    0    0  501  0.00000000000E+00  0.00000000000E+00  0.20057101320E+03  0.20057101326E+03  0.50400001928E-02 0. -1.
        1   -1    0    0  501    0  0.00000000000E+00  0.00000000000E+00 -0.61742327271E+03  0.61742327273E+03  0.50400001928E-02 0.  1.
    10030    2    1    2    0    0  0.00000000000E+00  0.00000000000E+00 -0.41685225951E+03  0.81799428599E+03  0.70381023412E+03 0.  0.
        1    1    3    3  502    0 -0.30624631122E+03 -0.17172994314E+03 -0.23591088157E+03  0.42300345220E+03  0.50400001928E-02 0.  1.
       -1    1    3    3    0  502  0.30624631122E+03  0.17172994314E+03 -0.18094137794E+03  0.39499083379E+03  0.50400001928E-02 0. -1.
</event>
<event>
 5   0  0.2750139E-02  0.7229585E+03  0.7818609E-02  0.9678756E-01
        1   -1    0    0  501    0  0.00000000000E+00  0.00000000000E+00  0.31733274998E+03  0.31733275002E+03  0.50400001928E-02 0.  1.
       -1   -1    0    0    0  501  0.00000000000E+00  0.00000000000E+00 -0.41176728816E+03  0.41176728819E+03  0.50400001928E-02 0. -1.
    10030    2    1    2    0    0  0.00000000000E+00  0.00000000000E+00 -0.94434538180E+02  0.72910003822E+03  0.72295849378E+03 0.  0.
        2    1    3    3  502    0  0.23669044374E+03 -0.90336524370E+02 -0.30725295629E+03  0.39823037673E+03  0.25500000920E-02 0. -1.
       -2    1    3    3    0  502 -0.23669044374E+03  0.90336524370E+02  0.21281841811E+03  0.33086966148E+03  0.25500000920E-02 0.  1.
</event>
<event>
 5   0  0.2777999E-02  0.7389824E+03  0.7818609E-02  0.9652795E-01
        1   -1    0    0  501    0  0.00000000000E+00  0.00000000000E+00  0.61110518984E+03  0.61110518986E+03  0.50400001928E-02 0.  1.
       -1   -1    0    0    0  501  0.00000000000E+00  0.00000000000E+00 -0.22340467146E+03  0.22340467152E+03  0.50400001928E-02 0. -1.
    10030    2    1    2    0    0  0.00000000000E+00  0.00000000000E+00  0.38770051838E+03  0.83450986138E+03  0.73898241981E+03 0.  0.
        5    1    3    3  502    0  0.21173478632E+03  0.44615886484E+02  0.53202711023E+03  0.57436672352E+03  0.46999998093E+01 0.  1.
       -5    1    3    3    0  502 -0.21173478632E+03 -0.44615886484E+02 -0.14432659185E+03  0.26014313786E+03  0.46999998093E+01 0. -1.
</event>
<event>
 5   0  0.1784625E-02  0.7134837E+03  0.7818609E-02  0.9694447E-01
       -3   -1    0    0    0  501  0.00000000000E+00  0.00000000000E+00  0.11400540527E+03  0.11400545001E+03  0.10100000352E+00 0. -1.
        3   -1    0    0  501    0  0.00000000000E+00  0.00000000000E+00 -0.11163042179E+04  0.11163042224E+04  0.10100000352E+00 0.  1.
    10030    2    1    2    0    0  0.00000000000E+00  0.00000000000E+00 -0.10022988126E+04  0.12303096724E+04  0.71348369315E+03 0.  0.
        1    1    3    3  502    0 -0.36887539295E+02  0.29487983954E+03 -0.16083232025E+03  0.33790804309E+03  0.50400001928E-02 0. -1.
       -1    1    3    3    0  502  0.36887539295E+02 -0.29487983954E+03 -0.84146649233E+03  0.89240162935E+03  0.50400001928E-02 0.  1.
</event>
<event>
 5   0  0.2750139E-02  0.6087665E+03  0.7818609E-02  0.9887383E-01
        1   -1    0    0  501    0  0.00000000000E+00  0.00000000000E+00  0.36305017848E+03  0.36305017851E+03  0.50400001928E-02 0. -1.
       -1   -1    0    0    0  501  0.00000000000E+00  0.00000000000E+00 -0.25519661561E+03  0.25519661566E+03  0.50400001928E-02 0.  1.
    10030    2    1    2    0    0  0.00000000000E+00  0.00000000000E+00  0.10785356287E+03  0.61824679417E+03  0.60876654596E+03 0.  0.
        2    1    3    3  502    0 -0.22776627542E+03 -0.16131238960E+03  0.17726773601E+03  0.33064030833E+03  0.25500000920E-02 0. -1.
       -2    1    3    3    0  502  0.22776627542E+03  0.16131238960E+03 -0.69414173144E+02  0.28760648584E+03  0.25500000920E-02 0.  1.
</event>
<event>
 5   0  0.4526837E-02  0.7003797E+03  0.7818609E-02  0.9716583E-01
        2   -1    0    0  501    0  0.00000000000E+00  0.00000000000E+00  0.71754625562E+03  0.71754625562E+03  0.25500000920E-02 0.  1.
       -2   -1    0    0    0  501  0.00000000000E+00  0.00000000000E+00 -0.17090594431E+03  0.17090594433E+03  0.25500000920E-02 0. -1.
    10030    2    1    2    0    0  0.00000000000E+00  0.00000000000E+00  0.54664031131E+03  0.88845219995E+03  0.70037966964E+03 0.  0.
        1    1    3    3  502    0 -0.31942083327E+03  0.11387185330E+03  0.38417287942E+03  0.51243074558E+03  0.50400001928E-02 0.  1.
       -1    1    3    3    0  502  0.31942083327E+03 -0.11387185330E+03  0.16246743189E+03  0.37602145437E+03  0.50400001928E-02 0. -1.
</event>
<event>
 5   0  0.4526837E-02  0.7047375E+03  0.7818609E-02  0.9709165E-01
       -2   -1    0    0    0  501  0.00000000000E+00  0.00000000000E+00  0.21857539431E+03  0.21857539432E+03  0.25500000920E-02 0. -1.
        2   -1    0    0  501    0  0.00000000000E+00  0.00000000000E+00 -0.56805913739E+03  0.56805913740E+03  0.25500000920E-02 0.  1.
    10030    2    1    2    0    0  0.00000000000E+00  0.00000000000E+00 -0.34948374309E+03  0.78663453172E+03  0.70473753966E+03 0.  0.
        1    1    3    3  502    0 -0.19010523198E+03  0.11092571427E+03 -0.48189059499E+03  0.52977642348E+03  0.50400001928E-02 0.  1.
       -1    1    3    3    0  502  0.19010523198E+03 -0.11092571427E+03  0.13240685190E+03  0.25685810824E+03  0.50400001928E-02 0. -1.
</event>
<event>
 5   0  0.4503289E-02  0.7061402E+03  0.7818609E-02  0.9706789E-01
       -2   -1    0    0    0  501  0.00000000000E+00  0.00000000000E+00  0.94010104676E+02  0.94010104711E+02  0.25500000920E-02 0.  1.
        2   -1    0    0  501    0  0.00000000000E+00  0.00000000000E+00 -0.13260117734E+04  0.13260117734E+04  0.25500000920E-02 0. -1.
    10030    2    1    2    0    0  0.00000000000E+00  0.00000000000E+00 -0.12320016687E+04  0.14200218781E+04  0.70614022868E+03 0.  0.
        2    1    3    3  502    0  0.33384555452E+02 -0.13345795770E+03 -0.12698977030E+04  0.12773275739E+04  0.25500000920E-02 0. -1.
       -2    1    3    3    0  502 -0.33384555452E+02  0.13345795770E+03  0.37896034308E+02  0.14269430416E+03  0.25500000920E-02 0.  1.
</event>
<event>
 5   0  0.2750139E-02  0.6916434E+03  0.7818609E-02  0.9731631E-01
        1   -1    0    0  501    0  0.00000000000E+00  0.00000000000E+00  0.67849542092E+03  0.67849542093E+03  0.50400001928E-02 0. -1.
       -1   -1    0    0    0  501  0.00000000000E+00  0.00000000000E+00 -0.17626152802E+03  0.17626152809E+03  0.50400001928E-02 0.  1.
    10030    2    1    2    0    0  0.00000000000E+00  0.00000000000E+00  0.50223389290E+03  0.85475694902E+03  0.69164337540E+03 0.  0.
        2    1    3    3  502    0  0.12987257428E+02 -0.12130166081E+03  0.65101956254E+03  0.66235129092E+03  0.25500000920E-02 0. -1.
       -2    1    3    3    0  502 -0.12987257428E+02  0.12130166081E+03 -0.14878566965E+03  0.19240565810E+03  0.25500000920E-02 0.  1.
</event>
<event>
 5   0  0.2684924E-02  0.6693507E+03  0.7818609E-02  0.9771131E-01
        1   -1    0    0  501    0  0.00000000000E+00  0.00000000000E+00  0.47397949643E+03  0.47397949646E+03  0.50400001928E-02 0.  1.
       -1   -1    0    0    0  501  0.00000000000E+00  0.00000000000E+00 -0.23631316184E+03  0.23631316189E+03  0.50400001928E-02 0. -1.
    10030    2    1    2    0    0  0.00000000000E+00  0.00000000000E+00  0.23766633460E+03  0.71029265835E+03  0.66935071069E+03 0.  0.
        4    1    3    3  502    0  0.87600026798E+02 -0.92897502498E+02  0.44711338767E+03  0.46499000527E+03  0.12699999809E+01 0.  1.
       -4    1    3    3    0  502 -0.87600026798E+02  0.92897502498E+02 -0.20944705308E+03  0.24530265308E+03  0.12699999809E+01 0. -1.
</event>
<event>
 5   0  0.2751729E-02  0.7160580E+03  0.7818609E-02  0.9690158E-01
       -1   -1    0    0    0  501  0.00000000000E+00  0.00000000000E+00  0.16030077939E+03  0.16030077947E+03  0.50400001928E-02 0. -1.
        1   -1    0    0  501    0  0.00000000000E+00  0.00000000000E+00 -0.79965159643E+03  0.79965159645E+03  0.50400001928E-02 0.  1.
    10030    2    1    2    0    0  0.00000000000E+00  0.00000000000E+00 -0.63935081704E+03  0.95995237592E+03  0.71605802613E+03 0.  0.
        1    1    3    3  502    0  0.60668492796E+01  0.33308766751E+03 -0.49549729339E+03  0.59707769067E+03  0.50400001928E-02 0. -1.
       -1    1    3    3    0  502 -0.60668492796E+01 -0.33308766751E+03 -0.14385352365E+03  0.36287468526E+03  0.50400001928E-02 0.  1.
</event>
<event>
 5   0  0.2750139E-02  0.7088911E+03  0.7818609E-02  0.9702147E-01
       -1   -1    0    0    0  501  0.00000000000E+00  0.00000000000E+00  0.44409569131E+03  0.44409569134E+03  0.50400001928E-02 0.  1.
        1   -1    0    0  501    0  0.00000000000E+00  0.00000000000E+00 -0.28289315354E+03  0.28289315358E+03  0.50400001928E-02 0. -1.
    10030    2    1    2    0    0  0.00000000000E+00  0.00000000000E+00  0.16120253778E+03  0.72698884492E+03  0.70889105119E+03 0.  0.
        2    1    3    3  502    0  0.11213835185E+03 -0.29656514002E+03  0.24309430463E+03  0.39952563520E+03  0.25500000920E-02 0.  1.
       -2    1    3    3    0  502 -0.11213835185E+03  0.29656514002E+03 -0.81891766857E+02  0.32746320972E+03  0.25500000920E-02 0. -1.
</event>
<event>
 5   0  0.1784625E-02  0.7030897E+03  0.7818609E-02  0.9711963E-01
       -4   -1    0    0    0  501  0.00000000000E+00  0.00000000000E+00  0.74425903597E+03  0.74426011953E+03  0.12699999809E+01 0. -1.
        4   -1    0    0  501    0  0.00000000000E+00  0.00000000000E+00 -0.16604576932E+03  0.16605062604E+03  0.12699999809E+01 0.  1.
    10030    2    1    2    0    0  0.00000000000E+00  0.00000000000E+00  0.57821326666E+03  0.91031074558E+03  0.70308966126E+03 0.  0.
        1    1    3    3  502    0  0.16081896234E+03 -0.22035035793E+03  0.57619441139E+03  0.63750844593E+03  0.50400001928E-02 0. -1.
       -1    1    3    3    0  502 -0.16081896234E+03  0.22035035793E+03  0.20188552620E+01  0.27280229964E+03  0.50400001928E-02 0.  1.
</event>
<event>
 5   0  0.4299912E-02  0.6988044E+03  0.7818609E-02  0.9719279E-01
       -2   -1    0    0    0  501  0.00000000000E+00  0.00000000000E+00  0.23227536780E+03  0.23227536781E+03  0.25500000920E-02 0. -1.
        2   -1    0    0  501    0  0.00000000000E+00  0.00000000000E+00 -0.52559126812E+03  0.52559126812E+03  0.25500000920E-02 0.  1.
    10030    2    1    2    0    0  0.00000000000E+00  0.00000000000E+00 -0.29331590032E+03  0.75786663593E+03  0.69880442219E+03 0.  0.
        3    1    3    3  502    0  0.32000233159E+02 -0.27438653321E+03 -0.37867888629E+03  0.46873200622E+03  0.10100000352E+00 0.  1.
       -3    1    3    3    0  502 -0.32000233159E+02  0.27438653321E+03  0.85362985969E+02  0.28913462972E+03  0.10100000352E+00 0. -1.
</event>
<event>
 5   0  0.4526837E-02  0.6901583E+03  0.7818609E-02  0.9734212E-01
        2   -1    0    0  501    0  0.00000000000E+00  0.00000000000E+00  0.96810011259E+03  0.96810011260E+03  0.25500000920E-02 0.  1.
       -2   -1    0    0    0  501  0.00000000000E+00  0.00000000000E+00 -0.12300341739E+03  0.12300341742E+03  0.25500000920E-02 0. -1.
    10030    2    1    2    0    0  0.00000000000E+00  0.00000000000E+00  0.84509669520E+03  0.10911035300E+04  0.69015830718E+03 0.  0.
        1    1    3    3  502    0  0.15009394640E+03 -0.87936905370E+00  0.91378962938E+03  0.92603480109E+03  0.50400001928E-02 0.  1.
       -1    1    3    3    0  502 -0.15009394640E+03  0.87936905370E+00 -0.68692934181E+02  0.16506872892E+03  0.50400001928E-02 0. -1.
</event>
<event>
 5   0  0.4299912E-02  0.6967901E+03  0.7818609E-02  0.9722737E-01
       -2   -1    0    0    0  501  0.00000000000E+00  0.00000000000E+00  0.23736281245E+03  0.23736281247E+03  0.25500000920E-02 0.  1.
        2   -1    0    0  501    0  0.00000000000E+00  0.00000000000E+00 -0.51136525026E+03  0.51136525026E+03  0.25500000920E-02 0. -1.
    10030    2    1    2    0    0  0.00000000000E+00  0.00000000000E+00 -0.27400243780E+03  0.74872806273E+03  0.69679005159E+03 0.  0.
        3    1    3    3  502    0 -0.17540424054E+03 -0.72891738326E+02  0.17682897615E+03  0.25951560671E+03  0.10100000352E+00 0.  1.
       -3    1    3    3    0  502  0.17540424054E+03  0.72891738326E+02 -0.45083141395E+03  0.48921245602E+03  0.10100000352E+00 0. -1.
</event>
<event>
 5   0  0.2684924E-02  0.6969859E+03  0.7818609E-02  0.9722401E-01
        1   -1    0    0  501    0  0.00000000000E+00  0.00000000000E+00  0.23174001882E+03  0.23174001887E+03  0.50400001928E-02 0. -1.
       -1   -1    0    0    0  501  0.00000000000E+00  0.00000000000E+00 -0.52406713317E+03  0.52406713320E+03  0.50400001928E-02 0.  1.
    10030    2    1    2    0    0  0.00000000000E+00  0.00000000000E+00 -0.29232711436E+03  0.75580715207E+03  0.69698587456E+03 0.  0.
        4    1    3    3  502    0 -0.62090791699E+02  0.29620277762E+03 -0.33352961613E+03  0.45037203468E+03  0.12699999809E+01 0.  1.
       -4    1    3    3    0  502  0.62090791699E+02 -0.29620277762E+03  0.41202501774E+02  0.30543511739E+03  0.12699999809E+01 0. -1.
</event>
<event>
 5   0  0.4503289E-02  0.7004357E+03  0.7818609E-02  0.9716487E-01
        2   -1    0    0  501    0  0.00000000000E+00  0.00000000000E+00  0.24724289460E+03  0.24724289461E+03  0.25500000920E-02 0.  1.
       -2   -1    0    0    0  501  0.00000000000E+00  0.00000000000E+00 -0.49608111980E+03  0.49608111981E+03  0.25500000920E-02 0. -1.
    10030    2    1    2    0    0  0.00000000000E+00  0.00000000000E+00 -0.24883822521E+03  0.74332401442E+03  0.70043567020E+03 0.  0.
        2    1    3    3  502    0  0.43260147635E+02  0.25131065896E+03  0.13032947036E+03  0.28638131665E+03  0.25500000920E-02 0.  1.
       -2    1    3    3    0  502 -0.43260147635E+02 -0.25131065896E+03 -0.37916769556E+03  0.45694269777E+03  0.25500000920E-02 0. -1.
</event>
<event>
 5   0  0.4503289E-02  0.6964159E+03  0.7818609E-02  0.9723381E-01
        2   -1    0    0  501    0  0.00000000000E+00  0.00000000000E+00  0.95984374369E+03  0.95984374369E+03  0.25500000920E-02 0.  1.
       -2   -1    0    0    0  501  0.00000000000E+00  0.00000000000E+00 -0.12632137535E+03  0.12632137537E+03  0.25500000920E-02 0. -1.
    10030    2    1    2    0    0  0.00000000000E+00  0.00000000000E+00  0.83352236834E+03  0.10861651191E+04  0.69641591549E+03 0.  0.
        2    1    3    3  502    0 -0.19885188063E+03 -0.40445160219E+01 -0.29010574980E+02  0.20099761692E+03  0.25500000920E-02 0. -1.
       -2    1    3    3    0  502  0.19885188063E+03  0.40445160219E+01  0.86253294332E+03  0.88516750215E+03  0.25500000920E-02 0.  1.
</event>
<event>
 5   0  0.2684924E-02  0.6978348E+03  0.7818609E-02  0.9720942E-01
        1   -1    0    0  501    0  0.00000000000E+00  0.00000000000E+00  0.39944064510E+03  0.39944064513E+03  0.50400001928E-02 0. -1.
       -1   -1    0    0    0  501  0.00000000000E+00  0.00000000000E+00 -0.30478458514E+03  0.30478458519E+03  0.50400001928E-02 0.  1.
    10030    2    1    2    0    0  0.00000000000E+00  0.00000000000E+00  0.94656059955E+02  0.70422523032E+03  0.69783479802E+03 0.  0.
        4    1    3    3  502    0  0.15596816328E+03 -0.10304962297E+03  0.34463831211E+03  0.39207457431E+03  0.12699999809E+01 0. -1.
       -4    1    3    3    0  502 -0.15596816328E+03  0.10304962297E+03 -0.24998225215E+03  0.31215065600E+03  0.12699999809E+01 0.  1.
</event>
<event>
 5   0  0.2750139E-02  0.6837133E+03  0.7818609E-02  0.9745497E-01
        1   -1    0    0  501    0  0.00000000000E+00  0.00000000000E+00  0.69359200857E+03  0.69359200859E+03  0.50400001928E-02 0.  1.
       -1   -1    0    0    0  501  0.00000000000E+00  0.00000000000E+00 -0.16849383079E+03  0.16849383086E+03  0.50400001928E-02 0. -1.
    10030    2    1    2    0    0  0.00000000000E+00  0.00000000000E+00  0.52509817778E+03  0.86208583945E+03  0.68371331585E+03 0.  0.
        2    1    3    3  502    0 -0.82935240351E+02 -0.13883321271E+03  0.64231097938E+03  0.66235663300E+03  0.25500000920E-02 0.  1.
       -2    1    3    3    0  502  0.82935240351E+02  0.13883321271E+03 -0.11721280160E+03  0.19972920645E+03  0.25500000920E-02 0. -1.
</event>
<event>
 5   0  0.2777999E-02  0.7129935E+03  0.7818609E-02  0.9695266E-01
        1   -1    0    0  501    0  0.00000000000E+00  0.00000000000E+00  0.47133800669E+03  0.47133800672E+03  0.50400001928E-02 0.  1.
       -1   -1    0    0    0  501  0.00000000000E+00  0.00000000000E+00 -0.26963651634E+03  0.26963651638E+03  0.50400001928E-02 0. -1.
    10030    2    1    2    0    0  0.00000000000E+00  0.00000000000E+00  0.20170149036E+03  0.74097452310E+03  0.71299351517E+03 0.  0.
        5    1    3    3  502    0  0.14033303464E+03 -0.28527969747E+03 -0.66690092867E+02  0.32488078565E+03  0.46999998093E+01 0.  1.
       -5    1    3    3    0  502 -0.14033303464E+03  0.28527969747E+03  0.26839158323E+03  0.41609373745E+03  0.46999998093E+01 0. -1.
</event>
<event>
 5   0  0.4365492E-02  0.7172183E+03  0.7818609E-02  0.9688231E-01
       -2   -1    0    0    0  501  0.00000000000E+00  0.00000000000E+00  0.81843794564E+02  0.81843794604E+02  0.25500000920E-02 0.  1.
        2   -1    0    0  501    0  0.00000000000E+00  0.00000000000E+00 -0.15712920872E+04  0.15712920872E+04  0.25500000920E-02 0. -1.
    10030    2    1    2    0    0  0.00000000000E+00  0.00000000000E+00 -0.14894482926E+04  0.16531358818E+04  0.71721825638E+03 0.  0.
        4    1    3    3  502    0  0.27514950098E+03 -0.18859082793E+03 -0.44133805698E+03  0.55322205461E+03  0.12699999809E+01 0.  1.
       -4    1    3    3    0  502 -0.27514950098E+03  0.18859082793E+03 -0.10481102357E+04  0.10999138272E+04  0.12699999809E+01 0. -1.
</event>
<event>
 5   0  0.2777999E-02  0.6830758E+03  0.7818609E-02  0.9746621E-01
       -1   -1    0    0    0  501  0.00000000000E+00  0.00000000000E+00  0.11417594091E+03  0.11417594102E+03  0.50400001928E-02 0.  1.
        1   -1    0    0  501    0  0.00000000000E+00  0.00000000000E+00 -0.10216523772E+04  0.10216523772E+04  0.50400001928E-02 0. -1.
    10030    2    1    2    0    0  0.00000000000E+00  0.00000000000E+00 -0.90747643625E+03  0.11358283182E+04  0.68307575427E+03 0.  0.
        5    1    3    3  502    0  0.11033927308E+03 -0.24272951055E+03 -0.80855986475E+03  0.85140091341E+03  0.46999998093E+01 0. -1.
       -5    1    3    3    0  502 -0.11033927308E+03  0.24272951055E+03 -0.98916571500E+02  0.28442740479E+03  0.46999998093E+01 0.  1.
</event>
<event>
 5   0  0.4526837E-02  0.5164914E+03  0.7818609E-02  0.1009562E+00
       -2   -1    0    0    0  501  0.00000000000E+00  0.00000000000E+00  0.14477821389E+03  0.14477821391E+03  0.25500000920E-02 0. -1.
        2   -1    0    0  501    0  0.00000000000E+00  0.00000000000E+00 -0.46064139512E+03  0.46064139513E+03  0.25500000920E-02 0.  1.
    10030    2    1    2    0    0  0.00000000000E+00  0.00000000000E+00 -0.31586318123E+03  0.60541960904E+03  0.51649138787E+03 0.  0.
        1    1    3    3  502    0  0.58429405341E+02  0.15238518608E+03  0.76666789589E+02  0.18031371827E+03  0.50400001928E-02 0. -1.
       -1    1    3    3    0  502 -0.58429405341E+02 -0.15238518608E+03 -0.39252997082E+03  0.42510589076E+03  0.50400001928E-02 0.  1.
</event>
<event>
 5   0  0.2777999E-02  0.6769035E+03  0.7818609E-02  0.9757566E-01
        1   -1    0    0  501    0  0.00000000000E+00  0.00000000000E+00  0.91941293178E+03  0.91941293180E+03  0.50400001928E-02 0. -1.
       -1   -1    0    0    0  501  0.00000000000E+00  0.00000000000E+00 -0.12458991011E+03  0.12458991021E+03  0.50400001928E-02 0.  1.
    10030    2    1    2    0    0  0.00000000000E+00  0.00000000000E+00  0.79482302167E+03  0.10440028420E+04  0.67690346309E+03 0.  0.
        5    1    3    3  502    0  0.24744146057E+03  0.10019157924E+03  0.76616565405E+02  0.27777295954E+03  0.46999998093E+01 0.  1.
       -5    1    3    3    0  502 -0.24744146057E+03 -0.10019157924E+03  0.71820645627E+03  0.76622988247E+03  0.46999998093E+01 0. -1.
</event>
<event>
 5   0  0.2751729E-02  0.6966702E+03  0.7818609E-02  0.9722944E-01
        1   -1    0    0  501    0  0.00000000000E+00  0.00000000000E+00  0.11722527616E+04  0.11722527616E+04  0.50400001928E-02 0. -1.
       -1   -1    0    0    0  501  0.00000000000E+00  0.00000000000E+00 -0.10350784544E+03  0.10350784557E+03  0.50400001928E-02 0.  1.
    10030    2    1    2    0    0  0.00000000000E+00  0.00000000000E+00  0.10687449161E+04  0.12757606071E+04  0.69667024552E+03 0.  0.
        1    1    3    3  502    0 -0.15950511736E+02 -0.29108631654E+03  0.88351619808E+03  0.93036903151E+03  0.50400001928E-02 0.  1.
       -1    1    3    3    0  502  0.15950511736E+02  0.29108631654E+03  0.18522871803E+03  0.34539157562E+03  0.50400001928E-02 0. -1.
</event>
<event>
 5   0  0.2758681E-02  0.6860531E+03  0.7818609E-02  0.9741385E-01
       -1   -1    0    0    0  501  0.00000000000E+00  0.00000000000E+00  0.63211045889E+03  0.63211045891E+03  0.50400001928E-02 0.  1.
        1   -1    0    0  501    0  0.00000000000E+00  0.00000000000E+00 -0.18614975050E+03  0.18614975057E+03  0.50400001928E-02 0. -1.
    10030    2    1    2    0    0  0.00000000000E+00  0.00000000000E+00  0.44596070839E+03  0.81826020948E+03  0.68605307156E+03 0.  0.
        3    1    3    3  502    0  0.14117188656E+03 -0.85238479020E+02 -0.13576892839E+03  0.21360784625E+03  0.10100000352E+00 0. -1.
       -3    1    3    3    0  502 -0.14117188656E+03  0.85238479020E+02  0.58172963678E+03  0.60465236323E+03  0.10100000352E+00 0.  1.
</event>
<event>
 5   0  0.2777999E-02  0.7363874E+03  0.7818609E-02  0.9656952E-01
       -1   -1    0    0    0  501  0.00000000000E+00  0.00000000000E+00  0.13402137097E+03  0.13402137107E+03  0.50400001928E-02 0.  1.
        1   -1    0    0  501    0  0.00000000000E+00  0.00000000000E+00 -0.10115297263E+04  0.10115297264E+04  0.50400001928E-02 0. -1.
    10030    2    1    2    0    0  0.00000000000E+00  0.00000000000E+00 -0.87750835538E+03  0.11455510974E+04  0.73638740012E+03 0.  0.
        5    1    3    3  502    0 -0.57643187072E+02 -0.78252507110E+02  0.11365739105E+03  0.14962046793E+03  0.46999998093E+01 0.  1.
       -5    1    3    3    0  502  0.57643187072E+02  0.78252507110E+02 -0.99116574643E+03  0.99593062950E+03  0.46999998093E+01 0. -1.
</event>
<event>
 5   0  0.4365492E-02  0.6897898E+03  0.7818609E-02  0.9734854E-01
        2   -1    0    0  501    0  0.00000000000E+00  0.00000000000E+00  0.17626481782E+04  0.17626481782E+04  0.25500000920E-02 0. -1.
       -2   -1    0    0    0  501  0.00000000000E+00  0.00000000000E+00 -0.67485099761E+02  0.67485099809E+02  0.25500000920E-02 0.  1.
    10030    2    1    2    0    0  0.00000000000E+00  0.00000000000E+00  0.16951630784E+04  0.18301332780E+04  0.68978978883E+03 0.  0.
        4    1    3    3  502    0  0.20752902435E+02  0.18341800006E+02 -0.64523548157E+02  0.70228240428E+02  0.12699999809E+01 0.  1.
       -4    1    3    3    0  502 -0.20752902435E+02 -0.18341800006E+02  0.17596866266E+04  0.17599050376E+04  0.12699999809E+01 0. -1.
</event>
<event>
 5   0  0.4299912E-02  0.6966536E+03  0.7818609E-02  0.9722972E-01
       -2   -1    0    0    0  501  0.00000000000E+00  0.00000000000E+00  0.26705160540E+03  0.26705160541E+03  0.25500000920E-02 0. -1.
        2   -1    0    0  501    0  0.00000000000E+00  0.00000000000E+00 -0.45433747542E+03  0.45433747543E+03  0.25500000920E-02 0.  1.
    10030    2    1    2    0    0  0.00000000000E+00  0.00000000000E+00 -0.18728587003E+03  0.72138908084E+03  0.69665357879E+03 0.  0.
        3    1    3    3  502    0  0.30352930595E+03 -0.40991201273E+02 -0.26542845878E+03  0.40529322112E+03  0.10100000352E+00 0.  1.
       -3    1    3    3    0  502 -0.30352930595E+03  0.40991201273E+02  0.78142588752E+02  0.31609585972E+03  0.10100000352E+00 0. -1.
</event>
<event>
 5   0  0.4503289E-02  0.6999381E+03  0.7818609E-02  0.9717338E-01
        2   -1    0    0  501    0  0.00000000000E+00  0.00000000000E+00  0.21028834782E+04  0.21028834782E+04  0.25500000920E-02 0.  1.
       -2   -1    0    0    0  501  0.00000000000E+00  0.00000000000E+00 -0.58243049659E+02  0.58243049715E+02  0.25500000920E-02 0. -1.
    10030    2    1    2    0    0  0.00000000000E+00  0.00000000000E+00  0.20446404286E+04  0.21611265279E+04  0.69993813130E+03 0.  0.
        2    1    3    3  502    0  0.14851125202E+03  0.47905816138E+02  0.19895207860E+04  0.19956311075E+04  0.25500000920E-02 0.  1.
       -2    1    3    3    0  502 -0.14851125202E+03 -0.47905816138E+02  0.55119642582E+02  0.16549542048E+03  0.25500000920E-02 0. -1.
</event>
<event>
 5   0  0.4526837E-02  0.7090889E+03  0.7818609E-02  0.9701814E-01
        2   -1    0    0  501    0  0.00000000000E+00  0.00000000000E+00  0.41002030014E+03  0.41002030015E+03  0.25500000920E-02 0.  1.
       -2   -1    0    0    0  501  0.00000000000E+00  0.00000000000E+00 -0.30657450287E+03  0.30657450288E+03  0.25500000920E-02 0. -1.
    10030    2    1    2    0    0  0.00000000000E+00  0.00000000000E+00  0.10344579728E+03  0.71659480303E+03  0.70908890751E+03 0.  0.
        1    1    3    3  502    0 -0.25172498127E+03 -0.10908865394E+03  0.27867967140E+03  0.39106030212E+03  0.50400001928E-02 0.  1.
       -1    1    3    3    0  502  0.25172498127E+03  0.10908865394E+03 -0.17523387412E+03  0.32553450091E+03  0.50400001928E-02 0. -1.
</event>
<event>
 5   0  0.4420645E-02  0.6986217E+03  0.7818609E-02  0.9719592E-01
        2   -1    0    0  501    0  0.00000000000E+00  0.00000000000E+00  0.57972601976E+03  0.57972601976E+03  0.25500000920E-02 0.  1.
       -2   -1    0    0    0  501  0.00000000000E+00  0.00000000000E+00 -0.21047541579E+03  0.21047541581E+03  0.25500000920E-02 0. -1.
    10030    2    1    2    0    0  0.00000000000E+00  0.00000000000E+00  0.36925060396E+03  0.79020143557E+03  0.69862171470E+03 0.  0.
        5    1    3    3  502    0  0.29188292904E+03  0.19155566902E+03  0.19631257436E+03  0.40056202447E+03  0.46999998093E+01 0.  1.
       -5    1    3    3    0  502 -0.29188292904E+03 -0.19155566902E+03  0.17293802960E+03  0.38963941110E+03  0.46999998093E+01 0. -1.
</event>
<event>
 5   0  0.4299912E-02  0.6911966E+03  0.7818609E-02  0.9732407E-01
       -2   -1    0    0    0  501  0.00000000000E+00  0.00000000000E+00  0.34363563800E+03  0.34363563801E+03  0.25500000920E-02 0. -1.
        2   -1    0    0  501    0  0.00000000000E+00  0.00000000000E+00 -0.34757219449E+03  0.34757219450E+03  0.25500000920E-02 0.  1.
    10030    2    1    2    0    0  0.00000000000E+00  0.00000000000E+00 -0.39365564967E+01  0.69120783251E+03  0.69119662271E+03 0.  0.
        3    1    3    3  502    0  0.21121230569E+03  0.23603235886E+03  0.13629556435E+03  0.34481647809E+03  0.10100000352E+00 0.  1.
       -3    1    3    3    0  502 -0.21121230569E+03 -0.23603235886E+03 -0.14023212084E+03  0.34639135442E+03  0.10100000352E+00 0. -1.
</event>
<event>
 5   0  0.2751729E-02  0.7057143E+03  0.7818609E-02  0.9707510E-01
       -1   -1    0    0    0  501  0.00000000000E+00  0.00000000000E+00  0.17802505736E+03  0.17802505743E+03  0.50400001928E-02 0.  1.
        1   -1    0    0  501    0  0.00000000000E+00  0.00000000000E+00 -0.69938556282E+03  0.69938556284E+03  0.50400001928E-02 0. -1.
    10030    2    1    2    0    0  0.00000000000E+00  0.00000000000E+00 -0.52136050546E+03  0.87741062028E+03  0.70571426223E+03 0.  0.
        1    1    3    3  502    0 -0.11375941079E+03  0.27215366786E+03 -0.50144104339E+03  0.58176622667E+03  0.50400001928E-02 0. -1.
       -1    1    3    3    0  502  0.11375941079E+03 -0.27215366786E+03 -0.19919462068E+02  0.29564439360E+03  0.50400001928E-02 0.  1.
</event>
<event>
 5   0  0.2758681E-02  0.6995489E+03  0.7818609E-02  0.9718004E-01
       -1   -1    0    0    0  501  0.00000000000E+00  0.00000000000E+00  0.14837773592E+03  0.14837773601E+03  0.50400001928E-02 0.  1.
        1   -1    0    0  501    0  0.00000000000E+00  0.00000000000E+00 -0.82453177054E+03  0.82453177055E+03  0.50400001928E-02 0. -1.
    10030    2    1    2    0    0  0.00000000000E+00  0.00000000000E+00 -0.67615403461E+03  0.97290950656E+03  0.69954887566E+03 0.  0.
        3    1    3    3  502    0  0.30682585678E+03  0.13827744545E+03 -0.20555663128E+03  0.39435554665E+03  0.10100000352E+00 0.  1.
       -3    1    3    3    0  502 -0.30682585678E+03 -0.13827744545E+03 -0.47059740333E+03  0.57855395992E+03  0.10100000352E+00 0. -1.
</event>
<event>
 5   0  0.2777999E-02  0.6972993E+03  0.7818609E-02  0.9721862E-01
        1   -1    0    0  501    0  0.00000000000E+00  0.00000000000E+00  0.42026162345E+03  0.42026162348E+03  0.50400001928E-02 0.  1.
       -1   -1    0    0    0  501  0.00000000000E+00  0.00000000000E+00 -0.28924026114E+03  0.28924026118E+03  0.50400001928E-02 0. -1.
    10030    2    1    2    0    0  0.00000000000E+00  0.00000000000E+00  0.13102136231E+03  0.70950188466E+03  0.69729930945E+03 0.  0.
        5    1    3    3  502    0  0.56152507376E+02 -0.23479655854E+03  0.32141129344E+03  0.40200726055E+03  0.46999998093E+01 0.  1.
       -5    1    3    3    0  502 -0.56152507376E+02  0.23479655854E+03 -0.19038993113E+03  0.30749462411E+03  0.46999998093E+01 0. -1.
</event>
<event>
 5   0  0.2758681E-02  0.6948180E+03  0.7818609E-02  0.9726135E-01
        1   -1    0    0  501    0  0.00000000000E+00  0.00000000000E+00  0.66988899550E+03  0.66988899551E+03  0.50400001928E-02 0. -1.
       -1   -1    0    0    0  501  0.00000000000E+00  0.00000000000E+00 -0.18016868633E+03  0.18016868640E+03  0.50400001928E-02 0.  1.
    10030    2    1    2    0    0  0.00000000000E+00  0.00000000000E+00  0.48972030916E+03  0.85005768192E+03  0.69481802033E+03 0.  0.
        3    1    3    3  502    0 -0.23999632598E+03  0.14641107098E+03 -0.48461526070E+01  0.28117242679E+03  0.10100000352E+00 0. -1.
       -3    1    3    3    0  502  0.23999632598E+03 -0.14641107098E+03  0.49456646177E+03  0.56888525513E+03  0.10100000352E+00 0.  1.
</event>
<event>
 5   0  0.4503289E-02  0.6911344E+03  0.7818609E-02  0.9732515E-01
        2   -1    0    0  501    0  0.00000000000E+00  0.00000000000E+00  0.19001156541E+03  0.19001156543E+03  0.25500000920E-02 0. -1.
       -2   -1    0    0    0  501  0.00000000000E+00  0.00000000000E+00 -0.62847058864E+03  0.62847058865E+03  0.25500000920E-02 0.  1.
    10030    2    1    2    0    0  0.00000000000E+00  0.00000000000E+00 -0.43845902323E+03  0.81848215408E+03  0.69113437296E+03 0.  0.
        2    1    3    3  502    0  0.19720327428E+02  0.11797484017E+03 -0.60317376711E+03  0.61491913905E+03  0.25500000920E-02 0.  1.
       -2    1    3    3    0  502 -0.19720327428E+02 -0.11797484017E+03  0.16471474388E+03  0.20356301503E+03  0.25500000920E-02 0. -1.
</event>
<event>
 5   0  0.4299912E-02  0.7027354E+03  0.7818609E-02  0.9712566E-01
       -2   -1    0    0    0  501  0.00000000000E+00  0.00000000000E+00  0.11967546872E+03  0.11967546875E+03  0.25500000920E-02 0.  1.
        2   -1    0    0  501    0  0.00000000000E+00  0.00000000000E+00 -0.10316170039E+04  0.10316170039E+04  0.25500000920E-02 0. -1.
    10030    2    1    2    0    0  0.00000000000E+00  0.00000000000E+00 -0.91194153514E+03  0.11512924726E+04  0.70273536554E+03 0.  0.
        3    1    3    3  502    0 -0.26275254253E+03  0.23176714497E+03 -0.41249152095E+03  0.54120622054E+03  0.10100000352E+00 0.  1.
       -3    1    3    3    0  502  0.26275254253E+03 -0.23176714497E+03 -0.49945001419E+03  0.61008625208E+03  0.10100000352E+00 0. -1.
</event>
<event>
 5   0  0.2758681E-02  0.7368666E+03  0.7818609E-02  0.9656183E-01
       -1   -1    0    0    0  501  0.00000000000E+00  0.00000000000E+00  0.26728143244E+03  0.26728143248E+03  0.50400001928E-02 0. -1.
        1   -1    0    0  501    0  0.00000000000E+00  0.00000000000E+00 -0.50786580725E+03  0.50786580728E+03  0.50400001928E-02 0.  1.
    10030    2    1    2    0    0  0.00000000000E+00  0.00000000000E+00 -0.24058437482E+03  0.77514723976E+03  0.73686661066E+03 0.  0.
        3    1    3    3  502    0 -0.22875585384E+03 -0.27932680623E+03 -0.43058776254E+02  0.36360249416E+03  0.10100000352E+00 0. -1.
       -3    1    3    3    0  502  0.22875585384E+03  0.27932680623E+03 -0.19752559856E+03  0.41154474560E+03  0.10100000352E+00 0.  1.
</event>
<event>
 5   0  0.2750139E-02  0.7047308E+03  0.7818609E-02  0.9709176E-01
        1   -1    0    0  501    0  0.00000000000E+00  0.00000000000E+00  0.27661163921E+03  0.27661163926E+03  0.50400001928E-02 0.  1.
       -1   -1    0    0    0  501  0.00000000000E+00  0.00000000000E+00 -0.44886529560E+03  0.44886529563E+03  0.50400001928E-02 0. -1.
    10030    2    1    2    0    0  0.00000000000E+00  0.00000000000E+00 -0.17225365639E+03  0.72547693489E+03  0.70473077194E+03 0.  0.
        2    1    3    3  502    0  0.27978307485E+03 -0.10625211952E+03 -0.27759485702E+03  0.40819968952E+03  0.25500000920E-02 0. -1.
       -2    1    3    3    0  502 -0.27978307485E+03  0.10625211952E+03  0.10534120063E+03  0.31727724537E+03  0.25500000920E-02 0.  1.
</event>
<event>
 5   0  0.4503289E-02  0.7102236E+03  0.7818609E-02  0.9699906E-01
       -2   -1    0    0    0  501  0.00000000000E+00  0.00000000000E+00  0.24054806623E+03  0.24054806624E+03  0.25500000920E-02 0. -1.
        2   -1    0    0  501    0  0.00000000000E+00  0.00000000000E+00 -0.52423779909E+03  0.52423779910E+03  0.25500000920E-02 0.  1.
    10030    2    1    2    0    0  0.00000000000E+00  0.00000000000E+00 -0.28368973287E+03  0.76478586534E+03  0.71022359528E+03 0.  0.
        2    1    3    3  502    0 -0.10849080636E+03 -0.16003254290E+03  0.17890362692E+03  0.26341445971E+03  0.25500000920E-02 0. -1.
       -2    1    3    3    0  502  0.10849080636E+03  0.16003254290E+03 -0.46259335979E+03  0.50137140563E+03  0.25500000920E-02 0.  1.
</event>
<event>
 5   0  0.2750139E-02  0.7018462E+03  0.7818609E-02  0.9714080E-01
        1   -1    0    0  501    0  0.00000000000E+00  0.00000000000E+00  0.13713577743E+04  0.13713577743E+04  0.50400001928E-02 0.  1.
       -1   -1    0    0    0  501  0.00000000000E+00  0.00000000000E+00 -0.89799349439E+02  0.89799349581E+02  0.50400001928E-02 0. -1.
    10030    2    1    2    0    0  0.00000000000E+00  0.00000000000E+00  0.12815584249E+04  0.14611571239E+04  0.70184623983E+03 0.  0.
        2    1    3    3  502    0 -0.19900157141E+02 -0.19827876120E+03  0.12421372478E+04  0.12580204394E+04  0.25500000920E-02 0.  1.
       -2    1    3    3    0  502  0.19900157141E+02  0.19827876120E+03  0.39421177034E+02  0.20313668453E+03  0.25500000920E-02 0. -1.
</event>
<event>
 5   0  0.1784625E-02  0.7233211E+03  0.7818609E-02  0.9678161E-01
       -3   -1    0    0    0  501  0.00000000000E+00  0.00000000000E+00  0.11735965471E+04  0.11735965514E+04  0.10100000352E+00 0. -1.
        3   -1    0    0  501    0  0.00000000000E+00  0.00000000000E+00 -0.11145083445E+03  0.11145088021E+03  0.10100000352E+00 0.  1.
    10030    2    1    2    0    0  0.00000000000E+00  0.00000000000E+00  0.10621457126E+04  0.12850474316E+04  0.72332108133E+03 0.  0.
        2    1    3    3  502    0 -0.17858206692E+03 -0.28325775838E+03  0.77383531540E+03  0.84317709153E+03  0.25500000920E-02 0.  1.
       -2    1    3    3    0  502  0.17858206692E+03  0.28325775838E+03  0.28831039722E+03  0.44187034010E+03  0.25500000920E-02 0. -1.
</event>
<event>
 5   0  0.4526837E-02  0.7033467E+03  0.7818609E-02  0.9711526E-01
        2   -1    0    0  501    0  0.00000000000E+00  0.00000000000E+00  0.31644380459E+03  0.31644380460E+03  0.25500000920E-02 0. -1.
       -2   -1    0    0    0  501  0.00000000000E+00  0.00000000000E+00 -0.39082498306E+03  0.39082498307E+03  0.25500000920E-02 0.  1.
    10030    2    1    2    0    0  0.00000000000E+00  0.00000000000E+00 -0.74381178472E+02  0.70726878767E+03  0.70334669851E+03 0.  0.
        1    1    3    3  502    0  0.30778546464E+03  0.15186700995E+03 -0.11429058314E+03  0.36174275166E+03  0.50400001928E-02 0. -1.
       -1    1    3    3    0  502 -0.30778546464E+03 -0.15186700995E+03  0.39909404665E+02  0.34552603601E+03  0.50400001928E-02 0.  1.
</event>
<event>
 5   0  0.2750139E-02  0.6758219E+03  0.7818609E-02  0.9759497E-01
        1   -1    0    0  501    0  0.00000000000E+00  0.00000000000E+00  0.19950480395E+03  0.19950480401E+03  0.50400001928E-02 0.  1.
       -1   -1    0    0    0  501  0.00000000000E+00  0.00000000000E+00 -0.57233607238E+03  0.57233607240E+03  0.50400001928E-02 0. -1.
    10030    2    1    2    0    0  0.00000000000E+00  0.00000000000E+00 -0.37283126843E+03  0.77184087641E+03  0.67582185803E+03 0.  0.
        2    1    3    3  502    0  0.20059093681E+03 -0.13433392007E+02  0.12377270773E+03  0.23608655857E+03  0.25500000920E-02 0.  1.
       -2    1    3    3    0  502 -0.20059093681E+03  0.13433392007E+02 -0.49660397615E+03  0.53575431785E+03  0.25500000920E-02 0. -1.
</event>
<event>
 5   0  0.2751729E-02  0.6845979E+03  0.7818609E-02  0.9743940E-01
        1   -1    0    0  501    0  0.00000000000E+00  0.00000000000E+00  0.86746685208E+03  0.86746685209E+03  0.50400001928E-02 0. -1.
       -1   -1    0    0    0  501  0.00000000000E+00  0.00000000000E+00 -0.13506980458E+03  0.13506980467E+03  0.50400001928E-02 0.  1.
    10030    2    1    2    0    0  0.00000000000E+00  0.00000000000E+00  0.73239704750E+03  0.10025366568E+04  0.68459792066E+03 0.  0.
        1    1    3    3  502    0 -0.88604810103E+02 -0.31892439453E+03  0.23849167386E+03  0.40797286714E+03  0.50400001928E-02 0.  1.
       -1    1    3    3    0  502  0.88604810103E+02  0.31892439453E+03  0.49390537364E+03  0.59456378963E+03  0.50400001928E-02 0. -1.
</event>
<event>
 5   0  0.2750139E-02  0.7291943E+03  0.7818609E-02  0.9668569E-01
        1   -1    0    0  501    0  0.00000000000E+00  0.00000000000E+00  0.82467819744E+03  0.82467819746E+03  0.50400001928E-02 0. -1.
       -1   -1    0    0    0  501  0.00000000000E+00  0.00000000000E+00 -0.16119145738E+03  0.16119145746E+03  0.50400001928E-02 0.  1.
    10030    2    1    2    0    0  0.00000000000E+00  0.00000000000E+00  0.66348674007E+03  0.98586965492E+03  0.72919429663E+03 0.  0.
        2    1    3    3  502    0  0.20928536581E+03 -0.23675636353E+03  0.85853738975E+02  0.32745198810E+03  0.25500000920E-02 0.  1.
       -2    1    3    3    0  502 -0.20928536581E+03  0.23675636353E+03  0.57763300109E+03  0.65841766681E+03  0.25500000920E-02 0. -1.
</event>
<event>
 5   0  0.4526837E-02  0.7014632E+03  0.7818609E-02  0.9714733E-01
       -2   -1    0    0    0  501  0.00000000000E+00  0.00000000000E+00  0.37402898066E+03  0.37402898067E+03  0.25500000920E-02 0. -1.
        2   -1    0    0  501    0  0.00000000000E+00  0.00000000000E+00 -0.32888538433E+03  0.32888538434E+03  0.25500000920E-02 0.  1.
    10030    2    1    2    0    0  0.00000000000E+00  0.00000000000E+00  0.45143596334E+02  0.70291436501E+03  0.70146322801E+03 0.  0.
        1    1    3    3  502    0  0.30353027021E+02 -0.56300808218E+02  0.36813527952E+03  0.37365046676E+03  0.50400001928E-02 0. -1.
       -1    1    3    3    0  502 -0.30353027021E+02  0.56300808218E+02 -0.32299168319E+03  0.32926389825E+03  0.50400001928E-02 0.  1.
</event>
<event>
 5   0  0.4420645E-02  0.6355318E+03  0.7818609E-02  0.9834313E-01
       -2   -1    0    0    0  501  0.00000000000E+00  0.00000000000E+00  0.61751846205E+02  0.61751846258E+02  0.25500000920E-02 0. -1.
        2   -1    0    0  501    0  0.00000000000E+00  0.00000000000E+00 -0.16351764628E+04  0.16351764628E+04  0.25500000920E-02 0.  1.
    10030    2    1    2    0    0  0.00000000000E+00  0.00000000000E+00 -0.15734246166E+04  0.16969283091E+04  0.63553179463E+03 0.  0.
        5    1    3    3  502    0  0.10876053344E+03  0.16199679338E+03 -0.11715642136E+03  0.22763903831E+03  0.46999998093E+01 0. -1.
       -5    1    3    3    0  502 -0.10876053344E+03 -0.16199679338E+03 -0.14562681952E+04  0.14692892708E+04  0.46999998093E+01 0.  1.
</event>
<event>
 5   0  0.2758681E-02  0.6986427E+03  0.7818609E-02  0.9719556E-01
        1   -1    0    0  501    0  0.00000000000E+00  0.00000000000E+00  0.58915239887E+03  0.58915239889E+03  0.50400001928E-02 0.  1.
       -1   -1    0    0    0  501  0.00000000000E+00  0.00000000000E+00 -0.20712027735E+03  0.20712027741E+03  0.50400001928E-02 0. -1.
    10030    2    1    2    0    0  0.00000000000E+00  0.00000000000E+00  0.38203212152E+03  0.79627267630E+03  0.69864270779E+03 0.  0.
        3    1    3    3  502    0  0.21897819006E+03  0.29898949629E+02  0.49933691103E+03  0.54606112829E+03  0.10100000352E+00 0.  1.
       -3    1    3    3    0  502 -0.21897819006E+03 -0.29898949629E+02 -0.11730478951E+03  0.25021154800E+03  0.10100000352E+00 0. -1.
</event>
<event>
 5   0  0.4365492E-02  0.7157146E+03  0.7818609E-02  0.9690729E-01
        2   -1    0    0  501    0  0.00000000000E+00  0.00000000000E+00  0.37859207681E+03  0.37859207682E+03  0.25500000920E-02 0. -1.
       -2   -1    0    0    0  501  0.00000000000E+00  0.00000000000E+00 -0.33825814002E+03  0.33825814003E+03  0.25500000920E-02 0.  1.
    10030    2    1    2    0    0  0.00000000000E+00  0.00000000000E+00  0.40333936798E+02  0.71685021685E+03  0.71571461278E+03 0.  0.
        4    1    3    3  502    0 -0.25766314469E+03  0.24515826570E+03  0.59819776621E+02  0.36065619356E+03  0.12699999809E+01 0.  1.
       -4    1    3    3    0  502  0.25766314469E+03 -0.24515826570E+03 -0.19485839823E+02  0.35619402329E+03  0.12699999809E+01 0. -1.
</event>
<event>
 5   0  0.2684924E-02  0.6981260E+03  0.7818609E-02  0.9720442E-01
        1   -1    0    0  501    0  0.00000000000E+00  0.00000000000E+00  0.14501247946E+03  0.14501247954E+03  0.50400001928E-02 0.  1.
       -1   -1    0    0    0  501  0.00000000000E+00  0.00000000000E+00 -0.84023786395E+03  0.84023786396E+03  0.50400001928E-02 0. -1.
    10030    2    1    2    0    0  0.00000000000E+00  0.00000000000E+00 -0.69522538449E+03  0.98525034351E+03  0.69812599446E+03 0.  0.
        4    1    3    3  502    0  0.15043163042E+03  0.22213062611E+02 -0.79103337642E+03  0.80551754239E+03  0.12699999809E+01 0. -1.
       -4    1    3    3    0  502 -0.15043163042E+03 -0.22213062611E+02  0.95807991932E+02  0.17973280112E+03  0.12699999809E+01 0.  1.
</event>
<event>
 5   0  0.2777999E-02  0.7231162E+03  0.7818609E-02  0.9678497E-01
       -1   -1    0    0    0  501  0.00000000000E+00  0.00000000000E+00  0.30951645318E+03  0.30951645322E+03  0.50400001928E-02 0. -1.
        1   -1    0    0  501    0  0.00000000000E+00  0.00000000000E+00 -0.42234995970E+03  0.42234995973E+03  0.50400001928E-02 0.  1.
    10030    2    1    2    0    0  0.00000000000E+00  0.00000000000E+00 -0.11283350652E+03  0.73186641295E+03  0.72311620519E+03 0.  0.
        5    1    3    3  502    0 -0.22705759037E+03  0.11951416759E+03  0.20134799925E+03  0.32619302935E+03  0.46999998093E+01 0. -1.
       -5    1    3    3    0  502  0.22705759037E+03 -0.11951416759E+03 -0.31418150577E+03  0.40567338360E+03  0.46999998093E+01 0.  1.
</event>
<event>
 5   0  0.2750139E-02  0.7049610E+03  0.7818609E-02  0.9708786E-01
       -1   -1    0    0    0  501  0.00000000000E+00  0.00000000000E+00  0.16091016118E+03  0.16091016126E+03  0.50400001928E-02 0.  1.
        1   -1    0    0  501    0  0.00000000000E+00  0.00000000000E+00 -0.77212336626E+03  0.77212336628E+03  0.50400001928E-02 0. -1.
    10030    2    1    2    0    0  0.00000000000E+00  0.00000000000E+00 -0.61121320508E+03  0.93303352754E+03  0.70496097867E+03 0.  0.
        2    1    3    3  502    0  0.30402604021E+03  0.76667097592E+02 -0.92470494679E+02  0.32689519631E+03  0.25500000920E-02 0.  1.
       -2    1    3    3    0  502 -0.30402604021E+03 -0.76667097592E+02 -0.51874271040E+03  0.60613833123E+03  0.25500000920E-02 0. -1.
</event>
<event>
 5   0  0.2750139E-02  0.6997992E+03  0.7818609E-02  0.9717576E-01
        1   -1    0    0  501    0  0.00000000000E+00  0.00000000000E+00  0.16433068717E+03  0.16433068725E+03  0.50400001928E-02 0. -1.
       -1   -1    0    0    0  501  0.00000000000E+00  0.00000000000E+00 -0.74502047817E+03  0.74502047819E+03  0.50400001928E-02 0.  1.
    10030    2    1    2    0    0  0.00000000000E+00  0.00000000000E+00 -0.58068979100E+03  0.90935116544E+03  0.69979919171E+03 0.  0.
        2    1    3    3  502    0  0.17526578640E+03 -0.25009962019E+03 -0.68440738186E+02  0.31297292303E+03  0.25500000920E-02 0. -1.
       -2    1    3    3    0  502 -0.17526578640E+03  0.25009962019E+03 -0.51224905282E+03  0.59637824241E+03  0.25500000920E-02 0.  1.
</event>
<event>
 5   0  0.2777999E-02  0.6929249E+03  0.7818609E-02  0.9729409E-01
        1   -1    0    0  501    0  0.00000000000E+00  0.00000000000E+00  0.18233702209E+04  0.18233702209E+04  0.50400001928E-02 0. -1.
       -1   -1    0    0    0  501  0.00000000000E+00  0.00000000000E+00 -0.65832063067E+02  0.65832063260E+02  0.50400001928E-02 0.  1.
    10030    2    1    2    0    0  0.00000000000E+00  0.00000000000E+00  0.17575381579E+04  0.18892022842E+04  0.69292488357E+03 0.  0.
        5    1    3    3  502    0  0.36853953013E+02  0.29641006660E+03  0.13572299819E+04  0.13897166816E+04  0.46999998093E+01 0. -1.
       -5    1    3    3    0  502 -0.36853953013E+02 -0.29641006660E+03  0.40030817599E+03  0.49948560259E+03  0.46999998093E+01 0.  1.
</event>
<event>
 5   0  0.2777999E-02  0.7019835E+03  0.7818609E-02  0.9713846E-01
        1   -1    0    0  501    0  0.00000000000E+00  0.00000000000E+00  0.57810707442E+03  0.57810707445E+03  0.50400001928E-02 0.  1.
       -1   -1    0    0    0  501  0.00000000000E+00  0.00000000000E+00 -0.21310099813E+03  0.21310099819E+03  0.50400001928E-02 0. -1.
    10030    2    1    2    0    0  0.00000000000E+00  0.00000000000E+00  0.36500607630E+03  0.79120807263E+03  0.70198346025E+03 0.  0.
        5    1    3    3  502    0 -0.34624905802E+03  0.54314728353E+02  0.20312024670E+03  0.40511532249E+03  0.46999998093E+01 0.  1.
       -5    1    3    3    0  502  0.34624905802E+03 -0.54314728353E+02  0.16188582959E+03  0.38609275015E+03  0.46999998093E+01 0. -1.
</event>
<event>
 5   0  0.2750139E-02  0.7008217E+03  0.7818609E-02  0.9715828E-01
        1   -1    0    0  501    0  0.00000000000E+00  0.00000000000E+00  0.42893669038E+03  0.42893669040E+03  0.50400001928E-02 0. -1.
       -1   -1    0    0    0  501  0.00000000000E+00  0.00000000000E+00 -0.28626080668E+03  0.28626080672E+03  0.50400001928E-02 0.  1.
    10030    2    1    2    0    0  0.00000000000E+00  0.00000000000E+00  0.14267588370E+03  0.71519749713E+03  0.70082169780E+03 0.  0.
        2    1    3    3  502    0  0.11986182752E+03  0.32308733496E+01  0.40734937407E+03  0.42463020242E+03  0.25500000920E-02 0. -1.
       -2    1    3    3    0  502 -0.11986182752E+03 -0.32308733496E+01 -0.26467349038E+03  0.29056729471E+03  0.25500000920E-02 0.  1.
</event>
<event>
 5   0  0.1784625E-02  0.6602506E+03  0.7818609E-02  0.9787733E-01
        4   -1    0    0  501    0  0.00000000000E+00  0.00000000000E+00  0.30667502746E+03  0.30667765711E+03  0.12699999809E+01 0.  1.
       -4   -1    0    0    0  501  0.00000000000E+00  0.00000000000E+00 -0.35536339024E+03  0.35536565960E+03  0.12699999809E+01 0. -1.
    10030    2    1    2    0    0  0.00000000000E+00  0.00000000000E+00 -0.48688362778E+02  0.66204331671E+03  0.66025055587E+03 0.  0.
        3    1    3    3  502    0 -0.86247373945E+02 -0.29700946084E+03  0.91422584660E+02  0.32250787359E+03  0.10100000352E+00 0. -1.
       -3    1    3    3    0  502  0.86247373945E+02  0.29700946084E+03 -0.14011094744E+03  0.33953544312E+03  0.10100000352E+00 0.  1.
</event>
<event>
 5   0  0.1784625E-02  0.6914334E+03  0.7818609E-02  0.9731995E-01
       -3   -1    0    0    0  501  0.00000000000E+00  0.00000000000E+00  0.50770492126E+03  0.50770493131E+03  0.10100000352E+00 0.  1.
        3   -1    0    0  501    0  0.00000000000E+00  0.00000000000E+00 -0.23541237323E+03  0.23541239489E+03  0.10100000352E+00 0. -1.
    10030    2    1    2    0    0  0.00000000000E+00  0.00000000000E+00  0.27229254803E+03  0.74311732620E+03  0.69143338709E+03 0.  0.
        5    1    3    3  502    0 -0.27021207315E+03 -0.15489751286E+03 -0.25030739074E+02  0.31250029098E+03  0.46999998093E+01 0. -1.
       -5    1    3    3    0  502  0.27021207315E+03  0.15489751286E+03  0.29732328711E+03  0.43061703522E+03  0.46999998093E+01 0.  1.
</event>
<event>
 5   0  0.1784625E-02  0.7055959E+03  0.7818609E-02  0.9707710E-01
       -4   -1    0    0    0  501  0.00000000000E+00  0.00000000000E+00  0.58749938791E+03  0.58750076059E+03  0.12699999809E+01 0. -1.
        4   -1    0    0  501    0  0.00000000000E+00  0.00000000000E+00 -0.21185436258E+03  0.21185816917E+03  0.12699999809E+01 0.  1.
    10030    2    1    2    0    0  0.00000000000E+00  0.00000000000E+00  0.37564502533E+03  0.79935892977E+03  0.70559585709E+03 0.  0.
        2    1    3    3  502    0 -0.23265687575E+01  0.29990498163E+03  0.39830134034E+03  0.49859038163E+03  0.25500000920E-02 0.  1.
       -2    1    3    3    0  502  0.23265687575E+01 -0.29990498163E+03 -0.22656315017E+02  0.30076854813E+03  0.25500000920E-02 0. -1.
</event>
<event>
 5   0  0.4526837E-02  0.7005264E+03  0.7818609E-02  0.9716332E-01
        2   -1    0    0  501    0  0.00000000000E+00  0.00000000000E+00  0.57530493327E+03  0.57530493328E+03  0.25500000920E-02 0.  1.
       -2   -1    0    0    0  501  0.00000000000E+00  0.00000000000E+00 -0.21325090542E+03  0.21325090544E+03  0.25500000920E-02 0. -1.
    10030    2    1    2    0    0  0.00000000000E+00  0.00000000000E+00  0.36205402785E+03  0.78855583871E+03  0.70052636759E+03 0.  0.
        1    1    3    3  502    0  0.15970881012E+03  0.29155309148E+03  0.30522883963E+03  0.45130339435E+03  0.50400001928E-02 0.  1.
       -1    1    3    3    0  502 -0.15970881012E+03 -0.29155309148E+03  0.56825188216E+02  0.33725244436E+03  0.50400001928E-02 0. -1.
</event>
<event>
 5   0  0.2777999E-02  0.6992973E+03  0.7818609E-02  0.9718435E-01
        1   -1    0    0  501    0  0.00000000000E+00  0.00000000000E+00  0.53553536217E+03  0.53553536219E+03  0.50400001928E-02 0. -1.
       -1   -1    0    0    0  501  0.00000000000E+00  0.00000000000E+00 -0.22828403815E+03  0.22828403821E+03  0.50400001928E-02 0.  1.
    10030    2    1    2    0    0  0.00000000000E+00  0.00000000000E+00  0.30725132402E+03  0.76381940040E+03  0.69929729037E+03 0.  0.
        5    1    3    3  502    0 -0.23457052931E+03  0.87028594018E+01  0.43663248509E+03  0.49575103632E+03  0.46999998093E+01 0. -1.
       -5    1    3    3    0  502  0.23457052931E+03 -0.87028594018E+01 -0.12938116108E+03  0.26806836408E+03  0.46999998093E+01 0.  1.
</event>
<event>
 5   0  0.2750139E-02  0.6847122E+03  0.7818609E-02  0.9743740E-01
       -1   -1    0    0    0  501  0.00000000000E+00  0.00000000000E+00  0.10196537763E+03  0.10196537775E+03  0.50400001928E-02 0.  1.
        1   -1    0    0  501    0  0.00000000000E+00  0.00000000000E+00 -0.11494851152E+04  0.11494851152E+04  0.50400001928E-02 0. -1.
    10030    2    1    2    0    0  0.00000000000E+00  0.00000000000E+00 -0.10475197376E+04  0.12514504930E+04  0.68471215539E+03 0.  0.
        2    1    3    3  502    0  0.58331865944E+02 -0.26587891690E+03 -0.90326020941E+03  0.94338391493E+03  0.25500000920E-02 0. -1.
       -2    1    3    3    0  502 -0.58331865944E+02  0.26587891690E+03 -0.14425952819E+03  0.30806657806E+03  0.25500000920E-02 0.  1.
</event>
<event>
 5   0  0.2751729E-02  0.7018712E+03  0.7818609E-02  0.9714038E-01
        1   -1    0    0  501    0  0.00000000000E+00  0.00000000000E+00  0.70453114321E+03  0.70453114323E+03  0.50400001928E-02 0.  1.
       -1   -1    0    0    0  501  0.00000000000E+00  0.00000000000E+00 -0.17480531526E+03  0.17480531533E+03  0.50400001928E-02 0. -1.
    10030    2    1    2    0    0  0.00000000000E+00  0.00000000000E+00  0.52972582795E+03  0.87933645856E+03  0.70187118089E+03 0.  0.
        1    1    3    3  502    0  0.27282590887E+03 -0.21605058435E+03  0.32150425854E+03  0.47378984775E+03  0.50400001928E-02 0.  1.
       -1    1    3    3    0  502 -0.27282590887E+03  0.21605058435E+03  0.20822156940E+03  0.40554661081E+03  0.50400001928E-02 0. -1.
</event>
<event>
 5   0  0.4420645E-02  0.6957033E+03  0.7818609E-02  0.9724609E-01
        2   -1    0    0  501    0  0.00000000000E+00  0.00000000000E+00  0.29597160627E+03  0.29597160629E+03  0.25500000920E-02 0.  1.
       -2   -1    0    0    0  501  0.00000000000E+00  0.00000000000E+00 -0.40882555534E+03  0.40882555535E+03  0.25500000920E-02 0. -1.
    10030    2    1    2    0    0  0.00000000000E+00  0.00000000000E+00 -0.11285394906E+03  0.70479716163E+03  0.69570325946E+03 0.  0.
        5    1    3    3  502    0  0.21173425801E+03  0.35782650499E+02  0.22076774517E+03  0.30801344353E+03  0.46999998093E+01 0.  1.
       -5    1    3    3    0  502 -0.21173425801E+03 -0.35782650499E+02 -0.33362169423E+03  0.39678371810E+03  0.46999998093E+01 0. -1.
</event>
<event>
 5   0  0.4420645E-02  0.6916311E+03  0.7818609E-02  0.9731652E-01
       -2   -1    0    0    0  501  0.00000000000E+00  0.00000000000E+00  0.69506488408E+03  0.69506488408E+03  0.25500000920E-02 0.  1.
        2   -1    0    0  501    0  0.00000000000E+00  0.00000000000E+00 -0.17205357066E+03  0.17205357068E+03  0.25500000920E-02 0. -1.
    10030    2    1    2    0    0  0.00000000000E+00  0.00000000000E+00  0.52301131342E+03  0.86711845476E+03  0.69163110155E+03 0.  0.
        5    1    3    3  502    0  0.28009503609E+03  0.12519117459E+03  0.46147552734E+03  0.55417308828E+03  0.46999998093E+01 0. -1.
       -5    1    3    3    0  502 -0.28009503609E+03 -0.12519117459E+03  0.61535786080E+02  0.31294536649E+03  0.46999998093E+01 0.  1.
</event>
<event>
 5   0  0.4365492E-02  0.7206235E+03  0.7818609E-02  0.9682599E-01
       -2   -1    0    0    0  501  0.00000000000E+00  0.00000000000E+00  0.14239153840E+03  0.14239153842E+03  0.25500000920E-02 0. -1.
        2   -1    0    0  501    0  0.00000000000E+00  0.00000000000E+00 -0.91174347237E+03  0.91174347237E+03  0.25500000920E-02 0.  1.
    10030    2    1    2    0    0  0.00000000000E+00  0.00000000000E+00 -0.76935193397E+03  0.10541350108E+04  0.72062349578E+03 0.  0.
        4    1    3    3  502    0 -0.22686149704E+03 -0.26834473135E+03 -0.50122352241E+03  0.61212879854E+03  0.12699999809E+01 0. -1.
       -4    1    3    3    0  502  0.22686149704E+03  0.26834473135E+03 -0.26812841156E+03  0.44200621225E+03  0.12699999809E+01 0.  1.
</event>
<event>
 5   0  0.2777999E-02  0.7083958E+03  0.7818609E-02  0.9702981E-01
        1   -1    0    0  501    0  0.00000000000E+00  0.00000000000E+00  0.48641716685E+03  0.48641716688E+03  0.50400001928E-02 0.  1.
       -1   -1    0    0    0  501  0.00000000000E+00  0.00000000000E+00 -0.25791887234E+03  0.25791887239E+03  0.50400001928E-02 0. -1.
    10030    2    1    2    0    0  0.00000000000E+00  0.00000000000E+00  0.22849829451E+03  0.74433603926E+03  0.70839584185E+03 0.  0.
        5    1    3    3  502    0 -0.21151835986E+03  0.28164280239E+03  0.75338009722E+02  0.36022297318E+03  0.46999998093E+01 0. -1.
       -5    1    3    3    0  502  0.21151835986E+03 -0.28164280239E+03  0.15316028479E+03  0.38411306608E+03  0.46999998093E+01 0.  1.
</event>
<event>
 5   0  0.4503289E-02  0.6926495E+03  0.7818609E-02  0.9729886E-01
       -2   -1    0    0    0  501  0.00000000000E+00  0.00000000000E+00  0.86488785692E+02  0.86488785729E+02  0.25500000920E-02 0. -1.
        2   -1    0    0  501    0  0.00000000000E+00  0.00000000000E+00 -0.13867788538E+04  0.13867788538E+04  0.25500000920E-02 0.  1.
    10030    2    1    2    0    0  0.00000000000E+00  0.00000000000E+00 -0.13002900681E+04  0.14732676395E+04  0.69264946146E+03 0.  0.
        2    1    3    3  502    0  0.79050603108E+02 -0.72677188593E+02  0.50184619130E+02  0.11853045008E+03  0.25500000920E-02 0. -1.
       -2    1    3    3    0  502 -0.79050603108E+02  0.72677188593E+02 -0.13504746872E+04  0.13547371894E+04  0.25500000920E-02 0.  1.
</event>
<event>
 5   0  0.2750139E-02  0.7150495E+03  0.7818609E-02  0.9691836E-01
       -1   -1    0    0    0  501  0.00000000000E+00  0.00000000000E+00  0.21404540072E+03  0.21404540078E+03  0.50400001928E-02 0. -1.
        1   -1    0    0  501    0  0.00000000000E+00  0.00000000000E+00 -0.59718148942E+03  0.59718148944E+03  0.50400001928E-02 0.  1.
    10030    2    1    2    0    0  0.00000000000E+00  0.00000000000E+00 -0.38313608870E+03  0.81122689022E+03  0.71504951223E+03 0.  0.
        2    1    3    3  502    0 -0.23831848557E+03  0.17077775511E+03 -0.42369334614E+03  0.51524440198E+03  0.25500000920E-02 0.  1.
       -2    1    3    3    0  502  0.23831848557E+03 -0.17077775511E+03  0.40557257435E+02  0.29598248824E+03  0.25500000920E-02 0. -1.
</event>
<event>
 5   0  0.4503289E-02  0.7034097E+03  0.7818609E-02  0.9711419E-01
       -2   -1    0    0    0  501  0.00000000000E+00  0.00000000000E+00  0.56837204527E+03  0.56837204528E+03  0.25500000920E-02 0. -1.
        2   -1    0    0  501    0  0.00000000000E+00  0.00000000000E+00 -0.21763262089E+03  0.21763262091E+03  0.25500000920E-02 0.  1.
    10030    2    1    2    0    0  0.00000000000E+00  0.00000000000E+00  0.35073942438E+03  0.78600466618E+03  0.70340968962E+03 0.  0.
        2    1    3    3  502    0  0.30616349529E+03  0.10596783869E+03  0.32830144094E+03  0.46124516780E+03  0.25500000920E-02 0. -1.
       -2    1    3    3    0  502 -0.30616349529E+03 -0.10596783869E+03  0.22437983432E+02  0.32475949839E+03  0.25500000920E-02 0.  1.
</event>
<event>
 5   0  0.2777999E-02  0.6363850E+03  0.7818609E-02  0.9832668E-01
       -1   -1    0    0    0  501  0.00000000000E+00  0.00000000000E+00  0.81603326034E+02  0.81603326190E+02  0.50400001928E-02 0. -1.
        1   -1    0    0  501    0  0.00000000000E+00  0.00000000000E+00 -0.12407147793E+04  0.12407147793E+04  0.50400001928E-02 0.  1.
    10030    2    1    2    0    0  0.00000000000E+00  0.00000000000E+00 -0.11591114532E+04  0.13223181055E+04  0.63638495506E+03 0.  0.
        5    1    3    3  502    0 -0.96027864658E+02  0.60249514382E+02  0.38141795741E+02  0.11970063222E+03  0.46999998093E+01 0. -1.
       -5    1    3    3    0  502  0.96027864658E+02 -0.60249514382E+02 -0.11972532490E+04  0.12026174733E+04  0.46999998093E+01 0.  1.
</event>
<event>
 5   0  0.4365492E-02  0.6974147E+03  0.7818609E-02  0.9721664E-01
       -2   -1    0    0    0  501  0.00000000000E+00  0.00000000000E+00  0.10041460912E+03  0.10041460915E+03  0.25500000920E-02 0.  1.
        2   -1    0    0  501    0  0.00000000000E+00  0.00000000000E+00 -0.12109475740E+04  0.12109475740E+04  0.25500000920E-02 0. -1.
    10030    2    1    2    0    0  0.00000000000E+00  0.00000000000E+00 -0.11105329649E+04  0.13113621832E+04  0.69741473265E+03 0.  0.
        4    1    3    3  502    0  0.12550255818E+03 -0.91088765309E+02  0.32004917092E+02  0.15834766463E+03  0.12699999809E+01 0.  1.
       -4    1    3    3    0  502 -0.12550255818E+03  0.91088765309E+02 -0.11425378820E+04  0.11530145185E+04  0.12699999809E+01 0. -1.
</event>
<event>
 5   0  0.2751729E-02  0.7266988E+03  0.7818609E-02  0.9672632E-01
       -1   -1    0    0    0  501  0.00000000000E+00  0.00000000000E+00  0.69101395468E+02  0.69101395652E+02  0.50400001928E-02 0.  1.
        1   -1    0    0  501    0  0.00000000000E+00  0.00000000000E+00 -0.19105662210E+04  0.19105662210E+04  0.50400001928E-02 0. -1.
    10030    2    1    2    0    0  0.00000000000E+00  0.00000000000E+00 -0.18414648256E+04  0.19796676167E+04  0.72669881573E+03 0.  0.
        1    1    3    3  502    0  0.32011822456E+03 -0.17187104131E+03 -0.91329200717E+03  0.98291282570E+03  0.50400001928E-02 0.  1.
       -1    1    3    3    0  502 -0.32011822456E+03  0.17187104131E+03 -0.92817281840E+03  0.99675479100E+03  0.50400001928E-02 0. -1.
</event>
<event>
 5   0  0.2777999E-02  0.7108092E+03  0.7818609E-02  0.9698924E-01
       -1   -1    0    0    0  501  0.00000000000E+00  0.00000000000E+00  0.14173307631E+03  0.14173307640E+03  0.50400001928E-02 0.  1.
        1   -1    0    0  501    0  0.00000000000E+00  0.00000000000E+00 -0.89119941138E+03  0.89119941139E+03  0.50400001928E-02 0. -1.
    10030    2    1    2    0    0  0.00000000000E+00  0.00000000000E+00 -0.74946633507E+03  0.10329324878E+04  0.71080921275E+03 0.  0.
        5    1    3    3  502    0  0.11164818489E+03  0.26221701034E+03 -0.68322913951E+03  0.74030211723E+03  0.46999998093E+01 0. -1.
       -5    1    3    3    0  502 -0.11164818489E+03 -0.26221701034E+03 -0.66237195558E+02  0.29263037056E+03  0.46999998093E+01 0.  1.
</event>
<event>
 5   0  0.2684924E-02  0.6934423E+03  0.7818609E-02  0.9728513E-01
       -1   -1    0    0    0  501  0.00000000000E+00  0.00000000000E+00  0.13355480668E+03  0.13355480678E+03  0.50400001928E-02 0.  1.
        1   -1    0    0  501    0  0.00000000000E+00  0.00000000000E+00 -0.90012145968E+03  0.90012145970E+03  0.50400001928E-02 0. -1.
    10030    2    1    2    0    0  0.00000000000E+00  0.00000000000E+00 -0.76656665300E+03  0.10336762665E+04  0.69344227617E+03 0.  0.
        4    1    3    3  502    0 -0.14270626908E+02 -0.40424209988E+02 -0.89615222901E+03  0.89717790767E+03  0.12699999809E+01 0. -1.
       -4    1    3    3    0  502  0.14270626908E+02  0.40424209988E+02  0.12958557601E+03  0.13649835880E+03  0.12699999809E+01 0.  1.
</event>
<event>
 5   0  0.4503289E-02  0.7067375E+03  0.7818609E-02  0.9705779E-01
       -2   -1    0    0    0  501  0.00000000000E+00  0.00000000000E+00  0.17553812207E+03  0.17553812209E+03  0.25500000920E-02 0. -1.
        2   -1    0    0  501    0  0.00000000000E+00  0.00000000000E+00 -0.71135243770E+03  0.71135243771E+03  0.25500000920E-02 0.  1.
    10030    2    1    2    0    0  0.00000000000E+00  0.00000000000E+00 -0.53581431563E+03  0.88689055980E+03  0.70673749315E+03 0.  0.
        2    1    3    3  502    0  0.27822292657E+03 -0.16525323418E+03 -0.89759523776E+02  0.33581751054E+03  0.25500000920E-02 0. -1.
       -2    1    3    3    0  502 -0.27822292657E+03  0.16525323418E+03 -0.44605479185E+03  0.55107304925E+03  0.25500000920E-02 0.  1.
</event>
<event>
 5   0  0.4299912E-02  0.6149721E+03  0.7818609E-02  0.9874822E-01
        2   -1    0    0  501    0  0.00000000000E+00  0.00000000000E+00  0.56881000225E+03  0.56881000226E+03  0.25500000920E-02 0. -1.
       -2   -1    0    0    0  501  0.00000000000E+00  0.00000000000E+00 -0.16622010987E+03  0.16622010989E+03  0.25500000920E-02 0.  1.
    10030    2    1    2    0    0  0.00000000000E+00  0.00000000000E+00  0.40258989238E+03  0.73503011215E+03  0.61497206792E+03 0.  0.
        3    1    3    3  502    0  0.27091741688E+03  0.13084128448E+02  0.28171992529E+02  0.27269234047E+03  0.10100000352E+00 0.  1.
       -3    1    3    3    0  502 -0.27091741688E+03 -0.13084128448E+02  0.37441789985E+03  0.46233777168E+03  0.10100000352E+00 0. -1.
</event>
<event>
 5   0  0.2758681E-02  0.7080015E+03  0.7818609E-02  0.9703646E-01
       -1   -1    0    0    0  501  0.00000000000E+00  0.00000000000E+00  0.14433491924E+03  0.14433491933E+03  0.50400001928E-02 0. -1.
        1   -1    0    0  501    0  0.00000000000E+00  0.00000000000E+00 -0.86823435798E+03  0.86823435800E+03  0.50400001928E-02 0.  1.
    10030    2    1    2    0    0  0.00000000000E+00  0.00000000000E+00 -0.72389943874E+03  0.10125692773E+04  0.70800151411E+03 0.  0.
        3    1    3    3  502    0 -0.62014619296E+02  0.34597097655E+03 -0.42220079464E+03  0.54935894533E+03  0.10100000352E+00 0.  1.
       -3    1    3    3    0  502  0.62014619296E+02 -0.34597097655E+03 -0.30169864410E+03  0.46321033200E+03  0.10100000352E+00 0. -1.
</event>
<event>
 5   0  0.4420645E-02  0.7186241E+03  0.7818609E-02  0.9685902E-01
        2   -1    0    0  501    0  0.00000000000E+00  0.00000000000E+00  0.14782565888E+04  0.14782565888E+04  0.25500000920E-02 0.  1.
       -2   -1    0    0    0  501  0.00000000000E+00  0.00000000000E+00 -0.87336084946E+02  0.87336084983E+02  0.25500000920E-02 0. -1.
    10030    2    1    2    0    0  0.00000000000E+00  0.00000000000E+00  0.13909205039E+04  0.15655926738E+04  0.71862408266E+03 0.  0.
        5    1    3    3  502    0 -0.21012497892E+03  0.10705841115E+03  0.12859729001E+04  0.13074258678E+04  0.46999998093E+01 0.  1.
       -5    1    3    3    0  502  0.21012497892E+03 -0.10705841115E+03  0.10494760381E+03  0.25816680597E+03  0.46999998093E+01 0. -1.
</event>
<event>
 5   0  0.4420645E-02  0.6884507E+03  0.7818609E-02  0.9737189E-01
        2   -1    0    0  501    0  0.00000000000E+00  0.00000000000E+00  0.13081390851E+03  0.13081390853E+03  0.25500000920E-02 0. -1.
       -2   -1    0    0    0  501  0.00000000000E+00  0.00000000000E+00 -0.90579881913E+03  0.90579881913E+03  0.25500000920E-02 0.  1.
    10030    2    1    2    0    0  0.00000000000E+00  0.00000000000E+00 -0.77498491062E+03  0.10366127277E+04  0.68845067759E+03 0.  0.
        5    1    3    3  502    0 -0.29055359146E+03  0.16382734307E+03 -0.51532967029E+03  0.61387909797E+03  0.46999998093E+01 0.  1.
       -5    1    3    3    0  502  0.29055359146E+03 -0.16382734307E+03 -0.25965524033E+03  0.42273362970E+03  0.46999998093E+01 0. -1.
</event>
<event>
 5   0  0.4420645E-02  0.6935951E+03  0.7818609E-02  0.9728249E-01
       -2   -1    0    0    0  501  0.00000000000E+00  0.00000000000E+00  0.48181575567E+03  0.48181575568E+03  0.25500000920E-02 0.  1.
        2   -1    0    0  501    0  0.00000000000E+00  0.00000000000E+00 -0.24961519352E+03  0.24961519353E+03  0.25500000920E-02 0. -1.
    10030    2    1    2    0    0  0.00000000000E+00  0.00000000000E+00  0.23220056215E+03  0.73143094921E+03  0.69359507812E+03 0.  0.
        5    1    3    3  502    0 -0.80317631248E+02 -0.13407251574E+03  0.44253444035E+03  0.46934548284E+03  0.46999998093E+01 0.  1.
       -5    1    3    3    0  502  0.80317631248E+02  0.13407251574E+03 -0.21033387820E+03  0.26208546637E+03  0.46999998093E+01 0. -1.
</event>
<event>
 5   0  0.2684924E-02  0.7097066E+03  0.7818609E-02  0.9700775E-01
        1   -1    0    0  501    0  0.00000000000E+00  0.00000000000E+00  0.47306991838E+03  0.47306991841E+03  0.50400001928E-02 0. -1.
       -1   -1    0    0    0  501  0.00000000000E+00  0.00000000000E+00 -0.26617811633E+03  0.26617811638E+03  0.50400001928E-02 0.  1.
    10030    2    1    2    0    0  0.00000000000E+00  0.00000000000E+00  0.20689180205E+03  0.73924803479E+03  0.70970658669E+03 0.  0.
        4    1    3    3  502    0 -0.98608807101E+02 -0.34086784733E+03  0.10569463290E+03  0.37025336528E+03  0.12699999809E+01 0. -1.
       -4    1    3    3    0  502  0.98608807101E+02  0.34086784733E+03  0.10119716915E+03  0.36899466951E+03  0.12699999809E+01 0.  1.
</event>
<event>
 5   0  0.4365492E-02  0.6947503E+03  0.7818609E-02  0.9726252E-01
       -2   -1    0    0    0  501  0.00000000000E+00  0.00000000000E+00  0.41135506816E+02  0.41135506895E+02  0.25500000920E-02 0.  1.
        2   -1    0    0  501    0  0.00000000000E+00  0.00000000000E+00 -0.29334634472E+04  0.29334634472E+04  0.25500000920E-02 0. -1.
    10030    2    1    2    0    0  0.00000000000E+00  0.00000000000E+00 -0.28923279404E+04  0.29745989541E+04  0.69475033140E+03 0.  0.
        4    1    3    3  502    0  0.16817278957E+03  0.99040554897E+02 -0.26765138042E+04  0.26836204790E+04  0.12699999809E+01 0. -1.
       -4    1    3    3    0  502 -0.16817278957E+03 -0.99040554897E+02 -0.21581413624E+03  0.29097847509E+03  0.12699999809E+01 0.  1.
</event>
<event>
 5   0  0.2684924E-02  0.7035596E+03  0.7818609E-02  0.9711164E-01
        1   -1    0    0  501    0  0.00000000000E+00  0.00000000000E+00  0.26248329902E+03  0.26248329907E+03  0.50400001928E-02 0. -1.
       -1   -1    0    0    0  501  0.00000000000E+00  0.00000000000E+00 -0.47145491623E+03  0.47145491626E+03  0.50400001928E-02 0.  1.
    10030    2    1    2    0    0  0.00000000000E+00  0.00000000000E+00 -0.20897161721E+03  0.73393821533E+03  0.70355964006E+03 0.  0.
        4    1    3    3  502    0 -0.23221137290E+03  0.35684817011E+02 -0.37761513574E+03  0.44473624938E+03  0.12699999809E+01 0.  1.
       -4    1    3    3    0  502  0.23221137290E+03 -0.35684817011E+02  0.16864351853E+03  0.28920196595E+03  0.12699999809E+01 0. -1.
</event>
<event>
 5   0  0.1784625E-02  0.6992387E+03  0.7818609E-02  0.9718535E-01
       -3   -1    0    0    0  501  0.00000000000E+00  0.00000000000E+00  0.13191950455E+03  0.13191954321E+03  0.10100000352E+00 0. -1.
        3   -1    0    0  501    0  0.00000000000E+00  0.00000000000E+00 -0.92657773057E+03  0.92657773607E+03  0.10100000352E+00 0.  1.
    10030    2    1    2    0    0  0.00000000000E+00  0.00000000000E+00 -0.79465822602E+03  0.10584972793E+04  0.69923872466E+03 0.  0.
        1    1    3    3  502    0 -0.74261115544E+02 -0.57751456063E+02 -0.90705852191E+03  0.91192384888E+03  0.50400001928E-02 0.  1.
       -1    1    3    3    0  502  0.74261115544E+02  0.57751456063E+02  0.11240029589E+03  0.14657343040E+03  0.50400001928E-02 0. -1.
</event>
<event>
 5   0  0.2751729E-02  0.7228850E+03  0.7818609E-02  0.9678877E-01
        1   -1    0    0  501    0  0.00000000000E+00  0.00000000000E+00  0.18120516897E+03  0.18120516904E+03  0.50400001928E-02 0.  1.
       -1   -1    0    0    0  501  0.00000000000E+00  0.00000000000E+00 -0.72095441173E+03  0.72095441175E+03  0.50400001928E-02 0. -1.
    10030    2    1    2    0    0  0.00000000000E+00  0.00000000000E+00 -0.53974924276E+03  0.90215958079E+03  0.72288495914E+03 0.  0.
        1    1    3    3  502    0 -0.13106862910E+03 -0.73192034198E+02  0.14045821986E+03  0.20558348902E+03  0.50400001928E-02 0.  1.
       -1    1    3    3    0  502  0.13106862910E+03  0.73192034198E+02 -0.68020746262E+03  0.69657609177E+03  0.50400001928E-02 0. -1.
</event>
<event>
 5   0  0.2750139E-02  0.7004602E+03  0.7818609E-02  0.9716445E-01
        1   -1    0    0  501    0  0.00000000000E+00  0.00000000000E+00  0.66539974710E+03  0.66539974712E+03  0.50400001928E-02 0.  1.
       -1   -1    0    0    0  501  0.00000000000E+00  0.00000000000E+00 -0.18434202035E+03  0.18434202042E+03  0.50400001928E-02 0. -1.
    10030    2    1    2    0    0  0.00000000000E+00  0.00000000000E+00  0.48105772675E+03  0.84974176753E+03  0.70046023087E+03 0.  0.
        2    1    3    3  502    0 -0.29495414751E+03 -0.51245414693E+02  0.20030997833E+02  0.30004213461E+03  0.25500000920E-02 0. -1.
       -2    1    3    3    0  502  0.29495414751E+03  0.51245414693E+02  0.46102672891E+03  0.54969963293E+03  0.25500000920E-02 0.  1.
</event>
<event>
 5   0  0.4365492E-02  0.6962805E+03  0.7818609E-02  0.9723614E-01
        2   -1    0    0  501    0  0.00000000000E+00  0.00000000000E+00  0.10596125768E+04  0.10596125768E+04  0.25500000920E-02 0. -1.
       -2   -1    0    0    0  501  0.00000000000E+00  0.00000000000E+00 -0.11438297799E+03  0.11438297802E+03  0.25500000920E-02 0.  1.
    10030    2    1    2    0    0  0.00000000000E+00  0.00000000000E+00  0.94522959884E+03  0.11739955549E+04  0.69628052415E+03 0.  0.
        4    1    3    3  502    0 -0.33594484331E+02  0.27355457362E+03  0.83123959309E+03  0.87574058267E+03  0.12699999809E+01 0. -1.
       -4    1    3    3    0  502  0.33594484331E+02 -0.27355457362E+03  0.11399000576E+03  0.29825497219E+03  0.12699999809E+01 0.  1.
</event>
<event>
 5   0  0.2684924E-02  0.7002934E+03  0.7818609E-02  0.9716731E-01
        1   -1    0    0  501    0  0.00000000000E+00  0.00000000000E+00  0.21994415446E+04  0.21994415446E+04  0.50400001928E-02 0. -1.
       -1   -1    0    0    0  501  0.00000000000E+00  0.00000000000E+00 -0.55742651088E+02  0.55742651316E+02  0.50400001928E-02 0.  1.
    10030    2    1    2    0    0  0.00000000000E+00  0.00000000000E+00  0.21436988935E+04  0.22551841959E+04  0.70029337530E+03 0.  0.
        4    1    3    3  502    0  0.15710105226E+03 -0.14168401817E+03  0.19703536639E+04  0.19816786509E+04  0.12699999809E+01 0. -1.
       -4    1    3    3    0  502 -0.15710105226E+03  0.14168401817E+03  0.17334522955E+03  0.27350554497E+03  0.12699999809E+01 0.  1.
</event>
<event>
 5   0  0.2751729E-02  0.7025301E+03  0.7818609E-02  0.9712915E-01
        1   -1    0    0  501    0  0.00000000000E+00  0.00000000000E+00  0.46248683359E+03  0.46248683362E+03  0.50400001928E-02 0. -1.
       -1   -1    0    0    0  501  0.00000000000E+00  0.00000000000E+00 -0.26679059282E+03  0.26679059287E+03  0.50400001928E-02 0.  1.
    10030    2    1    2    0    0  0.00000000000E+00  0.00000000000E+00  0.19569624077E+03  0.72927742649E+03  0.70253010337E+03 0.  0.
        1    1    3    3  502    0 -0.40909665851E+02  0.27778060806E+03 -0.12126018976E+03  0.30584260759E+03  0.50400001928E-02 0. -1.
       -1    1    3    3    0  502  0.40909665851E+02 -0.27778060806E+03  0.31695643053E+03  0.42343481890E+03  0.50400001928E-02 0.  1.
</event>
<event>
 5   0  0.4526837E-02  0.7071095E+03  0.7818609E-02  0.9705151E-01
       -2   -1    0    0    0  501  0.00000000000E+00  0.00000000000E+00  0.82265538133E+03  0.82265538133E+03  0.25500000920E-02 0. -1.
        2   -1    0    0  501    0  0.00000000000E+00  0.00000000000E+00 -0.15194813004E+03  0.15194813006E+03  0.25500000920E-02 0.  1.
    10030    2    1    2    0    0  0.00000000000E+00  0.00000000000E+00  0.67070725129E+03  0.97460351139E+03  0.70710945934E+03 0.  0.
        1    1    3    3  502    0  0.62636943207E+01  0.15037643072E+03  0.77629653898E+03  0.79075193407E+03  0.50400001928E-02 0. -1.
       -1    1    3    3    0  502 -0.62636943207E+01 -0.15037643072E+03 -0.10558928769E+03  0.18385157732E+03  0.50400001928E-02 0.  1.
</event>
<event>
 5   0  0.4420645E-02  0.7039637E+03  0.7818609E-02  0.9710478E-01
       -2   -1    0    0    0  501  0.00000000000E+00  0.00000000000E+00  0.14222504741E+03  0.14222504743E+03  0.25500000920E-02 0.  1.
        2   -1    0    0  501    0  0.00000000000E+00  0.00000000000E+00 -0.87109278609E+03  0.87109278609E+03  0.25500000920E-02 0. -1.
    10030    2    1    2    0    0  0.00000000000E+00  0.00000000000E+00 -0.72886773868E+03  0.10133178335E+04  0.70396367183E+03 0.  0.
        5    1    3    3  502    0  0.12232539487E+02  0.18173609960E+03 -0.79792346435E+03  0.81846294350E+03  0.46999998093E+01 0. -1.
       -5    1    3    3    0  502 -0.12232539487E+02 -0.18173609960E+03  0.69055725676E+02  0.19485489003E+03  0.46999998093E+01 0.  1.
</event>
<event>
 5   0  0.2684924E-02  0.6858733E+03  0.7818609E-02  0.9741700E-01
       -1   -1    0    0    0  501  0.00000000000E+00  0.00000000000E+00  0.16540130151E+03  0.16540130159E+03  0.50400001928E-02 0.  1.
        1   -1    0    0  501    0  0.00000000000E+00  0.00000000000E+00 -0.71103147068E+03  0.71103147070E+03  0.50400001928E-02 0. -1.
    10030    2    1    2    0    0  0.00000000000E+00  0.00000000000E+00 -0.54563016917E+03  0.87643277229E+03  0.68587325566E+03 0.  0.
        4    1    3    3  502    0  0.12279718612E+02  0.11617303105E+03 -0.68481915932E+03  0.69471278850E+03  0.12699999809E+01 0. -1.
       -4    1    3    3    0  502 -0.12279718612E+02 -0.11617303105E+03  0.13918899014E+03  0.18171998379E+03  0.12699999809E+01 0.  1.
</event>
<event>
 5   0  0.4365492E-02  0.7155124E+03  0.7818609E-02  0.9691066E-01
        2   -1    0    0  501    0  0.00000000000E+00  0.00000000000E+00  0.10606380783E+04  0.10606380783E+04  0.25500000920E-02 0. -1.
       -2   -1    0    0    0  501  0.00000000000E+00  0.00000000000E+00 -0.12067216655E+03  0.12067216658E+03  0.25500000920E-02 0.  1.
    10030    2    1    2    0    0  0.00000000000E+00  0.00000000000E+00  0.93996591173E+03  0.11813102449E+04  0.71551238942E+03 0.  0.
        4    1    3    3  502    0 -0.16732081309E+02  0.35323720691E+03  0.38059397456E+03  0.51952851054E+03  0.12699999809E+01 0.  1.
       -4    1    3    3    0  502  0.16732081309E+02 -0.35323720691E+03  0.55937193717E+03  0.66178173433E+03  0.12699999809E+01 0. -1.
</event>
<event>
 5   0  0.4503289E-02  0.7058925E+03  0.7818609E-02  0.9707208E-01
       -2   -1    0    0    0  501  0.00000000000E+00  0.00000000000E+00  0.41585891603E+03  0.41585891604E+03  0.25500000920E-02 0.  1.
        2   -1    0    0  501    0  0.00000000000E+00  0.00000000000E+00 -0.29955127877E+03  0.29955127879E+03  0.25500000920E-02 0. -1.
    10030    2    1    2    0    0  0.00000000000E+00  0.00000000000E+00  0.11630763725E+03  0.71541019482E+03  0.70589254166E+03 0.  0.
        2    1    3    3  502    0 -0.44021204715E+02  0.30061607800E+03  0.24019519005E+03  0.38730042880E+03  0.25500000920E-02 0.  1.
       -2    1    3    3    0  502  0.44021204715E+02 -0.30061607800E+03 -0.12388755280E+03  0.32810976602E+03  0.25500000920E-02 0. -1.
</event>
<event>
 5   0  0.2751729E-02  0.6904064E+03  0.7818609E-02  0.9733781E-01
        1   -1    0    0  501    0  0.00000000000E+00  0.00000000000E+00  0.57104522743E+03  0.57104522745E+03  0.50400001928E-02 0.  1.
       -1   -1    0    0    0  501  0.00000000000E+00  0.00000000000E+00 -0.20867919878E+03  0.20867919884E+03  0.50400001928E-02 0. -1.
    10030    2    1    2    0    0  0.00000000000E+00  0.00000000000E+00  0.36236602865E+03  0.77972442629E+03  0.69040643265E+03 0.  0.
        1    1    3    3  502    0  0.96199787845E+02 -0.15045287793E+03 -0.15245899173E+03  0.23480675426E+03  0.50400001928E-02 0. -1.
       -1    1    3    3    0  502 -0.96199787845E+02  0.15045287793E+03  0.51482502038E+03  0.54491767204E+03  0.50400001928E-02 0.  1.
</event>
<event>
 5   0  0.4503289E-02  0.7057829E+03  0.7818609E-02  0.9707393E-01
        2   -1    0    0  501    0  0.00000000000E+00  0.00000000000E+00  0.75852038895E+03  0.75852038896E+03  0.25500000920E-02 0. -1.
       -2   -1    0    0    0  501  0.00000000000E+00  0.00000000000E+00 -0.16417801988E+03  0.16417801990E+03  0.25500000920E-02 0.  1.
    10030    2    1    2    0    0  0.00000000000E+00  0.00000000000E+00  0.59434236907E+03  0.92269840886E+03  0.70578290007E+03 0.  0.
        2    1    3    3  502    0 -0.26169093364E+03 -0.20277457873E+03  0.45692742216E+03  0.56425379366E+03  0.25500000920E-02 0. -1.
       -2    1    3    3    0  502  0.26169093364E+03  0.20277457873E+03  0.13741494691E+03  0.35844461520E+03  0.25500000920E-02 0.  1.
</event>
<event>
 5   0  0.2750139E-02  0.6700323E+03  0.7818609E-02  0.9769900E-01
        1   -1    0    0  501    0  0.00000000000E+00  0.00000000000E+00  0.17021615113E+03  0.17021615121E+03  0.50400001928E-02 0. -1.
       -1   -1    0    0    0  501  0.00000000000E+00  0.00000000000E+00 -0.65937225264E+03  0.65937225266E+03  0.50400001928E-02 0.  1.
    10030    2    1    2    0    0  0.00000000000E+00  0.00000000000E+00 -0.48915610151E+03  0.82958840386E+03  0.67003225906E+03 0.  0.
        2    1    3    3  502    0  0.25280571670E+03 -0.12496818466E+02  0.27159935332E+02  0.25456740357E+03  0.25500000920E-02 0. -1.
       -2    1    3    3    0  502 -0.25280571670E+03  0.12496818466E+02 -0.51631603684E+03  0.57502100029E+03  0.25500000920E-02 0.  1.
</event>
<event>
 5   0  0.2684924E-02  0.7025825E+03  0.7818609E-02  0.9712826E-01
       -1   -1    0    0    0  501  0.00000000000E+00  0.00000000000E+00  0.53748810889E+03  0.53748810892E+03  0.50400001928E-02 0. -1.
        1   -1    0    0  501    0  0.00000000000E+00  0.00000000000E+00 -0.22959681208E+03  0.22959681213E+03  0.50400001928E-02 0.  1.
    10030    2    1    2    0    0  0.00000000000E+00  0.00000000000E+00  0.30789129682E+03  0.76708492105E+03  0.70258253995E+03 0.  0.
        4    1    3    3  502    0  0.11591500036E+03  0.32568108490E+03  0.22212452429E+03  0.41090798673E+03  0.12699999809E+01 0. -1.
       -4    1    3    3    0  502 -0.11591500036E+03 -0.32568108490E+03  0.85766772522E+02  0.35617693431E+03  0.12699999809E+01 0.  1.
</event>
<event>
 5   0  0.4526837E-02  0.6642568E+03  0.7818609E-02  0.9780389E-01
        2   -1    0    0  501    0  0.00000000000E+00  0.00000000000E+00  0.27501035973E+03  0.27501035974E+03  0.25500000920E-02 0.  1.
       -2   -1    0    0    0  501  0.00000000000E+00  0.00000000000E+00 -0.40110950047E+03  0.40110950047E+03  0.25500000920E-02 0. -1.
    10030    2    1    2    0    0  0.00000000000E+00  0.00000000000E+00 -0.12609914074E+03  0.67611986021E+03  0.66425678174E+03 0.  0.
        1    1    3    3  502    0  0.55950112199E+02 -0.23317634304E+03  0.17085359557E+03  0.29443602557E+03  0.50400001928E-02 0.  1.
       -1    1    3    3    0  502 -0.55950112199E+02  0.23317634304E+03 -0.29695273631E+03  0.38168383465E+03  0.50400001928E-02 0. -1.
</event>
<event>
 5   0  0.4503289E-02  0.7013152E+03  0.7818609E-02  0.9714986E-01
        2   -1    0    0  501    0  0.00000000000E+00  0.00000000000E+00  0.56907410785E+03  0.56907410786E+03  0.25500000920E-02 0. -1.
       -2   -1    0    0    0  501  0.00000000000E+00  0.00000000000E+00 -0.21607157930E+03  0.21607157932E+03  0.25500000920E-02 0.  1.
    10030    2    1    2    0    0  0.00000000000E+00  0.00000000000E+00  0.35300252855E+03  0.78514568717E+03  0.70131516804E+03 0.  0.
        2    1    3    3  502    0  0.20210474030E+03 -0.21390029326E+03  0.38998038381E+03  0.48855333513E+03  0.25500000920E-02 0. -1.
       -2    1    3    3    0  502 -0.20210474030E+03  0.21390029326E+03 -0.36977855258E+02  0.29659235204E+03  0.25500000920E-02 0.  1.
</event>
<event>
 5   0  0.2751729E-02  0.7255879E+03  0.7818609E-02  0.9674447E-01
       -1   -1    0    0    0  501  0.00000000000E+00  0.00000000000E+00  0.14501489049E+03  0.14501489058E+03  0.50400001928E-02 0.  1.
        1   -1    0    0  501    0  0.00000000000E+00  0.00000000000E+00 -0.90762719864E+03  0.90762719866E+03  0.50400001928E-02 0. -1.
    10030    2    1    2    0    0  0.00000000000E+00  0.00000000000E+00 -0.76261230815E+03  0.10526420892E+04  0.72558792403E+03 0.  0.
        1    1    3    3  502    0 -0.35113926844E+02  0.14837066163E+03 -0.85889092187E+03  0.87231901091E+03  0.50400001928E-02 0. -1.
       -1    1    3    3    0  502  0.35113926844E+02 -0.14837066163E+03  0.96278613724E+02  0.18032307833E+03  0.50400001928E-02 0.  1.
</event>
<event>
 5   0  0.2750139E-02  0.7037101E+03  0.7818609E-02  0.9710908E-01
        1   -1    0    0  501    0  0.00000000000E+00  0.00000000000E+00  0.55338905539E+03  0.55338905541E+03  0.50400001928E-02 0. -1.
       -1   -1    0    0    0  501  0.00000000000E+00  0.00000000000E+00 -0.22371601350E+03  0.22371601355E+03  0.50400001928E-02 0.  1.
    10030    2    1    2    0    0  0.00000000000E+00  0.00000000000E+00  0.32967304189E+03  0.77710506897E+03  0.70371014890E+03 0.  0.
        2    1    3    3  502    0  0.31935965095E+03 -0.98205710205E+02  0.43027770301E+02  0.33687733256E+03  0.25500000920E-02 0. -1.
       -2    1    3    3    0  502 -0.31935965095E+03  0.98205710205E+02  0.28664527159E+03  0.44022773641E+03  0.25500000920E-02 0.  1.
</event>
<event>
 5   0  0.4526837E-02  0.6991287E+03  0.7818609E-02  0.9718723E-01
        2   -1    0    0  501    0  0.00000000000E+00  0.00000000000E+00  0.43005788075E+03  0.43005788076E+03  0.25500000920E-02 0. -1.
       -2   -1    0    0    0  501  0.00000000000E+00  0.00000000000E+00 -0.28413675085E+03  0.28413675086E+03  0.25500000920E-02 0.  1.
    10030    2    1    2    0    0  0.00000000000E+00  0.00000000000E+00  0.14592112990E+03  0.71419463161E+03  0.69912874042E+03 0.  0.
        1    1    3    3  502    0 -0.21245469053E+03  0.23814024551E+01  0.35652582548E+03  0.41503413217E+03  0.50400001928E-02 0. -1.
       -1    1    3    3    0  502  0.21245469053E+03 -0.23814024551E+01 -0.21060469558E+03  0.29916049945E+03  0.50400001928E-02 0.  1.
</event>
<event>
 5   0  0.2750139E-02  0.6957184E+03  0.7818609E-02  0.9724582E-01
       -1   -1    0    0    0  501  0.00000000000E+00  0.00000000000E+00  0.24567545898E+03  0.24567545903E+03  0.50400001928E-02 0.  1.
        1   -1    0    0  501    0  0.00000000000E+00  0.00000000000E+00 -0.49254419433E+03  0.49254419436E+03  0.50400001928E-02 0. -1.
    10030    2    1    2    0    0  0.00000000000E+00  0.00000000000E+00 -0.24686873536E+03  0.73821965339E+03  0.69571839429E+03 0.  0.
        2    1    3    3  502    0  0.71711279963E+02  0.15203751339E+03  0.19971599405E+03  0.26104480734E+03  0.25500000920E-02 0.  1.
       -2    1    3    3    0  502 -0.71711279963E+02 -0.15203751339E+03 -0.44658472941E+03  0.47717484605E+03  0.25500000920E-02 0. -1.
</event>
<event>
 5   0  0.2751729E-02  0.7053596E+03  0.7818609E-02  0.9708110E-01
        1   -1    0    0  501    0  0.00000000000E+00  0.00000000000E+00  0.20413123812E+04  0.20413123812E+04  0.50400001928E-02 0. -1.
       -1   -1    0    0    0  501  0.00000000000E+00  0.00000000000E+00 -0.60932875039E+02  0.60932875247E+02  0.50400001928E-02 0.  1.
    10030    2    1    2    0    0  0.00000000000E+00  0.00000000000E+00  0.19803795062E+04  0.21022452565E+04  0.70535957487E+03 0.  0.
        1    1    3    3  502    0 -0.29551824342E+03  0.39928498742E+02  0.42897615019E+03  0.52244220222E+03  0.50400001928E-02 0.  1.
       -1    1    3    3    0  502  0.29551824342E+03 -0.39928498742E+02  0.15514033560E+04  0.15798030542E+04  0.50400001928E-02 0. -1.
</event>
<event>
 5   0  0.1784625E-02  0.6890338E+03  0.7818609E-02  0.9736172E-01
        3   -1    0    0  501    0  0.00000000000E+00  0.00000000000E+00  0.31595845349E+03  0.31595846963E+03  0.10100000352E+00 0. -1.
       -3   -1    0    0    0  501  0.00000000000E+00  0.00000000000E+00 -0.37565665104E+03  0.37565666462E+03  0.10100000352E+00 0.  1.
    10030    2    1    2    0    0  0.00000000000E+00  0.00000000000E+00 -0.59698197552E+02  0.69161513424E+03  0.68903383017E+03 0.  0.
        5    1    3    3  502    0 -0.29089228913E+03  0.50610059604E+02  0.14827023034E+03  0.33043282708E+03  0.46999998093E+01 0. -1.
       -5    1    3    3    0  502  0.29089228913E+03 -0.50610059604E+02 -0.20796842789E+03  0.36118230716E+03  0.46999998093E+01 0.  1.
</event>
<event>
 5   0  0.4365492E-02  0.7000714E+03  0.7818609E-02  0.9717110E-01
        2   -1    0    0  501    0  0.00000000000E+00  0.00000000000E+00  0.75909755518E+03  0.75909755519E+03  0.25500000920E-02 0. -1.
       -2   -1    0    0    0  501  0.00000000000E+00  0.00000000000E+00 -0.16140873273E+03  0.16140873275E+03  0.25500000920E-02 0.  1.
    10030    2    1    2    0    0  0.00000000000E+00  0.00000000000E+00  0.59768882245E+03  0.92050628793E+03  0.70007135182E+03 0.  0.
        4    1    3    3  502    0 -0.10619190126E+03  0.31221858055E+03  0.14457085729E+03  0.36008263998E+03  0.12699999809E+01 0.  1.
       -4    1    3    3    0  502  0.10619190126E+03 -0.31221858055E+03  0.45311796517E+03  0.56042364796E+03  0.12699999809E+01 0. -1.
</event>
<event>
 5   0  0.4365492E-02  0.6030148E+03  0.7818609E-02  0.9899171E-01
       -2   -1    0    0    0  501  0.00000000000E+00  0.00000000000E+00  0.59744754937E+03  0.59744754938E+03  0.25500000920E-02 0. -1.
        2   -1    0    0  501    0  0.00000000000E+00  0.00000000000E+00 -0.15215850077E+03  0.15215850079E+03  0.25500000920E-02 0.  1.
    10030    2    1    2    0    0  0.00000000000E+00  0.00000000000E+00  0.44528904860E+03  0.74960605017E+03  0.60301483701E+03 0.  0.
        4    1    3    3  502    0  0.75136883684E+02  0.17664191636E+02  0.58495465454E+03  0.59002638562E+03  0.12699999809E+01 0. -1.
       -4    1    3    3    0  502 -0.75136883684E+02 -0.17664191636E+02 -0.13966560594E+03  0.15957966455E+03  0.12699999809E+01 0.  1.
</event>
<event>
 5   0  0.4365492E-02  0.6971415E+03  0.7818609E-02  0.9722133E-01
       -2   -1    0    0    0  501  0.00000000000E+00  0.00000000000E+00  0.17137719738E+03  0.17137719740E+03  0.25500000920E-02 0.  1.
        2   -1    0    0  501    0  0.00000000000E+00  0.00000000000E+00 -0.70897170224E+03  0.70897170225E+03  0.25500000920E-02 0. -1.
    10030    2    1    2    0    0  0.00000000000E+00  0.00000000000E+00 -0.53759450486E+03  0.88034889965E+03  0.69714154478E+03 0.  0.
        4    1    3    3  502    0 -0.92718250463E+02  0.30532154078E+03 -0.44595863561E+03  0.54835995004E+03  0.12699999809E+01 0. -1.
       -4    1    3    3    0  502  0.92718250463E+02 -0.30532154078E+03 -0.91635869245E+02  0.33198894961E+03  0.12699999809E+01 0.  1.
</event>
<event>
 5   0  0.4299912E-02  0.6980753E+03  0.7818609E-02  0.9720529E-01
        2   -1    0    0  501    0  0.00000000000E+00  0.00000000000E+00  0.81465061206E+02  0.81465061246E+02  0.25500000920E-02 0.  1.
       -2   -1    0    0    0  501  0.00000000000E+00  0.00000000000E+00 -0.14954543065E+04  0.14954543065E+04  0.25500000920E-02 0. -1.
    10030    2    1    2    0    0  0.00000000000E+00  0.00000000000E+00 -0.14139892453E+04  0.15769193678E+04  0.69807528718E+03 0.  0.
        3    1    3    3  502    0  0.58151457918E+02 -0.25734806816E+03 -0.19079715551E+03  0.32559665999E+03  0.10100000352E+00 0.  1.
       -3    1    3    3    0  502 -0.58151457918E+02  0.25734806816E+03 -0.12231920898E+04  0.12513227078E+04  0.10100000352E+00 0. -1.
</event>
<event>
 5   0  0.2751729E-02  0.6870558E+03  0.7818609E-02  0.9739628E-01
       -1   -1    0    0    0  501  0.00000000000E+00  0.00000000000E+00  0.80563036901E+02  0.80563037058E+02  0.50400001928E-02 0.  1.
        1   -1    0    0  501    0  0.00000000000E+00  0.00000000000E+00 -0.14648333892E+04  0.14648333892E+04  0.50400001928E-02 0. -1.
    10030    2    1    2    0    0  0.00000000000E+00  0.00000000000E+00 -0.13842703523E+04  0.15453964262E+04  0.68705582455E+03 0.  0.
        1    1    3    3  502    0 -0.35539570236E+02  0.25091497347E+03 -0.17046162608E+03  0.30541537446E+03  0.50400001928E-02 0.  1.
       -1    1    3    3    0  502  0.35539570236E+02 -0.25091497347E+03 -0.12138087262E+04  0.12399810518E+04  0.50400001928E-02 0. -1.
</event>
<event>
 5   0  0.4503289E-02  0.6992327E+03  0.7818609E-02  0.9718545E-01
        2   -1    0    0  501    0  0.00000000000E+00  0.00000000000E+00  0.17235782502E+04  0.17235782502E+04  0.25500000920E-02 0.  1.
       -2   -1    0    0    0  501  0.00000000000E+00  0.00000000000E+00 -0.70917341573E+02  0.70917341619E+02  0.25500000920E-02 0. -1.
    10030    2    1    2    0    0  0.00000000000E+00  0.00000000000E+00  0.16526609086E+04  0.17944955918E+04  0.69923268670E+03 0.  0.
        2    1    3    3  502    0 -0.16133968981E+03  0.21181924253E+03  0.14077932878E+04  0.14327525355E+04  0.25500000920E-02 0.  1.
       -2    1    3    3    0  502  0.16133968981E+03 -0.21181924253E+03  0.24486762086E+03  0.36174305627E+03  0.25500000920E-02 0. -1.
</event>
<event>
 5   0  0.4526837E-02  0.6829633E+03  0.7818609E-02  0.9746819E-01
       -2   -1    0    0    0  501  0.00000000000E+00  0.00000000000E+00  0.97878613369E+02  0.97878613402E+02  0.25500000920E-02 0. -1.
        2   -1    0    0  501    0  0.00000000000E+00  0.00000000000E+00 -0.11913706440E+04  0.11913706440E+04  0.25500000920E-02 0.  1.
    10030    2    1    2    0    0  0.00000000000E+00  0.00000000000E+00 -0.10934920306E+04  0.12892492574E+04  0.68296326889E+03 0.  0.
        1    1    3    3  502    0 -0.27885355765E+03 -0.18637584512E+03 -0.42565967851E+03  0.54192381770E+03  0.50400001928E-02 0.  1.
       -1    1    3    3    0  502  0.27885355765E+03  0.18637584512E+03 -0.66783235209E+03  0.74732543968E+03  0.50400001928E-02 0. -1.
</event>
<event>
 5   0  0.2750139E-02  0.6981427E+03  0.7818609E-02  0.9720414E-01
       -1   -1    0    0    0  501  0.00000000000E+00  0.00000000000E+00  0.53219165636E+02  0.53219165874E+02  0.50400001928E-02 0. -1.
        1   -1    0    0  501    0  0.00000000000E+00  0.00000000000E+00 -0.22896035864E+04  0.22896035864E+04  0.50400001928E-02 0.  1.
    10030    2    1    2    0    0  0.00000000000E+00  0.00000000000E+00 -0.22363844208E+04  0.23428227523E+04  0.69814265818E+03 0.  0.
        2    1    3    3  502    0 -0.11052311888E+03  0.40762933472E+01 -0.71314421569E+01  0.11082794525E+03  0.25500000920E-02 0. -1.
       -2    1    3    3    0  502  0.11052311888E+03 -0.40762933472E+01 -0.22292529786E+04  0.22319948071E+04  0.25500000920E-02 0.  1.
</event>
<event>
 5   0  0.2750139E-02  0.7002781E+03  0.7818609E-02  0.9716757E-01
        1   -1    0    0  501    0  0.00000000000E+00  0.00000000000E+00  0.19175065419E+03  0.19175065426E+03  0.50400001928E-02 0. -1.
       -1   -1    0    0    0  501  0.00000000000E+00  0.00000000000E+00 -0.63935826723E+03  0.63935826725E+03  0.50400001928E-02 0.  1.
    10030    2    1    2    0    0  0.00000000000E+00  0.00000000000E+00 -0.44760761305E+03  0.83110892151E+03  0.70027813343E+03 0.  0.
        2    1    3    3  502    0  0.26561322032E+03  0.19259257811E+03 -0.36894202212E+03  0.49372107474E+03  0.25500000920E-02 0.  1.
       -2    1    3    3    0  502 -0.26561322032E+03 -0.19259257811E+03 -0.78665590928E+02  0.33738784677E+03  0.25500000920E-02 0. -1.
</event>
<event>
 5   0  0.4365492E-02  0.7297748E+03  0.7818609E-02  0.9667626E-01
       -2   -1    0    0    0  501  0.00000000000E+00  0.00000000000E+00  0.76803784791E+02  0.76803784833E+02  0.25500000920E-02 0. -1.
        2   -1    0    0  501    0  0.00000000000E+00  0.00000000000E+00 -0.17335447530E+04  0.17335447530E+04  0.25500000920E-02 0.  1.
    10030    2    1    2    0    0  0.00000000000E+00  0.00000000000E+00 -0.16567409682E+04  0.18103485378E+04  0.72977475477E+03 0.  0.
        4    1    3    3  502    0  0.32001276670E+03  0.81393996746E+02 -0.44319890239E+03  0.55268438872E+03  0.12699999809E+01 0. -1.
       -4    1    3    3    0  502 -0.32001276670E+03 -0.81393996746E+02 -0.12135420658E+04  0.12576641491E+04  0.12699999809E+01 0.  1.
</event>
<event>
 5   0  0.4365492E-02  0.6754998E+03  0.7818609E-02  0.9760073E-01
       -2   -1    0    0    0  501  0.00000000000E+00  0.00000000000E+00  0.39460676000E+03  0.39460676000E+03  0.25500000920E-02 0.  1.
        2   -1    0    0  501    0  0.00000000000E+00  0.00000000000E+00 -0.28908524498E+03  0.28908524499E+03  0.25500000920E-02 0. -1.
    10030    2    1    2    0    0  0.00000000000E+00  0.00000000000E+00  0.10552151501E+03  0.68369200500E+03  0.67549979095E+03 0.  0.
        4    1    3    3  502    0  0.25321438447E+03 -0.22031626049E+03  0.90854959324E+02  0.34772548896E+03  0.12699999809E+01 0.  1.
       -4    1    3    3    0  502 -0.25321438447E+03  0.22031626049E+03  0.14666555690E+02  0.33596651604E+03  0.12699999809E+01 0. -1.
</event>
<event>
 5   0  0.4365492E-02  0.7040355E+03  0.7818609E-02  0.9710356E-01
        2   -1    0    0  501    0  0.00000000000E+00  0.00000000000E+00  0.26631181632E+03  0.26631181634E+03  0.25500000920E-02 0.  1.
       -2   -1    0    0    0  501  0.00000000000E+00  0.00000000000E+00 -0.46530600074E+03  0.46530600074E+03  0.25500000920E-02 0. -1.
    10030    2    1    2    0    0  0.00000000000E+00  0.00000000000E+00 -0.19899418441E+03  0.73161781708E+03  0.70403547129E+03 0.  0.
        4    1    3    3  502    0 -0.10762916876E+03  0.25759372395E+03 -0.32231843279E+03  0.42641452790E+03  0.12699999809E+01 0. -1.
       -4    1    3    3    0  502  0.10762916876E+03 -0.25759372395E+03  0.12332424838E+03  0.30520328918E+03  0.12699999809E+01 0.  1.
</event>
<event>
 5   0  0.2758681E-02  0.6886431E+03  0.7818609E-02  0.9736854E-01
        1   -1    0    0  501    0  0.00000000000E+00  0.00000000000E+00  0.38260492351E+03  0.38260492354E+03  0.50400001928E-02 0. -1.
       -1   -1    0    0    0  501  0.00000000000E+00  0.00000000000E+00 -0.30986875954E+03  0.30986875958E+03  0.50400001928E-02 0.  1.
    10030    2    1    2    0    0  0.00000000000E+00  0.00000000000E+00  0.72736163967E+02  0.69247368312E+03  0.68864305142E+03 0.  0.
        3    1    3    3  502    0 -0.50571180394E+02 -0.38251905344E+02 -0.30394711424E+03  0.31049075833E+03  0.10100000352E+00 0.  1.
       -3    1    3    3    0  502  0.50571180394E+02  0.38251905344E+02  0.37668327821E+03  0.38198292479E+03  0.10100000352E+00 0. -1.
</event>
<event>
 5   0  0.1784625E-02  0.6921650E+03  0.7818609E-02  0.9730726E-01
       -3   -1    0    0    0  501  0.00000000000E+00  0.00000000000E+00  0.93421329406E+03  0.93421329952E+03  0.10100000352E+00 0. -1.
        3   -1    0    0  501    0  0.00000000000E+00  0.00000000000E+00 -0.12820743307E+03  0.12820747286E+03  0.10100000352E+00 0.  1.
    10030    2    1    2    0    0  0.00000000000E+00  0.00000000000E+00  0.80600586099E+03  0.10624207724E+04  0.69216504508E+03 0.  0.
        4    1    3    3  502    0 -0.22188023921E+03 -0.84350347562E+02  0.78956518786E+03  0.82447596719E+03  0.12699999809E+01 0. -1.
       -4    1    3    3    0  502  0.22188023921E+03  0.84350347562E+02  0.16440673124E+02  0.23794480519E+03  0.12699999809E+01 0.  1.
</event>
<event>
 5   0  0.2758681E-02  0.7049190E+03  0.7818609E-02  0.9708857E-01
        1   -1    0    0  501    0  0.00000000000E+00  0.00000000000E+00  0.19895537478E+03  0.19895537484E+03  0.50400001928E-02 0. -1.
       -1   -1    0    0    0  501  0.00000000000E+00  0.00000000000E+00 -0.62439977971E+03  0.62439977973E+03  0.50400001928E-02 0.  1.
    10030    2    1    2    0    0  0.00000000000E+00  0.00000000000E+00 -0.42544440493E+03  0.82335515456E+03  0.70491898035E+03 0.  0.
        3    1    3    3  502    0 -0.16925062061E+03 -0.23888701181E+03  0.16503029029E+02  0.29323222394E+03  0.10100000352E+00 0.  1.
       -3    1    3    3    0  502  0.16925062061E+03  0.23888701181E+03 -0.44194743396E+03  0.53012293062E+03  0.10100000352E+00 0. -1.
</event>
<event>
 5   0  0.4503289E-02  0.6325806E+03  0.7818609E-02  0.9840026E-01
       -2   -1    0    0    0  501  0.00000000000E+00  0.00000000000E+00  0.81578785416E+02  0.81578785456E+02  0.25500000920E-02 0.  1.
        2   -1    0    0  501    0  0.00000000000E+00  0.00000000000E+00 -0.12262938866E+04  0.12262938866E+04  0.25500000920E-02 0. -1.
    10030    2    1    2    0    0  0.00000000000E+00  0.00000000000E+00 -0.11447151012E+04  0.13078726720E+04  0.63258063789E+03 0.  0.
        2    1    3    3  502    0  0.29174171693E+03  0.97954771386E+02 -0.72331759894E+03  0.78606406582E+03  0.25500000920E-02 0.  1.
       -2    1    3    3    0  502 -0.29174171693E+03 -0.97954771386E+02 -0.42139750224E+03  0.52180860623E+03  0.25500000920E-02 0. -1.
</event>
<event>
 5   0  0.2750139E-02  0.7020146E+03  0.7818609E-02  0.9713793E-01
       -1   -1    0    0    0  501  0.00000000000E+00  0.00000000000E+00  0.16753183843E+03  0.16753183851E+03  0.50400001928E-02 0.  1.
        1   -1    0    0  501    0  0.00000000000E+00  0.00000000000E+00 -0.73541921974E+03  0.73541921975E+03  0.50400001928E-02 0. -1.
    10030    2    1    2    0    0  0.00000000000E+00  0.00000000000E+00 -0.56788738131E+03  0.90295105826E+03  0.70201462646E+03 0.  0.
        2    1    3    3  502    0 -0.43630489105E+00  0.35096385628E+03 -0.27686182016E+03  0.44702157246E+03  0.25500000920E-02 0.  1.
       -2    1    3    3    0  502  0.43630489105E+00 -0.35096385628E+03 -0.29102556114E+03  0.45592948580E+03  0.25500000920E-02 0. -1.
</event>
<event>
 5   0  0.2750139E-02  0.5639190E+03  0.7818609E-02  0.9983226E-01
       -1   -1    0    0    0  501  0.00000000000E+00  0.00000000000E+00  0.64108678929E+03  0.64108678931E+03  0.50400001928E-02 0.  1.
        1   -1    0    0  501    0  0.00000000000E+00  0.00000000000E+00 -0.12400996242E+03  0.12400996252E+03  0.50400001928E-02 0. -1.
    10030    2    1    2    0    0  0.00000000000E+00  0.00000000000E+00  0.51707682687E+03  0.76509675183E+03  0.56391896117E+03 0.  0.
        2    1    3    3  502    0 -0.19319462408E+03  0.10243616717E+03  0.50003912387E+03  0.54576227107E+03  0.25500000920E-02 0. -1.
       -2    1    3    3    0  502  0.19319462408E+03 -0.10243616717E+03  0.17037703003E+02  0.21933448076E+03  0.25500000920E-02 0.  1.
</event>
<event>
 5   0  0.2751729E-02  0.7060476E+03  0.7818609E-02  0.9706946E-01
        1   -1    0    0  501    0  0.00000000000E+00  0.00000000000E+00  0.47196596322E+03  0.47196596325E+03  0.50400001928E-02 0. -1.
       -1   -1    0    0    0  501  0.00000000000E+00  0.00000000000E+00 -0.26405672658E+03  0.26405672663E+03  0.50400001928E-02 0.  1.
    10030    2    1    2    0    0  0.00000000000E+00  0.00000000000E+00  0.20790923664E+03  0.73602268988E+03  0.70604755459E+03 0.  0.
        1    1    3    3  502    0  0.31989654656E+03  0.77263702997E+02 -0.29228144782E+02  0.33039032185E+03  0.50400001928E-02 0.  1.
       -1    1    3    3    0  502 -0.31989654656E+03 -0.77263702997E+02  0.23713738143E+03  0.40563236803E+03  0.50400001928E-02 0. -1.
</event>
<event>
 5   0  0.4503289E-02  0.6972687E+03  0.7818609E-02  0.9721914E-01
        2   -1    0    0  501    0  0.00000000000E+00  0.00000000000E+00  0.85824303559E+03  0.85824303560E+03  0.25500000920E-02 0.  1.
       -2   -1    0    0    0  501  0.00000000000E+00  0.00000000000E+00 -0.14162179165E+03  0.14162179167E+03  0.25500000920E-02 0. -1.
    10030    2    1    2    0    0  0.00000000000E+00  0.00000000000E+00  0.71662124394E+03  0.99986482727E+03  0.69726871831E+03 0.  0.
        2    1    3    3  502    0 -0.15149674955E+03  0.71705421514E+02  0.79667746273E+03  0.81411787367E+03  0.25500000920E-02 0.  1.
       -2    1    3    3    0  502  0.15149674955E+03 -0.71705421514E+02 -0.80056218786E+02  0.18574695360E+03  0.25500000920E-02 0. -1.
</event>
<event>
 5   0  0.4365492E-02  0.7104025E+03  0.7818609E-02  0.9699606E-01
       -2   -1    0    0    0  501  0.00000000000E+00  0.00000000000E+00  0.10356235090E+03  0.10356235093E+03  0.25500000920E-02 0. -1.
        2   -1    0    0  501    0  0.00000000000E+00  0.00000000000E+00 -0.12182797858E+04  0.12182797858E+04  0.25500000920E-02 0.  1.
    10030    2    1    2    0    0  0.00000000000E+00  0.00000000000E+00 -0.11147174349E+04  0.13218421368E+04  0.71040247380E+03 0.  0.
        4    1    3    3  502    0  0.15633201398E+03 -0.21081428669E+03 -0.10026985911E+04  0.10364788659E+04  0.12699999809E+01 0.  1.
       -4    1    3    3    0  502 -0.15633201398E+03  0.21081428669E+03 -0.11201884386E+03  0.28536327084E+03  0.12699999809E+01 0. -1.
</event>
<event>
 5   0  0.2751729E-02  0.6853029E+03  0.7818609E-02  0.9742702E-01
       -1   -1    0    0    0  501  0.00000000000E+00  0.00000000000E+00  0.96844258448E+02  0.96844258579E+02  0.50400001928E-02 0. -1.
        1   -1    0    0  501    0  0.00000000000E+00  0.00000000000E+00 -0.12123591908E+04  0.12123591908E+04  0.50400001928E-02 0.  1.
    10030    2    1    2    0    0  0.00000000000E+00  0.00000000000E+00 -0.11155149323E+04  0.13092034493E+04  0.68530293125E+03 0.  0.
        1    1    3    3  502    0  0.25220646228E+02  0.13370390021E+03 -0.11585390034E+04  0.11665013658E+04  0.50400001928E-02 0.  1.
       -1    1    3    3    0  502 -0.25220646228E+02 -0.13370390021E+03  0.43024071118E+02  0.14270208355E+03  0.50400001928E-02 0. -1.
</event>
<event>
 5   0  0.4526837E-02  0.7068064E+03  0.7818609E-02  0.9705663E-01
       -2   -1    0    0    0  501  0.00000000000E+00  0.00000000000E+00  0.19418406369E+03  0.19418406371E+03  0.25500000920E-02 0.  1.
        2   -1    0    0  501    0  0.00000000000E+00  0.00000000000E+00 -0.64317228175E+03  0.64317228175E+03  0.25500000920E-02 0. -1.
    10030    2    1    2    0    0  0.00000000000E+00  0.00000000000E+00 -0.44898821805E+03  0.83735634546E+03  0.70680635915E+03 0.  0.
        1    1    3    3  502    0  0.13125525881E+03 -0.66576884284E+02  0.15615073101E+03  0.21457743430E+03  0.50400001928E-02 0.  1.
       -1    1    3    3    0  502 -0.13125525881E+03  0.66576884284E+02 -0.60513894907E+03  0.62277891117E+03  0.50400001928E-02 0. -1.
</event>
<event>
 5   0  0.2750139E-02  0.7060250E+03  0.7818609E-02  0.9706984E-01
       -1   -1    0    0    0  501  0.00000000000E+00  0.00000000000E+00  0.24475982476E+03  0.24475982481E+03  0.50400001928E-02 0. -1.
        1   -1    0    0  501    0  0.00000000000E+00  0.00000000000E+00 -0.50914336912E+03  0.50914336914E+03  0.50400001928E-02 0.  1.
    10030    2    1    2    0    0  0.00000000000E+00  0.00000000000E+00 -0.26438354436E+03  0.75390319395E+03  0.70602504724E+03 0.  0.
        2    1    3    3  502    0  0.20692058133E+03 -0.22143581791E+03 -0.32548637852E+03  0.44473737311E+03  0.25500000920E-02 0.  1.
       -2    1    3    3    0  502 -0.20692058133E+03  0.22143581791E+03  0.61102834157E+02  0.30916582085E+03  0.25500000920E-02 0. -1.
</event>
<event>
 5   0  0.2684924E-02  0.6928585E+03  0.7818609E-02  0.9729524E-01
       -1   -1    0    0    0  501  0.00000000000E+00  0.00000000000E+00  0.17830428718E+03  0.17830428725E+03  0.50400001928E-02 0. -1.
        1   -1    0    0  501    0  0.00000000000E+00  0.00000000000E+00 -0.67308094929E+03  0.67308094931E+03  0.50400001928E-02 0.  1.
    10030    2    1    2    0    0  0.00000000000E+00  0.00000000000E+00 -0.49477666210E+03  0.85138523656E+03  0.69285848170E+03 0.  0.
        4    1    3    3  502    0 -0.85733810969E+02 -0.29904869735E+03 -0.43467952765E+03  0.53453560629E+03  0.12699999809E+01 0.  1.
       -4    1    3    3    0  502  0.85733810969E+02  0.29904869735E+03 -0.60097134449E+02  0.31684963027E+03  0.12699999809E+01 0. -1.
</event>
<event>
 5   0  0.2751729E-02  0.6956854E+03  0.7818609E-02  0.9724639E-01
        1   -1    0    0  501    0  0.00000000000E+00  0.00000000000E+00  0.37894167458E+03  0.37894167461E+03  0.50400001928E-02 0. -1.
       -1   -1    0    0    0  501  0.00000000000E+00  0.00000000000E+00 -0.31929595500E+03  0.31929595504E+03  0.50400001928E-02 0.  1.
    10030    2    1    2    0    0  0.00000000000E+00  0.00000000000E+00  0.59645719571E+02  0.69823762965E+03  0.69568539988E+03 0.  0.
        1    1    3    3  502    0 -0.21909705878E+03  0.23579411596E+03  0.16218600920E+03  0.36042570371E+03  0.50400001928E-02 0.  1.
       -1    1    3    3    0  502  0.21909705878E+03 -0.23579411596E+03 -0.10254028963E+03  0.33781192595E+03  0.50400001928E-02 0. -1.
</event>
<event>
 5   0  0.2751729E-02  0.7062039E+03  0.7818609E-02  0.9706681E-01
       -1   -1    0    0    0  501  0.00000000000E+00  0.00000000000E+00  0.83609906935E+03  0.83609906936E+03  0.50400001928E-02 0.  1.
        1   -1    0    0  501    0  0.00000000000E+00  0.00000000000E+00 -0.14912226477E+03  0.14912226486E+03  0.50400001928E-02 0. -1.
    10030    2    1    2    0    0  0.00000000000E+00  0.00000000000E+00  0.68697680457E+03  0.98522133422E+03  0.70620389930E+03 0.  0.
        1    1    3    3  502    0 -0.85843612777E+02  0.33193291320E+03  0.22566770029E+03  0.41045644799E+03  0.50400001928E-02 0. -1.
       -1    1    3    3    0  502  0.85843612777E+02 -0.33193291320E+03  0.46130910429E+03  0.57476488623E+03  0.50400001928E-02 0.  1.
</event>
<event>
 5   0  0.2751729E-02  0.6890269E+03  0.7818609E-02  0.9736184E-01
       -1   -1    0    0    0  501  0.00000000000E+00  0.00000000000E+00  0.24470366632E+03  0.24470366637E+03  0.50400001928E-02 0. -1.
        1   -1    0    0  501    0  0.00000000000E+00  0.00000000000E+00 -0.48503361767E+03  0.48503361770E+03  0.50400001928E-02 0.  1.
    10030    2    1    2    0    0  0.00000000000E+00  0.00000000000E+00 -0.24032995135E+03  0.72973728407E+03  0.68902686322E+03 0.  0.
        1    1    3    3  502    0 -0.18146342995E+03 -0.28395275377E+03 -0.19603089035E+03  0.38985414296E+03  0.50400001928E-02 0.  1.
       -1    1    3    3    0  502  0.18146342995E+03  0.28395275377E+03 -0.44299061001E+02  0.33988314111E+03  0.50400001928E-02 0. -1.
</event>
<event>
 5   0  0.1784625E-02  0.6988868E+03  0.7818609E-02  0.9719138E-01
        3   -1    0    0  501    0  0.00000000000E+00  0.00000000000E+00  0.56293757844E+03  0.56293758750E+03  0.10100000352E+00 0. -1.
       -3   -1    0    0    0  501  0.00000000000E+00  0.00000000000E+00 -0.21691689348E+03  0.21691691700E+03  0.10100000352E+00 0.  1.
    10030    2    1    2    0    0  0.00000000000E+00  0.00000000000E+00  0.34602068496E+03  0.77985450450E+03  0.69888678179E+03 0.  0.
        5    1    3    3  502    0 -0.32873404597E+01  0.45146788375E+02 -0.21359597417E+03  0.21839040566E+03  0.46999998093E+01 0.  1.
       -5    1    3    3    0  502  0.32873404597E+01 -0.45146788375E+02  0.55961665912E+03  0.56146409883E+03  0.46999998093E+01 0. -1.
</event>
<event>
 5   0  0.2750139E-02  0.7067104E+03  0.7818609E-02  0.9705825E-01
       -1   -1    0    0    0  501  0.00000000000E+00  0.00000000000E+00  0.24313252818E+03  0.24313252823E+03  0.50400001928E-02 0. -1.
        1   -1    0    0  501    0  0.00000000000E+00  0.00000000000E+00 -0.51354659781E+03  0.51354659784E+03  0.50400001928E-02 0.  1.
    10030    2    1    2    0    0  0.00000000000E+00  0.00000000000E+00 -0.27041406963E+03  0.75667912607E+03  0.70671035847E+03 0.  0.
        2    1    3    3  502    0 -0.21470541839E+02  0.32836985712E+03 -0.27304204219E+03  0.42759759593E+03  0.25500000920E-02 0.  1.
       -2    1    3    3    0  502  0.21470541839E+02 -0.32836985712E+03  0.26279725622E+01  0.32908153014E+03  0.25500000920E-02 0. -1.
</event>
<event>
 5   0  0.2684924E-02  0.6783716E+03  0.7818609E-02  0.9754952E-01
       -1   -1    0    0    0  501  0.00000000000E+00  0.00000000000E+00  0.41466817501E+03  0.41466817504E+03  0.50400001928E-02 0.  1.
        1   -1    0    0  501    0  0.00000000000E+00  0.00000000000E+00 -0.27744352635E+03  0.27744352639E+03  0.50400001928E-02 0. -1.
    10030    2    1    2    0    0  0.00000000000E+00  0.00000000000E+00  0.13722464866E+03  0.69211170143E+03  0.67837158185E+03 0.  0.
        4    1    3    3  502    0  0.29340287179E+03 -0.71778533612E+02  0.22603593309E+03  0.37726815266E+03  0.12699999809E+01 0.  1.
       -4    1    3    3    0  502 -0.29340287179E+03  0.71778533612E+02 -0.88811284427E+02  0.31484354877E+03  0.12699999809E+01 0. -1.
</event>
<event>
 5   0  0.4503289E-02  0.6890214E+03  0.7818609E-02  0.9736193E-01
        2   -1    0    0  501    0  0.00000000000E+00  0.00000000000E+00  0.46461999363E+03  0.46461999364E+03  0.25500000920E-02 0.  1.
       -2   -1    0    0    0  501  0.00000000000E+00  0.00000000000E+00 -0.25545095531E+03  0.25545095532E+03  0.25500000920E-02 0. -1.
    10030    2    1    2    0    0  0.00000000000E+00  0.00000000000E+00  0.20916903832E+03  0.72007094896E+03  0.68902139658E+03 0.  0.
        2    1    3    3  502    0  0.13909248997E+03 -0.23067837738E+03  0.32903819082E+03  0.42523565887E+03  0.25500000920E-02 0.  1.
       -2    1    3    3    0  502 -0.13909248997E+03  0.23067837738E+03 -0.11986915250E+03  0.29483529009E+03  0.25500000920E-02 0. -1.
</event>
<event>
 5   0  0.1784625E-02  0.6943636E+03  0.7818609E-02  0.9726920E-01
       -4   -1    0    0    0  501  0.00000000000E+00  0.00000000000E+00  0.15459709335E+03  0.15460230973E+03  0.12699999809E+01 0.  1.
        4   -1    0    0  501    0  0.00000000000E+00  0.00000000000E+00 -0.77965422619E+03  0.77965526056E+03  0.12699999809E+01 0. -1.
    10030    2    1    2    0    0  0.00000000000E+00  0.00000000000E+00 -0.62505713284E+03  0.93425757029E+03  0.69436358511E+03 0.  0.
        3    1    3    3  502    0 -0.32753221994E+03  0.31208006624E+02 -0.46165261484E+03  0.56689896963E+03  0.10100000352E+00 0. -1.
       -3    1    3    3    0  502  0.32753221994E+03 -0.31208006624E+02 -0.16340451800E+03  0.36735860066E+03  0.10100000352E+00 0.  1.
</event>
<event>
 5   0  0.2777999E-02  0.6635784E+03  0.7818609E-02  0.9781629E-01
        1   -1    0    0  501    0  0.00000000000E+00  0.00000000000E+00  0.37514160872E+03  0.37514160875E+03  0.50400001928E-02 0.  1.
       -1   -1    0    0    0  501  0.00000000000E+00  0.00000000000E+00 -0.29344670840E+03  0.29344670845E+03  0.50400001928E-02 0. -1.
    10030    2    1    2    0    0  0.00000000000E+00  0.00000000000E+00  0.81694900314E+02  0.66858831719E+03  0.66357839111E+03 0.  0.
        5    1    3    3  502    0  0.15476833069E+03  0.29150169635E+03  0.68957834336E+01  0.33014559968E+03  0.46999998093E+01 0.  1.
       -5    1    3    3    0  502 -0.15476833069E+03 -0.29150169635E+03  0.74799116880E+02  0.33844271752E+03  0.46999998093E+01 0. -1.
</event>
<event>
 5   0  0.4526837E-02  0.7157049E+03  0.7818609E-02  0.9690745E-01
       -2   -1    0    0    0  501  0.00000000000E+00  0.00000000000E+00  0.14306623553E+03  0.14306623555E+03  0.25500000920E-02 0. -1.
        2   -1    0    0  501    0  0.00000000000E+00  0.00000000000E+00 -0.89509840451E+03  0.89509840452E+03  0.25500000920E-02 0.  1.
    10030    2    1    2    0    0  0.00000000000E+00  0.00000000000E+00 -0.75203216898E+03  0.10381646401E+04  0.71570485307E+03 0.  0.
        1    1    3    3  502    0  0.82584494535E+02 -0.28435354445E+03 -0.84527198689E+02  0.30793178517E+03  0.50400001928E-02 0. -1.
       -1    1    3    3    0  502 -0.82584494535E+02  0.28435354445E+03 -0.66750497029E+03  0.73023285490E+03  0.50400001928E-02 0.  1.
</event>
<event>
 5   0  0.4526837E-02  0.6942605E+03  0.7818609E-02  0.9727098E-01
        2   -1    0    0  501    0  0.00000000000E+00  0.00000000000E+00  0.83383432884E+03  0.83383432884E+03  0.25500000920E-02 0.  1.
       -2   -1    0    0    0  501  0.00000000000E+00  0.00000000000E+00 -0.14451239584E+03  0.14451239586E+03  0.25500000920E-02 0. -1.
    10030    2    1    2    0    0  0.00000000000E+00  0.00000000000E+00  0.68932193300E+03  0.97834672470E+03  0.69426046007E+03 0.  0.
        1    1    3    3  502    0  0.18821274407E+03 -0.27492184868E+03  0.48196389649E+03  0.58591403590E+03  0.50400001928E-02 0.  1.
       -1    1    3    3    0  502 -0.18821274407E+03  0.27492184868E+03  0.20735803651E+03  0.39243268880E+03  0.50400001928E-02 0. -1.
</event>
<event>
 5   0  0.4503289E-02  0.7044983E+03  0.7818609E-02  0.9709570E-01
        2   -1    0    0  501    0  0.00000000000E+00  0.00000000000E+00  0.23959136461E+04  0.23959136461E+04  0.25500000920E-02 0.  1.
       -2   -1    0    0    0  501  0.00000000000E+00  0.00000000000E+00 -0.51787956940E+02  0.51787957003E+02  0.25500000920E-02 0. -1.
    10030    2    1    2    0    0  0.00000000000E+00  0.00000000000E+00  0.23441256891E+04  0.24477016031E+04  0.70449832594E+03 0.  0.
        2    1    3    3  502    0  0.26501386509E+03  0.23201551816E+03  0.11859271174E+04  0.12371283996E+04  0.25500000920E-02 0.  1.
       -2    1    3    3    0  502 -0.26501386509E+03 -0.23201551816E+03  0.11581985717E+04  0.12105732034E+04  0.25500000920E-02 0. -1.
</event>
<event>
 5   0  0.4420645E-02  0.7040634E+03  0.7818609E-02  0.9710308E-01
       -2   -1    0    0    0  501  0.00000000000E+00  0.00000000000E+00  0.90884776168E+02  0.90884776204E+02  0.25500000920E-02 0. -1.
        2   -1    0    0  501    0  0.00000000000E+00  0.00000000000E+00 -0.13635541564E+04  0.13635541565E+04  0.25500000920E-02 0.  1.
    10030    2    1    2    0    0  0.00000000000E+00  0.00000000000E+00 -0.12726693803E+04  0.14544389327E+04  0.70406339013E+03 0.  0.
        5    1    3    3  502    0 -0.67856046809E+02  0.26301562088E+03 -0.10988225852E+04  0.11319076038E+04  0.46999998093E+01 0.  1.
       -5    1    3    3    0  502  0.67856046809E+02 -0.26301562088E+03 -0.17384679513E+03  0.32253132885E+03  0.46999998093E+01 0. -1.
</event>
<event>
 5   0  0.2750139E-02  0.6837742E+03  0.7818609E-02  0.9745390E-01
       -1   -1    0    0    0  501  0.00000000000E+00  0.00000000000E+00  0.47220125267E+03  0.47220125269E+03  0.50400001928E-02 0.  1.
        1   -1    0    0  501    0  0.00000000000E+00  0.00000000000E+00 -0.24753598903E+03  0.24753598909E+03  0.50400001928E-02 0. -1.
    10030    2    1    2    0    0  0.00000000000E+00  0.00000000000E+00  0.22466526363E+03  0.71973724178E+03  0.68377424383E+03 0.  0.
        2    1    3    3  502    0 -0.68590079540E+02  0.26384867512E+03 -0.10483398954E+03  0.29208027619E+03  0.25500000920E-02 0. -1.
       -2    1    3    3    0  502  0.68590079540E+02 -0.26384867512E+03  0.32949925317E+03  0.42765696559E+03  0.25500000920E-02 0.  1.
</event>
<event>
 5   0  0.4526837E-02  0.6713356E+03  0.7818609E-02  0.9767548E-01
        2   -1    0    0  501    0  0.00000000000E+00  0.00000000000E+00  0.58643280550E+03  0.58643280550E+03  0.25500000920E-02 0. -1.
       -2   -1    0    0    0  501  0.00000000000E+00  0.00000000000E+00 -0.19213262823E+03  0.19213262824E+03  0.25500000920E-02 0.  1.
    10030    2    1    2    0    0  0.00000000000E+00  0.00000000000E+00  0.39430017727E+03  0.77856543375E+03  0.67133561266E+03 0.  0.
        1    1    3    3  502    0 -0.12199746400E+03  0.23489821443E+03  0.43654947979E+03  0.51052522043E+03  0.50400001928E-02 0.  1.
       -1    1    3    3    0  502  0.12199746400E+03 -0.23489821443E+03 -0.42249302521E+02  0.26804021332E+03  0.50400001928E-02 0. -1.
</event>
<event>
 5   0  0.2751729E-02  0.7098998E+03  0.7818609E-02  0.9700450E-01
        1   -1    0    0  501    0  0.00000000000E+00  0.00000000000E+00  0.96920472526E+03  0.96920472527E+03  0.50400001928E-02 0. -1.
       -1   -1    0    0    0  501  0.00000000000E+00  0.00000000000E+00 -0.12999259016E+03  0.12999259026E+03  0.50400001928E-02 0.  1.
    10030    2    1    2    0    0  0.00000000000E+00  0.00000000000E+00  0.83921213510E+03  0.10991973155E+04  0.70989980333E+03 0.  0.
        1    1    3    3  502    0  0.16554839397E+03 -0.92057821273E+02 -0.45189020979E+02  0.19473818538E+03  0.50400001928E-02 0.  1.
       -1    1    3    3    0  502 -0.16554839397E+03  0.92057821273E+02  0.88440115608E+03  0.90445913014E+03  0.50400001928E-02 0. -1.
</event>
<event>
 5   0  0.1784625E-02  0.6889490E+03  0.7818609E-02  0.9736320E-01
        4   -1    0    0  501    0  0.00000000000E+00  0.00000000000E+00  0.19742524671E+03  0.19742933151E+03  0.12699999809E+01 0.  1.
       -4   -1    0    0    0  501  0.00000000000E+00  0.00000000000E+00 -0.60104030309E+03  0.60104164485E+03  0.12699999809E+01 0. -1.
    10030    2    1    2    0    0  0.00000000000E+00  0.00000000000E+00 -0.40361505638E+03  0.79847097635E+03  0.68894904481E+03 0.  0.
        4    1    3    3  502    0  0.51287006704E+02  0.30296093562E+03 -0.21345143449E+02  0.30801446982E+03  0.12699999809E+01 0.  1.
       -4    1    3    3    0  502 -0.51287006704E+02 -0.30296093562E+03 -0.38226991293E+03  0.49045650653E+03  0.12699999809E+01 0. -1.
</event>
<event>
 5   0  0.2751729E-02  0.6971381E+03  0.7818609E-02  0.9722139E-01
        1   -1    0    0  501    0  0.00000000000E+00  0.00000000000E+00  0.10494797950E+03  0.10494797962E+03  0.50400001928E-02 0.  1.
       -1   -1    0    0    0  501  0.00000000000E+00  0.00000000000E+00 -0.11577200858E+04  0.11577200858E+04  0.50400001928E-02 0. -1.
    10030    2    1    2    0    0  0.00000000000E+00  0.00000000000E+00 -0.10527721063E+04  0.12626680654E+04  0.69713810371E+03 0.  0.
        1    1    3    3  502    0  0.90562247222E+02 -0.11022267781E+03  0.49654346299E+02  0.15105003627E+03  0.50400001928E-02 0.  1.
       -1    1    3    3    0  502 -0.90562247222E+02  0.11022267781E+03 -0.11024264526E+04  0.11116180292E+04  0.50400001928E-02 0. -1.
</event>
<event>
 5   0  0.2777999E-02  0.6989510E+03  0.7818609E-02  0.9719028E-01
       -1   -1    0    0    0  501  0.00000000000E+00  0.00000000000E+00  0.19996828790E+03  0.19996828796E+03  0.50400001928E-02 0. -1.
        1   -1    0    0  501    0  0.00000000000E+00  0.00000000000E+00 -0.61076246186E+03  0.61076246189E+03  0.50400001928E-02 0.  1.
    10030    2    1    2    0    0  0.00000000000E+00  0.00000000000E+00 -0.41079417397E+03  0.81073074984E+03  0.69895099641E+03 0.  0.
        5    1    3    3  502    0  0.15242426214E+03 -0.22364247310E+03 -0.46179541683E+03  0.53528142922E+03  0.46999998093E+01 0.  1.
       -5    1    3    3    0  502 -0.15242426214E+03  0.22364247310E+03  0.51001242862E+02  0.27544932063E+03  0.46999998093E+01 0. -1.
</event>
<event>
 5   0  0.1784625E-02  0.7156594E+03  0.7818609E-02  0.9690821E-01
        4   -1    0    0  501    0  0.00000000000E+00  0.00000000000E+00  0.75843764721E+03  0.75843871052E+03  0.12699999809E+01 0. -1.
       -4   -1    0    0    0  501  0.00000000000E+00  0.00000000000E+00 -0.16881992599E+03  0.16882470291E+03  0.12699999809E+01 0.  1.
    10030    2    1    2    0    0  0.00000000000E+00  0.00000000000E+00  0.58961772122E+03  0.92726341343E+03  0.71565940272E+03 0.  0.
        1    1    3    3  502    0  0.32159594808E+03 -0.10600070033E+03  0.14492421698E+03  0.36832476292E+03  0.50400001928E-02 0.  1.
       -1    1    3    3    0  502 -0.32159594808E+03  0.10600070033E+03  0.44469350424E+03  0.55893865051E+03  0.50400001928E-02 0. -1.
</event>
<event>
 5   0  0.4526837E-02  0.6760091E+03  0.7818609E-02  0.9759163E-01
       -2   -1    0    0    0  501  0.00000000000E+00  0.00000000000E+00  0.16218166416E+03  0.16218166418E+03  0.25500000920E-02 0.  1.
        2   -1    0    0  501    0  0.00000000000E+00  0.00000000000E+00 -0.70443900089E+03  0.70443900089E+03  0.25500000920E-02 0. -1.
    10030    2    1    2    0    0  0.00000000000E+00  0.00000000000E+00 -0.54225733673E+03  0.86662066507E+03  0.67600914039E+03 0.  0.
        1    1    3    3  502    0  0.23371050182E+03 -0.11066776038E+03  0.79136351352E+01  0.25870944609E+03  0.50400001928E-02 0.  1.
       -1    1    3    3    0  502 -0.23371050182E+03  0.11066776038E+03 -0.55017097187E+03  0.60791121898E+03  0.50400001928E-02 0. -1.
</event>
<event>
 5   0  0.4299912E-02  0.7104243E+03  0.7818609E-02  0.9699569E-01
        2   -1    0    0  501    0  0.00000000000E+00  0.00000000000E+00  0.18794655556E+04  0.18794655556E+04  0.25500000920E-02 0.  1.
       -2   -1    0    0    0  501  0.00000000000E+00  0.00000000000E+00 -0.67133802436E+02  0.67133802484E+02  0.25500000920E-02 0. -1.
    10030    2    1    2    0    0  0.00000000000E+00  0.00000000000E+00  0.18123317532E+04  0.19465993581E+04  0.71042429392E+03 0.  0.
        3    1    3    3  502    0 -0.25326798503E+03  0.13112320207E+03  0.14863694511E+04  0.15134834395E+04  0.10100000352E+00 0.  1.
       -3    1    3    3    0  502  0.25326798503E+03 -0.13112320207E+03  0.32596230216E+03  0.43311591865E+03  0.10100000352E+00 0. -1.
</event>
<event>
 5   0  0.2751729E-02  0.6973160E+03  0.7818609E-02  0.9721833E-01
       -1   -1    0    0    0  501  0.00000000000E+00  0.00000000000E+00  0.52499178574E+03  0.52499178576E+03  0.50400001928E-02 0. -1.
        1   -1    0    0  501    0  0.00000000000E+00  0.00000000000E+00 -0.23155105673E+03  0.23155105679E+03  0.50400001928E-02 0.  1.
    10030    2    1    2    0    0  0.00000000000E+00  0.00000000000E+00  0.29344072901E+03  0.75654284255E+03  0.69731600525E+03 0.  0.
        1    1    3    3  502    0  0.97843177019E+02  0.76127093274E+02 -0.20683174729E+03  0.24113895026E+03  0.50400001928E-02 0.  1.
       -1    1    3    3    0  502 -0.97843177019E+02 -0.76127093274E+02  0.50027247630E+03  0.51540389229E+03  0.50400001928E-02 0. -1.
</event>
<event>
 5   0  0.2750139E-02  0.6909810E+03  0.7818609E-02  0.9732781E-01
        1   -1    0    0  501    0  0.00000000000E+00  0.00000000000E+00  0.12613855662E+03  0.12613855672E+03  0.50400001928E-02 0. -1.
       -1   -1    0    0    0  501  0.00000000000E+00  0.00000000000E+00 -0.94629030735E+03  0.94629030737E+03  0.50400001928E-02 0.  1.
    10030    2    1    2    0    0  0.00000000000E+00  0.00000000000E+00 -0.82015175074E+03  0.10724288641E+04  0.69098102311E+03 0.  0.
        2    1    3    3  502    0 -0.31372934007E+03 -0.96615690530E+02 -0.57725712921E+03  0.66406813183E+03  0.25500000920E-02 0.  1.
       -2    1    3    3    0  502  0.31372934007E+03  0.96615690530E+02 -0.24289462152E+03  0.40836073226E+03  0.25500000920E-02 0. -1.
</event>
<event>
 5   0  0.1784625E-02  0.7132897E+03  0.7818609E-02  0.9694771E-01
       -3   -1    0    0    0  501  0.00000000000E+00  0.00000000000E+00  0.82547053047E+02  0.82547114836E+02  0.10100000352E+00 0.  1.
        3   -1    0    0  501    0  0.00000000000E+00  0.00000000000E+00 -0.15408846664E+04  0.15408846697E+04  0.10100000352E+00 0. -1.
    10030    2    1    2    0    0  0.00000000000E+00  0.00000000000E+00 -0.14583376134E+04  0.16234317846E+04  0.71328967788E+03 0.  0.
        2    1    3    3  502    0  0.94064361193E+02 -0.33070614552E+03 -0.51347999881E+03  0.61796146152E+03  0.25500000920E-02 0.  1.
       -2    1    3    3    0  502 -0.94064361193E+02  0.33070614552E+03 -0.94485761456E+03  0.10054703231E+04  0.25500000920E-02 0. -1.
</event>
<event>
 5   0  0.2684924E-02  0.6984675E+03  0.7818609E-02  0.9719857E-01
        1   -1    0    0  501    0  0.00000000000E+00  0.00000000000E+00  0.12179252097E+04  0.12179252098E+04  0.50400001928E-02 0.  1.
       -1   -1    0    0    0  501  0.00000000000E+00  0.00000000000E+00 -0.10014097332E+03  0.10014097345E+03  0.50400001928E-02 0. -1.
    10030    2    1    2    0    0  0.00000000000E+00  0.00000000000E+00  0.11177842364E+04  0.13180661832E+04  0.69846751114E+03 0.  0.
        4    1    3    3  502    0  0.24390343095E+03  0.20463728119E+03  0.28806248411E+03  0.42935638825E+03  0.12699999809E+01 0. -1.
       -4    1    3    3    0  502 -0.24390343095E+03 -0.20463728119E+03  0.82972175231E+03  0.88870979495E+03  0.12699999809E+01 0.  1.
</event>
<event>
 5   0  0.2750139E-02  0.6915734E+03  0.7818609E-02  0.9731752E-01
       -1   -1    0    0    0  501  0.00000000000E+00  0.00000000000E+00  0.72731930371E+03  0.72731930373E+03  0.50400001928E-02 0.  1.
        1   -1    0    0  501    0  0.00000000000E+00  0.00000000000E+00 -0.16439607924E+03  0.16439607932E+03  0.50400001928E-02 0. -1.
    10030    2    1    2    0    0  0.00000000000E+00  0.00000000000E+00  0.56292322447E+03  0.89171538305E+03  0.69157340009E+03 0.  0.
        2    1    3    3  502    0 -0.20867286665E+03 -0.37074487807E+02 -0.70829430666E+02  0.22346295258E+03  0.25500000920E-02 0. -1.
       -2    1    3    3    0  502  0.20867286665E+03  0.37074487807E+02  0.63375265514E+03  0.66825243047E+03  0.25500000920E-02 0.  1.
</event>
<event>
 5   0  0.2758681E-02  0.7014321E+03  0.7818609E-02  0.9714786E-01
        1   -1    0    0  501    0  0.00000000000E+00  0.00000000000E+00  0.52518572123E+03  0.52518572125E+03  0.50400001928E-02 0. -1.
       -1   -1    0    0    0  501  0.00000000000E+00  0.00000000000E+00 -0.23420622075E+03  0.23420622080E+03  0.50400001928E-02 0.  1.
    10030    2    1    2    0    0  0.00000000000E+00  0.00000000000E+00  0.29097950047E+03  0.75939194205E+03  0.70143214352E+03 0.  0.
        3    1    3    3  502    0  0.71259368150E+02 -0.32770013771E+03  0.25661889982E+03  0.42227780873E+03  0.10100000352E+00 0.  1.
       -3    1    3    3    0  502 -0.71259368150E+02  0.32770013771E+03  0.34360600657E+02  0.33711413332E+03  0.10100000352E+00 0. -1.
</event>
<event>
 5   0  0.4526837E-02  0.6955457E+03  0.7818609E-02  0.9724880E-01
        2   -1    0    0  501    0  0.00000000000E+00  0.00000000000E+00  0.13699565616E+04  0.13699565617E+04  0.25500000920E-02 0.  1.
       -2   -1    0    0    0  501  0.00000000000E+00  0.00000000000E+00 -0.88284519372E+02  0.88284519409E+02  0.25500000920E-02 0. -1.
    10030    2    1    2    0    0  0.00000000000E+00  0.00000000000E+00  0.12816720423E+04  0.14582410811E+04  0.69554570413E+03 0.  0.
        1    1    3    3  502    0  0.19926882612E+03 -0.97986255405E+01  0.12380448026E+04  0.12540171496E+04  0.50400001928E-02 0.  1.
       -1    1    3    3    0  502 -0.19926882612E+03  0.97986255405E+01  0.43627239666E+02  0.20422393149E+03  0.50400001928E-02 0. -1.
</event>
<event>
 5   0  0.2777999E-02  0.7038889E+03  0.7818609E-02  0.9710605E-01
       -1   -1    0    0    0  501  0.00000000000E+00  0.00000000000E+00  0.12595453570E+03  0.12595453580E+03  0.50400001928E-02 0. -1.
        1   -1    0    0  501    0  0.00000000000E+00  0.00000000000E+00 -0.98340961593E+03  0.98340961594E+03  0.50400001928E-02 0.  1.
    10030    2    1    2    0    0  0.00000000000E+00  0.00000000000E+00 -0.85745508022E+03  0.11093641517E+04  0.70388891635E+03 0.  0.
        5    1    3    3  502    0 -0.18167675257E+03 -0.26030917129E+03 -0.66813936892E+03  0.73972941903E+03  0.46999998093E+01 0.  1.
       -5    1    3    3    0  502  0.18167675257E+03  0.26030917129E+03 -0.18931571131E+03  0.36963473271E+03  0.46999998093E+01 0. -1.
</event>
<event>
 5   0  0.4503289E-02  0.6928233E+03  0.7818609E-02  0.9729585E-01
       -2   -1    0    0    0  501  0.00000000000E+00  0.00000000000E+00  0.59974050676E+02  0.59974050730E+02  0.25500000920E-02 0.  1.
        2   -1    0    0  501    0  0.00000000000E+00  0.00000000000E+00 -0.20008828258E+04  0.20008828258E+04  0.25500000920E-02 0. -1.
    10030    2    1    2    0    0  0.00000000000E+00  0.00000000000E+00 -0.19409087751E+04  0.20608568765E+04  0.69282334847E+03 0.  0.
        2    1    3    3  502    0 -0.71147189292E+02  0.32737125909E+03 -0.12326087683E+04  0.12773246414E+04  0.25500000920E-02 0. -1.
       -2    1    3    3    0  502  0.71147189292E+02 -0.32737125909E+03 -0.70830000682E+03  0.78353223513E+03  0.25500000920E-02 0.  1.
</event>
<event>
 5   0  0.2750139E-02  0.7061095E+03  0.7818609E-02  0.9706841E-01
       -1   -1    0    0    0  501  0.00000000000E+00  0.00000000000E+00  0.59632447141E+03  0.59632447143E+03  0.50400001928E-02 0. -1.
        1   -1    0    0  501    0  0.00000000000E+00  0.00000000000E+00 -0.20902655208E+03  0.20902655214E+03  0.50400001928E-02 0.  1.
    10030    2    1    2    0    0  0.00000000000E+00  0.00000000000E+00  0.38729791933E+03  0.80535102357E+03  0.70610947653E+03 0.  0.
        2    1    3    3  502    0  0.32989297964E+03  0.22377805048E+02  0.52490413599E+02  0.33479155859E+03  0.25500000920E-02 0.  1.
       -2    1    3    3    0  502 -0.32989297964E+03 -0.22377805048E+02  0.33480750573E+03  0.47055946498E+03  0.25500000920E-02 0. -1.
</event>
<event>
 5   0  0.4299912E-02  0.7070974E+03  0.7818609E-02  0.9705171E-01
        2   -1    0    0  501    0  0.00000000000E+00  0.00000000000E+00  0.11509199632E+04  0.11509199632E+04  0.25500000920E-02 0.  1.
       -2   -1    0    0    0  501  0.00000000000E+00  0.00000000000E+00 -0.10860590081E+03  0.10860590084E+03  0.25500000920E-02 0. -1.
    10030    2    1    2    0    0  0.00000000000E+00  0.00000000000E+00  0.10423140624E+04  0.12595258640E+04  0.70709744557E+03 0.  0.
        3    1    3    3  502    0  0.33505260310E+03 -0.11201114773E+03  0.49660757418E+03  0.60944715685E+03  0.10100000352E+00 0. -1.
       -3    1    3    3    0  502 -0.33505260310E+03  0.11201114773E+03  0.54570648822E+03  0.65007870719E+03  0.10100000352E+00 0.  1.
</event>
<event>
 5   0  0.2751729E-02  0.7018248E+03  0.7818609E-02  0.9714117E-01
        1   -1    0    0  501    0  0.00000000000E+00  0.00000000000E+00  0.89575428612E+03  0.89575428614E+03  0.50400001928E-02 0.  1.
       -1   -1    0    0    0  501  0.00000000000E+00  0.00000000000E+00 -0.13747017521E+03  0.13747017531E+03  0.50400001928E-02 0. -1.
    10030    2    1    2    0    0  0.00000000000E+00  0.00000000000E+00  0.75828411091E+03  0.10332244614E+04  0.70182476080E+03 0.  0.
        1    1    3    3  502    0  0.26849491453E+03 -0.48173728940E+01  0.71169825077E+03  0.76067544090E+03  0.50400001928E-02 0.  1.
       -1    1    3    3    0  502 -0.26849491453E+03  0.48173728940E+01  0.46585860138E+02  0.27254902055E+03  0.50400001928E-02 0. -1.
</event>
<event>
 5   0  0.4299912E-02  0.6916081E+03  0.7818609E-02  0.9731692E-01
        2   -1    0    0  501    0  0.00000000000E+00  0.00000000000E+00  0.73629187558E+03  0.73629187558E+03  0.25500000920E-02 0.  1.
       -2   -1    0    0    0  501  0.00000000000E+00  0.00000000000E+00 -0.16240900438E+03  0.16240900440E+03  0.25500000920E-02 0. -1.
    10030    2    1    2    0    0  0.00000000000E+00  0.00000000000E+00  0.57388287120E+03  0.89870087999E+03  0.69160806953E+03 0.  0.
        3    1    3    3  502    0 -0.12137969052E+03  0.29126912087E+03  0.47075404385E+03  0.56672754481E+03  0.10100000352E+00 0.  1.
       -3    1    3    3    0  502  0.12137969052E+03 -0.29126912087E+03  0.10312882734E+03  0.33197333518E+03  0.10100000352E+00 0. -1.
</event>
<event>
 5   0  0.2758681E-02  0.7045125E+03  0.7818609E-02  0.9709546E-01
        1   -1    0    0  501    0  0.00000000000E+00  0.00000000000E+00  0.44732472315E+03  0.44732472318E+03  0.50400001928E-02 0. -1.
       -1   -1    0    0    0  501  0.00000000000E+00  0.00000000000E+00 -0.27739236767E+03  0.27739236771E+03  0.50400001928E-02 0.  1.
    10030    2    1    2    0    0  0.00000000000E+00  0.00000000000E+00  0.16993235549E+03  0.72471709090E+03  0.70451249556E+03 0.  0.
        3    1    3    3  502    0 -0.48836988053E+02 -0.15853993999E+03 -0.23469399394E+03  0.28740432316E+03  0.10100000352E+00 0.  1.
       -3    1    3    3    0  502  0.48836988053E+02  0.15853993999E+03  0.40462634943E+03  0.43731276774E+03  0.10100000352E+00 0. -1.
</event>
<event>
 5   0  0.2777999E-02  0.6966339E+03  0.7818609E-02  0.9723006E-01
       -1   -1    0    0    0  501  0.00000000000E+00  0.00000000000E+00  0.72454211282E+03  0.72454211284E+03  0.50400001928E-02 0. -1.
        1   -1    0    0  501    0  0.00000000000E+00  0.00000000000E+00 -0.16745018319E+03  0.16745018327E+03  0.50400001928E-02 0.  1.
    10030    2    1    2    0    0  0.00000000000E+00  0.00000000000E+00  0.55709192963E+03  0.89199229611E+03  0.69663393419E+03 0.  0.
        5    1    3    3  502    0 -0.11718550913E+03  0.19715669410E+03  0.61415449743E+03  0.65559975769E+03  0.46999998093E+01 0. -1.
       -5    1    3    3    0  502  0.11718550913E+03 -0.19715669410E+03 -0.57062567797E+02  0.23639253842E+03  0.46999998093E+01 0.  1.
</event>
<event>
 5   0  0.2758681E-02  0.6972633E+03  0.7818609E-02  0.9721924E-01
       -1   -1    0    0    0  501  0.00000000000E+00  0.00000000000E+00  0.35358480454E+03  0.35358480458E+03  0.50400001928E-02 0.  1.
        1   -1    0    0  501    0  0.00000000000E+00  0.00000000000E+00 -0.34374784898E+03  0.34374784901E+03  0.50400001928E-02 0. -1.
    10030    2    1    2    0    0  0.00000000000E+00  0.00000000000E+00  0.98369555667E+01  0.69733265359E+03  0.69726326740E+03 0.  0.
        3    1    3    3  502    0 -0.22671962505E+03  0.78423368804E+02  0.25791003745E+03  0.35223516402E+03  0.10100000352E+00 0.  1.
       -3    1    3    3    0  502  0.22671962505E+03 -0.78423368804E+02 -0.24807308188E+03  0.34509748957E+03  0.10100000352E+00 0. -1.
</event>
<event>
 5   0  0.4420645E-02  0.6884549E+03  0.7818609E-02  0.9737182E-01
        2   -1    0    0  501    0  0.00000000000E+00  0.00000000000E+00  0.72489302484E+03  0.72489302485E+03  0.25500000920E-02 0.  1.
       -2   -1    0    0    0  501  0.00000000000E+00  0.00000000000E+00 -0.16346210717E+03  0.16346210719E+03  0.25500000920E-02 0. -1.
    10030    2    1    2    0    0  0.00000000000E+00  0.00000000000E+00  0.56143091768E+03  0.88835513203E+03  0.68845491159E+03 0.  0.
        5    1    3    3  502    0  0.60037076364E+02 -0.17213328500E+03  0.65743919287E+03  0.68226292634E+03  0.46999998093E+01 0.  1.
       -5    1    3    3    0  502 -0.60037076364E+02  0.17213328500E+03 -0.96008275188E+02  0.20609220569E+03  0.46999998093E+01 0. -1.
</event>
<event>
 5   0  0.4526837E-02  0.7029036E+03  0.7818609E-02  0.9712280E-01
       -2   -1    0    0    0  501  0.00000000000E+00  0.00000000000E+00  0.28753247339E+03  0.28753247341E+03  0.25500000920E-02 0. -1.
        2   -1    0    0  501    0  0.00000000000E+00  0.00000000000E+00 -0.42958056092E+03  0.42958056093E+03  0.25500000920E-02 0.  1.
    10030    2    1    2    0    0  0.00000000000E+00  0.00000000000E+00 -0.14204808753E+03  0.71711303433E+03  0.70290358147E+03 0.  0.
        1    1    3    3  502    0 -0.33205029938E+02 -0.34812347054E+03 -0.10674377000E+03  0.36563199698E+03  0.50400001928E-02 0.  1.
       -1    1    3    3    0  502  0.33205029938E+02  0.34812347054E+03 -0.35304317523E+02  0.35148103735E+03  0.50400001928E-02 0. -1.
</event>
<event>
 5   0  0.4526837E-02  0.6907230E+03  0.7818609E-02  0.9733230E-01
       -2   -1    0    0    0  501  0.00000000000E+00  0.00000000000E+00  0.97190843775E+03  0.97190843775E+03  0.25500000920E-02 0. -1.
        2   -1    0    0  501    0  0.00000000000E+00  0.00000000000E+00 -0.12272201103E+03  0.12272201106E+03  0.25500000920E-02 0.  1.
    10030    2    1    2    0    0  0.00000000000E+00  0.00000000000E+00  0.84918642672E+03  0.10946304488E+04  0.69072297785E+03 0.  0.
        1    1    3    3  502    0  0.96348062497E+02  0.11442151100E+03 -0.68721422566E+02  0.16461429243E+03  0.50400001928E-02 0.  1.
       -1    1    3    3    0  502 -0.96348062497E+02 -0.11442151100E+03  0.91790784928E+03  0.93001615638E+03  0.50400001928E-02 0. -1.
</event>
<event>
 5   0  0.2750139E-02  0.6922627E+03  0.7818609E-02  0.9730556E-01
       -1   -1    0    0    0  501  0.00000000000E+00  0.00000000000E+00  0.24809281793E+03  0.24809281798E+03  0.50400001928E-02 0.  1.
        1   -1    0    0  501    0  0.00000000000E+00  0.00000000000E+00 -0.48291169153E+03  0.48291169155E+03  0.50400001928E-02 0. -1.
    10030    2    1    2    0    0  0.00000000000E+00  0.00000000000E+00 -0.23481887360E+03  0.73100450954E+03  0.69226273160E+03 0.  0.
        2    1    3    3  502    0 -0.29365355889E+03  0.52990883730E+02 -0.30262948021E+03  0.42500005731E+03  0.25500000920E-02 0. -1.
       -2    1    3    3    0  502  0.29365355889E+03 -0.52990883730E+02  0.67810606615E+02  0.30600445223E+03  0.25500000920E-02 0.  1.
</event>
<event>
 5   0  0.4420645E-02  0.6982405E+03  0.7818609E-02  0.9720246E-01
       -2   -1    0    0    0  501  0.00000000000E+00  0.00000000000E+00  0.97303011004E+02  0.97303011038E+02  0.25500000920E-02 0.  1.
        2   -1    0    0  501    0  0.00000000000E+00  0.00000000000E+00 -0.12526326937E+04  0.12526326937E+04  0.25500000920E-02 0. -1.
    10030    2    1    2    0    0  0.00000000000E+00  0.00000000000E+00 -0.11553296827E+04  0.13499357047E+04  0.69824045372E+03 0.  0.
        5    1    3    3  502    0 -0.52449615192E+02  0.32235525986E+03 -0.33931486394E+03  0.47097828249E+03  0.46999998093E+01 0. -1.
       -5    1    3    3    0  502  0.52449615192E+02 -0.32235525986E+03 -0.81601481875E+03  0.87895742224E+03  0.46999998093E+01 0.  1.
</event>
<event>
 5   0  0.4503289E-02  0.6969390E+03  0.7818609E-02  0.9722481E-01
       -2   -1    0    0    0  501  0.00000000000E+00  0.00000000000E+00  0.13625628989E+03  0.13625628991E+03  0.25500000920E-02 0.  1.
        2   -1    0    0  501    0  0.00000000000E+00  0.00000000000E+00 -0.89119558034E+03  0.89119558034E+03  0.25500000920E-02 0. -1.
    10030    2    1    2    0    0  0.00000000000E+00  0.00000000000E+00 -0.75493929045E+03  0.10274518703E+04  0.69693903135E+03 0.  0.
        2    1    3    3  502    0 -0.25676636885E+03 -0.22469913835E+03 -0.48184227633E+03  0.59041565885E+03  0.25500000920E-02 0. -1.
       -2    1    3    3    0  502  0.25676636885E+03  0.22469913835E+03 -0.27309701412E+03  0.43703621140E+03  0.25500000920E-02 0.  1.
</event>
<event>
 5   0  0.2777999E-02  0.7026640E+03  0.7818609E-02  0.9712687E-01
       -1   -1    0    0    0  501  0.00000000000E+00  0.00000000000E+00  0.17594974119E+03  0.17594974126E+03  0.50400001928E-02 0. -1.
        1   -1    0    0  501    0  0.00000000000E+00  0.00000000000E+00 -0.70153084477E+03  0.70153084478E+03  0.50400001928E-02 0.  1.
    10030    2    1    2    0    0  0.00000000000E+00  0.00000000000E+00 -0.52558110358E+03  0.87748058604E+03  0.70266398972E+03 0.  0.
        5    1    3    3  502    0  0.18959868242E+03 -0.24920311117E+03 -0.63914021488E+02  0.31961999802E+03  0.46999998093E+01 0. -1.
       -5    1    3    3    0  502 -0.18959868242E+03  0.24920311117E+03 -0.46166708209E+03  0.55786058803E+03  0.46999998093E+01 0.  1.
</event>
<event>
 5   0  0.2684924E-02  0.6972327E+03  0.7818609E-02  0.9721976E-01
        1   -1    0    0  501    0  0.00000000000E+00  0.00000000000E+00  0.10625289228E+04  0.10625289228E+04  0.50400001928E-02 0.  1.
       -1   -1    0    0    0  501  0.00000000000E+00  0.00000000000E+00 -0.11438121249E+03  0.11438121260E+03  0.50400001928E-02 0. -1.
    10030    2    1    2    0    0  0.00000000000E+00  0.00000000000E+00  0.94814771033E+03  0.11769101354E+04  0.69723266294E+03 0.  0.
        4    1    3    3  502    0 -0.23239654209E+03 -0.15626884704E+03  0.12362673657E+03  0.30612626190E+03  0.12699999809E+01 0. -1.
       -4    1    3    3    0  502  0.23239654209E+03  0.15626884704E+03  0.82452097376E+03  0.87078387353E+03  0.12699999809E+01 0.  1.
</event>
<event>
 5   0  0.2758681E-02  0.7018978E+03  0.7818609E-02  0.9713992E-01
       -1   -1    0    0    0  501  0.00000000000E+00  0.00000000000E+00  0.23700893374E+03  0.23700893379E+03  0.50400001928E-02 0.  1.
        1   -1    0    0  501    0  0.00000000000E+00  0.00000000000E+00 -0.51966446805E+03  0.51966446808E+03  0.50400001928E-02 0. -1.
    10030    2    1    2    0    0  0.00000000000E+00  0.00000000000E+00 -0.28265553431E+03  0.75667340186E+03  0.70189777462E+03 0.  0.
        3    1    3    3  502    0 -0.20100502564E+03  0.19284315055E+03 -0.37146734900E+03  0.46430539801E+03  0.10100000352E+00 0.  1.
       -3    1    3    3    0  502  0.20100502564E+03 -0.19284315055E+03  0.88811814689E+02  0.29236800385E+03  0.10100000352E+00 0. -1.
</event>
<event>
 5   0  0.2758681E-02  0.6917314E+03  0.7818609E-02  0.9731478E-01
        1   -1    0    0  501    0  0.00000000000E+00  0.00000000000E+00  0.19113414497E+03  0.19113414504E+03  0.50400001928E-02 0.  1.
       -1   -1    0    0    0  501  0.00000000000E+00  0.00000000000E+00 -0.62585933057E+03  0.62585933059E+03  0.50400001928E-02 0. -1.
    10030    2    1    2    0    0  0.00000000000E+00  0.00000000000E+00 -0.43472518560E+03  0.81699347563E+03  0.69173141624E+03 0.  0.
        3    1    3    3  502    0 -0.20871990668E+03 -0.32218831590E+02 -0.54086132693E+03  0.58063158519E+03  0.10100000352E+00 0. -1.
       -3    1    3    3    0  502  0.20871990668E+03  0.32218831590E+02  0.10613614133E+03  0.23636189043E+03  0.10100000352E+00 0.  1.
</event>
<event>
 5   0  0.4503289E-02  0.6968897E+03  0.7818609E-02  0.9722566E-01
        2   -1    0    0  501    0  0.00000000000E+00  0.00000000000E+00  0.79907517789E+03  0.79907517789E+03  0.25500000920E-02 0. -1.
       -2   -1    0    0    0  501  0.00000000000E+00  0.00000000000E+00 -0.15194290941E+03  0.15194290943E+03  0.25500000920E-02 0.  1.
    10030    2    1    2    0    0  0.00000000000E+00  0.00000000000E+00  0.64713226847E+03  0.95101808732E+03  0.69688968246E+03 0.  0.
        2    1    3    3  502    0  0.11643855359E+03 -0.16672469551E+03 -0.62559944905E+02  0.21276467650E+03  0.25500000920E-02 0.  1.
       -2    1    3    3    0  502 -0.11643855359E+03  0.16672469551E+03  0.70969221338E+03  0.73825341082E+03  0.25500000920E-02 0. -1.
</event>
<event>
 5   0  0.4503289E-02  0.6936992E+03  0.7818609E-02  0.9728068E-01
       -2   -1    0    0    0  501  0.00000000000E+00  0.00000000000E+00  0.86347096711E+02  0.86347096748E+02  0.25500000920E-02 0. -1.
        2   -1    0    0  501    0  0.00000000000E+00  0.00000000000E+00 -0.13932681676E+04  0.13932681676E+04  0.25500000920E-02 0.  1.
    10030    2    1    2    0    0  0.00000000000E+00  0.00000000000E+00 -0.13069210709E+04  0.14796152643E+04  0.69369924677E+03 0.  0.
        2    1    3    3  502    0 -0.30477348111E+02  0.16223599818E+03 -0.13041114953E+04  0.13145174704E+04  0.25500000920E-02 0.  1.
       -2    1    3    3    0  502  0.30477348111E+02 -0.16223599818E+03 -0.28095756348E+01  0.16509779398E+03  0.25500000920E-02 0. -1.
</event>
<event>
 5   0  0.2684924E-02  0.6361374E+03  0.7818609E-02  0.9833145E-01
       -1   -1    0    0    0  501  0.00000000000E+00  0.00000000000E+00  0.16127341171E+03  0.16127341179E+03  0.50400001928E-02 0.  1.
        1   -1    0    0  501    0  0.00000000000E+00  0.00000000000E+00 -0.62730544120E+03  0.62730544122E+03  0.50400001928E-02 0. -1.
    10030    2    1    2    0    0  0.00000000000E+00  0.00000000000E+00 -0.46603202949E+03  0.78857885301E+03  0.63613737110E+03 0.  0.
        4    1    3    3  502    0 -0.29904713039E+03 -0.87014191469E+00 -0.36731004843E+03  0.47365412266E+03  0.12699999809E+01 0.  1.
       -4    1    3    3    0  502  0.29904713039E+03  0.87014191469E+00 -0.98721981057E+02  0.31492473035E+03  0.12699999809E+01 0. -1.
</event>
<event>
 5   0  0.2751729E-02  0.5143173E+03  0.7818609E-02  0.1010108E+00
       -1   -1    0    0    0  501  0.00000000000E+00  0.00000000000E+00  0.88562091765E+02  0.88562091909E+02  0.50400001928E-02 0.  1.
        1   -1    0    0  501    0  0.00000000000E+00  0.00000000000E+00 -0.74671412697E+03  0.74671412698E+03  0.50400001928E-02 0. -1.
    10030    2    1    2    0    0  0.00000000000E+00  0.00000000000E+00 -0.65815203520E+03  0.83527621889E+03  0.51431727602E+03 0.  0.
        1    1    3    3  502    0 -0.92032676525E+02 -0.23807210439E+03 -0.27817758403E+03  0.37753292402E+03  0.50400001928E-02 0. -1.
       -1    1    3    3    0  502  0.92032676525E+02  0.23807210439E+03 -0.37997445117E+03  0.45774329487E+03  0.50400001928E-02 0.  1.
</event>
<event>
 5   0  0.2684924E-02  0.7678505E+03  0.7818609E-02  0.9607755E-01
        1   -1    0    0  501    0  0.00000000000E+00  0.00000000000E+00  0.48441382273E+03  0.48441382275E+03  0.50400001928E-02 0. -1.
       -1   -1    0    0    0  501  0.00000000000E+00  0.00000000000E+00 -0.30428238891E+03  0.30428238895E+03  0.50400001928E-02 0.  1.
    10030    2    1    2    0    0  0.00000000000E+00  0.00000000000E+00  0.18013143382E+03  0.78869621170E+03  0.76785049385E+03 0.  0.
        4    1    3    3  502    0  0.16882822184E+03  0.44281239273E+02  0.44130410684E+03  0.47456793429E+03  0.12699999809E+01 0. -1.
       -4    1    3    3    0  502 -0.16882822184E+03 -0.44281239273E+02 -0.26117267302E+03  0.31412827742E+03  0.12699999809E+01 0.  1.
</event>
<event>
 5   0  0.1784625E-02  0.6625664E+03  0.7818609E-02  0.9783481E-01
       -3   -1    0    0    0  501  0.00000000000E+00  0.00000000000E+00  0.62673481534E+02  0.62673562917E+02  0.10100000352E+00 0.  1.
        3   -1    0    0  501    0  0.00000000000E+00  0.00000000000E+00 -0.17511150919E+04  0.17511150948E+04  0.10100000352E+00 0. -1.
    10030    2    1    2    0    0  0.00000000000E+00  0.00000000000E+00 -0.16884416104E+04  0.18137886577E+04  0.66256639161E+03 0.  0.
        3    1    3    3  502    0  0.15151982012E+03  0.29258412976E+03 -0.93844943384E+03  0.99461101892E+03  0.10100000352E+00 0. -1.
       -3    1    3    3    0  502 -0.15151982012E+03 -0.29258412976E+03 -0.74999217653E+03  0.81917763881E+03  0.10100000352E+00 0.  1.
</event>
<event>
 5   0  0.1784625E-02  0.6960569E+03  0.7818609E-02  0.9723999E-01
        3   -1    0    0  501    0  0.00000000000E+00  0.00000000000E+00  0.65543945272E+03  0.65543946050E+03  0.10100000352E+00 0. -1.
       -3   -1    0    0    0  501  0.00000000000E+00  0.00000000000E+00 -0.18479781856E+03  0.18479784616E+03  0.10100000352E+00 0.  1.
    10030    2    1    2    0    0  0.00000000000E+00  0.00000000000E+00  0.47064163416E+03  0.84023730666E+03  0.69605688252E+03 0.  0.
        4    1    3    3  502    0  0.88327988656E+01  0.32643994570E+03  0.90056682007E+02  0.33875193779E+03  0.12699999809E+01 0.  1.
       -4    1    3    3    0  502 -0.88327988656E+01 -0.32643994570E+03  0.38058495215E+03  0.50148536887E+03  0.12699999809E+01 0. -1.
</event>
<event>
 5   0  0.2777999E-02  0.6970007E+03  0.7818609E-02  0.9722375E-01
       -1   -1    0    0    0  501  0.00000000000E+00  0.00000000000E+00  0.16103137421E+03  0.16103137429E+03  0.50400001928E-02 0. -1.
        1   -1    0    0  501    0  0.00000000000E+00  0.00000000000E+00 -0.75421624568E+03  0.75421624569E+03  0.50400001928E-02 0.  1.
    10030    2    1    2    0    0  0.00000000000E+00  0.00000000000E+00 -0.59318487147E+03  0.91524761998E+03  0.69700065577E+03 0.  0.
        5    1    3    3  502    0  0.17489935105E+03 -0.13947325180E+02 -0.69194078498E+03  0.71385464262E+03  0.46999998093E+01 0.  1.
       -5    1    3    3    0  502 -0.17489935105E+03  0.13947325180E+02  0.98755913514E+02  0.20139297736E+03  0.46999998093E+01 0. -1.
</event>
<event>
 5   0  0.4365492E-02  0.6914066E+03  0.7818609E-02  0.9732042E-01
       -2   -1    0    0    0  501  0.00000000000E+00  0.00000000000E+00  0.37457924555E+03  0.37457924556E+03  0.25500000920E-02 0.  1.
        2   -1    0    0  501    0  0.00000000000E+00  0.00000000000E+00 -0.31905336521E+03  0.31905336522E+03  0.25500000920E-02 0. -1.
    10030    2    1    2    0    0  0.00000000000E+00  0.00000000000E+00  0.55525880344E+02  0.69363261078E+03  0.69140659192E+03 0.  0.
        4    1    3    3  502    0 -0.49899448280E+02  0.33416959737E+03 -0.45615429114E+02  0.34094230453E+03  0.12699999809E+01 0. -1.
       -4    1    3    3    0  502  0.49899448280E+02 -0.33416959737E+03  0.10114130946E+03  0.35269030625E+03  0.12699999809E+01 0.  1.
</event>
<event>
 5   0  0.4299912E-02  0.7023387E+03  0.7818609E-02  0.9713241E-01
        2   -1    0    0  501    0  0.00000000000E+00  0.00000000000E+00  0.19572956125E+04  0.19572956125E+04  0.25500000920E-02 0.  1.
       -2   -1    0    0    0  501  0.00000000000E+00  0.00000000000E+00 -0.63005253046E+02  0.63005253098E+02  0.25500000920E-02 0. -1.
    10030    2    1    2    0    0  0.00000000000E+00  0.00000000000E+00  0.18942903595E+04  0.20203008656E+04  0.70233868015E+03 0.  0.
        3    1    3    3  502    0  0.18854159622E+03  0.29264492162E+03  0.81435921454E+03  0.88564661359E+03  0.10100000352E+00 0.  1.
       -3    1    3    3    0  502 -0.18854159622E+03 -0.29264492162E+03  0.10799311450E+04  0.11346542521E+04  0.10100000352E+00 0. -1.
</event>
<event>
 5   0  0.4526837E-02  0.6979401E+03  0.7818609E-02  0.9720761E-01
       -2   -1    0    0    0  501  0.00000000000E+00  0.00000000000E+00  0.10156057093E+03  0.10156057096E+03  0.25500000920E-02 0.  1.
        2   -1    0    0  501    0  0.00000000000E+00  0.00000000000E+00 -0.11990883887E+04  0.11990883887E+04  0.25500000920E-02 0. -1.
    10030    2    1    2    0    0  0.00000000000E+00  0.00000000000E+00 -0.10975278178E+04  0.13006489597E+04  0.69794011598E+03 0.  0.
        1    1    3    3  502    0  0.99518239169E+01  0.27364246961E+03 -0.95191594714E+03  0.99051663813E+03  0.50400001928E-02 0. -1.
       -1    1    3    3    0  502 -0.99518239169E+01 -0.27364246961E+03 -0.14561187067E+03  0.31013232156E+03  0.50400001928E-02 0.  1.
</event>
<event>
 5   0  0.1784625E-02  0.6994437E+03  0.7818609E-02  0.9718184E-01
       -3   -1    0    0    0  501  0.00000000000E+00  0.00000000000E+00  0.69896515706E+03  0.69896516435E+03  0.10100000352E+00 0. -1.
        3   -1    0    0  501    0  0.00000000000E+00  0.00000000000E+00 -0.17498063738E+03  0.17498066653E+03  0.10100000352E+00 0.  1.
    10030    2    1    2    0    0  0.00000000000E+00  0.00000000000E+00  0.52398451968E+03  0.87394583088E+03  0.69944373502E+03 0.  0.
        3    1    3    3  502    0 -0.26117667414E+02 -0.14004309594E+03 -0.13708373176E+03  0.19770220279E+03  0.10100000352E+00 0.  1.
       -3    1    3    3    0  502  0.26117667414E+02  0.14004309594E+03  0.66106825144E+03  0.67624362809E+03  0.10100000352E+00 0. -1.
</event>
<event>
 5   0  0.4299912E-02  0.7100473E+03  0.7818609E-02  0.9700203E-01
       -2   -1    0    0    0  501  0.00000000000E+00  0.00000000000E+00  0.71069293741E+02  0.71069293787E+02  0.25500000920E-02 0.  1.
        2   -1    0    0  501    0  0.00000000000E+00  0.00000000000E+00 -0.17735056687E+04  0.17735056687E+04  0.25500000920E-02 0. -1.
    10030    2    1    2    0    0  0.00000000000E+00  0.00000000000E+00 -0.17024363750E+04  0.18445749625E+04  0.71004730931E+03 0.  0.
        3    1    3    3  502    0  0.24984784056E+03 -0.18626642628E+03 -0.12930206588E+04  0.13300456982E+04  0.10100000352E+00 0. -1.
       -3    1    3    3    0  502 -0.24984784056E+03  0.18626642628E+03 -0.40941571621E+03  0.51452926435E+03  0.10100000352E+00 0.  1.
</event>
<event>
 5   0  0.4420645E-02  0.7058994E+03  0.7818609E-02  0.9707196E-01
        2   -1    0    0  501    0  0.00000000000E+00  0.00000000000E+00  0.36390082960E+03  0.36390082961E+03  0.25500000920E-02 0.  1.
       -2   -1    0    0    0  501  0.00000000000E+00  0.00000000000E+00 -0.34232816119E+03  0.34232816120E+03  0.25500000920E-02 0. -1.
    10030    2    1    2    0    0  0.00000000000E+00  0.00000000000E+00  0.21572668411E+02  0.70622899081E+03  0.70589943153E+03 0.  0.
        5    1    3    3  502    0 -0.19673434986E+03 -0.28382117822E+03 -0.61997518344E+02  0.35089121947E+03  0.46999998093E+01 0. -1.
       -5    1    3    3    0  502  0.19673434986E+03  0.28382117822E+03  0.83570186755E+02  0.35533777133E+03  0.46999998093E+01 0.  1.
</event>
<event>
 5   0  0.4420645E-02  0.6924759E+03  0.7818609E-02  0.9730187E-01
       -2   -1    0    0    0  501  0.00000000000E+00  0.00000000000E+00  0.72757986288E+02  0.72757986332E+02  0.25500000920E-02 0. -1.
        2   -1    0    0  501    0  0.00000000000E+00  0.00000000000E+00 -0.16476640683E+04  0.16476640683E+04  0.25500000920E-02 0.  1.
    10030    2    1    2    0    0  0.00000000000E+00  0.00000000000E+00 -0.15749060820E+04  0.17204220546E+04  0.69247590494E+03 0.  0.
        5    1    3    3  502    0  0.26681636855E+03  0.21792142405E+03 -0.87272103522E+03  0.93826692199E+03  0.46999998093E+01 0.  1.
       -5    1    3    3    0  502 -0.26681636855E+03 -0.21792142405E+03 -0.70218504681E+03  0.78215513266E+03  0.46999998093E+01 0. -1.
</event>
<event>
 5   0  0.2751729E-02  0.6954358E+03  0.7818609E-02  0.9725070E-01
       -1   -1    0    0    0  501  0.00000000000E+00  0.00000000000E+00  0.23930303030E+03  0.23930303035E+03  0.50400001928E-02 0.  1.
        1   -1    0    0  501    0  0.00000000000E+00  0.00000000000E+00 -0.50524943453E+03  0.50524943455E+03  0.50400001928E-02 0. -1.
    10030    2    1    2    0    0  0.00000000000E+00  0.00000000000E+00 -0.26594640423E+03  0.74455246491E+03  0.69543575050E+03 0.  0.
        1    1    3    3  502    0  0.86776160982E+02 -0.31961410047E+03 -0.19545080829E+02  0.33176088610E+03  0.50400001928E-02 0.  1.
       -1    1    3    3    0  502 -0.86776160982E+02  0.31961410047E+03 -0.24640132340E+03  0.41279157881E+03  0.50400001928E-02 0. -1.
</event>
<event>
 5   0  0.4526837E-02  0.6801707E+03  0.7818609E-02  0.9751757E-01
        2   -1    0    0  501    0  0.00000000000E+00  0.00000000000E+00  0.13281914666E+04  0.13281914666E+04  0.25500000920E-02 0. -1.
       -2   -1    0    0    0  501  0.00000000000E+00  0.00000000000E+00 -0.87079352977E+02  0.87079353014E+02  0.25500000920E-02 0.  1.
    10030    2    1    2    0    0  0.00000000000E+00  0.00000000000E+00  0.12411121136E+04  0.14152708196E+04  0.68017072436E+03 0.  0.
        1    1    3    3  502    0  0.54126690509E+02 -0.10152014694E+03 -0.45358140676E+02  0.12366648621E+03  0.50400001928E-02 0.  1.
       -1    1    3    3    0  502 -0.54126690509E+02  0.10152014694E+03  0.12864702543E+04  0.12916043334E+04  0.50400001928E-02 0. -1.
</event>
<event>
 5   0  0.2758681E-02  0.6703282E+03  0.7818609E-02  0.9769365E-01
       -1   -1    0    0    0  501  0.00000000000E+00  0.00000000000E+00  0.31142564401E+03  0.31142564405E+03  0.50400001928E-02 0. -1.
        1   -1    0    0  501    0  0.00000000000E+00  0.00000000000E+00 -0.36071205806E+03  0.36071205809E+03  0.50400001928E-02 0.  1.
    10030    2    1    2    0    0  0.00000000000E+00  0.00000000000E+00 -0.49286414042E+02  0.67213770215E+03  0.67032823306E+03 0.  0.
        3    1    3    3  502    0  0.26025042747E+03  0.15143906180E+03 -0.17225097838E+03  0.34689261191E+03  0.10100000352E+00 0.  1.
       -3    1    3    3    0  502 -0.26025042747E+03 -0.15143906180E+03  0.12296456434E+03  0.32524509024E+03  0.10100000352E+00 0. -1.
</event>
<event>
 5   0  0.2750139E-02  0.6366395E+03  0.7818609E-02  0.9832177E-01
        1   -1    0    0  501    0  0.00000000000E+00  0.00000000000E+00  0.33984628653E+03  0.33984628657E+03  0.50400001928E-02 0. -1.
       -1   -1    0    0    0  501  0.00000000000E+00  0.00000000000E+00 -0.29815670989E+03  0.29815670993E+03  0.50400001928E-02 0.  1.
    10030    2    1    2    0    0  0.00000000000E+00  0.00000000000E+00  0.41689576642E+02  0.63800299651E+03  0.63663946057E+03 0.  0.
        2    1    3    3  502    0 -0.28014848652E+03 -0.14079185889E+03  0.75934597489E+02  0.32260127887E+03  0.25500000920E-02 0. -1.
       -2    1    3    3    0  502  0.28014848652E+03  0.14079185889E+03 -0.34245020847E+02  0.31540171763E+03  0.25500000920E-02 0.  1.
</event>
<event>
 5   0  0.2684924E-02  0.6994269E+03  0.7818609E-02  0.9718213E-01
        1   -1    0    0  501    0  0.00000000000E+00  0.00000000000E+00  0.33346853045E+03  0.33346853048E+03  0.50400001928E-02 0.  1.
       -1   -1    0    0    0  501  0.00000000000E+00  0.00000000000E+00 -0.36674978509E+03  0.36674978513E+03  0.50400001928E-02 0. -1.
    10030    2    1    2    0    0  0.00000000000E+00  0.00000000000E+00 -0.33281254647E+02  0.70021831561E+03  0.69942694229E+03 0.  0.
        4    1    3    3  502    0  0.19299854805E+03  0.55016993243E+02  0.27007928026E+03  0.33648141051E+03  0.12699999809E+01 0.  1.
       -4    1    3    3    0  502 -0.19299854805E+03 -0.55016993243E+02 -0.30336053491E+03  0.36373690510E+03  0.12699999809E+01 0. -1.
</event>
<event>
 5   0  0.4365492E-02  0.6580682E+03  0.7818609E-02  0.9791756E-01
       -2   -1    0    0    0  501  0.00000000000E+00  0.00000000000E+00  0.25518682841E+03  0.25518682842E+03  0.25500000920E-02 0.  1.
        2   -1    0    0  501    0  0.00000000000E+00  0.00000000000E+00 -0.42425168595E+03  0.42425168596E+03  0.25500000920E-02 0. -1.
    10030    2    1    2    0    0  0.00000000000E+00  0.00000000000E+00 -0.16906485754E+03  0.67943851438E+03  0.65806820981E+03 0.  0.
        4    1    3    3  502    0  0.20050029958E+03  0.17489415576E+03 -0.28439954260E+03  0.38945224172E+03  0.12699999809E+01 0. -1.
       -4    1    3    3    0  502 -0.20050029958E+03 -0.17489415576E+03  0.11533468506E+03  0.28998627266E+03  0.12699999809E+01 0.  1.
</event>
<event>
 5   0  0.2777999E-02  0.8683028E+03  0.7818609E-02  0.9466096E-01
       -1   -1    0    0    0  501  0.00000000000E+00  0.00000000000E+00  0.73950112432E+03  0.73950112433E+03  0.50400001928E-02 0.  1.
        1   -1    0    0  501    0  0.00000000000E+00  0.00000000000E+00 -0.25488458369E+03  0.25488458374E+03  0.50400001928E-02 0. -1.
    10030    2    1    2    0    0  0.00000000000E+00  0.00000000000E+00  0.48461654063E+03  0.99438570807E+03  0.86830279567E+03 0.  0.
        5    1    3    3  502    0 -0.86931276286E+01  0.16243758075E+03  0.70325027481E+03  0.72183417564E+03  0.46999998093E+01 0.  1.
       -5    1    3    3    0  502  0.86931276286E+01 -0.16243758075E+03 -0.21863373418E+03  0.27255153243E+03  0.46999998093E+01 0. -1.
</event>
<event>
 5   0  0.2758681E-02  0.6820196E+03  0.7818609E-02  0.9748485E-01
        1   -1    0    0  501    0  0.00000000000E+00  0.00000000000E+00  0.65743507332E+03  0.65743507334E+03  0.50400001928E-02 0.  1.
       -1   -1    0    0    0  501  0.00000000000E+00  0.00000000000E+00 -0.17688087942E+03  0.17688087950E+03  0.50400001928E-02 0. -1.
    10030    2    1    2    0    0  0.00000000000E+00  0.00000000000E+00  0.48055419390E+03  0.83431595284E+03  0.68201963013E+03 0.  0.
        3    1    3    3  502    0 -0.14885743721E+03 -0.19726147159E+03 -0.47178195144E+02  0.25158779200E+03  0.10100000352E+00 0. -1.
       -3    1    3    3    0  502  0.14885743721E+03  0.19726147159E+03  0.52773238904E+03  0.58272816084E+03  0.10100000352E+00 0.  1.
</event>
<event>
 5   0  0.2777999E-02  0.7014307E+03  0.7818609E-02  0.9714789E-01
       -1   -1    0    0    0  501  0.00000000000E+00  0.00000000000E+00  0.16946162973E+03  0.16946162981E+03  0.50400001928E-02 0. -1.
        1   -1    0    0  501    0  0.00000000000E+00  0.00000000000E+00 -0.72583541522E+03  0.72583541524E+03  0.50400001928E-02 0.  1.
    10030    2    1    2    0    0  0.00000000000E+00  0.00000000000E+00 -0.55637378549E+03  0.89529704505E+03  0.70143068774E+03 0.  0.
        5    1    3    3  502    0 -0.15933386245E+02 -0.39065921616E+02 -0.72254403374E+03  0.72379001770E+03  0.46999998093E+01 0.  1.
       -5    1    3    3    0  502  0.15933386245E+02  0.39065921616E+02  0.16617024825E+03  0.17150702735E+03  0.46999998093E+01 0. -1.
</event>
<event>
 5   0  0.4420645E-02  0.6994459E+03  0.7818609E-02  0.9718180E-01
       -2   -1    0    0    0  501  0.00000000000E+00  0.00000000000E+00  0.25927099541E+03  0.25927099542E+03  0.25500000920E-02 0. -1.
        2   -1    0    0  501    0  0.00000000000E+00  0.00000000000E+00 -0.47173090510E+03  0.47173090511E+03  0.25500000920E-02 0.  1.
    10030    2    1    2    0    0  0.00000000000E+00  0.00000000000E+00 -0.21245990969E+03  0.73100190053E+03  0.69944589881E+03 0.  0.
        5    1    3    3  502    0 -0.33378763820E+03 -0.46809206695E+01  0.26225114951E+01  0.33386384351E+03  0.46999998093E+01 0. -1.
       -5    1    3    3    0  502  0.33378763820E+03  0.46809206695E+01 -0.21508242119E+03  0.39713805703E+03  0.46999998093E+01 0.  1.
</event>
<event>
 5   0  0.4526837E-02  0.7141915E+03  0.7818609E-02  0.9693266E-01
        2   -1    0    0  501    0  0.00000000000E+00  0.00000000000E+00  0.10949528206E+04  0.10949528206E+04  0.25500000920E-02 0. -1.
       -2   -1    0    0    0  501  0.00000000000E+00  0.00000000000E+00 -0.11645925632E+03  0.11645925635E+03  0.25500000920E-02 0.  1.
    10030    2    1    2    0    0  0.00000000000E+00  0.00000000000E+00  0.97849356430E+03  0.12114120770E+04  0.71419154634E+03 0.  0.
        1    1    3    3  502    0  0.30818471362E+03 -0.14067574614E+03  0.29771946818E+03  0.45100373060E+03  0.50400001928E-02 0.  1.
       -1    1    3    3    0  502 -0.30818471362E+03  0.14067574614E+03  0.68077409612E+03  0.76040834637E+03  0.50400001928E-02 0. -1.
</event>
<event>
 5   0  0.1784625E-02  0.6977865E+03  0.7818609E-02  0.9721025E-01
        4   -1    0    0  501    0  0.00000000000E+00  0.00000000000E+00  0.85866760620E+03  0.85866854539E+03  0.12699999809E+01 0. -1.
       -4   -1    0    0    0  501  0.00000000000E+00  0.00000000000E+00 -0.14175820749E+03  0.14176389629E+03  0.12699999809E+01 0.  1.
    10030    2    1    2    0    0  0.00000000000E+00  0.00000000000E+00  0.71690939871E+03  0.10004324417E+04  0.69778648912E+03 0.  0.
        5    1    3    3  502    0  0.28273241316E+03  0.11035037586E+03  0.11183109867E+03  0.32348586914E+03  0.46999998093E+01 0.  1.
       -5    1    3    3    0  502 -0.28273241316E+03 -0.11035037586E+03  0.60507830004E+03  0.67694657254E+03  0.46999998093E+01 0. -1.
</event>
<event>
 5   0  0.4420645E-02  0.6933064E+03  0.7818609E-02  0.9728748E-01
       -2   -1    0    0    0  501  0.00000000000E+00  0.00000000000E+00  0.65522489284E+03  0.65522489285E+03  0.25500000920E-02 0.  1.
        2   -1    0    0  501    0  0.00000000000E+00  0.00000000000E+00 -0.18340031598E+03  0.18340031600E+03  0.25500000920E-02 0. -1.
    10030    2    1    2    0    0  0.00000000000E+00  0.00000000000E+00  0.47182457686E+03  0.83862520884E+03  0.69330643266E+03 0.  0.
        5    1    3    3  502    0  0.59916611607E+02  0.33868000235E+03  0.28797043956E+03  0.44860139144E+03  0.46999998093E+01 0.  1.
       -5    1    3    3    0  502 -0.59916611607E+02 -0.33868000235E+03  0.18385413731E+03  0.39002381741E+03  0.46999998093E+01 0. -1.
</event>
<event>
 5   0  0.4526837E-02  0.6976982E+03  0.7818609E-02  0.9721177E-01
        2   -1    0    0  501    0  0.00000000000E+00  0.00000000000E+00  0.93430001062E+03  0.93430001063E+03  0.25500000920E-02 0. -1.
       -2   -1    0    0    0  501  0.00000000000E+00  0.00000000000E+00 -0.13025332302E+03  0.13025332304E+03  0.25500000920E-02 0.  1.
    10030    2    1    2    0    0  0.00000000000E+00  0.00000000000E+00  0.80404668761E+03  0.10645533337E+04  0.69769816137E+03 0.  0.
        1    1    3    3  502    0  0.15420674248E+03 -0.14460163869E+03  0.82543523671E+03  0.85207551507E+03  0.50400001928E-02 0. -1.
       -1    1    3    3    0  502 -0.15420674248E+03  0.14460163869E+03 -0.21388549108E+02  0.21247781860E+03  0.50400001928E-02 0.  1.
</event>
<event>
 5   0  0.1784625E-02  0.7016280E+03  0.7818609E-02  0.9714452E-01
       -3   -1    0    0    0  501  0.00000000000E+00  0.00000000000E+00  0.10043774107E+04  0.10043774158E+04  0.10100000352E+00 0.  1.
        3   -1    0    0  501    0  0.00000000000E+00  0.00000000000E+00 -0.12253406708E+03  0.12253410871E+03  0.10100000352E+00 0. -1.
    10030    2    1    2    0    0  0.00000000000E+00  0.00000000000E+00  0.88184334361E+03  0.11269115245E+04  0.70162803630E+03 0.  0.
        2    1    3    3  502    0  0.29931142836E+03 -0.14996362785E+03  0.60932932673E+03  0.69523999400E+03  0.25500000920E-02 0. -1.
       -2    1    3    3    0  502 -0.29931142836E+03  0.14996362785E+03  0.27251401688E+03  0.43167153048E+03  0.25500000920E-02 0.  1.
</event>
<event>
 5   0  0.4526837E-02  0.6950719E+03  0.7818609E-02  0.9725697E-01
       -2   -1    0    0    0  501  0.00000000000E+00  0.00000000000E+00  0.97817469554E+02  0.97817469587E+02  0.25500000920E-02 0.  1.
        2   -1    0    0  501    0  0.00000000000E+00  0.00000000000E+00 -0.12347614687E+04  0.12347614687E+04  0.25500000920E-02 0. -1.
    10030    2    1    2    0    0  0.00000000000E+00  0.00000000000E+00 -0.11369439992E+04  0.13325789383E+04  0.69507191685E+03 0.  0.
        1    1    3    3  502    0  0.20164958362E+03  0.12255845452E+03 -0.79315979376E+02  0.24894608645E+03  0.50400001928E-02 0.  1.
       -1    1    3    3    0  502 -0.20164958362E+03 -0.12255845452E+03 -0.10576280198E+04  0.10836328519E+04  0.50400001928E-02 0. -1.
</event>
<event>
 5   0  0.4299912E-02  0.7029974E+03  0.7818609E-02  0.9712120E-01
        2   -1    0    0  501    0  0.00000000000E+00  0.00000000000E+00  0.14056470206E+04  0.14056470206E+04  0.25500000920E-02 0. -1.
       -2   -1    0    0    0  501  0.00000000000E+00  0.00000000000E+00 -0.87896428979E+02  0.87896429016E+02  0.25500000920E-02 0.  1.
    10030    2    1    2    0    0  0.00000000000E+00  0.00000000000E+00  0.13177505916E+04  0.14935434496E+04  0.70299744962E+03 0.  0.
        3    1    3    3  502    0 -0.29940298854E+02 -0.41926701396E+02  0.13975819416E+04  0.13985312165E+04  0.10100000352E+00 0. -1.
       -3    1    3    3    0  502  0.29940298854E+02  0.41926701396E+02 -0.79831350035E+02  0.95012233080E+02  0.10100000352E+00 0.  1.
</event>
<event>
 5   0  0.2684924E-02  0.6998523E+03  0.7818609E-02  0.9717485E-01
       -1   -1    0    0    0  501  0.00000000000E+00  0.00000000000E+00  0.22855349353E+03  0.22855349358E+03  0.50400001928E-02 0. -1.
        1   -1    0    0  501    0  0.00000000000E+00  0.00000000000E+00 -0.53575341662E+03  0.53575341664E+03  0.50400001928E-02 0.  1.
    10030    2    1    2    0    0  0.00000000000E+00  0.00000000000E+00 -0.30719992309E+03  0.76430691023E+03  0.69985231319E+03 0.  0.
        4    1    3    3  502    0 -0.64222997467E+02  0.21547161582E+03  0.13922492513E+03  0.26445756428E+03  0.12699999809E+01 0. -1.
       -4    1    3    3    0  502  0.64222997467E+02 -0.21547161582E+03 -0.44642484822E+03  0.49984934594E+03  0.12699999809E+01 0.  1.
</event>
<event>
 5   0  0.2684924E-02  0.7265988E+03  0.7818609E-02  0.9672796E-01
       -1   -1    0    0    0  501  0.00000000000E+00  0.00000000000E+00  0.81523082976E+03  0.81523082978E+03  0.50400001928E-02 0.  1.
        1   -1    0    0  501    0  0.00000000000E+00  0.00000000000E+00 -0.16190069841E+03  0.16190069848E+03  0.50400001928E-02 0. -1.
    10030    2    1    2    0    0  0.00000000000E+00  0.00000000000E+00  0.65333013136E+03  0.97713152826E+03  0.72659876341E+03 0.  0.
        4    1    3    3  502    0  0.21441721488E+03  0.19719513450E+03  0.34734072427E+02  0.29337472930E+03  0.12699999809E+01 0. -1.
       -4    1    3    3    0  502 -0.21441721488E+03 -0.19719513450E+03  0.61859605893E+03  0.68375679896E+03  0.12699999809E+01 0.  1.
</event>
<event>
 5   0  0.2751729E-02  0.6921736E+03  0.7818609E-02  0.9730711E-01
        1   -1    0    0  501    0  0.00000000000E+00  0.00000000000E+00  0.10802426831E+04  0.10802426831E+04  0.50400001928E-02 0. -1.
       -1   -1    0    0    0  501  0.00000000000E+00  0.00000000000E+00 -0.11087886717E+03  0.11087886729E+03  0.50400001928E-02 0.  1.
    10030    2    1    2    0    0  0.00000000000E+00  0.00000000000E+00  0.96936381596E+03  0.11911215504E+04  0.69217363443E+03 0.  0.
        1    1    3    3  502    0  0.14894713299E+03  0.61611990852E+02 -0.42342111084E+02  0.16665575369E+03  0.50400001928E-02 0.  1.
       -1    1    3    3    0  502 -0.14894713299E+03 -0.61611990852E+02  0.10117059270E+04  0.10244657967E+04  0.50400001928E-02 0. -1.
</event>
<event>
 5   0  0.4420645E-02  0.6912678E+03  0.7818609E-02  0.9732283E-01
        2   -1    0    0  501    0  0.00000000000E+00  0.00000000000E+00  0.39657190900E+03  0.39657190901E+03  0.25500000920E-02 0.  1.
       -2   -1    0    0    0  501  0.00000000000E+00  0.00000000000E+00 -0.30123865936E+03  0.30123865937E+03  0.25500000920E-02 0. -1.
    10030    2    1    2    0    0  0.00000000000E+00  0.00000000000E+00  0.95333249640E+02  0.69781056839E+03  0.69126779244E+03 0.  0.
        5    1    3    3  502    0  0.64205937112E+02  0.33583139523E+03 -0.31644367142E+01  0.34196086332E+03  0.46999998093E+01 0.  1.
       -5    1    3    3    0  502 -0.64205937112E+02 -0.33583139523E+03  0.98497686354E+02  0.35584970507E+03  0.46999998093E+01 0. -1.
</event>
<event>
 5   0  0.2751729E-02  0.6879515E+03  0.7818609E-02  0.9738062E-01
        1   -1    0    0  501    0  0.00000000000E+00  0.00000000000E+00  0.63567837495E+03  0.63567837497E+03  0.50400001928E-02 0.  1.
       -1   -1    0    0    0  501  0.00000000000E+00  0.00000000000E+00 -0.18613076259E+03  0.18613076266E+03  0.50400001928E-02 0. -1.
    10030    2    1    2    0    0  0.00000000000E+00  0.00000000000E+00  0.44954761237E+03  0.82180913763E+03  0.68795145389E+03 0.  0.
        1    1    3    3  502    0 -0.27547751857E+03  0.19483458181E+03  0.14489863947E+03  0.36721110176E+03  0.50400001928E-02 0. -1.
       -1    1    3    3    0  502  0.27547751857E+03 -0.19483458181E+03  0.30464897290E+03  0.45459803587E+03  0.50400001928E-02 0.  1.
</event>
<event>
 5   0  0.1784625E-02  0.7123990E+03  0.7818609E-02  0.9696260E-01
        3   -1    0    0  501    0  0.00000000000E+00  0.00000000000E+00  0.50577529100E+03  0.50577530109E+03  0.10100000352E+00 0.  1.
       -3   -1    0    0    0  501  0.00000000000E+00  0.00000000000E+00 -0.25085860934E+03  0.25085862968E+03  0.10100000352E+00 0. -1.
    10030    2    1    2    0    0  0.00000000000E+00  0.00000000000E+00  0.25491668166E+03  0.75663393076E+03  0.71239903888E+03 0.  0.
        2    1    3    3  502    0 -0.16303276387E+03 -0.56241290961E+02  0.45847595510E+03  0.48983973534E+03  0.25500000920E-02 0.  1.
       -2    1    3    3    0  502  0.16303276387E+03  0.56241290961E+02 -0.20355927344E+03  0.26679419543E+03  0.25500000920E-02 0. -1.
</event>
<event>
 5   0  0.4420645E-02  0.6978790E+03  0.7818609E-02  0.9720866E-01
       -2   -1    0    0    0  501  0.00000000000E+00  0.00000000000E+00  0.17238421281E+03  0.17238421283E+03  0.25500000920E-02 0.  1.
        2   -1    0    0  501    0  0.00000000000E+00  0.00000000000E+00 -0.70632204408E+03  0.70632204409E+03  0.25500000920E-02 0. -1.
    10030    2    1    2    0    0  0.00000000000E+00  0.00000000000E+00 -0.53393783127E+03  0.87870625691E+03  0.69787898541E+03 0.  0.
        5    1    3    3  502    0 -0.32824147384E+03 -0.10277266735E+03 -0.19320621459E+03  0.39453189689E+03  0.46999998093E+01 0.  1.
       -5    1    3    3    0  502  0.32824147384E+03  0.10277266735E+03 -0.34073161668E+03  0.48417436003E+03  0.46999998093E+01 0. -1.
</event>
<event>
 5   0  0.4526837E-02  0.7010929E+03  0.7818609E-02  0.9715365E-01
        2   -1    0    0  501    0  0.00000000000E+00  0.00000000000E+00  0.29382290759E+03  0.29382290760E+03  0.25500000920E-02 0.  1.
       -2   -1    0    0    0  501  0.00000000000E+00  0.00000000000E+00 -0.41822062565E+03  0.41822062566E+03  0.25500000920E-02 0. -1.
    10030    2    1    2    0    0  0.00000000000E+00  0.00000000000E+00 -0.12439771807E+03  0.71204353326E+03  0.70109286189E+03 0.  0.
        1    1    3    3  502    0  0.18797249771E+03 -0.25688836590E+03  0.86919211981E+02  0.32997006208E+03  0.50400001928E-02 0. -1.
       -1    1    3    3    0  502 -0.18797249771E+03  0.25688836590E+03 -0.21131693005E+03  0.38207347118E+03  0.50400001928E-02 0.  1.
</event>
<event>
 5   0  0.4365492E-02  0.7162053E+03  0.7818609E-02  0.9689913E-01
        2   -1    0    0  501    0  0.00000000000E+00  0.00000000000E+00  0.37975750167E+03  0.37975750168E+03  0.25500000920E-02 0. -1.
       -2   -1    0    0    0  501  0.00000000000E+00  0.00000000000E+00 -0.33768266017E+03  0.33768266018E+03  0.25500000920E-02 0.  1.
    10030    2    1    2    0    0  0.00000000000E+00  0.00000000000E+00  0.42074841501E+02  0.71744016185E+03  0.71620534314E+03 0.  0.
        4    1    3    3  502    0  0.33035937346E+03  0.12346534990E+03  0.83232326159E+02  0.36236754998E+03  0.12699999809E+01 0. -1.
       -4    1    3    3    0  502 -0.33035937346E+03 -0.12346534990E+03 -0.41157484658E+02  0.35507261187E+03  0.12699999809E+01 0.  1.
</event>
<event>
 5   0  0.4420645E-02  0.6953448E+03  0.7818609E-02  0.9725226E-01
        2   -1    0    0  501    0  0.00000000000E+00  0.00000000000E+00  0.14501603304E+04  0.14501603304E+04  0.25500000920E-02 0.  1.
       -2   -1    0    0    0  501  0.00000000000E+00  0.00000000000E+00 -0.83353607628E+02  0.83353607667E+02  0.25500000920E-02 0. -1.
    10030    2    1    2    0    0  0.00000000000E+00  0.00000000000E+00  0.13668067227E+04  0.15335139380E+04  0.69534479277E+03 0.  0.
        5    1    3    3  502    0  0.73475699623E+02 -0.14177789001E+03  0.13644201073E+04  0.13737408663E+04  0.46999998093E+01 0.  1.
       -5    1    3    3    0  502 -0.73475699623E+02  0.14177789001E+03  0.23866154640E+01  0.15977307177E+03  0.46999998093E+01 0. -1.
</event>
<event>
 5   0  0.2684924E-02  0.6976985E+03  0.7818609E-02  0.9721176E-01
       -1   -1    0    0    0  501  0.00000000000E+00  0.00000000000E+00  0.11216284687E+03  0.11216284698E+03  0.50400001928E-02 0. -1.
        1   -1    0    0  501    0  0.00000000000E+00  0.00000000000E+00 -0.10849920009E+04  0.10849920009E+04  0.50400001928E-02 0.  1.
    10030    2    1    2    0    0  0.00000000000E+00  0.00000000000E+00 -0.97282915403E+03  0.11971548479E+04  0.69769847850E+03 0.  0.
        4    1    3    3  502    0  0.27918096786E+03 -0.65139004902E+02 -0.82747473539E+03  0.87572892689E+03  0.12699999809E+01 0.  1.
       -4    1    3    3    0  502 -0.27918096786E+03  0.65139004902E+02 -0.14535441864E+03  0.32142592100E+03  0.12699999809E+01 0. -1.
</event>
<event>
 5   0  0.4526837E-02  0.7051233E+03  0.7818609E-02  0.9708511E-01
       -2   -1    0    0    0  501  0.00000000000E+00  0.00000000000E+00  0.13607092846E+03  0.13607092848E+03  0.25500000920E-02 0. -1.
        2   -1    0    0  501    0  0.00000000000E+00  0.00000000000E+00 -0.91349196361E+03  0.91349196362E+03  0.25500000920E-02 0.  1.
    10030    2    1    2    0    0  0.00000000000E+00  0.00000000000E+00 -0.77742103516E+03  0.10495628921E+04  0.70512325062E+03 0.  0.
        1    1    3    3  502    0  0.34178916592E+02 -0.14819127869E+02  0.13313311547E+03  0.13824699400E+03  0.50400001928E-02 0. -1.
       -1    1    3    3    0  502 -0.34178916592E+02  0.14819127869E+02 -0.91055415062E+03  0.91131589810E+03  0.50400001928E-02 0.  1.
</event>
<event>
 5   0  0.2684924E-02  0.7034325E+03  0.7818609E-02  0.9711380E-01
       -1   -1    0    0    0  501  0.00000000000E+00  0.00000000000E+00  0.26680416282E+03  0.26680416286E+03  0.50400001928E-02 0.  1.
        1   -1    0    0  501    0  0.00000000000E+00  0.00000000000E+00 -0.46365219944E+03  0.46365219946E+03  0.50400001928E-02 0. -1.
    10030    2    1    2    0    0  0.00000000000E+00  0.00000000000E+00 -0.19684803662E+03  0.73045636233E+03  0.70343254669E+03 0.  0.
        4    1    3    3  502    0  0.44710577172E+02  0.23073235091E+03 -0.37013685318E+03  0.43845108787E+03  0.12699999809E+01 0. -1.
       -4    1    3    3    0  502 -0.44710577172E+02 -0.23073235091E+03  0.17328881656E+03  0.29200527446E+03  0.12699999809E+01 0.  1.
</event>
<event>
 5   0  0.2750139E-02  0.7015908E+03  0.7818609E-02  0.9714516E-01
        1   -1    0    0  501    0  0.00000000000E+00  0.00000000000E+00  0.53398121645E+03  0.53398121647E+03  0.50400001928E-02 0.  1.
       -1   -1    0    0    0  501  0.00000000000E+00  0.00000000000E+00 -0.23045272395E+03  0.23045272401E+03  0.50400001928E-02 0. -1.
    10030    2    1    2    0    0  0.00000000000E+00  0.00000000000E+00  0.30352849250E+03  0.76443394048E+03  0.70159083774E+03 0.  0.
        2    1    3    3  502    0 -0.25836243118E+03  0.99541223042E+02 -0.82931308294E+02  0.28902803122E+03  0.25500000920E-02 0. -1.
       -2    1    3    3    0  502  0.25836243118E+03 -0.99541223042E+02  0.38645980079E+03  0.47540590926E+03  0.25500000920E-02 0.  1.
</event>
<event>
 5   0  0.1784625E-02  0.6983912E+03  0.7818609E-02  0.9719987E-01
       -4   -1    0    0    0  501  0.00000000000E+00  0.00000000000E+00  0.14770972775E+03  0.14771518734E+03  0.12699999809E+01 0.  1.
        4   -1    0    0  501    0  0.00000000000E+00  0.00000000000E+00 -0.82550025932E+03  0.82550123624E+03  0.12699999809E+01 0. -1.
    10030    2    1    2    0    0  0.00000000000E+00  0.00000000000E+00 -0.67779053157E+03  0.97321642358E+03  0.69839115289E+03 0.  0.
        4    1    3    3  502    0  0.91207426681E+02  0.28630114240E+03 -0.58680256637E+03  0.65926171102E+03  0.12699999809E+01 0. -1.
       -4    1    3    3    0  502 -0.91207426681E+02 -0.28630114240E+03 -0.90987965203E+02  0.31395471255E+03  0.12699999809E+01 0.  1.
</event>
<event>
 5   0  0.2684924E-02  0.6884298E+03  0.7818609E-02  0.9737226E-01
       -1   -1    0    0    0  501  0.00000000000E+00  0.00000000000E+00  0.10569702632E+04  0.10569702632E+04  0.50400001928E-02 0. -1.
        1   -1    0    0  501    0  0.00000000000E+00  0.00000000000E+00 -0.11209765193E+03  0.11209765204E+03  0.50400001928E-02 0.  1.
    10030    2    1    2    0    0  0.00000000000E+00  0.00000000000E+00  0.94487261123E+03  0.11690679152E+04  0.68842976325E+03 0.  0.
        4    1    3    3  502    0 -0.22463602003E+03 -0.79677654662E+02  0.50715008062E+02  0.24368728955E+03  0.12699999809E+01 0.  1.
       -4    1    3    3    0  502  0.22463602003E+03  0.79677654662E+02  0.89415760317E+03  0.92538062566E+03  0.12699999809E+01 0. -1.
</event>
<event>
 5   0  0.2684924E-02  0.7096514E+03  0.7818609E-02  0.9700868E-01
       -1   -1    0    0    0  501  0.00000000000E+00  0.00000000000E+00  0.15190217878E+03  0.15190217886E+03  0.50400001928E-02 0.  1.
        1   -1    0    0  501    0  0.00000000000E+00  0.00000000000E+00 -0.82883130390E+03  0.82883130392E+03  0.50400001928E-02 0. -1.
    10030    2    1    2    0    0  0.00000000000E+00  0.00000000000E+00 -0.67692912512E+03  0.98073348278E+03  0.70965141006E+03 0.  0.
        4    1    3    3  502    0 -0.24484205776E+03 -0.25589878707E+03 -0.36835671561E+03  0.51099912457E+03  0.12699999809E+01 0. -1.
       -4    1    3    3    0  502  0.24484205776E+03  0.25589878707E+03 -0.30857240951E+03  0.46973435821E+03  0.12699999809E+01 0.  1.
</event>
<event>
 5   0  0.4365492E-02  0.6933160E+03  0.7818609E-02  0.9728732E-01
       -2   -1    0    0    0  501  0.00000000000E+00  0.00000000000E+00  0.98006285455E+02  0.98006285488E+02  0.25500000920E-02 0. -1.
        2   -1    0    0  501    0  0.00000000000E+00  0.00000000000E+00 -0.12261637795E+04  0.12261637795E+04  0.25500000920E-02 0.  1.
    10030    2    1    2    0    0  0.00000000000E+00  0.00000000000E+00 -0.11281574940E+04  0.13241700649E+04  0.69331596666E+03 0.  0.
        4    1    3    3  502    0 -0.82235676449E+02 -0.11898023652E+03  0.37621678593E+02  0.14945235617E+03  0.12699999809E+01 0. -1.
       -4    1    3    3    0  502  0.82235676449E+02  0.11898023652E+03 -0.11657791726E+04  0.11747177088E+04  0.12699999809E+01 0.  1.
</event>
<event>
 5   0  0.4365492E-02  0.5709631E+03  0.7818609E-02  0.9967550E-01
        2   -1    0    0  501    0  0.00000000000E+00  0.00000000000E+00  0.11767282056E+04  0.11767282056E+04  0.25500000920E-02 0. -1.
       -2   -1    0    0    0  501  0.00000000000E+00  0.00000000000E+00 -0.69259581024E+02  0.69259581071E+02  0.25500000920E-02 0.  1.
    10030    2    1    2    0    0  0.00000000000E+00  0.00000000000E+00  0.11074686246E+04  0.12459877867E+04  0.57096305495E+03 0.  0.
        4    1    3    3  502    0  0.15596568563E+03  0.66699546363E+02  0.10548174747E+04  0.10683705548E+04  0.12699999809E+01 0. -1.
       -4    1    3    3    0  502 -0.15596568563E+03 -0.66699546363E+02  0.52651149924E+02  0.17761723190E+03  0.12699999809E+01 0.  1.
</event>
<event>
 5   0  0.2758681E-02  0.7241095E+03  0.7818609E-02  0.9676867E-01
       -1   -1    0    0    0  501  0.00000000000E+00  0.00000000000E+00  0.16943276423E+03  0.16943276431E+03  0.50400001928E-02 0. -1.
        1   -1    0    0  501    0  0.00000000000E+00  0.00000000000E+00 -0.77366176809E+03  0.77366176810E+03  0.50400001928E-02 0.  1.
    10030    2    1    2    0    0  0.00000000000E+00  0.00000000000E+00 -0.60422900385E+03  0.94309453241E+03  0.72410952760E+03 0.  0.
        3    1    3    3  502    0 -0.26114557430E+03 -0.24141417602E+03 -0.21372417320E+03  0.41491667570E+03  0.10100000352E+00 0. -1.
       -3    1    3    3    0  502  0.26114557430E+03  0.24141417602E+03 -0.39050483065E+03  0.52817785671E+03  0.10100000352E+00 0.  1.
</event>
<event>
 5   0  0.4503289E-02  0.7089996E+03  0.7818609E-02  0.9701964E-01
        2   -1    0    0  501    0  0.00000000000E+00  0.00000000000E+00  0.43711180511E+03  0.43711180511E+03  0.25500000920E-02 0. -1.
       -2   -1    0    0    0  501  0.00000000000E+00  0.00000000000E+00 -0.28750107817E+03  0.28750107818E+03  0.25500000920E-02 0.  1.
    10030    2    1    2    0    0  0.00000000000E+00  0.00000000000E+00  0.14961072694E+03  0.72461288330E+03  0.70899961991E+03 0.  0.
        2    1    3    3  502    0 -0.26577489823E+03  0.14165750372E+01 -0.16494924045E+03  0.31280434004E+03  0.25500000920E-02 0.  1.
       -2    1    3    3    0  502  0.26577489823E+03 -0.14165750372E+01  0.31455996739E+03  0.41180854326E+03  0.25500000920E-02 0. -1.
</event>
<event>
 5   0  0.2777999E-02  0.7023153E+03  0.7818609E-02  0.9713281E-01
       -1   -1    0    0    0  501  0.00000000000E+00  0.00000000000E+00  0.16134257646E+03  0.16134257653E+03  0.50400001928E-02 0. -1.
        1   -1    0    0  501    0  0.00000000000E+00  0.00000000000E+00 -0.76428493687E+03  0.76428493689E+03  0.50400001928E-02 0.  1.
    10030    2    1    2    0    0  0.00000000000E+00  0.00000000000E+00 -0.60294236042E+03  0.92562751342E+03  0.70231531638E+03 0.  0.
        5    1    3    3  502    0 -0.12000818885E+03 -0.32678066073E+03 -0.36189736156E+03  0.50217462692E+03  0.46999998093E+01 0.  1.
       -5    1    3    3    0  502  0.12000818885E+03  0.32678066073E+03 -0.24104499886E+03  0.42345288651E+03  0.46999998093E+01 0. -1.
</event>
<event>
 5   0  0.4526837E-02  0.7227114E+03  0.7818609E-02  0.9679162E-01
       -2   -1    0    0    0  501  0.00000000000E+00  0.00000000000E+00  0.81259684195E+02  0.81259684235E+02  0.25500000920E-02 0. -1.
        2   -1    0    0  501    0  0.00000000000E+00  0.00000000000E+00 -0.16069217891E+04  0.16069217891E+04  0.25500000920E-02 0.  1.
    10030    2    1    2    0    0  0.00000000000E+00  0.00000000000E+00 -0.15256621049E+04  0.16881814734E+04  0.72271144213E+03 0.  0.
        1    1    3    3  502    0  0.23928129257E+03  0.12336608491E+03 -0.13258906095E+04  0.13529451712E+04  0.50400001928E-02 0.  1.
       -1    1    3    3    0  502 -0.23928129257E+03 -0.12336608491E+03 -0.19977149543E+03  0.33523630217E+03  0.50400001928E-02 0. -1.
</event>
<event>
 5   0  0.4365492E-02  0.7049800E+03  0.7818609E-02  0.9708753E-01
        2   -1    0    0  501    0  0.00000000000E+00  0.00000000000E+00  0.15445424610E+04  0.15445424610E+04  0.25500000920E-02 0.  1.
       -2   -1    0    0    0  501  0.00000000000E+00  0.00000000000E+00 -0.80444013589E+02  0.80444013630E+02  0.25500000920E-02 0. -1.
    10030    2    1    2    0    0  0.00000000000E+00  0.00000000000E+00  0.14640984474E+04  0.16249864746E+04  0.70497998484E+03 0.  0.
        4    1    3    3  502    0 -0.16525621072E+03 -0.53942030952E+02  0.14388582386E+04  0.14493219110E+04  0.12699999809E+01 0.  1.
       -4    1    3    3    0  502  0.16525621072E+03  0.53942030952E+02  0.25240208794E+02  0.17566456366E+03  0.12699999809E+01 0. -1.
</event>
<event>
 5   0  0.2758681E-02  0.6993675E+03  0.7818609E-02  0.9718314E-01
        1   -1    0    0  501    0  0.00000000000E+00  0.00000000000E+00  0.11017398643E+03  0.11017398654E+03  0.50400001928E-02 0.  1.
       -1   -1    0    0    0  501  0.00000000000E+00  0.00000000000E+00 -0.11098694187E+04  0.11098694187E+04  0.50400001928E-02 0. -1.
    10030    2    1    2    0    0  0.00000000000E+00  0.00000000000E+00 -0.99969543228E+03  0.12200434053E+04  0.69936753815E+03 0.  0.
        3    1    3    3  502    0 -0.18803175435E+03  0.10287316028E+03 -0.98184612663E+03  0.10049679867E+04  0.10100000352E+00 0. -1.
       -3    1    3    3    0  502  0.18803175435E+03 -0.10287316028E+03 -0.17849305647E+02  0.21507541855E+03  0.10100000352E+00 0.  1.
</event>
<event>
 5   0  0.4365492E-02  0.6997066E+03  0.7818609E-02  0.9717734E-01
        2   -1    0    0  501    0  0.00000000000E+00  0.00000000000E+00  0.10624418030E+04  0.10624418030E+04  0.25500000920E-02 0. -1.
       -2   -1    0    0    0  501  0.00000000000E+00  0.00000000000E+00 -0.11520381233E+03  0.11520381236E+03  0.25500000920E-02 0.  1.
    10030    2    1    2    0    0  0.00000000000E+00  0.00000000000E+00  0.94723799065E+03  0.11776456153E+04  0.69970664166E+03 0.  0.
        4    1    3    3  502    0 -0.23237019007E+03  0.91225254762E+02  0.88614902151E+03  0.92064089283E+03  0.12699999809E+01 0. -1.
       -4    1    3    3    0  502  0.23237019007E+03 -0.91225254762E+02  0.61088969141E+02  0.25700472250E+03  0.12699999809E+01 0.  1.
</event>
<event>
 5   0  0.4420645E-02  0.6974254E+03  0.7818609E-02  0.9721645E-01
        2   -1    0    0  501    0  0.00000000000E+00  0.00000000000E+00  0.71647983577E+03  0.71647983578E+03  0.25500000920E-02 0. -1.
       -2   -1    0    0    0  501  0.00000000000E+00  0.00000000000E+00 -0.16971942814E+03  0.16971942816E+03  0.25500000920E-02 0.  1.
    10030    2    1    2    0    0  0.00000000000E+00  0.00000000000E+00  0.54676040764E+03  0.88619926393E+03  0.69742540249E+03 0.  0.
        5    1    3    3  502    0 -0.24326633678E+03  0.19330541896E+03  0.47442356977E+03  0.56713782201E+03  0.46999998093E+01 0. -1.
       -5    1    3    3    0  502  0.24326633678E+03 -0.19330541896E+03  0.72336837871E+02  0.31906144192E+03  0.46999998093E+01 0.  1.
</event>
<event>
 5   0  0.4526837E-02  0.7198376E+03  0.7818609E-02  0.9683896E-01
       -2   -1    0    0    0  501  0.00000000000E+00  0.00000000000E+00  0.80192424776E+02  0.80192424817E+02  0.25500000920E-02 0.  1.
        2   -1    0    0  501    0  0.00000000000E+00  0.00000000000E+00 -0.16153837540E+04  0.16153837540E+04  0.25500000920E-02 0. -1.
    10030    2    1    2    0    0  0.00000000000E+00  0.00000000000E+00 -0.15351913293E+04  0.16955761789E+04  0.71983759340E+03 0.  0.
        1    1    3    3  502    0 -0.66441166772E+02 -0.46818042008E+02 -0.15934831357E+04  0.15955547190E+04  0.50400001928E-02 0. -1.
       -1    1    3    3    0  502  0.66441166772E+02  0.46818042008E+02  0.58291806436E+02  0.10002145981E+03  0.50400001928E-02 0.  1.
</event>
<event>
 5   0  0.2684924E-02  0.7044937E+03  0.7818609E-02  0.9709578E-01
        1   -1    0    0  501    0  0.00000000000E+00  0.00000000000E+00  0.74648639968E+03  0.74648639970E+03  0.50400001928E-02 0.  1.
       -1   -1    0    0    0  501  0.00000000000E+00  0.00000000000E+00 -0.16621579956E+03  0.16621579963E+03  0.50400001928E-02 0. -1.
    10030    2    1    2    0    0  0.00000000000E+00  0.00000000000E+00  0.58027060013E+03  0.91270219934E+03  0.70449367300E+03 0.  0.
        4    1    3    3  502    0  0.23285732205E+03  0.68977383372E+02  0.62067871878E+03  0.66650138536E+03  0.12699999809E+01 0.  1.
       -4    1    3    3    0  502 -0.23285732205E+03 -0.68977383372E+02 -0.40408118652E+02  0.24620081397E+03  0.12699999809E+01 0. -1.
</event>
<event>
 5   0  0.4526837E-02  0.6998913E+03  0.7818609E-02  0.9717418E-01
        2   -1    0    0  501    0  0.00000000000E+00  0.00000000000E+00  0.29650739343E+03  0.29650739344E+03  0.25500000920E-02 0. -1.
       -2   -1    0    0    0  501  0.00000000000E+00  0.00000000000E+00 -0.41301484669E+03  0.41301484670E+03  0.25500000920E-02 0.  1.
    10030    2    1    2    0    0  0.00000000000E+00  0.00000000000E+00 -0.11650745327E+03  0.70952224014E+03  0.69989129341E+03 0.  0.
        1    1    3    3  502    0 -0.11178082878E+03 -0.31626769836E+03  0.42826621746E+02  0.33816317106E+03  0.50400001928E-02 0. -1.
       -1    1    3    3    0  502  0.11178082878E+03  0.31626769836E+03 -0.15933407501E+03  0.37135906908E+03  0.50400001928E-02 0.  1.
</event>
<event>
 5   0  0.2750139E-02  0.7029029E+03  0.7818609E-02  0.9712281E-01
        1   -1    0    0  501    0  0.00000000000E+00  0.00000000000E+00  0.14858517894E+03  0.14858517903E+03  0.50400001928E-02 0. -1.
       -1   -1    0    0    0  501  0.00000000000E+00  0.00000000000E+00 -0.83129508832E+03  0.83129508834E+03  0.50400001928E-02 0.  1.
    10030    2    1    2    0    0  0.00000000000E+00  0.00000000000E+00 -0.68270990938E+03  0.97988026736E+03  0.70290292217E+03 0.  0.
        2    1    3    3  502    0  0.10960693943E+03 -0.11963385833E+03 -0.77595857862E+03  0.79274059879E+03  0.25500000920E-02 0.  1.
       -2    1    3    3    0  502 -0.10960693943E+03  0.11963385833E+03  0.93248669241E+02  0.18713966857E+03  0.25500000920E-02 0. -1.
</event>
<event>
 5   0  0.4299912E-02  0.7083379E+03  0.7818609E-02  0.9703079E-01
       -2   -1    0    0    0  501  0.00000000000E+00  0.00000000000E+00  0.18387861897E+03  0.18387861899E+03  0.25500000920E-02 0.  1.
        2   -1    0    0  501    0  0.00000000000E+00  0.00000000000E+00 -0.68216542795E+03  0.68216542796E+03  0.25500000920E-02 0. -1.
    10030    2    1    2    0    0  0.00000000000E+00  0.00000000000E+00 -0.49828680898E+03  0.86604404695E+03  0.70833787647E+03 0.  0.
        3    1    3    3  502    0  0.13266970429E+03  0.11147323272E+03 -0.62679569825E+03  0.65030791907E+03  0.10100000352E+00 0. -1.
       -3    1    3    3    0  502 -0.13266970429E+03 -0.11147323272E+03  0.12850888927E+03  0.21573612788E+03  0.10100000352E+00 0.  1.
</event>
<event>
 5   0  0.2684924E-02  0.6613620E+03  0.7818609E-02  0.9785690E-01
        1   -1    0    0  501    0  0.00000000000E+00  0.00000000000E+00  0.12747076193E+04  0.12747076193E+04  0.50400001928E-02 0.  1.
       -1   -1    0    0    0  501  0.00000000000E+00  0.00000000000E+00 -0.85784321042E+02  0.85784321190E+02  0.50400001928E-02 0. -1.
    10030    2    1    2    0    0  0.00000000000E+00  0.00000000000E+00  0.11889232982E+04  0.13604919405E+04  0.66136201207E+03 0.  0.
        4    1    3    3  502    0 -0.30572613899E+03 -0.54946571943E+02  0.36117530420E+03  0.47637885249E+03  0.12699999809E+01 0. -1.
       -4    1    3    3    0  502  0.30572613899E+03  0.54946571943E+02  0.82774799401E+03  0.88411308797E+03  0.12699999809E+01 0.  1.
</event>
<event>
 5   0  0.2684924E-02  0.7005127E+03  0.7818609E-02  0.9716356E-01
       -1   -1    0    0    0  501  0.00000000000E+00  0.00000000000E+00  0.64948597922E+03  0.64948597924E+03  0.50400001928E-02 0. -1.
        1   -1    0    0  501    0  0.00000000000E+00  0.00000000000E+00 -0.18888710019E+03  0.18888710025E+03  0.50400001928E-02 0.  1.
    10030    2    1    2    0    0  0.00000000000E+00  0.00000000000E+00  0.46059887903E+03  0.83837307950E+03  0.70051273583E+03 0.  0.
        4    1    3    3  502    0 -0.18117304151E+03  0.15509442207E+02  0.58856782389E+03  0.61601778382E+03  0.12699999809E+01 0. -1.
       -4    1    3    3    0  502  0.18117304151E+03 -0.15509442207E+02 -0.12796894485E+03  0.22235529567E+03  0.12699999809E+01 0.  1.
</event>
<event>
 5   0  0.4526837E-02  0.6703086E+03  0.7818609E-02  0.9769401E-01
        2   -1    0    0  501    0  0.00000000000E+00  0.00000000000E+00  0.13730434459E+04  0.13730434459E+04  0.25500000920E-02 0.  1.
       -2   -1    0    0    0  501  0.00000000000E+00  0.00000000000E+00 -0.81809784352E+02  0.81809784392E+02  0.25500000920E-02 0. -1.
    10030    2    1    2    0    0  0.00000000000E+00  0.00000000000E+00  0.12912336615E+04  0.14548532303E+04  0.67030855058E+03 0.  0.
        1    1    3    3  502    0  0.88141158578E+02  0.17209034295E+03  0.12397914925E+04  0.12547776277E+04  0.50400001928E-02 0.  1.
       -1    1    3    3    0  502 -0.88141158578E+02 -0.17209034295E+03  0.51442168998E+02  0.20007560259E+03  0.50400001928E-02 0. -1.
</event>
<event>
 5   0  0.4365492E-02  0.6964352E+03  0.7818609E-02  0.9723348E-01
       -2   -1    0    0    0  501  0.00000000000E+00  0.00000000000E+00  0.89947096895E+02  0.89947096931E+02  0.25500000920E-02 0.  1.
        2   -1    0    0  501    0  0.00000000000E+00  0.00000000000E+00 -0.13480757528E+04  0.13480757528E+04  0.25500000920E-02 0. -1.
    10030    2    1    2    0    0  0.00000000000E+00  0.00000000000E+00 -0.12581286559E+04  0.14380228497E+04  0.69643520986E+03 0.  0.
        4    1    3    3  502    0 -0.12659591623E+03 -0.16838432194E+03 -0.12015637299E+04  0.12198921329E+04  0.12699999809E+01 0. -1.
       -4    1    3    3    0  502  0.12659591623E+03  0.16838432194E+03 -0.56564925972E+02  0.21813071685E+03  0.12699999809E+01 0.  1.
</event>
<event>
 5   0  0.2777999E-02  0.7147416E+03  0.7818609E-02  0.9692349E-01
       -1   -1    0    0    0  501  0.00000000000E+00  0.00000000000E+00  0.86929307926E+02  0.86929308072E+02  0.50400001928E-02 0.  1.
        1   -1    0    0  501    0  0.00000000000E+00  0.00000000000E+00 -0.14691695057E+04  0.14691695057E+04  0.50400001928E-02 0. -1.
    10030    2    1    2    0    0  0.00000000000E+00  0.00000000000E+00 -0.13822401978E+04  0.15560988138E+04  0.71474159939E+03 0.  0.
        5    1    3    3  502    0 -0.34938281222E+03 -0.47085311031E+02 -0.81818844212E+03  0.89092075562E+03  0.46999998093E+01 0. -1.
       -5    1    3    3    0  502  0.34938281222E+03  0.47085311031E+02 -0.56405175564E+03  0.66517805814E+03  0.46999998093E+01 0.  1.
</event>
<event>
 5   0  0.4526837E-02  0.7025309E+03  0.7818609E-02  0.9712914E-01
        2   -1    0    0  501    0  0.00000000000E+00  0.00000000000E+00  0.23192188017E+03  0.23192188018E+03  0.25500000920E-02 0. -1.
       -2   -1    0    0    0  501  0.00000000000E+00  0.00000000000E+00 -0.53202142961E+03  0.53202142962E+03  0.25500000920E-02 0.  1.
    10030    2    1    2    0    0  0.00000000000E+00  0.00000000000E+00 -0.30009954945E+03  0.76394330980E+03  0.70253088260E+03 0.  0.
        1    1    3    3  502    0  0.26880454005E+03  0.17314869384E+03 -0.30819707160E+03  0.44409659523E+03  0.50400001928E-02 0.  1.
       -1    1    3    3    0  502 -0.26880454005E+03 -0.17314869384E+03  0.80975221561E+01  0.31984671457E+03  0.50400001928E-02 0. -1.
</event>
<event>
 5   0  0.4299912E-02  0.6965164E+03  0.7818609E-02  0.9723208E-01
       -2   -1    0    0    0  501  0.00000000000E+00  0.00000000000E+00  0.63693322452E+02  0.63693322503E+02  0.25500000920E-02 0. -1.
        2   -1    0    0  501    0  0.00000000000E+00  0.00000000000E+00 -0.19041832585E+04  0.19041832585E+04  0.25500000920E-02 0.  1.
    10030    2    1    2    0    0  0.00000000000E+00  0.00000000000E+00 -0.18404899360E+04  0.19678765810E+04  0.69651635542E+03 0.  0.
        3    1    3    3  502    0 -0.13562097068E+03  0.75870196336E+01 -0.14234778624E+02  0.13657690024E+03  0.10100000352E+00 0. -1.
       -3    1    3    3    0  502  0.13562097068E+03 -0.75870196336E+01 -0.18262551574E+04  0.18312996808E+04  0.10100000352E+00 0.  1.
</event>
<event>
 5   0  0.2751729E-02  0.7065052E+03  0.7818609E-02  0.9706172E-01
       -1   -1    0    0    0  501  0.00000000000E+00  0.00000000000E+00  0.20333063728E+03  0.20333063734E+03  0.50400001928E-02 0. -1.
        1   -1    0    0  501    0  0.00000000000E+00  0.00000000000E+00 -0.61371662775E+03  0.61371662777E+03  0.50400001928E-02 0.  1.
    10030    2    1    2    0    0  0.00000000000E+00  0.00000000000E+00 -0.41038599048E+03  0.81704726511E+03  0.70650518204E+03 0.  0.
        1    1    3    3  502    0 -0.27018800500E+03  0.14418846817E+03 -0.40879464693E+03  0.51078854312E+03  0.50400001928E-02 0.  1.
       -1    1    3    3    0  502  0.27018800500E+03 -0.14418846817E+03 -0.15913435492E+01  0.30625872199E+03  0.50400001928E-02 0. -1.
</event>
<event>
 5   0  0.2684924E-02  0.7026222E+03  0.7818609E-02  0.9712758E-01
        1   -1    0    0  501    0  0.00000000000E+00  0.00000000000E+00  0.24891980657E+03  0.24891980662E+03  0.50400001928E-02 0.  1.
       -1   -1    0    0    0  501  0.00000000000E+00  0.00000000000E+00 -0.49582032193E+03  0.49582032195E+03  0.50400001928E-02 0. -1.
    10030    2    1    2    0    0  0.00000000000E+00  0.00000000000E+00 -0.24690051536E+03  0.74474012858E+03  0.70262222754E+03 0.  0.
        4    1    3    3  502    0 -0.25699822863E+01 -0.10321146821E+03 -0.47937473046E+03  0.49036818522E+03  0.12699999809E+01 0. -1.
       -4    1    3    3    0  502  0.25699822863E+01  0.10321146821E+03  0.23247421510E+03  0.25437194335E+03  0.12699999809E+01 0.  1.
</event>
<event>
 5   0  0.2751729E-02  0.6696103E+03  0.7818609E-02  0.9770662E-01
       -1   -1    0    0    0  501  0.00000000000E+00  0.00000000000E+00  0.19260896953E+03  0.19260896960E+03  0.50400001928E-02 0. -1.
        1   -1    0    0  501    0  0.00000000000E+00  0.00000000000E+00 -0.58197959424E+03  0.58197959426E+03  0.50400001928E-02 0.  1.
    10030    2    1    2    0    0  0.00000000000E+00  0.00000000000E+00 -0.38937062471E+03  0.77458856386E+03  0.66961030449E+03 0.  0.
        1    1    3    3  502    0 -0.32190924275E+03 -0.54377427402E+02 -0.28056778359E+03  0.43046573196E+03  0.50400001928E-02 0.  1.
       -1    1    3    3    0  502  0.32190924275E+03  0.54377427402E+02 -0.10880284112E+03  0.34412283190E+03  0.50400001928E-02 0. -1.
</event>
<event>
 5   0  0.2777999E-02  0.7015760E+03  0.7818609E-02  0.9714541E-01
       -1   -1    0    0    0  501  0.00000000000E+00  0.00000000000E+00  0.16805602100E+03  0.16805602108E+03  0.50400001928E-02 0. -1.
        1   -1    0    0  501    0  0.00000000000E+00  0.00000000000E+00 -0.73220956348E+03  0.73220956349E+03  0.50400001928E-02 0.  1.
    10030    2    1    2    0    0  0.00000000000E+00  0.00000000000E+00 -0.56415354247E+03  0.90026558457E+03  0.70157601390E+03 0.  0.
        5    1    3    3  502    0  0.16083134744E+03  0.65445436956E+02  0.10899614486E+03  0.20506603114E+03  0.46999998093E+01 0. -1.
       -5    1    3    3    0  502 -0.16083134744E+03 -0.65445436956E+02 -0.67314968733E+03  0.69519955343E+03  0.46999998093E+01 0.  1.
</event>
<event>
 5   0  0.1784625E-02  0.6823753E+03  0.7818609E-02  0.9747857E-01
       -3   -1    0    0    0  501  0.00000000000E+00  0.00000000000E+00  0.30748589458E+03  0.30748591116E+03  0.10100000352E+00 0. -1.
        3   -1    0    0  501    0  0.00000000000E+00  0.00000000000E+00 -0.37858323630E+03  0.37858324977E+03  0.10100000352E+00 0.  1.
    10030    2    1    2    0    0  0.00000000000E+00  0.00000000000E+00 -0.71097341723E+02  0.68606916093E+03  0.68237530845E+03 0.  0.
        5    1    3    3  502    0  0.16242767765E+02 -0.15159927363E+03  0.27129309875E+03  0.31123657031E+03  0.46999998093E+01 0. -1.
       -5    1    3    3    0  502 -0.16242767765E+02  0.15159927363E+03 -0.34239044047E+03  0.37483259063E+03  0.46999998093E+01 0.  1.
</event>
<event>
 5   0  0.1784625E-02  0.7156099E+03  0.7818609E-02  0.9690903E-01
        3   -1    0    0  501    0  0.00000000000E+00  0.00000000000E+00  0.25810764571E+03  0.25810766547E+03  0.10100000352E+00 0.  1.
       -3   -1    0    0    0  501  0.00000000000E+00  0.00000000000E+00 -0.49601157044E+03  0.49601158072E+03  0.10100000352E+00 0. -1.
    10030    2    1    2    0    0  0.00000000000E+00  0.00000000000E+00 -0.23790392473E+03  0.75411924620E+03  0.71560992174E+03 0.  0.
        4    1    3    3  502    0  0.25484041281E+03  0.73954248078E+02  0.13398498391E+03  0.29726495862E+03  0.12699999809E+01 0.  1.
       -4    1    3    3    0  502 -0.25484041281E+03 -0.73954248078E+02 -0.37188890864E+03  0.45685428758E+03  0.12699999809E+01 0. -1.
</event>
<event>
 5   0  0.2758681E-02  0.7035841E+03  0.7818609E-02  0.9711122E-01
       -1   -1    0    0    0  501  0.00000000000E+00  0.00000000000E+00  0.14619778487E+03  0.14619778496E+03  0.50400001928E-02 0. -1.
        1   -1    0    0  501    0  0.00000000000E+00  0.00000000000E+00 -0.84650834584E+03  0.84650834585E+03  0.50400001928E-02 0.  1.
    10030    2    1    2    0    0  0.00000000000E+00  0.00000000000E+00 -0.70031056097E+03  0.99270613081E+03  0.70358409614E+03 0.  0.
        3    1    3    3  502    0 -0.28561901306E+02 -0.23846451949E+03 -0.71283919087E+03  0.75221062974E+03  0.10100000352E+00 0.  1.
       -3    1    3    3    0  502  0.28561901306E+02  0.23846451949E+03  0.12528629900E+02  0.24049550106E+03  0.10100000352E+00 0. -1.
</event>
<event>
 5   0  0.4365492E-02  0.6902055E+03  0.7818609E-02  0.9734130E-01
        2   -1    0    0  501    0  0.00000000000E+00  0.00000000000E+00  0.16456583719E+04  0.16456583719E+04  0.25500000920E-02 0.  1.
       -2   -1    0    0    0  501  0.00000000000E+00  0.00000000000E+00 -0.72369766825E+02  0.72369766870E+02  0.25500000920E-02 0. -1.
    10030    2    1    2    0    0  0.00000000000E+00  0.00000000000E+00  0.15732886051E+04  0.17180281388E+04  0.69020551342E+03 0.  0.
        4    1    3    3  502    0 -0.18019814550E+03  0.27578968083E+03  0.53081806761E+03  0.62474054894E+03  0.12699999809E+01 0. -1.
       -4    1    3    3    0  502  0.18019814550E+03 -0.27578968083E+03  0.10424705375E+04  0.10932875899E+04  0.12699999809E+01 0.  1.
</event>
<event>
 5   0  0.4526837E-02  0.6942127E+03  0.7818609E-02  0.9727181E-01
        2   -1    0    0  501    0  0.00000000000E+00  0.00000000000E+00  0.60135535278E+03  0.60135535279E+03  0.25500000920E-02 0.  1.
       -2   -1    0    0    0  501  0.00000000000E+00  0.00000000000E+00 -0.20035212388E+03  0.20035212390E+03  0.25500000920E-02 0. -1.
    10030    2    1    2    0    0  0.00000000000E+00  0.00000000000E+00  0.40100322890E+03  0.80170747669E+03  0.69421271134E+03 0.  0.
        1    1    3    3  502    0  0.33240300480E+03 -0.14404265396E+02  0.86273683726E+02  0.34371847345E+03  0.50400001928E-02 0. -1.
       -1    1    3    3    0  502 -0.33240300480E+03  0.14404265396E+02  0.31472954517E+03  0.45798900324E+03  0.50400001928E-02 0.  1.
</event>
<event>
 5   0  0.2750139E-02  0.6960713E+03  0.7818609E-02  0.9723974E-01
        1   -1    0    0  501    0  0.00000000000E+00  0.00000000000E+00  0.12730667935E+03  0.12730667945E+03  0.50400001928E-02 0.  1.
       -1   -1    0    0    0  501  0.00000000000E+00  0.00000000000E+00 -0.95147263266E+03  0.95147263267E+03  0.50400001928E-02 0. -1.
    10030    2    1    2    0    0  0.00000000000E+00  0.00000000000E+00 -0.82416595330E+03  0.10787793121E+04  0.69607132226E+03 0.  0.
        2    1    3    3  502    0  0.60129405502E+01  0.24139834946E+03 -0.23641035811E+02  0.24262773369E+03  0.25500000920E-02 0.  1.
       -2    1    3    3    0  502 -0.60129405502E+01 -0.24139834946E+03 -0.80052491749E+03  0.83615157843E+03  0.25500000920E-02 0. -1.
</event>
<event>
 5   0  0.4420645E-02  0.7092210E+03  0.7818609E-02  0.9701592E-01
       -2   -1    0    0    0  501  0.00000000000E+00  0.00000000000E+00  0.25975280318E+03  0.25975280319E+03  0.25500000920E-02 0. -1.
        2   -1    0    0  501    0  0.00000000000E+00  0.00000000000E+00 -0.48410873723E+03  0.48410873723E+03  0.25500000920E-02 0.  1.
    10030    2    1    2    0    0  0.00000000000E+00  0.00000000000E+00 -0.22435593405E+03  0.74386154042E+03  0.70922098543E+03 0.  0.
        5    1    3    3  502    0 -0.21008617379E+03  0.19888336551E+02 -0.41104261242E+03  0.46207127759E+03  0.46999998093E+01 0.  1.
       -5    1    3    3    0  502  0.21008617379E+03 -0.19888336551E+02  0.18668667837E+03  0.28179026283E+03  0.46999998093E+01 0. -1.
</event>
<event>
 5   0  0.1784625E-02  0.7076091E+03  0.7818609E-02  0.9704307E-01
       -3   -1    0    0    0  501  0.00000000000E+00  0.00000000000E+00  0.45880630529E+03  0.45880631640E+03  0.10100000352E+00 0. -1.
        3   -1    0    0  501    0  0.00000000000E+00  0.00000000000E+00 -0.27283331313E+03  0.27283333182E+03  0.10100000352E+00 0.  1.
    10030    2    1    2    0    0  0.00000000000E+00  0.00000000000E+00  0.18597299216E+03  0.73163964823E+03  0.70760908774E+03 0.  0.
        5    1    3    3  502    0  0.13211299300E+03 -0.32566104350E+03  0.51030037746E+02  0.35515505476E+03  0.46999998093E+01 0. -1.
       -5    1    3    3    0  502 -0.13211299300E+03  0.32566104350E+03  0.13494295441E+03  0.37648459346E+03  0.46999998093E+01 0.  1.
</event>
<event>
 5   0  0.1784625E-02  0.6978943E+03  0.7818609E-02  0.9720840E-01
       -3   -1    0    0    0  501  0.00000000000E+00  0.00000000000E+00  0.43977094860E+03  0.43977096020E+03  0.10100000352E+00 0. -1.
        3   -1    0    0  501    0  0.00000000000E+00  0.00000000000E+00 -0.27688076576E+03  0.27688078418E+03  0.10100000352E+00 0.  1.
    10030    2    1    2    0    0  0.00000000000E+00  0.00000000000E+00  0.16289018285E+03  0.71665174438E+03  0.69789434090E+03 0.  0.
        5    1    3    3  502    0 -0.17038694743E+03 -0.14657448473E+03  0.35550058635E+03  0.42061686643E+03  0.46999998093E+01 0. -1.
       -5    1    3    3    0  502  0.17038694743E+03  0.14657448473E+03 -0.19261040350E+03  0.29603487795E+03  0.46999998093E+01 0.  1.
</event>
<event>
 5   0  0.2750139E-02  0.7333530E+03  0.7818609E-02  0.9661835E-01
       -1   -1    0    0    0  501  0.00000000000E+00  0.00000000000E+00  0.60011666117E+03  0.60011666119E+03  0.50400001928E-02 0. -1.
        1   -1    0    0  501    0  0.00000000000E+00  0.00000000000E+00 -0.22404255911E+03  0.22404255917E+03  0.50400001928E-02 0.  1.
    10030    2    1    2    0    0  0.00000000000E+00  0.00000000000E+00  0.37607410206E+03  0.82415922036E+03  0.73335304612E+03 0.  0.
        2    1    3    3  502    0  0.18790909900E+02 -0.16721967394E+03  0.55416231386E+03  0.57914712099E+03  0.25500000920E-02 0. -1.
       -2    1    3    3    0  502 -0.18790909900E+02  0.16721967394E+03 -0.17808821180E+03  0.24501209936E+03  0.25500000920E-02 0.  1.
</event>
<event>
 5   0  0.4503289E-02  0.6688609E+03  0.7818609E-02  0.9772018E-01
       -2   -1    0    0    0  501  0.00000000000E+00  0.00000000000E+00  0.10631281849E+04  0.10631281849E+04  0.25500000920E-02 0.  1.
        2   -1    0    0  501    0  0.00000000000E+00  0.00000000000E+00 -0.10520248475E+03  0.10520248478E+03  0.25500000920E-02 0. -1.
    10030    2    1    2    0    0  0.00000000000E+00  0.00000000000E+00  0.95792570015E+03  0.11683306697E+04  0.66886090238E+03 0.  0.
        2    1    3    3  502    0 -0.26411255851E+03 -0.50620436683E+02  0.82623551585E+03  0.86889757730E+03  0.25500000920E-02 0.  1.
       -2    1    3    3    0  502  0.26411255851E+03  0.50620436683E+02  0.13169018430E+03  0.29943309239E+03  0.25500000920E-02 0. -1.
</event>
<event>
 5   0  0.4299912E-02  0.7504558E+03  0.7818609E-02  0.9634636E-01
        2   -1    0    0  501    0  0.00000000000E+00  0.00000000000E+00  0.15018342424E+04  0.15018342424E+04  0.25500000920E-02 0.  1.
       -2   -1    0    0    0  501  0.00000000000E+00  0.00000000000E+00 -0.93749344427E+02  0.93749344462E+02  0.25500000920E-02 0. -1.
    10030    2    1    2    0    0  0.00000000000E+00  0.00000000000E+00  0.14080848980E+04  0.15955835868E+04  0.75045579668E+03 0.  0.
        3    1    3    3  502    0  0.20990924908E+03 -0.43549187664E+02  0.13588061364E+04  0.13756135181E+04  0.10100000352E+00 0.  1.
       -3    1    3    3    0  502 -0.20990924908E+03  0.43549187664E+02  0.49278761504E+02  0.21997006872E+03  0.10100000352E+00 0. -1.
</event>
<event>
 5   0  0.1784625E-02  0.6926919E+03  0.7818609E-02  0.9729812E-01
        3   -1    0    0  501    0  0.00000000000E+00  0.00000000000E+00  0.45492133175E+03  0.45492134296E+03  0.10100000352E+00 0.  1.
       -3   -1    0    0    0  501  0.00000000000E+00  0.00000000000E+00 -0.26368409079E+03  0.26368411013E+03  0.10100000352E+00 0. -1.
    10030    2    1    2    0    0  0.00000000000E+00  0.00000000000E+00  0.19123724095E+03  0.71860545309E+03  0.69269193361E+03 0.  0.
        2    1    3    3  502    0 -0.16090635653E+03  0.17970412594E+02 -0.22200798806E+03  0.27477506814E+03  0.25500000920E-02 0. -1.
       -2    1    3    3    0  502  0.16090635653E+03 -0.17970412594E+02  0.41324522901E+03  0.44383038495E+03  0.25500000920E-02 0.  1.
</event>
<event>
 5   0  0.4526837E-02  0.7259756E+03  0.7818609E-02  0.9673813E-01
        2   -1    0    0  501    0  0.00000000000E+00  0.00000000000E+00  0.91007465227E+03  0.91007465228E+03  0.25500000920E-02 0. -1.
       -2   -1    0    0    0  501  0.00000000000E+00  0.00000000000E+00 -0.14477950705E+03  0.14477950707E+03  0.25500000920E-02 0.  1.
    10030    2    1    2    0    0  0.00000000000E+00  0.00000000000E+00  0.76529514522E+03  0.10548541593E+04  0.72597564573E+03 0.  0.
        1    1    3    3  502    0  0.28018901131E+03 -0.22308024111E+03  0.46847991045E+03  0.58969831487E+03  0.50400001928E-02 0. -1.
       -1    1    3    3    0  502 -0.28018901131E+03  0.22308024111E+03  0.29681523477E+03  0.46515584448E+03  0.50400001928E-02 0.  1.
</event>
<event>
 5   0  0.4365492E-02  0.7075280E+03  0.7818609E-02  0.9704444E-01
        2   -1    0    0  501    0  0.00000000000E+00  0.00000000000E+00  0.47185660755E+03  0.47185660756E+03  0.25500000920E-02 0.  1.
       -2   -1    0    0    0  501  0.00000000000E+00  0.00000000000E+00 -0.26522670507E+03  0.26522670508E+03  0.25500000920E-02 0. -1.
    10030    2    1    2    0    0  0.00000000000E+00  0.00000000000E+00  0.20662990249E+03  0.73708331264E+03  0.70752801582E+03 0.  0.
        4    1    3    3  502    0 -0.30508830728E+03  0.55203321390E+02  0.28078689727E+03  0.41829317053E+03  0.12699999809E+01 0.  1.
       -4    1    3    3    0  502  0.30508830728E+03 -0.55203321390E+02 -0.74156994776E+02  0.31879014211E+03  0.12699999809E+01 0. -1.
</event>
<event>
 5   0  0.2777999E-02  0.7056477E+03  0.7818609E-02  0.9707622E-01
       -1   -1    0    0    0  501  0.00000000000E+00  0.00000000000E+00  0.17764504939E+03  0.17764504946E+03  0.50400001928E-02 0.  1.
        1   -1    0    0  501    0  0.00000000000E+00  0.00000000000E+00 -0.70074948426E+03  0.70074948428E+03  0.50400001928E-02 0. -1.
    10030    2    1    2    0    0  0.00000000000E+00  0.00000000000E+00 -0.52310443487E+03  0.87839453374E+03  0.70564772169E+03 0.  0.
        5    1    3    3  502    0  0.29371470573E+03  0.14636338029E+03 -0.10034133398E+03  0.34319242526E+03  0.46999998093E+01 0.  1.
       -5    1    3    3    0  502 -0.29371470573E+03 -0.14636338029E+03 -0.42276310089E+03  0.53520210848E+03  0.46999998093E+01 0. -1.
</event>
<event>
 5   0  0.2750139E-02  0.7387638E+03  0.7818609E-02  0.9653145E-01
       -1   -1    0    0    0  501  0.00000000000E+00  0.00000000000E+00  0.41436248991E+03  0.41436248994E+03  0.50400001928E-02 0.  1.
        1   -1    0    0  501    0  0.00000000000E+00  0.00000000000E+00 -0.32928413767E+03  0.32928413771E+03  0.50400001928E-02 0. -1.
    10030    2    1    2    0    0  0.00000000000E+00  0.00000000000E+00  0.85078352241E+02  0.74364662765E+03  0.73876381936E+03 0.  0.
        2    1    3    3  502    0 -0.16677470923E+03  0.29380369630E+02 -0.28790784956E+03  0.33401787318E+03  0.25500000920E-02 0. -1.
       -2    1    3    3    0  502  0.16677470923E+03 -0.29380369630E+02  0.37298620180E+03  0.40962875448E+03  0.25500000920E-02 0.  1.
</event>
<event>
 5   0  0.2777999E-02  0.7035370E+03  0.7818609E-02  0.9711203E-01
        1   -1    0    0  501    0  0.00000000000E+00  0.00000000000E+00  0.19070977124E+04  0.19070977124E+04  0.50400001928E-02 0. -1.
       -1   -1    0    0    0  501  0.00000000000E+00  0.00000000000E+00 -0.64884495717E+02  0.64884495913E+02  0.50400001928E-02 0.  1.
    10030    2    1    2    0    0  0.00000000000E+00  0.00000000000E+00  0.18422132167E+04  0.19719822083E+04  0.70353698852E+03 0.  0.
        5    1    3    3  502    0 -0.30703542513E+03  0.21208898092E+02  0.13984195163E+04  0.14318937821E+04  0.46999998093E+01 0.  1.
       -5    1    3    3    0  502  0.30703542513E+03 -0.21208898092E+02  0.44379370038E+03  0.54008842622E+03  0.46999998093E+01 0. -1.
</event>
<event>
 5   0  0.4299912E-02  0.6893769E+03  0.7818609E-02  0.9735574E-01
       -2   -1    0    0    0  501  0.00000000000E+00  0.00000000000E+00  0.18320711430E+03  0.18320711432E+03  0.25500000920E-02 0.  1.
        2   -1    0    0  501    0  0.00000000000E+00  0.00000000000E+00 -0.64850165080E+03  0.64850165080E+03  0.25500000920E-02 0. -1.
    10030    2    1    2    0    0  0.00000000000E+00  0.00000000000E+00 -0.46529453650E+03  0.83170876512E+03  0.68937686666E+03 0.  0.
        3    1    3    3  502    0  0.15567675482E+03  0.29547854293E+03 -0.12979813047E+03  0.35831604234E+03  0.10100000352E+00 0.  1.
       -3    1    3    3    0  502 -0.15567675482E+03 -0.29547854293E+03 -0.33549640603E+03  0.47339272278E+03  0.10100000352E+00 0. -1.
</event>
<event>
 5   0  0.4503289E-02  0.6978211E+03  0.7818609E-02  0.9720966E-01
       -2   -1    0    0    0  501  0.00000000000E+00  0.00000000000E+00  0.18239671233E+03  0.18239671235E+03  0.25500000920E-02 0. -1.
        2   -1    0    0  501    0  0.00000000000E+00  0.00000000000E+00 -0.66743837153E+03  0.66743837153E+03  0.25500000920E-02 0.  1.
    10030    2    1    2    0    0  0.00000000000E+00  0.00000000000E+00 -0.48504165919E+03  0.84983508388E+03  0.69782107925E+03 0.  0.
        2    1    3    3  502    0 -0.26072809388E+03 -0.57097145095E+01 -0.52480476266E+03  0.58603052710E+03  0.25500000920E-02 0.  1.
       -2    1    3    3    0  502  0.26072809388E+03  0.57097145095E+01  0.39763103462E+02  0.26380455678E+03  0.25500000920E-02 0. -1.
</event>
<event>
 5   0  0.4420645E-02  0.6975441E+03  0.7818609E-02  0.9721441E-01
       -2   -1    0    0    0  501  0.00000000000E+00  0.00000000000E+00  0.95338686578E+02  0.95338686612E+02  0.25500000920E-02 0.  1.
        2   -1    0    0  501    0  0.00000000000E+00  0.00000000000E+00 -0.12758928892E+04  0.12758928892E+04  0.25500000920E-02 0. -1.
    10030    2    1    2    0    0  0.00000000000E+00  0.00000000000E+00 -0.11805542026E+04  0.13712315758E+04  0.69754412705E+03 0.  0.
        5    1    3    3  502    0  0.34111264557E+03 -0.48362211329E+02 -0.69655980106E+03  0.77711928743E+03  0.46999998093E+01 0. -1.
       -5    1    3    3    0  502 -0.34111264557E+03  0.48362211329E+02 -0.48399440154E+03  0.59411228836E+03  0.46999998093E+01 0.  1.
</event>
<event>
 5   0  0.2684924E-02  0.6971621E+03  0.7818609E-02  0.9722098E-01
       -1   -1    0    0    0  501  0.00000000000E+00  0.00000000000E+00  0.14351745470E+03  0.14351745479E+03  0.50400001928E-02 0.  1.
        1   -1    0    0  501    0  0.00000000000E+00  0.00000000000E+00 -0.84664778750E+03  0.84664778752E+03  0.50400001928E-02 0. -1.
    10030    2    1    2    0    0  0.00000000000E+00  0.00000000000E+00 -0.70313033280E+03  0.99016524231E+03  0.69716206306E+03 0.  0.
        4    1    3    3  502    0  0.14332498886E+03  0.29183915469E+03 -0.17306712977E+03  0.36832864259E+03  0.12699999809E+01 0.  1.
       -4    1    3    3    0  502 -0.14332498886E+03 -0.29183915469E+03 -0.53006320303E+03  0.62183659972E+03  0.12699999809E+01 0. -1.
</event>
<event>
 5   0  0.2751729E-02  0.6699235E+03  0.7818609E-02  0.9770096E-01
        1   -1    0    0  501    0  0.00000000000E+00  0.00000000000E+00  0.13869492578E+04  0.13869492578E+04  0.50400001928E-02 0. -1.
       -1   -1    0    0    0  501  0.00000000000E+00  0.00000000000E+00 -0.80896523732E+02  0.80896523889E+02  0.50400001928E-02 0.  1.
    10030    2    1    2    0    0  0.00000000000E+00  0.00000000000E+00  0.13060527341E+04  0.14678457817E+04  0.66992349913E+03 0.  0.
        1    1    3    3  502    0  0.24294465335E+03 -0.66480284514E+02  0.11368382814E+04  0.11644067205E+04  0.50400001928E-02 0. -1.
       -1    1    3    3    0  502 -0.24294465335E+03  0.66480284514E+02  0.16921445274E+03  0.30343906120E+03  0.50400001928E-02 0.  1.
</event>
<event>
 5   0  0.4503289E-02  0.7061654E+03  0.7818609E-02  0.9706746E-01
        2   -1    0    0  501    0  0.00000000000E+00  0.00000000000E+00  0.46594399107E+03  0.46594399108E+03  0.25500000920E-02 0.  1.
       -2   -1    0    0    0  501  0.00000000000E+00  0.00000000000E+00 -0.26755877821E+03  0.26755877822E+03  0.25500000920E-02 0. -1.
    10030    2    1    2    0    0  0.00000000000E+00  0.00000000000E+00  0.19838521286E+03  0.73350276930E+03  0.70616543380E+03 0.  0.
        2    1    3    3  502    0  0.12065031087E+03 -0.67720018207E+02  0.43661413665E+03  0.45801135652E+03  0.25500000920E-02 0.  1.
       -2    1    3    3    0  502 -0.12065031087E+03  0.67720018207E+02 -0.23822892378E+03  0.27549141278E+03  0.25500000920E-02 0. -1.
</event>
<event>
 5   0  0.2777999E-02  0.7017566E+03  0.7818609E-02  0.9714233E-01
        1   -1    0    0  501    0  0.00000000000E+00  0.00000000000E+00  0.10408346110E+04  0.10408346110E+04  0.50400001928E-02 0. -1.
       -1   -1    0    0    0  501  0.00000000000E+00  0.00000000000E+00 -0.11828543726E+03  0.11828543736E+03  0.50400001928E-02 0.  1.
    10030    2    1    2    0    0  0.00000000000E+00  0.00000000000E+00  0.92254917372E+03  0.11591200483E+04  0.70175658783E+03 0.  0.
        5    1    3    3  502    0  0.16535761582E+03  0.73379931568E+02 -0.35253481519E+02  0.18437096687E+03  0.46999998093E+01 0.  1.
       -5    1    3    3    0  502 -0.16535761582E+03 -0.73379931568E+02  0.95780265523E+03  0.97474908148E+03  0.46999998093E+01 0. -1.
</event>
<event>
 5   0  0.2684924E-02  0.7218396E+03  0.7818609E-02  0.9680596E-01
       -1   -1    0    0    0  501  0.00000000000E+00  0.00000000000E+00  0.13404746501E+03  0.13404746510E+03  0.50400001928E-02 0. -1.
        1   -1    0    0  501    0  0.00000000000E+00  0.00000000000E+00 -0.97176839487E+03  0.97176839488E+03  0.50400001928E-02 0.  1.
    10030    2    1    2    0    0  0.00000000000E+00  0.00000000000E+00 -0.83772092986E+03  0.11058158600E+04  0.72183956657E+03 0.  0.
        4    1    3    3  502    0 -0.18479218720E+03  0.47332509993E+02 -0.88822728166E+03  0.90848105965E+03  0.12699999809E+01 0.  1.
       -4    1    3    3    0  502  0.18479218720E+03 -0.47332509993E+02  0.50506351801E+02  0.19733480034E+03  0.12699999809E+01 0. -1.
</event>
<event>
 5   0  0.4365492E-02  0.7082307E+03  0.7818609E-02  0.9703259E-01
        2   -1    0    0  501    0  0.00000000000E+00  0.00000000000E+00  0.77512171977E+03  0.77512171977E+03  0.25500000920E-02 0. -1.
       -2   -1    0    0    0  501  0.00000000000E+00  0.00000000000E+00 -0.16177803962E+03  0.16177803964E+03  0.25500000920E-02 0.  1.
    10030    2    1    2    0    0  0.00000000000E+00  0.00000000000E+00  0.61334368015E+03  0.93689975941E+03  0.70823067514E+03 0.  0.
        4    1    3    3  502    0 -0.28691565035E+03 -0.13341998318E+03  0.96361636939E+02  0.33076979956E+03  0.12699999809E+01 0.  1.
       -4    1    3    3    0  502  0.28691565035E+03  0.13341998318E+03  0.51698204321E+03  0.60612995985E+03  0.12699999809E+01 0. -1.
</event>
<event>
 5   0  0.2777999E-02  0.7064348E+03  0.7818609E-02  0.9706291E-01
        1   -1    0    0  501    0  0.00000000000E+00  0.00000000000E+00  0.10710148261E+04  0.10710148262E+04  0.50400001928E-02 0.  1.
       -1   -1    0    0    0  501  0.00000000000E+00  0.00000000000E+00 -0.11649000895E+03  0.11649000906E+03  0.50400001928E-02 0. -1.
    10030    2    1    2    0    0  0.00000000000E+00  0.00000000000E+00  0.95452481719E+03  0.11875048352E+04  0.70643478612E+03 0.  0.
        5    1    3    3  502    0  0.19854012109E+03 -0.29021268546E+03  0.42153955334E+03  0.54896199095E+03  0.46999998093E+01 0.  1.
       -5    1    3    3    0  502 -0.19854012109E+03  0.29021268546E+03  0.53298526385E+03  0.63854284427E+03  0.46999998093E+01 0. -1.
</event>
<event>
 5   0  0.4299912E-02  0.6976199E+03  0.7818609E-02  0.9721311E-01
        2   -1    0    0  501    0  0.00000000000E+00  0.00000000000E+00  0.26322003858E+03  0.26322003859E+03  0.25500000920E-02 0.  1.
       -2   -1    0    0    0  501  0.00000000000E+00  0.00000000000E+00 -0.46223071772E+03  0.46223071773E+03  0.25500000920E-02 0. -1.
    10030    2    1    2    0    0  0.00000000000E+00  0.00000000000E+00 -0.19901067915E+03  0.72545075632E+03  0.69761991760E+03 0.  0.
        3    1    3    3  502    0  0.20032680608E+03 -0.24843755739E+03  0.46881035741E+02  0.32256765316E+03  0.10100000352E+00 0.  1.
       -3    1    3    3    0  502 -0.20032680608E+03  0.24843755739E+03 -0.24589171489E+03  0.40288310315E+03  0.10100000352E+00 0. -1.
</event>
<event>
 5   0  0.4526837E-02  0.6873814E+03  0.7818609E-02  0.9739058E-01
       -2   -1    0    0    0  501  0.00000000000E+00  0.00000000000E+00  0.47508130215E+03  0.47508130216E+03  0.25500000920E-02 0.  1.
        2   -1    0    0  501    0  0.00000000000E+00  0.00000000000E+00 -0.24863807367E+03  0.24863807368E+03  0.25500000920E-02 0. -1.
    10030    2    1    2    0    0  0.00000000000E+00  0.00000000000E+00  0.22644322848E+03  0.72371937584E+03  0.68738140740E+03 0.  0.
        1    1    3    3  502    0 -0.21647390554E+03  0.63194412265E+02  0.38629495611E+03  0.44730110515E+03  0.50400001928E-02 0.  1.
       -1    1    3    3    0  502  0.21647390554E+03 -0.63194412265E+02 -0.15985172763E+03  0.27641827069E+03  0.50400001928E-02 0. -1.
</event>
<event>
 5   0  0.2751729E-02  0.7024552E+03  0.7818609E-02  0.9713043E-01
        1   -1    0    0  501    0  0.00000000000E+00  0.00000000000E+00  0.18407888175E+03  0.18407888182E+03  0.50400001928E-02 0. -1.
       -1   -1    0    0    0  501  0.00000000000E+00  0.00000000000E+00 -0.67015192810E+03  0.67015192812E+03  0.50400001928E-02 0.  1.
    10030    2    1    2    0    0  0.00000000000E+00  0.00000000000E+00 -0.48607304635E+03  0.85423080994E+03  0.70245517313E+03 0.  0.
        1    1    3    3  502    0 -0.63777374272E+01 -0.66613191744E+02 -0.66232813471E+03  0.66570004574E+03  0.50400001928E-02 0.  1.
       -1    1    3    3    0  502  0.63777374272E+01  0.66613191744E+02  0.17625508836E+03  0.18853076419E+03  0.50400001928E-02 0. -1.
</event>
<event>
 5   0  0.1784625E-02  0.6806226E+03  0.7818609E-02  0.9750956E-01
        3   -1    0    0  501    0  0.00000000000E+00  0.00000000000E+00  0.23743630488E+03  0.23743632636E+03  0.10100000352E+00 0. -1.
       -3   -1    0    0    0  501  0.00000000000E+00  0.00000000000E+00 -0.48775937338E+03  0.48775938384E+03  0.10100000352E+00 0.  1.
    10030    2    1    2    0    0  0.00000000000E+00  0.00000000000E+00 -0.25032306850E+03  0.72519571020E+03  0.68062264102E+03 0.  0.
        4    1    3    3  502    0 -0.23859101656E+03  0.22866456925E+03 -0.38620346408E+02  0.33272556630E+03  0.12699999809E+01 0.  1.
       -4    1    3    3    0  502  0.23859101656E+03 -0.22866456925E+03 -0.21170272209E+03  0.39247014390E+03  0.12699999809E+01 0. -1.
</event>
<event>
 5   0  0.2750139E-02  0.6888587E+03  0.7818609E-02  0.9736477E-01
       -1   -1    0    0    0  501  0.00000000000E+00  0.00000000000E+00  0.18937628401E+03  0.18937628408E+03  0.50400001928E-02 0. -1.
        1   -1    0    0  501    0  0.00000000000E+00  0.00000000000E+00 -0.62643312956E+03  0.62643312958E+03  0.50400001928E-02 0.  1.
    10030    2    1    2    0    0  0.00000000000E+00  0.00000000000E+00 -0.43705684555E+03  0.81580941366E+03  0.68885870335E+03 0.  0.
        2    1    3    3  502    0 -0.23554105906E+02 -0.11199961100E+03 -0.60325521907E+03  0.61401593474E+03  0.25500000920E-02 0.  1.
       -2    1    3    3    0  502  0.23554105906E+02  0.11199961100E+03  0.16619837352E+03  0.20179347892E+03  0.25500000920E-02 0. -1.
</event>
<event>
 5   0  0.2684924E-02  0.6971491E+03  0.7818609E-02  0.9722120E-01
        1   -1    0    0  501    0  0.00000000000E+00  0.00000000000E+00  0.53478233483E+03  0.53478233486E+03  0.50400001928E-02 0. -1.
       -1   -1    0    0    0  501  0.00000000000E+00  0.00000000000E+00 -0.22720314436E+03  0.22720314441E+03  0.50400001928E-02 0.  1.
    10030    2    1    2    0    0  0.00000000000E+00  0.00000000000E+00  0.30757919048E+03  0.76198547927E+03  0.69714913197E+03 0.  0.
        4    1    3    3  502    0  0.29352833504E+03 -0.15356662128E+03  0.35255420115E+02  0.33314583622E+03  0.12699999809E+01 0.  1.
       -4    1    3    3    0  502 -0.29352833504E+03  0.15356662128E+03  0.27232377036E+03  0.42883964305E+03  0.12699999809E+01 0. -1.
</event>
<event>
 5   0  0.2684924E-02  0.6963920E+03  0.7818609E-02  0.9723422E-01
        1   -1    0    0  501    0  0.00000000000E+00  0.00000000000E+00  0.44599661769E+03  0.44599661772E+03  0.50400001928E-02 0. -1.
       -1   -1    0    0    0  501  0.00000000000E+00  0.00000000000E+00 -0.27184161885E+03  0.27184161890E+03  0.50400001928E-02 0.  1.
    10030    2    1    2    0    0  0.00000000000E+00  0.00000000000E+00  0.17415499883E+03  0.71783823662E+03  0.69639196602E+03 0.  0.
        4    1    3    3  502    0  0.18755257889E+03 -0.17862797863E+03  0.32695622629E+03  0.41711618454E+03  0.12699999809E+01 0. -1.
       -4    1    3    3    0  502 -0.18755257889E+03  0.17862797863E+03 -0.15280122745E+03  0.30072205208E+03  0.12699999809E+01 0.  1.
</event>
<event>
 5   0  0.2751729E-02  0.6335272E+03  0.7818609E-02  0.9838190E-01
        1   -1    0    0  501    0  0.00000000000E+00  0.00000000000E+00  0.86805381599E+03  0.86805381600E+03  0.50400001928E-02 0. -1.
       -1   -1    0    0    0  501  0.00000000000E+00  0.00000000000E+00 -0.11559097660E+03  0.11559097671E+03  0.50400001928E-02 0.  1.
    10030    2    1    2    0    0  0.00000000000E+00  0.00000000000E+00  0.75246283939E+03  0.98364479272E+03  0.63352723192E+03 0.  0.
        1    1    3    3  502    0 -0.88329009536E+02  0.11710716561E+03  0.81214432553E+03  0.82528450105E+03  0.50400001928E-02 0. -1.
       -1    1    3    3    0  502  0.88329009536E+02 -0.11710716561E+03 -0.59681486141E+02  0.15836029167E+03  0.50400001928E-02 0.  1.
</event>
<event>
 5   0  0.4420645E-02  0.6947744E+03  0.7818609E-02  0.9726211E-01
        2   -1    0    0  501    0  0.00000000000E+00  0.00000000000E+00  0.43353583463E+03  0.43353583464E+03  0.25500000920E-02 0.  1.
       -2   -1    0    0    0  501  0.00000000000E+00  0.00000000000E+00 -0.27835732394E+03  0.27835732395E+03  0.25500000920E-02 0. -1.
    10030    2    1    2    0    0  0.00000000000E+00  0.00000000000E+00  0.15517851069E+03  0.71189315859E+03  0.69477442315E+03 0.  0.
        5    1    3    3  502    0 -0.10840978954E+03  0.31892105385E+03  0.16448726647E+03  0.37488861264E+03  0.46999998093E+01 0.  1.
       -5    1    3    3    0  502  0.10840978954E+03 -0.31892105385E+03 -0.93087557808E+01  0.33700454595E+03  0.46999998093E+01 0. -1.
</event>
<event>
 5   0  0.4503289E-02  0.6941479E+03  0.7818609E-02  0.9727293E-01
       -2   -1    0    0    0  501  0.00000000000E+00  0.00000000000E+00  0.47769482614E+02  0.47769482682E+02  0.25500000920E-02 0. -1.
        2   -1    0    0  501    0  0.00000000000E+00  0.00000000000E+00 -0.25217007246E+04  0.25217007246E+04  0.25500000920E-02 0.  1.
    10030    2    1    2    0    0  0.00000000000E+00  0.00000000000E+00 -0.24739312420E+04  0.25694702073E+04  0.69414793527E+03 0.  0.
        2    1    3    3  502    0  0.34463709675E+02 -0.21785162238E+03 -0.22289249781E+04  0.22398110712E+04  0.25500000920E-02 0.  1.
       -2    1    3    3    0  502 -0.34463709675E+02  0.21785162238E+03 -0.24500626390E+03  0.32965913610E+03  0.25500000920E-02 0. -1.
</event>
<event>
 5   0  0.2750139E-02  0.6986134E+03  0.7818609E-02  0.9719606E-01
       -1   -1    0    0    0  501  0.00000000000E+00  0.00000000000E+00  0.24937520644E+03  0.24937520649E+03  0.50400001928E-02 0.  1.
        1   -1    0    0  501    0  0.00000000000E+00  0.00000000000E+00 -0.48928345770E+03  0.48928345772E+03  0.50400001928E-02 0. -1.
    10030    2    1    2    0    0  0.00000000000E+00  0.00000000000E+00 -0.23990825126E+03  0.73865866422E+03  0.69861337892E+03 0.  0.
        2    1    3    3  502    0 -0.18165995007E+03 -0.18964191980E+03  0.12357602422E+03  0.29023340430E+03  0.25500000920E-02 0. -1.
       -2    1    3    3    0  502  0.18165995007E+03  0.18964191980E+03 -0.36348427548E+03  0.44842525992E+03  0.25500000920E-02 0.  1.
</event>
<event>
 5   0  0.2684924E-02  0.7089336E+03  0.7818609E-02  0.9702075E-01
       -1   -1    0    0    0  501  0.00000000000E+00  0.00000000000E+00  0.20441547500E+03  0.20441547506E+03  0.50400001928E-02 0. -1.
        1   -1    0    0  501    0  0.00000000000E+00  0.00000000000E+00 -0.61466339027E+03  0.61466339029E+03  0.50400001928E-02 0.  1.
    10030    2    1    2    0    0  0.00000000000E+00  0.00000000000E+00 -0.41024791527E+03  0.81907886536E+03  0.70893359046E+03 0.  0.
        4    1    3    3  502    0  0.22074531557E+03 -0.25674102969E+03 -0.32630348307E+03  0.47023401263E+03  0.12699999809E+01 0.  1.
       -4    1    3    3    0  502 -0.22074531557E+03  0.25674102969E+03 -0.83944432200E+02  0.34884485272E+03  0.12699999809E+01 0. -1.
</event>
<event>
 5   0  0.2751729E-02  0.6857427E+03  0.7818609E-02  0.9741930E-01
       -1   -1    0    0    0  501  0.00000000000E+00  0.00000000000E+00  0.38033826037E+03  0.38033826041E+03  0.50400001928E-02 0.  1.
        1   -1    0    0  501    0  0.00000000000E+00  0.00000000000E+00 -0.30909524686E+03  0.30909524690E+03  0.50400001928E-02 0. -1.
    10030    2    1    2    0    0  0.00000000000E+00  0.00000000000E+00  0.71243013519E+02  0.68943350731E+03  0.68574265874E+03 0.  0.
        1    1    3    3  502    0  0.65249135106E+02  0.12919727858E+03  0.34811812535E+03  0.37700877397E+03  0.50400001928E-02 0.  1.
       -1    1    3    3    0  502 -0.65249135106E+02 -0.12919727858E+03 -0.27687511183E+03  0.31242473334E+03  0.50400001928E-02 0. -1.
</event>
<event>
 5   0  0.2751729E-02  0.6969486E+03  0.7818609E-02  0.9722465E-01
       -1   -1    0    0    0  501  0.00000000000E+00  0.00000000000E+00  0.79238685477E+02  0.79238685638E+02  0.50400001928E-02 0. -1.
        1   -1    0    0  501    0  0.00000000000E+00  0.00000000000E+00 -0.15325134854E+04  0.15325134854E+04  0.50400001928E-02 0.  1.
    10030    2    1    2    0    0  0.00000000000E+00  0.00000000000E+00 -0.14532747999E+04  0.16117521711E+04  0.69694864717E+03 0.  0.
        1    1    3    3  502    0  0.22658937838E+03 -0.10605963378E+03 -0.16566079875E+03  0.30005814866E+03  0.50400001928E-02 0. -1.
       -1    1    3    3    0  502 -0.22658937838E+03  0.10605963378E+03 -0.12876140012E+04  0.13116940224E+04  0.50400001928E-02 0.  1.
</event>
<event>
 5   0  0.2750139E-02  0.7028687E+03  0.7818609E-02  0.9712339E-01
       -1   -1    0    0    0  501  0.00000000000E+00  0.00000000000E+00  0.92472427777E+02  0.92472427915E+02  0.50400001928E-02 0. -1.
        1   -1    0    0  501    0  0.00000000000E+00  0.00000000000E+00 -0.13355993421E+04  0.13355993421E+04  0.50400001928E-02 0.  1.
    10030    2    1    2    0    0  0.00000000000E+00  0.00000000000E+00 -0.12431269144E+04  0.14280717701E+04  0.70286873258E+03 0.  0.
        2    1    3    3  502    0  0.12470359998E+03 -0.32834226203E+03 -0.59697267898E+03  0.69262977725E+03  0.25500000920E-02 0. -1.
       -2    1    3    3    0  502 -0.12470359998E+03  0.32834226203E+03 -0.64615423538E+03  0.73544199281E+03  0.25500000920E-02 0.  1.
</event>
<event>
 5   0  0.2684924E-02  0.6731108E+03  0.7818609E-02  0.9764354E-01
       -1   -1    0    0    0  501  0.00000000000E+00  0.00000000000E+00  0.13401806950E+03  0.13401806960E+03  0.50400001928E-02 0. -1.
        1   -1    0    0  501    0  0.00000000000E+00  0.00000000000E+00 -0.84518120009E+03  0.84518120011E+03  0.50400001928E-02 0.  1.
    10030    2    1    2    0    0  0.00000000000E+00  0.00000000000E+00 -0.71116313059E+03  0.97919926970E+03  0.67311084636E+03 0.  0.
        4    1    3    3  502    0  0.45184772458E+01 -0.30832396224E+03 -0.15941386378E+03  0.34712890285E+03  0.12699999809E+01 0.  1.
       -4    1    3    3    0  502 -0.45184772458E+01  0.30832396224E+03 -0.55174926681E+03  0.63207036685E+03  0.12699999809E+01 0. -1.
</event>
<event>
 5   0  0.2758681E-02  0.7155889E+03  0.7818609E-02  0.9690938E-01
        1   -1    0    0  501    0  0.00000000000E+00  0.00000000000E+00  0.60443275403E+03  0.60443275405E+03  0.50400001928E-02 0.  1.
       -1   -1    0    0    0  501  0.00000000000E+00  0.00000000000E+00 -0.21179672844E+03  0.21179672850E+03  0.50400001928E-02 0. -1.
    10030    2    1    2    0    0  0.00000000000E+00  0.00000000000E+00  0.39263602559E+03  0.81622948255E+03  0.71558893199E+03 0.  0.
        3    1    3    3  502    0  0.29937774583E+03 -0.14136956539E+03  0.35106081251E+03  0.48255164801E+03  0.10100000352E+00 0.  1.
       -3    1    3    3    0  502 -0.29937774583E+03  0.14136956539E+03  0.41575213087E+02  0.33367783454E+03  0.10100000352E+00 0. -1.
</event>
<event>
 5   0  0.4503289E-02  0.7012385E+03  0.7818609E-02  0.9715117E-01
        2   -1    0    0  501    0  0.00000000000E+00  0.00000000000E+00  0.10210377214E+04  0.10210377214E+04  0.25500000920E-02 0.  1.
       -2   -1    0    0    0  501  0.00000000000E+00  0.00000000000E+00 -0.12040088283E+03  0.12040088285E+03  0.25500000920E-02 0. -1.
    10030    2    1    2    0    0  0.00000000000E+00  0.00000000000E+00  0.90063683861E+03  0.11414386043E+04  0.70123845609E+03 0.  0.
        2    1    3    3  502    0  0.23071188102E+03 -0.82707660318E+02  0.42194192253E+02  0.24869434852E+03  0.25500000920E-02 0. -1.
       -2    1    3    3    0  502 -0.23071188102E+03  0.82707660318E+02  0.85844264635E+03  0.89274425577E+03  0.25500000920E-02 0.  1.
</event>
<event>
 5   0  0.2777999E-02  0.6666477E+03  0.7818609E-02  0.9776033E-01
        1   -1    0    0  501    0  0.00000000000E+00  0.00000000000E+00  0.57024131506E+03  0.57024131508E+03  0.50400001928E-02 0.  1.
       -1   -1    0    0    0  501  0.00000000000E+00  0.00000000000E+00 -0.19483817519E+03  0.19483817525E+03  0.50400001928E-02 0. -1.
    10030    2    1    2    0    0  0.00000000000E+00  0.00000000000E+00  0.37540313987E+03  0.76507949034E+03  0.66664766489E+03 0.  0.
        5    1    3    3  502    0 -0.24268069473E+03 -0.20315374152E+03  0.30761513560E+03  0.44137798307E+03  0.46999998093E+01 0. -1.
       -5    1    3    3    0  502  0.24268069473E+03  0.20315374152E+03  0.67788004273E+02  0.32370150727E+03  0.46999998093E+01 0.  1.
</event>
<event>
 5   0  0.4526837E-02  0.6997671E+03  0.7818609E-02  0.9717630E-01
       -2   -1    0    0    0  501  0.00000000000E+00  0.00000000000E+00  0.23274571075E+03  0.23274571076E+03  0.25500000920E-02 0. -1.
        2   -1    0    0  501    0  0.00000000000E+00  0.00000000000E+00 -0.52597537662E+03  0.52597537663E+03  0.25500000920E-02 0.  1.
    10030    2    1    2    0    0  0.00000000000E+00  0.00000000000E+00 -0.29322966587E+03  0.75872108739E+03  0.69976714092E+03 0.  0.
        1    1    3    3  502    0 -0.15511326222E+03  0.87357846549E+02  0.17997064821E+03  0.25314215712E+03  0.50400001928E-02 0. -1.
       -1    1    3    3    0  502  0.15511326222E+03 -0.87357846549E+02 -0.47320031408E+03  0.50557893028E+03  0.50400001928E-02 0.  1.
</event>
<event>
 5   0  0.2758681E-02  0.6888291E+03  0.7818609E-02  0.9736529E-01
        1   -1    0    0  501    0  0.00000000000E+00  0.00000000000E+00  0.26260442647E+03  0.26260442652E+03  0.50400001928E-02 0.  1.
       -1   -1    0    0    0  501  0.00000000000E+00  0.00000000000E+00 -0.45171123763E+03  0.45171123766E+03  0.50400001928E-02 0. -1.
    10030    2    1    2    0    0  0.00000000000E+00  0.00000000000E+00 -0.18910681116E+03  0.71431566418E+03  0.68882906593E+03 0.  0.
        3    1    3    3  502    0 -0.12329562572E+02  0.29058283365E+03  0.96746961460E+02  0.30651327227E+03  0.10100000352E+00 0.  1.
       -3    1    3    3    0  502  0.12329562572E+02 -0.29058283365E+03 -0.28585377262E+03  0.40780239191E+03  0.10100000352E+00 0. -1.
</event>
<event>
 5   0  0.4526837E-02  0.6910823E+03  0.7818609E-02  0.9732605E-01
       -2   -1    0    0    0  501  0.00000000000E+00  0.00000000000E+00  0.17845548345E+03  0.17845548347E+03  0.25500000920E-02 0.  1.
        2   -1    0    0  501    0  0.00000000000E+00  0.00000000000E+00 -0.66906709847E+03  0.66906709847E+03  0.25500000920E-02 0. -1.
    10030    2    1    2    0    0  0.00000000000E+00  0.00000000000E+00 -0.49061161502E+03  0.84752258194E+03  0.69108231789E+03 0.  0.
        1    1    3    3  502    0 -0.25395081639E+03  0.44908384580E+02 -0.52734666520E+03  0.58702835150E+03  0.50400001928E-02 0. -1.
       -1    1    3    3    0  502  0.25395081639E+03 -0.44908384580E+02  0.36735050178E+02  0.26049423043E+03  0.50400001928E-02 0.  1.
</event>
<event>
 5   0  0.2751729E-02  0.7013923E+03  0.7818609E-02  0.9714854E-01
       -1   -1    0    0    0  501  0.00000000000E+00  0.00000000000E+00  0.10745836541E+03  0.10745836553E+03  0.50400001928E-02 0.  1.
        1   -1    0    0  501    0  0.00000000000E+00  0.00000000000E+00 -0.11445156924E+04  0.11445156924E+04  0.50400001928E-02 0. -1.
    10030    2    1    2    0    0  0.00000000000E+00  0.00000000000E+00 -0.10370573269E+04  0.12519740579E+04  0.70139228843E+03 0.  0.
        1    1    3    3  502    0 -0.16239494946E+03  0.70753171171E+02  0.21734013807E+02  0.17846707882E+03  0.50400001928E-02 0.  1.
       -1    1    3    3    0  502  0.16239494946E+03 -0.70753171171E+02 -0.10587913407E+04  0.10735069791E+04  0.50400001928E-02 0. -1.
</event>
<event>
 5   0  0.4420645E-02  0.7193218E+03  0.7818609E-02  0.9684748E-01
        2   -1    0    0  501    0  0.00000000000E+00  0.00000000000E+00  0.11240097844E+04  0.11240097844E+04  0.25500000920E-02 0. -1.
       -2   -1    0    0    0  501  0.00000000000E+00  0.00000000000E+00 -0.11508438855E+03  0.11508438858E+03  0.25500000920E-02 0.  1.
    10030    2    1    2    0    0  0.00000000000E+00  0.00000000000E+00  0.10089253958E+04  0.12390941729E+04  0.71932184391E+03 0.  0.
        5    1    3    3  502    0 -0.32666046604E+03  0.14179585476E+03  0.41797642459E+03  0.54912612942E+03  0.46999998093E+01 0.  1.
       -5    1    3    3    0  502  0.32666046604E+03 -0.14179585476E+03  0.59094897121E+03  0.68996804352E+03  0.46999998093E+01 0. -1.
</event>
<event>
 5   0  0.2750139E-02  0.6663075E+03  0.7818609E-02  0.9776651E-01
        1   -1    0    0  501    0  0.00000000000E+00  0.00000000000E+00  0.28524731804E+03  0.28524731808E+03  0.50400001928E-02 0.  1.
       -1   -1    0    0    0  501  0.00000000000E+00  0.00000000000E+00 -0.38910595324E+03  0.38910595327E+03  0.50400001928E-02 0. -1.
    10030    2    1    2    0    0  0.00000000000E+00  0.00000000000E+00 -0.10385863520E+03  0.67435327135E+03  0.66630752545E+03 0.  0.
        2    1    3    3  502    0 -0.10189753209E+03  0.31717339272E+03 -0.55025923434E+02  0.33765355077E+03  0.25500000920E-02 0. -1.
       -2    1    3    3    0  502  0.10189753209E+03 -0.31717339272E+03 -0.48832711765E+02  0.33669972058E+03  0.25500000920E-02 0.  1.
</event>
<event>
 5   0  0.4299912E-02  0.7054617E+03  0.7818609E-02  0.9707937E-01
       -2   -1    0    0    0  501  0.00000000000E+00  0.00000000000E+00  0.36592675924E+03  0.36592675925E+03  0.25500000920E-02 0. -1.
        2   -1    0    0  501    0  0.00000000000E+00  0.00000000000E+00 -0.34001078543E+03  0.34001078544E+03  0.25500000920E-02 0.  1.
    10030    2    1    2    0    0  0.00000000000E+00  0.00000000000E+00  0.25915973809E+02  0.70593754468E+03  0.70546167812E+03 0.  0.
        3    1    3    3  502    0 -0.12501544828E+03  0.24384257308E+03  0.23521357482E+03  0.36112809187E+03  0.10100000352E+00 0. -1.
       -3    1    3    3    0  502  0.12501544828E+03 -0.24384257308E+03 -0.20929760102E+03  0.34480945281E+03  0.10100000352E+00 0.  1.
</event>
<event>
 5   0  0.4503289E-02  0.6925609E+03  0.7818609E-02  0.9730039E-01
        2   -1    0    0  501    0  0.00000000000E+00  0.00000000000E+00  0.85870190281E+03  0.85870190281E+03  0.25500000920E-02 0.  1.
       -2   -1    0    0    0  501  0.00000000000E+00  0.00000000000E+00 -0.13964118311E+03  0.13964118313E+03  0.25500000920E-02 0. -1.
    10030    2    1    2    0    0  0.00000000000E+00  0.00000000000E+00  0.71906071970E+03  0.99834308594E+03  0.69256089886E+03 0.  0.
        2    1    3    3  502    0  0.18127991807E+03 -0.26263508924E+03  0.55330973100E+03  0.63874193320E+03  0.25500000920E-02 0.  1.
       -2    1    3    3    0  502 -0.18127991807E+03  0.26263508924E+03  0.16575098870E+03  0.35960115274E+03  0.25500000920E-02 0. -1.
</event>
<event>
 5   0  0.1784625E-02  0.6568030E+03  0.7818609E-02  0.9794097E-01
       -4   -1    0    0    0  501  0.00000000000E+00  0.00000000000E+00  0.23796217313E+03  0.23796556209E+03  0.12699999809E+01 0.  1.
        4   -1    0    0  501    0  0.00000000000E+00  0.00000000000E+00 -0.45320550939E+03  0.45320728882E+03  0.12699999809E+01 0. -1.
    10030    2    1    2    0    0  0.00000000000E+00  0.00000000000E+00 -0.21524333626E+03  0.69117285091E+03  0.65680302681E+03 0.  0.
        4    1    3    3  502    0  0.16825451887E+03  0.19709114387E+03  0.10465538473E+03  0.27947963175E+03  0.12699999809E+01 0.  1.
       -4    1    3    3    0  502 -0.16825451887E+03 -0.19709114387E+03 -0.31989872099E+03  0.41169321916E+03  0.12699999809E+01 0. -1.
</event>
<event>
 5   0  0.4420645E-02  0.6972263E+03  0.7818609E-02  0.9721987E-01
        2   -1    0    0  501    0  0.00000000000E+00  0.00000000000E+00  0.92488959730E+03  0.92488959730E+03  0.25500000920E-02 0. -1.
       -2   -1    0    0    0  501  0.00000000000E+00  0.00000000000E+00 -0.13140070357E+03  0.13140070359E+03  0.25500000920E-02 0.  1.
    10030    2    1    2    0    0  0.00000000000E+00  0.00000000000E+00  0.79348889373E+03  0.10562903009E+04  0.69722634437E+03 0.  0.
        5    1    3    3  502    0 -0.21649819259E+03  0.35315238151E+02 -0.13676191309E+02  0.21983576062E+03  0.46999998093E+01 0.  1.
       -5    1    3    3    0  502  0.21649819259E+03 -0.35315238151E+02  0.80716508504E+03  0.83645454028E+03  0.46999998093E+01 0. -1.
</event>
<event>
 5   0  0.4420645E-02  0.6897658E+03  0.7818609E-02  0.9734896E-01
        2   -1    0    0  501    0  0.00000000000E+00  0.00000000000E+00  0.90582400147E+03  0.90582400147E+03  0.25500000920E-02 0.  1.
       -2   -1    0    0    0  501  0.00000000000E+00  0.00000000000E+00 -0.13131049742E+03  0.13131049744E+03  0.25500000920E-02 0. -1.
    10030    2    1    2    0    0  0.00000000000E+00  0.00000000000E+00  0.77451350405E+03  0.10371344989E+04  0.68976575798E+03 0.  0.
        5    1    3    3  502    0 -0.41001598206E+02  0.87249664997E+02 -0.11058937913E+03  0.14678465817E+03  0.46999998093E+01 0. -1.
       -5    1    3    3    0  502  0.41001598206E+02 -0.87249664997E+02  0.88510288319E+03  0.89034984075E+03  0.46999998093E+01 0.  1.
</event>
<event>
 5   0  0.4299912E-02  0.6982357E+03  0.7818609E-02  0.9720254E-01
        2   -1    0    0  501    0  0.00000000000E+00  0.00000000000E+00  0.59102060160E+03  0.59102060160E+03  0.25500000920E-02 0.  1.
       -2   -1    0    0    0  501  0.00000000000E+00  0.00000000000E+00 -0.20622510897E+03  0.20622510899E+03  0.25500000920E-02 0. -1.
    10030    2    1    2    0    0  0.00000000000E+00  0.00000000000E+00  0.38479549263E+03  0.79724571059E+03  0.69823574236E+03 0.  0.
        3    1    3    3  502    0 -0.13313067365E+02  0.17752517523E+02  0.59021458268E+03  0.59063157167E+03  0.10100000352E+00 0.  1.
       -3    1    3    3    0  502  0.13313067365E+02 -0.17752517523E+02 -0.20541909006E+03  0.20661413892E+03  0.10100000352E+00 0. -1.
</event>
<event>
 5   0  0.4526837E-02  0.7058126E+03  0.7818609E-02  0.9707343E-01
        2   -1    0    0  501    0  0.00000000000E+00  0.00000000000E+00  0.12085842316E+04  0.12085842316E+04  0.25500000920E-02 0. -1.
       -2   -1    0    0    0  501  0.00000000000E+00  0.00000000000E+00 -0.10304854313E+03  0.10304854317E+03  0.25500000920E-02 0.  1.
    10030    2    1    2    0    0  0.00000000000E+00  0.00000000000E+00  0.11055356885E+04  0.13116327748E+04  0.70581256533E+03 0.  0.
        1    1    3    3  502    0 -0.33562347960E+03 -0.34209206352E+02  0.74525940549E+03  0.81806171611E+03  0.50400001928E-02 0. -1.
       -1    1    3    3    0  502  0.33562347960E+03  0.34209206352E+02  0.36027628298E+03  0.49357105867E+03  0.50400001928E-02 0.  1.
</event>
<event>
 5   0  0.2777999E-02  0.6967351E+03  0.7818609E-02  0.9722832E-01
        1   -1    0    0  501    0  0.00000000000E+00  0.00000000000E+00  0.82992561861E+03  0.82992561862E+03  0.50400001928E-02 0. -1.
       -1   -1    0    0    0  501  0.00000000000E+00  0.00000000000E+00 -0.14622991876E+03  0.14622991885E+03  0.50400001928E-02 0.  1.
    10030    2    1    2    0    0  0.00000000000E+00  0.00000000000E+00  0.68369569985E+03  0.97615553747E+03  0.69673511706E+03 0.  0.
        5    1    3    3  502    0  0.20764508514E+02 -0.30019581766E+03  0.58768659322E+03  0.66026230818E+03  0.46999998093E+01 0. -1.
       -5    1    3    3    0  502 -0.20764508514E+02  0.30019581766E+03  0.96009106630E+02  0.31589322929E+03  0.46999998093E+01 0.  1.
</event>
<event>
 5   0  0.2751729E-02  0.6894993E+03  0.7818609E-02  0.9735360E-01
        1   -1    0    0  501    0  0.00000000000E+00  0.00000000000E+00  0.73100570281E+03  0.73100570283E+03  0.50400001928E-02 0. -1.
       -1   -1    0    0    0  501  0.00000000000E+00  0.00000000000E+00 -0.16258738834E+03  0.16258738841E+03  0.50400001928E-02 0.  1.
    10030    2    1    2    0    0  0.00000000000E+00  0.00000000000E+00  0.56841831448E+03  0.89359309124E+03  0.68949926213E+03 0.  0.
        1    1    3    3  502    0  0.10867502091E+03  0.10883818003E+03 -0.11565826933E+03  0.19243919791E+03  0.50400001928E-02 0.  1.
       -1    1    3    3    0  502 -0.10867502091E+03 -0.10883818003E+03  0.68407658380E+03  0.70115389333E+03  0.50400001928E-02 0. -1.
</event>
<event>
 5   0  0.1784625E-02  0.7758156E+03  0.7818609E-02  0.9595698E-01
        3   -1    0    0  501    0  0.00000000000E+00  0.00000000000E+00  0.10624283334E+03  0.10624288135E+03  0.10100000352E+00 0. -1.
       -3   -1    0    0    0  501  0.00000000000E+00  0.00000000000E+00 -0.14163066476E+04  0.14163066512E+04  0.10100000352E+00 0.  1.
    10030    2    1    2    0    0  0.00000000000E+00  0.00000000000E+00 -0.13100638142E+04  0.15225495325E+04  0.77581562346E+03 0.  0.
        4    1    3    3  502    0 -0.20180519787E+03  0.90229532936E+02 -0.12805914227E+04  0.12995317277E+04  0.12699999809E+01 0.  1.
       -4    1    3    3    0  502  0.20180519787E+03 -0.90229532936E+02 -0.29472391525E+02  0.22301780481E+03  0.12699999809E+01 0. -1.
</event>
<event>
 5   0  0.4503289E-02  0.7100217E+03  0.7818609E-02  0.9700246E-01
        2   -1    0    0  501    0  0.00000000000E+00  0.00000000000E+00  0.17597791977E+04  0.17597791977E+04  0.25500000920E-02 0. -1.
       -2   -1    0    0    0  501  0.00000000000E+00  0.00000000000E+00 -0.71618474974E+02  0.71618475019E+02  0.25500000920E-02 0.  1.
    10030    2    1    2    0    0  0.00000000000E+00  0.00000000000E+00  0.16881607227E+04  0.18313976727E+04  0.71002169678E+03 0.  0.
        2    1    3    3  502    0 -0.33019474958E+01 -0.19966668139E+03  0.16011770061E+04  0.16135815726E+04  0.25500000920E-02 0. -1.
       -2    1    3    3    0  502  0.33019474958E+01  0.19966668139E+03  0.86983716622E+02  0.21781610013E+03  0.25500000920E-02 0.  1.
</event>
<event>
 5   0  0.1784625E-02  0.6972877E+03  0.7818609E-02  0.9721882E-01
       -4   -1    0    0    0  501  0.00000000000E+00  0.00000000000E+00  0.21559080803E+04  0.21559084544E+04  0.12699999809E+01 0. -1.
        4   -1    0    0  501    0  0.00000000000E+00  0.00000000000E+00 -0.56373606900E+02  0.56387910538E+02  0.12699999809E+01 0.  1.
    10030    2    1    2    0    0  0.00000000000E+00  0.00000000000E+00  0.20995344734E+04  0.22122963649E+04  0.69728774633E+03 0.  0.
        5    1    3    3  502    0 -0.17438094429E+02  0.28656058704E+03  0.42232772159E+03  0.51068958439E+03  0.46999998093E+01 0.  1.
       -5    1    3    3    0  502  0.17438094429E+02 -0.28656058704E+03  0.16772067518E+04  0.17016067805E+04  0.46999998093E+01 0. -1.
</event>
<event>
 5   0  0.4526837E-02  0.7028123E+03  0.7818609E-02  0.9712435E-01
        2   -1    0    0  501    0  0.00000000000E+00  0.00000000000E+00  0.73730588030E+03  0.73730588030E+03  0.25500000920E-02 0. -1.
       -2   -1    0    0    0  501  0.00000000000E+00  0.00000000000E+00 -0.16748313232E+03  0.16748313234E+03  0.25500000920E-02 0.  1.
    10030    2    1    2    0    0  0.00000000000E+00  0.00000000000E+00  0.56982274798E+03  0.90478901264E+03  0.70281234571E+03 0.  0.
        1    1    3    3  502    0 -0.14361439094E+03  0.31010785477E+03  0.39024360465E+03  0.51873118845E+03  0.50400001928E-02 0.  1.
       -1    1    3    3    0  502  0.14361439094E+03 -0.31010785477E+03  0.17957914333E+03  0.38605782419E+03  0.50400001928E-02 0. -1.
</event>
<event>
 5   0  0.4420645E-02  0.7399308E+03  0.7818609E-02  0.9651281E-01
       -2   -1    0    0    0  501  0.00000000000E+00  0.00000000000E+00  0.58697866197E+02  0.58697866252E+02  0.25500000920E-02 0. -1.
        2   -1    0    0  501    0  0.00000000000E+00  0.00000000000E+00 -0.23318459955E+04  0.23318459955E+04  0.25500000920E-02 0.  1.
    10030    2    1    2    0    0  0.00000000000E+00  0.00000000000E+00 -0.22731481293E+04  0.23905438618E+04  0.73993076515E+03 0.  0.
        5    1    3    3  502    0 -0.29759115219E+03  0.46165704794E+02 -0.44244374288E+03  0.53522922358E+03  0.46999998093E+01 0. -1.
       -5    1    3    3    0  502  0.29759115219E+03 -0.46165704794E+02 -0.18307043864E+04  0.18553146382E+04  0.46999998093E+01 0.  1.
</event>
<event>
 5   0  0.1784625E-02  0.7082842E+03  0.7818609E-02  0.9703169E-01
       -3   -1    0    0    0  501  0.00000000000E+00  0.00000000000E+00  0.73112713236E+02  0.73112782999E+02  0.10100000352E+00 0. -1.
        3   -1    0    0  501    0  0.00000000000E+00  0.00000000000E+00 -0.17153866250E+04  0.17153866280E+04  0.10100000352E+00 0.  1.
    10030    2    1    2    0    0  0.00000000000E+00  0.00000000000E+00 -0.16422739118E+04  0.17884994110E+04  0.70828422387E+03 0.  0.
        4    1    3    3  502    0 -0.70484571746E+02 -0.77940668334E+02  0.32830794786E+02  0.11010130163E+03  0.12699999809E+01 0. -1.
       -4    1    3    3    0  502  0.70484571746E+02  0.77940668334E+02 -0.16751047066E+04  0.16783981093E+04  0.12699999809E+01 0.  1.
</event>
<event>
 5   0  0.2758681E-02  0.6678860E+03  0.7818609E-02  0.9773784E-01
        1   -1    0    0  501    0  0.00000000000E+00  0.00000000000E+00  0.33035166349E+03  0.33035166353E+03  0.50400001928E-02 0. -1.
       -1   -1    0    0    0  501  0.00000000000E+00  0.00000000000E+00 -0.33757335604E+03  0.33757335608E+03  0.50400001928E-02 0.  1.
    10030    2    1    2    0    0  0.00000000000E+00  0.00000000000E+00 -0.72216925499E+01  0.66792501960E+03  0.66788597752E+03 0.  0.
        3    1    3    3  502    0 -0.35153268030E+02  0.10304686474E+03 -0.31932456659E+03  0.33737604778E+03  0.10100000352E+00 0.  1.
       -3    1    3    3    0  502  0.35153268030E+02 -0.10304686474E+03  0.31210287404E+03  0.33054897182E+03  0.10100000352E+00 0. -1.
</event>
<event>
 5   0  0.2777999E-02  0.6982795E+03  0.7818609E-02  0.9720179E-01
        1   -1    0    0  501    0  0.00000000000E+00  0.00000000000E+00  0.37362483716E+03  0.37362483719E+03  0.50400001928E-02 0.  1.
       -1   -1    0    0    0  501  0.00000000000E+00  0.00000000000E+00 -0.32625923909E+03  0.32625923912E+03  0.50400001928E-02 0. -1.
    10030    2    1    2    0    0  0.00000000000E+00  0.00000000000E+00  0.47365598072E+02  0.69988407632E+03  0.69827947156E+03 0.  0.
        5    1    3    3  502    0 -0.35934292238E+02  0.13860272107E+03 -0.29544243943E+03  0.32834480757E+03  0.46999998093E+01 0. -1.
       -5    1    3    3    0  502  0.35934292238E+02 -0.13860272107E+03  0.34280803750E+03  0.37153926874E+03  0.46999998093E+01 0.  1.
</event>
<event>
 5   0  0.4526837E-02  0.7046987E+03  0.7818609E-02  0.9709230E-01
        2   -1    0    0  501    0  0.00000000000E+00  0.00000000000E+00  0.44490671874E+03  0.44490671875E+03  0.25500000920E-02 0.  1.
       -2   -1    0    0    0  501  0.00000000000E+00  0.00000000000E+00 -0.27904739473E+03  0.27904739475E+03  0.25500000920E-02 0. -1.
    10030    2    1    2    0    0  0.00000000000E+00  0.00000000000E+00  0.16585932400E+03  0.72395411349E+03  0.70469868957E+03 0.  0.
        1    1    3    3  502    0  0.32645439179E+03  0.12625500983E+03  0.12449840027E+03  0.37150053717E+03  0.50400001928E-02 0.  1.
       -1    1    3    3    0  502 -0.32645439179E+03 -0.12625500983E+03  0.41360923738E+02  0.35245357632E+03  0.50400001928E-02 0. -1.
</event>
<event>
 5   0  0.4365492E-02  0.6972056E+03  0.7818609E-02  0.9722023E-01
        2   -1    0    0  501    0  0.00000000000E+00  0.00000000000E+00  0.15592653347E+04  0.15592653347E+04  0.25500000920E-02 0.  1.
       -2   -1    0    0    0  501  0.00000000000E+00  0.00000000000E+00 -0.77936656821E+02  0.77936656863E+02  0.25500000920E-02 0. -1.
    10030    2    1    2    0    0  0.00000000000E+00  0.00000000000E+00  0.14813286779E+04  0.16372019916E+04  0.69720564346E+03 0.  0.
        4    1    3    3  502    0  0.19445739521E+03 -0.45227830546E+02  0.14117133586E+04  0.14257613597E+04  0.12699999809E+01 0.  1.
       -4    1    3    3    0  502 -0.19445739521E+03  0.45227830546E+02  0.69615319289E+02  0.21144063182E+03  0.12699999809E+01 0. -1.
</event>
<event>
 5   0  0.1784625E-02  0.7294906E+03  0.7818609E-02  0.9668087E-01
       -4   -1    0    0    0  501  0.00000000000E+00  0.00000000000E+00  0.36241948453E+03  0.36242170970E+03  0.12699999809E+01 0. -1.
        4   -1    0    0  501    0  0.00000000000E+00  0.00000000000E+00 -0.36708157061E+03  0.36708376752E+03  0.12699999809E+01 0.  1.
    10030    2    1    2    0    0  0.00000000000E+00  0.00000000000E+00 -0.46620860804E+01  0.72950547723E+03  0.72949057997E+03 0.  0.
        2    1    3    3  502    0 -0.36451835358E+03  0.12290320369E+02 -0.61317110901E+01  0.36477702773E+03  0.25500000920E-02 0. -1.
       -2    1    3    3    0  502  0.36451835358E+03 -0.12290320369E+02  0.14696250098E+01  0.36472844950E+03  0.25500000920E-02 0.  1.
</event>
<event>
 5   0  0.2750139E-02  0.7007093E+03  0.7818609E-02  0.9716020E-01
        1   -1    0    0  501    0  0.00000000000E+00  0.00000000000E+00  0.30961839127E+03  0.30961839131E+03  0.50400001928E-02 0. -1.
       -1   -1    0    0    0  501  0.00000000000E+00  0.00000000000E+00 -0.39645050736E+03  0.39645050739E+03  0.50400001928E-02 0.  1.
    10030    2    1    2    0    0  0.00000000000E+00  0.00000000000E+00 -0.86832116085E+02  0.70606889870E+03  0.70070926448E+03 0.  0.
        2    1    3    3  502    0  0.92194242577E+02  0.16147246462E+02 -0.38361935302E+03  0.39487253634E+03  0.25500000920E-02 0.  1.
       -2    1    3    3    0  502 -0.92194242577E+02 -0.16147246462E+02  0.29678723694E+03  0.31119636236E+03  0.25500000920E-02 0. -1.
</event>
<event>
 5   0  0.4299912E-02  0.7017101E+03  0.7818609E-02  0.9714312E-01
       -2   -1    0    0    0  501  0.00000000000E+00  0.00000000000E+00  0.65299458515E+02  0.65299458565E+02  0.25500000920E-02 0. -1.
        2   -1    0    0  501    0  0.00000000000E+00  0.00000000000E+00 -0.18851499389E+04  0.18851499389E+04  0.25500000920E-02 0.  1.
    10030    2    1    2    0    0  0.00000000000E+00  0.00000000000E+00 -0.18198504803E+04  0.19504493974E+04  0.70171011188E+03 0.  0.
        3    1    3    3  502    0 -0.25471823763E+03 -0.21538056535E+03 -0.60761514548E+03  0.69315679591E+03  0.10100000352E+00 0. -1.
       -3    1    3    3    0  502  0.25471823763E+03  0.21538056535E+03 -0.12122353349E+04  0.12572926015E+04  0.10100000352E+00 0.  1.
</event>
<event>
 5   0  0.2684924E-02  0.6953415E+03  0.7818609E-02  0.9725232E-01
        1   -1    0    0  501    0  0.00000000000E+00  0.00000000000E+00  0.14885005431E+04  0.14885005431E+04  0.50400001928E-02 0.  1.
       -1   -1    0    0    0  501  0.00000000000E+00  0.00000000000E+00 -0.81205857469E+02  0.81205857625E+02  0.50400001928E-02 0. -1.
    10030    2    1    2    0    0  0.00000000000E+00  0.00000000000E+00  0.14072946856E+04  0.15697064007E+04  0.69534153644E+03 0.  0.
        4    1    3    3  502    0  0.12121682702E+03 -0.24146872632E+03  0.11975759161E+04  0.12276768112E+04  0.12699999809E+01 0.  1.
       -4    1    3    3    0  502 -0.12121682702E+03  0.24146872632E+03  0.20971876952E+03  0.34202958956E+03  0.12699999809E+01 0. -1.
</event>
<event>
 5   0  0.4299912E-02  0.6874609E+03  0.7818609E-02  0.9738919E-01
       -2   -1    0    0    0  501  0.00000000000E+00  0.00000000000E+00  0.80255649883E+02  0.80255649924E+02  0.25500000920E-02 0. -1.
        2   -1    0    0  501    0  0.00000000000E+00  0.00000000000E+00 -0.14721781720E+04  0.14721781720E+04  0.25500000920E-02 0.  1.
    10030    2    1    2    0    0  0.00000000000E+00  0.00000000000E+00 -0.13919225221E+04  0.15524338219E+04  0.68746088171E+03 0.  0.
        3    1    3    3  502    0 -0.10341206217E+03  0.19505032699E+03 -0.12909135468E+04  0.13096550997E+04  0.10100000352E+00 0.  1.
       -3    1    3    3    0  502  0.10341206217E+03 -0.19505032699E+03 -0.10100897529E+03  0.24277872220E+03  0.10100000352E+00 0. -1.
</event>
<event>
 5   0  0.2750139E-02  0.6997043E+03  0.7818609E-02  0.9717738E-01
        1   -1    0    0  501    0  0.00000000000E+00  0.00000000000E+00  0.54625303829E+03  0.54625303831E+03  0.50400001928E-02 0. -1.
       -1   -1    0    0    0  501  0.00000000000E+00  0.00000000000E+00 -0.22406562385E+03  0.22406562391E+03  0.50400001928E-02 0.  1.
    10030    2    1    2    0    0  0.00000000000E+00  0.00000000000E+00  0.32218741443E+03  0.77031866222E+03  0.69970430279E+03 0.  0.
        2    1    3    3  502    0 -0.16713267654E+03  0.21114302509E+03  0.40697586569E+03  0.48800006545E+03  0.25500000920E-02 0. -1.
       -2    1    3    3    0  502  0.16713267654E+03 -0.21114302509E+03 -0.84788451258E+02  0.28231859678E+03  0.25500000920E-02 0.  1.
</event>
<event>
 5   0  0.4526837E-02  0.6938115E+03  0.7818609E-02  0.9727874E-01
        2   -1    0    0  501    0  0.00000000000E+00  0.00000000000E+00  0.14960127783E+04  0.14960127783E+04  0.25500000920E-02 0. -1.
       -2   -1    0    0    0  501  0.00000000000E+00  0.00000000000E+00 -0.80442900776E+02  0.80442900817E+02  0.25500000920E-02 0.  1.
    10030    2    1    2    0    0  0.00000000000E+00  0.00000000000E+00  0.14155698776E+04  0.15764556792E+04  0.69381152346E+03 0.  0.
        1    1    3    3  502    0 -0.14483796195E+03 -0.16598367218E+03  0.98882354271E+02  0.24146704675E+03  0.50400001928E-02 0.  1.
       -1    1    3    3    0  502  0.14483796195E+03  0.16598367218E+03  0.13166875233E+04  0.13349886324E+04  0.50400001928E-02 0. -1.
</event>
<event>
 5   0  0.4503289E-02  0.6961616E+03  0.7818609E-02  0.9723819E-01
        2   -1    0    0  501    0  0.00000000000E+00  0.00000000000E+00  0.11459195037E+03  0.11459195040E+03  0.25500000920E-02 0. -1.
       -2   -1    0    0    0  501  0.00000000000E+00  0.00000000000E+00 -0.10573190922E+04  0.10573190922E+04  0.25500000920E-02 0.  1.
    10030    2    1    2    0    0  0.00000000000E+00  0.00000000000E+00 -0.94272714182E+03  0.11719110426E+04  0.69616163915E+03 0.  0.
        2    1    3    3  502    0  0.10033463576E+03 -0.24773166862E+03 -0.84673385824E+03  0.88791680098E+03  0.25500000920E-02 0.  1.
       -2    1    3    3    0  502 -0.10033463576E+03  0.24773166862E+03 -0.95993283582E+02  0.28399424161E+03  0.25500000920E-02 0. -1.
</event>
<event>
 5   0  0.2777999E-02  0.7089187E+03  0.7818609E-02  0.9702100E-01
        1   -1    0    0  501    0  0.00000000000E+00  0.00000000000E+00  0.30016809187E+03  0.30016809191E+03  0.50400001928E-02 0. -1.
       -1   -1    0    0    0  501  0.00000000000E+00  0.00000000000E+00 -0.41857025329E+03  0.41857025332E+03  0.50400001928E-02 0.  1.
    10030    2    1    2    0    0  0.00000000000E+00  0.00000000000E+00 -0.11840216142E+03  0.71873834523E+03  0.70891870978E+03 0.  0.
        5    1    3    3  502    0 -0.21281246818E+03  0.27854301861E+03 -0.11230972302E+03  0.36811808393E+03  0.46999998093E+01 0.  1.
       -5    1    3    3    0  502  0.21281246818E+03 -0.27854301861E+03 -0.60924383989E+01  0.35062026130E+03  0.46999998093E+01 0. -1.
</event>
<event>
 5   0  0.2684924E-02  0.7038072E+03  0.7818609E-02  0.9710743E-01
       -1   -1    0    0    0  501  0.00000000000E+00  0.00000000000E+00  0.75855635631E+03  0.75855635633E+03  0.50400001928E-02 0. -1.
        1   -1    0    0  501    0  0.00000000000E+00  0.00000000000E+00 -0.16325241134E+03  0.16325241142E+03  0.50400001928E-02 0.  1.
    10030    2    1    2    0    0  0.00000000000E+00  0.00000000000E+00  0.59530394497E+03  0.92180876775E+03  0.70380723028E+03 0.  0.
        4    1    3    3  502    0  0.12714796732E+03  0.28702760062E+03  0.89393726688E+02  0.32641124426E+03  0.12699999809E+01 0.  1.
       -4    1    3    3    0  502 -0.12714796732E+03 -0.28702760062E+03  0.50591021828E+03  0.59539752349E+03  0.12699999809E+01 0. -1.
</event>
<event>
 5   0  0.1784625E-02  0.6861587E+03  0.7818609E-02  0.9741200E-01
        3   -1    0    0  501    0  0.00000000000E+00  0.00000000000E+00  0.31682564457E+03  0.31682566066E+03  0.10100000352E+00 0.  1.
       -3   -1    0    0    0  501  0.00000000000E+00  0.00000000000E+00 -0.37150852722E+03  0.37150854094E+03  0.10100000352E+00 0. -1.
    10030    2    1    2    0    0  0.00000000000E+00  0.00000000000E+00 -0.54682882650E+02  0.68833420161E+03  0.68615869553E+03 0.  0.
        2    1    3    3  502    0  0.18439022231E+03 -0.28573085187E+03 -0.72889859630E+02  0.34778557393E+03  0.25500000920E-02 0.  1.
       -2    1    3    3    0  502 -0.18439022231E+03  0.28573085187E+03  0.18206976980E+02  0.34054862767E+03  0.25500000920E-02 0. -1.
</event>
<event>
 5   0  0.4365492E-02  0.6995944E+03  0.7818609E-02  0.9717926E-01
        2   -1    0    0  501    0  0.00000000000E+00  0.00000000000E+00  0.30048773743E+03  0.30048773744E+03  0.25500000920E-02 0. -1.
       -2   -1    0    0    0  501  0.00000000000E+00  0.00000000000E+00 -0.40719825351E+03  0.40719825352E+03  0.25500000920E-02 0.  1.
    10030    2    1    2    0    0  0.00000000000E+00  0.00000000000E+00 -0.10671051608E+03  0.70768599096E+03  0.69959440217E+03 0.  0.
        4    1    3    3  502    0  0.30090571130E+02 -0.32883761585E+03 -0.17008862419E+03  0.37144497984E+03  0.12699999809E+01 0. -1.
       -4    1    3    3    0  502 -0.30090571130E+02  0.32883761585E+03  0.63378108108E+02  0.33624101112E+03  0.12699999809E+01 0.  1.
</event>
<event>
 5   0  0.4420645E-02  0.6904965E+03  0.7818609E-02  0.9733624E-01
        2   -1    0    0  501    0  0.00000000000E+00  0.00000000000E+00  0.79413577409E+03  0.79413577410E+03  0.25500000920E-02 0. -1.
       -2   -1    0    0    0  501  0.00000000000E+00  0.00000000000E+00 -0.15009566558E+03  0.15009566560E+03  0.25500000920E-02 0.  1.
    10030    2    1    2    0    0  0.00000000000E+00  0.00000000000E+00  0.64404010851E+03  0.94423143970E+03  0.69049645208E+03 0.  0.
        5    1    3    3  502    0 -0.21356341736E+03  0.14715737395E+03  0.10460598044E+02  0.25960766562E+03  0.46999998093E+01 0.  1.
       -5    1    3    3    0  502  0.21356341736E+03 -0.14715737395E+03  0.63357951047E+03  0.68462377407E+03  0.46999998093E+01 0. -1.
</event>
<event>
 5   0  0.2684924E-02  0.6881427E+03  0.7818609E-02  0.9737727E-01
       -1   -1    0    0    0  501  0.00000000000E+00  0.00000000000E+00  0.37556184033E+03  0.37556184037E+03  0.50400001928E-02 0. -1.
        1   -1    0    0  501    0  0.00000000000E+00  0.00000000000E+00 -0.31522131936E+03  0.31522131940E+03  0.50400001928E-02 0.  1.
    10030    2    1    2    0    0  0.00000000000E+00  0.00000000000E+00  0.60340520969E+02  0.69078315977E+03  0.68814271438E+03 0.  0.
        4    1    3    3  502    0  0.28484396271E+03  0.93122406907E+02 -0.13952161815E+03  0.33056884396E+03  0.12699999809E+01 0.  1.
       -4    1    3    3    0  502 -0.28484396271E+03 -0.93122406907E+02  0.19986213912E+03  0.36021431581E+03  0.12699999809E+01 0. -1.
</event>
<event>
 5   0  0.4365492E-02  0.6973359E+03  0.7818609E-02  0.9721799E-01
        2   -1    0    0  501    0  0.00000000000E+00  0.00000000000E+00  0.12247779316E+04  0.12247779316E+04  0.25500000920E-02 0. -1.
       -2   -1    0    0    0  501  0.00000000000E+00  0.00000000000E+00 -0.99258280799E+02  0.99258280831E+02  0.25500000920E-02 0.  1.
    10030    2    1    2    0    0  0.00000000000E+00  0.00000000000E+00  0.11255196508E+04  0.13240362125E+04  0.69733593590E+03 0.  0.
        4    1    3    3  502    0  0.23159346967E+03 -0.12656074576E+03  0.99537574348E+03  0.10297706741E+04  0.12699999809E+01 0. -1.
       -4    1    3    3    0  502 -0.23159346967E+03  0.12656074576E+03  0.13014390733E+03  0.29426553838E+03  0.12699999809E+01 0.  1.
</event>
<event>
 5   0  0.1784625E-02  0.7038298E+03  0.7818609E-02  0.9710705E-01
       -3   -1    0    0    0  501  0.00000000000E+00  0.00000000000E+00  0.36385901766E+03  0.36385903168E+03  0.10100000352E+00 0. -1.
        3   -1    0    0  501    0  0.00000000000E+00  0.00000000000E+00 -0.34036286483E+03  0.34036287982E+03  0.10100000352E+00 0.  1.
    10030    2    1    2    0    0  0.00000000000E+00  0.00000000000E+00  0.23496152829E+02  0.70422191150E+03  0.70382983131E+03 0.  0.
        2    1    3    3  502    0  0.10486058391E+03 -0.32059516611E+03 -0.88642782151E+02  0.34876144487E+03  0.25500000920E-02 0.  1.
       -2    1    3    3    0  502 -0.10486058391E+03  0.32059516611E+03  0.11213893498E+03  0.35546046663E+03  0.25500000920E-02 0. -1.
</event>
<event>
 5   0  0.2758681E-02  0.6816393E+03  0.7818609E-02  0.9749157E-01
       -1   -1    0    0    0  501  0.00000000000E+00  0.00000000000E+00  0.77832991234E+02  0.77832991397E+02  0.50400001928E-02 0. -1.
        1   -1    0    0  501    0  0.00000000000E+00  0.00000000000E+00 -0.14924008623E+04  0.14924008623E+04  0.50400001928E-02 0.  1.
    10030    2    1    2    0    0  0.00000000000E+00  0.00000000000E+00 -0.14145678711E+04  0.15702338537E+04  0.68163926932E+03 0.  0.
        3    1    3    3  502    0 -0.33887175919E+02 -0.30001166062E+03 -0.10715368040E+04  0.11132593901E+04  0.10100000352E+00 0.  1.
       -3    1    3    3    0  502  0.33887175919E+02  0.30001166062E+03 -0.34303106714E+03  0.45697446364E+03  0.10100000352E+00 0. -1.
</event>
<event>
 5   0  0.2750139E-02  0.7245604E+03  0.7818609E-02  0.9676129E-01
        1   -1    0    0  501    0  0.00000000000E+00  0.00000000000E+00  0.29075258628E+04  0.29075258628E+04  0.50400001928E-02 0. -1.
       -1   -1    0    0    0  501  0.00000000000E+00  0.00000000000E+00 -0.45140423704E+02  0.45140423985E+02  0.50400001928E-02 0.  1.
    10030    2    1    2    0    0  0.00000000000E+00  0.00000000000E+00  0.28623854391E+04  0.29526662868E+04  0.72456041791E+03 0.  0.
        2    1    3    3  502    0 -0.39320434245E+02 -0.77595363786E+01 -0.36078328048E+02  0.53925436625E+02  0.25500000920E-02 0.  1.
       -2    1    3    3    0  502  0.39320434245E+02  0.77595363786E+01  0.28984637672E+04  0.28987408502E+04  0.25500000920E-02 0. -1.
</event>
<event>
 5   0  0.2750139E-02  0.7017924E+03  0.7818609E-02  0.9714172E-01
       -1   -1    0    0    0  501  0.00000000000E+00  0.00000000000E+00  0.25310199033E+03  0.25310199038E+03  0.50400001928E-02 0. -1.
        1   -1    0    0  501    0  0.00000000000E+00  0.00000000000E+00 -0.48647642711E+03  0.48647642714E+03  0.50400001928E-02 0.  1.
    10030    2    1    2    0    0  0.00000000000E+00  0.00000000000E+00 -0.23337443678E+03  0.73957841752E+03  0.70179242509E+03 0.  0.
        2    1    3    3  502    0 -0.18975650000E+03  0.23486636098E+03 -0.30508169671E+03  0.42923720539E+03  0.25500000920E-02 0. -1.
       -2    1    3    3    0  502  0.18975650000E+03 -0.23486636098E+03  0.71707259929E+02  0.31034121213E+03  0.25500000920E-02 0.  1.
</event>
<event>
 5   0  0.2751729E-02  0.7194373E+03  0.7818609E-02  0.9684557E-01
        1   -1    0    0  501    0  0.00000000000E+00  0.00000000000E+00  0.74298620989E+03  0.74298620991E+03  0.50400001928E-02 0.  1.
       -1   -1    0    0    0  501  0.00000000000E+00  0.00000000000E+00 -0.17415867460E+03  0.17415867467E+03  0.50400001928E-02 0. -1.
    10030    2    1    2    0    0  0.00000000000E+00  0.00000000000E+00  0.56882753529E+03  0.91714488458E+03  0.71943726232E+03 0.  0.
        1    1    3    3  502    0  0.15301206476E+03  0.14404485166E+03  0.65659652656E+03  0.68940598342E+03  0.50400001928E-02 0.  1.
       -1    1    3    3    0  502 -0.15301206476E+03 -0.14404485166E+03 -0.87768991272E+02  0.22773890117E+03  0.50400001928E-02 0. -1.
</event>
<event>
 5   0  0.2777999E-02  0.7176199E+03  0.7818609E-02  0.9687565E-01
       -1   -1    0    0    0  501  0.00000000000E+00  0.00000000000E+00  0.78781088182E+02  0.78781088344E+02  0.50400001928E-02 0. -1.
        1   -1    0    0  501    0  0.00000000000E+00  0.00000000000E+00 -0.16342065551E+04  0.16342065551E+04  0.50400001928E-02 0.  1.
    10030    2    1    2    0    0  0.00000000000E+00  0.00000000000E+00 -0.15554254669E+04  0.17129876435E+04  0.71761987395E+03 0.  0.
        5    1    3    3  502    0  0.24100392708E+03 -0.19583210839E+03 -0.12066458527E+04  0.12459732787E+04  0.46999998093E+01 0.  1.
       -5    1    3    3    0  502 -0.24100392708E+03  0.19583210839E+03 -0.34877961426E+03  0.46701436474E+03  0.46999998093E+01 0. -1.
</event>
<event>
 5   0  0.2750139E-02  0.6966204E+03  0.7818609E-02  0.9723029E-01
       -1   -1    0    0    0  501  0.00000000000E+00  0.00000000000E+00  0.46206255540E+03  0.46206255543E+03  0.50400001928E-02 0.  1.
        1   -1    0    0  501    0  0.00000000000E+00  0.00000000000E+00 -0.26256182839E+03  0.26256182844E+03  0.50400001928E-02 0. -1.
    10030    2    1    2    0    0  0.00000000000E+00  0.00000000000E+00  0.19950072701E+03  0.72462438387E+03  0.69662038272E+03 0.  0.
        2    1    3    3  502    0  0.26243899909E+03  0.18068840397E+02 -0.13772357916E+03  0.29693180278E+03  0.25500000920E-02 0. -1.
       -2    1    3    3    0  502 -0.26243899909E+03 -0.18068840397E+02  0.33722430618E+03  0.42769258109E+03  0.25500000920E-02 0.  1.
</event>
<event>
 5   0  0.4365492E-02  0.6922994E+03  0.7818609E-02  0.9730493E-01
       -2   -1    0    0    0  501  0.00000000000E+00  0.00000000000E+00  0.11930623549E+03  0.11930623552E+03  0.25500000920E-02 0.  1.
        2   -1    0    0  501    0  0.00000000000E+00  0.00000000000E+00 -0.10043031311E+04  0.10043031311E+04  0.25500000920E-02 0. -1.
    10030    2    1    2    0    0  0.00000000000E+00  0.00000000000E+00 -0.88499689563E+03  0.11236093666E+04  0.69229943199E+03 0.  0.
        4    1    3    3  502    0 -0.33714828184E+03 -0.77132705155E+02 -0.46542802357E+03  0.57986487751E+03  0.12699999809E+01 0. -1.
       -4    1    3    3    0  502  0.33714828184E+03  0.77132705155E+02 -0.41956887206E+03  0.54374448913E+03  0.12699999809E+01 0.  1.
</event>
<event>
 5   0  0.4365492E-02  0.6545434E+03  0.7818609E-02  0.9798291E-01
        2   -1    0    0  501    0  0.00000000000E+00  0.00000000000E+00  0.11990443314E+04  0.11990443314E+04  0.25500000920E-02 0. -1.
       -2   -1    0    0    0  501  0.00000000000E+00  0.00000000000E+00 -0.89326780643E+02  0.89326780680E+02  0.25500000920E-02 0.  1.
    10030    2    1    2    0    0  0.00000000000E+00  0.00000000000E+00  0.11097175507E+04  0.12883711121E+04  0.65454341337E+03 0.  0.
        4    1    3    3  502    0  0.20626140741E+03 -0.48838911247E+02  0.64047610191E+02  0.22143332339E+03  0.12699999809E+01 0.  1.
       -4    1    3    3    0  502 -0.20626140741E+03  0.48838911247E+02  0.10456699405E+04  0.10669377887E+04  0.12699999809E+01 0. -1.
</event>
<event>
 5   0  0.4526837E-02  0.7088004E+03  0.7818609E-02  0.9702300E-01
       -2   -1    0    0    0  501  0.00000000000E+00  0.00000000000E+00  0.21901222421E+03  0.21901222422E+03  0.25500000920E-02 0.  1.
        2   -1    0    0  501    0  0.00000000000E+00  0.00000000000E+00 -0.57348163018E+03  0.57348163018E+03  0.25500000920E-02 0. -1.
    10030    2    1    2    0    0  0.00000000000E+00  0.00000000000E+00 -0.35446940597E+03  0.79249385441E+03  0.70880035941E+03 0.  0.
        1    1    3    3  502    0 -0.30160096339E+03  0.69657525753E+01  0.30703170100E+02  0.30323975252E+03  0.50400001928E-02 0.  1.
       -1    1    3    3    0  502  0.30160096339E+03 -0.69657525753E+01 -0.38517257607E+03  0.48925410189E+03  0.50400001928E-02 0. -1.
</event>
<event>
 5   0  0.2684924E-02  0.6959863E+03  0.7818609E-02  0.9724121E-01
       -1   -1    0    0    0  501  0.00000000000E+00  0.00000000000E+00  0.78979280041E+02  0.78979280202E+02  0.50400001928E-02 0. -1.
        1   -1    0    0  501    0  0.00000000000E+00  0.00000000000E+00 -0.15333039653E+04  0.15333039653E+04  0.50400001928E-02 0.  1.
    10030    2    1    2    0    0  0.00000000000E+00  0.00000000000E+00 -0.14543246852E+04  0.16122832455E+04  0.69598633146E+03 0.  0.
        4    1    3    3  502    0  0.32635228993E+03 -0.11379322250E+03 -0.63326608300E+03  0.72144456433E+03  0.12699999809E+01 0.  1.
       -4    1    3    3    0  502 -0.32635228993E+03  0.11379322250E+03 -0.82105860222E+03  0.89083868114E+03  0.12699999809E+01 0. -1.
</event>
<event>
 5   0  0.2684924E-02  0.7093463E+03  0.7818609E-02  0.9701381E-01
       -1   -1    0    0    0  501  0.00000000000E+00  0.00000000000E+00  0.42956472155E+03  0.42956472158E+03  0.50400001928E-02 0.  1.
        1   -1    0    0  501    0  0.00000000000E+00  0.00000000000E+00 -0.29283838707E+03  0.29283838711E+03  0.50400001928E-02 0. -1.
    10030    2    1    2    0    0  0.00000000000E+00  0.00000000000E+00  0.13672633448E+03  0.72240310869E+03  0.70934629125E+03 0.  0.
        4    1    3    3  502    0  0.12959684753E+03  0.15409536448E+03  0.36571477325E+03  0.41748009835E+03  0.12699999809E+01 0.  1.
       -4    1    3    3    0  502 -0.12959684753E+03 -0.15409536448E+03 -0.22898843877E+03  0.30492301034E+03  0.12699999809E+01 0. -1.
</event>
<event>
 5   0  0.4420645E-02  0.6981002E+03  0.7818609E-02  0.9720487E-01
       -2   -1    0    0    0  501  0.00000000000E+00  0.00000000000E+00  0.13565583420E+03  0.13565583423E+03  0.25500000920E-02 0. -1.
        2   -1    0    0  501    0  0.00000000000E+00  0.00000000000E+00 -0.89812551795E+03  0.89812551796E+03  0.25500000920E-02 0.  1.
    10030    2    1    2    0    0  0.00000000000E+00  0.00000000000E+00 -0.76246968375E+03  0.10337813522E+04  0.69810018299E+03 0.  0.
        5    1    3    3  502    0 -0.18715798317E+02 -0.66158958426E+02  0.12548103983E+03  0.14316029562E+03  0.46999998093E+01 0. -1.
       -5    1    3    3    0  502  0.18715798317E+02  0.66158958426E+02 -0.88795072358E+03  0.89062105656E+03  0.46999998093E+01 0.  1.
</event>
<event>
 5   0  0.2777999E-02  0.6803472E+03  0.7818609E-02  0.9751444E-01
       -1   -1    0    0    0  501  0.00000000000E+00  0.00000000000E+00  0.28440008501E+03  0.28440008506E+03  0.50400001928E-02 0. -1.
        1   -1    0    0  501    0  0.00000000000E+00  0.00000000000E+00 -0.40688480884E+03  0.40688480887E+03  0.50400001928E-02 0.  1.
    10030    2    1    2    0    0  0.00000000000E+00  0.00000000000E+00 -0.12248472382E+03  0.69128489393E+03  0.68034718858E+03 0.  0.
        5    1    3    3  502    0 -0.11543299472E+03 -0.54675039443E+02  0.25907465142E+03  0.28888735039E+03  0.46999998093E+01 0. -1.
       -5    1    3    3    0  502  0.11543299472E+03  0.54675039443E+02 -0.38155937525E+03  0.40239754354E+03  0.46999998093E+01 0.  1.
</event>
<event>
 5   0  0.2777999E-02  0.7082270E+03  0.7818609E-02  0.9703266E-01
       -1   -1    0    0    0  501  0.00000000000E+00  0.00000000000E+00  0.27591583358E+03  0.27591583363E+03  0.50400001928E-02 0.  1.
        1   -1    0    0  501    0  0.00000000000E+00  0.00000000000E+00 -0.45447322414E+03  0.45447322417E+03  0.50400001928E-02 0. -1.
    10030    2    1    2    0    0  0.00000000000E+00  0.00000000000E+00 -0.17855739056E+03  0.73038905779E+03  0.70822696505E+03 0.  0.
        5    1    3    3  502    0 -0.88539650816E+02 -0.29078859872E+03 -0.27655692860E+03  0.41097822773E+03  0.46999998093E+01 0. -1.
       -5    1    3    3    0  502  0.88539650816E+02  0.29078859872E+03  0.97999538039E+02  0.31941083007E+03  0.46999998093E+01 0.  1.
</event>
<event>
 5   0  0.4503289E-02  0.7016389E+03  0.7818609E-02  0.9714434E-01
        2   -1    0    0  501    0  0.00000000000E+00  0.00000000000E+00  0.20084829128E+04  0.20084829128E+04  0.25500000920E-02 0.  1.
       -2   -1    0    0    0  501  0.00000000000E+00  0.00000000000E+00 -0.61277244233E+02  0.61277244287E+02  0.25500000920E-02 0. -1.
    10030    2    1    2    0    0  0.00000000000E+00  0.00000000000E+00  0.19472056686E+04  0.20697601571E+04  0.70163893292E+03 0.  0.
        2    1    3    3  502    0  0.35241906435E+02 -0.85582876683E+02  0.19718176814E+04  0.19739887004E+04  0.25500000920E-02 0.  1.
       -2    1    3    3    0  502 -0.35241906435E+02  0.85582876683E+02 -0.24612012738E+02  0.95771456750E+02  0.25500000920E-02 0. -1.
</event>
<event>
 5   0  0.2758681E-02  0.7005844E+03  0.7818609E-02  0.9716233E-01
       -1   -1    0    0    0  501  0.00000000000E+00  0.00000000000E+00  0.27019334256E+03  0.27019334261E+03  0.50400001928E-02 0.  1.
        1   -1    0    0  501    0  0.00000000000E+00  0.00000000000E+00 -0.45413637210E+03  0.45413637213E+03  0.50400001928E-02 0. -1.
    10030    2    1    2    0    0  0.00000000000E+00  0.00000000000E+00 -0.18394302953E+03  0.72432971474E+03  0.70058439716E+03 0.  0.
        3    1    3    3  502    0 -0.18419844216E+03 -0.17138512304E+03 -0.34395895144E+03  0.42615689244E+03  0.10100000352E+00 0. -1.
       -3    1    3    3    0  502  0.18419844216E+03  0.17138512304E+03  0.16001592191E+03  0.29817282230E+03  0.10100000352E+00 0.  1.
</event>
<event>
 5   0  0.4299912E-02  0.6828151E+03  0.7818609E-02  0.9747080E-01
        2   -1    0    0  501    0  0.00000000000E+00  0.00000000000E+00  0.44062351796E+03  0.44062351797E+03  0.25500000920E-02 0.  1.
       -2   -1    0    0    0  501  0.00000000000E+00  0.00000000000E+00 -0.26453224561E+03  0.26453224563E+03  0.25500000920E-02 0. -1.
    10030    2    1    2    0    0  0.00000000000E+00  0.00000000000E+00  0.17609127235E+03  0.70515576360E+03  0.68281513950E+03 0.  0.
        3    1    3    3  502    0  0.16690123570E+03  0.25401857368E+03 -0.72533476301E+02  0.31247811705E+03  0.10100000352E+00 0. -1.
       -3    1    3    3    0  502 -0.16690123570E+03 -0.25401857368E+03  0.24862474865E+03  0.39267764654E+03  0.10100000352E+00 0.  1.
</event>
<event>
 5   0  0.1784625E-02  0.7041931E+03  0.7818609E-02  0.9710088E-01
       -3   -1    0    0    0  501  0.00000000000E+00  0.00000000000E+00  0.16987108334E+03  0.16987111336E+03  0.10100000352E+00 0. -1.
        3   -1    0    0  501    0  0.00000000000E+00  0.00000000000E+00 -0.72980017705E+03  0.72980018404E+03  0.10100000352E+00 0.  1.
    10030    2    1    2    0    0  0.00000000000E+00  0.00000000000E+00 -0.55992909371E+03  0.89967129740E+03  0.70419305122E+03 0.  0.
        2    1    3    3  502    0 -0.98084881601E+02 -0.30169691851E+03 -0.84821902169E+02  0.32838457596E+03  0.25500000920E-02 0.  1.
       -2    1    3    3    0  502  0.98084881601E+02  0.30169691851E+03 -0.47510719154E+03  0.57128672144E+03  0.25500000920E-02 0. -1.
</event>
<event>
 5   0  0.4365492E-02  0.6857959E+03  0.7818609E-02  0.9741836E-01
        2   -1    0    0  501    0  0.00000000000E+00  0.00000000000E+00  0.39341933124E+03  0.39341933125E+03  0.25500000920E-02 0.  1.
       -2   -1    0    0    0  501  0.00000000000E+00  0.00000000000E+00 -0.29886435014E+03  0.29886435015E+03  0.25500000920E-02 0. -1.
    10030    2    1    2    0    0  0.00000000000E+00  0.00000000000E+00  0.94554981100E+02  0.69228368139E+03  0.68579592524E+03 0.  0.
        4    1    3    3  502    0  0.31069454150E+03  0.13865207674E+03  0.41899342847E+01  0.34025676327E+03  0.12699999809E+01 0.  1.
       -4    1    3    3    0  502 -0.31069454150E+03 -0.13865207674E+03  0.90365046816E+02  0.35202691813E+03  0.12699999809E+01 0. -1.
</event>
<event>
 5   0  0.4365492E-02  0.7096585E+03  0.7818609E-02  0.9700856E-01
        2   -1    0    0  501    0  0.00000000000E+00  0.00000000000E+00  0.13203468452E+04  0.13203468452E+04  0.25500000920E-02 0.  1.
       -2   -1    0    0    0  501  0.00000000000E+00  0.00000000000E+00 -0.95356597061E+02  0.95356597095E+02  0.25500000920E-02 0. -1.
    10030    2    1    2    0    0  0.00000000000E+00  0.00000000000E+00  0.12249902481E+04  0.14157034423E+04  0.70965845904E+03 0.  0.
        4    1    3    3  502    0 -0.10528469527E+03  0.20907909006E+03  0.11444411739E+04  0.11681378970E+04  0.12699999809E+01 0.  1.
       -4    1    3    3    0  502  0.10528469527E+03 -0.20907909006E+03  0.80549074214E+02  0.24756554529E+03  0.12699999809E+01 0. -1.
</event>
<event>
 5   0  0.2750139E-02  0.6958167E+03  0.7818609E-02  0.9724413E-01
        1   -1    0    0  501    0  0.00000000000E+00  0.00000000000E+00  0.37217910541E+03  0.37217910545E+03  0.50400001928E-02 0.  1.
       -1   -1    0    0    0  501  0.00000000000E+00  0.00000000000E+00 -0.32522031254E+03  0.32522031258E+03  0.50400001928E-02 0. -1.
    10030    2    1    2    0    0  0.00000000000E+00  0.00000000000E+00  0.46958792875E+02  0.69739941803E+03  0.69581665691E+03 0.  0.
        2    1    3    3  502    0 -0.11384939613E+03  0.12215606976E+03 -0.28243022900E+03  0.32810154623E+03  0.25500000920E-02 0. -1.
       -2    1    3    3    0  502  0.11384939613E+03 -0.12215606976E+03  0.32938902187E+03  0.36929787180E+03  0.25500000920E-02 0.  1.
</event>
<event>
 5   0  0.4526837E-02  0.6962459E+03  0.7818609E-02  0.9723674E-01
       -2   -1    0    0    0  501  0.00000000000E+00  0.00000000000E+00  0.17970227829E+03  0.17970227831E+03  0.25500000920E-02 0.  1.
        2   -1    0    0  501    0  0.00000000000E+00  0.00000000000E+00 -0.67439087803E+03  0.67439087804E+03  0.25500000920E-02 0. -1.
    10030    2    1    2    0    0  0.00000000000E+00  0.00000000000E+00 -0.49468859974E+03  0.85409315635E+03  0.69624586821E+03 0.  0.
        1    1    3    3  502    0 -0.18409258362E+03  0.27648417418E+03 -0.11953056828E+03  0.35301718754E+03  0.50400001928E-02 0.  1.
       -1    1    3    3    0  502  0.18409258362E+03 -0.27648417418E+03 -0.37515803146E+03  0.50107596881E+03  0.50400001928E-02 0. -1.
</event>
<event>
 5   0  0.2751729E-02  0.6481662E+03  0.7818609E-02  0.9810226E-01
       -1   -1    0    0    0  501  0.00000000000E+00  0.00000000000E+00  0.12341117664E+03  0.12341117674E+03  0.50400001928E-02 0. -1.
        1   -1    0    0  501    0  0.00000000000E+00  0.00000000000E+00 -0.85105619527E+03  0.85105619529E+03  0.50400001928E-02 0.  1.
    10030    2    1    2    0    0  0.00000000000E+00  0.00000000000E+00 -0.72764501863E+03  0.97446737203E+03  0.64816617160E+03 0.  0.
        1    1    3    3  502    0  0.10843001582E+03  0.26714299344E+03 -0.14129876843E+03  0.32107287219E+03  0.50400001928E-02 0. -1.
       -1    1    3    3    0  502 -0.10843001582E+03 -0.26714299344E+03 -0.58634625020E+03  0.65339449984E+03  0.50400001928E-02 0.  1.
</event>
<event>
 5   0  0.2777999E-02  0.7009468E+03  0.7818609E-02  0.9715614E-01
       -1   -1    0    0    0  501  0.00000000000E+00  0.00000000000E+00  0.11436555974E+03  0.11436555985E+03  0.50400001928E-02 0. -1.
        1   -1    0    0  501    0  0.00000000000E+00  0.00000000000E+00 -0.10740261744E+04  0.10740261744E+04  0.50400001928E-02 0.  1.
    10030    2    1    2    0    0  0.00000000000E+00  0.00000000000E+00 -0.95966061461E+03  0.11883917342E+04  0.70094680164E+03 0.  0.
        5    1    3    3  502    0  0.29910821557E+03 -0.15956660849E+03 -0.63035255684E+03  0.71574692670E+03  0.46999998093E+01 0.  1.
       -5    1    3    3    0  502 -0.29910821557E+03  0.15956660849E+03 -0.32930805777E+03  0.47264480752E+03  0.46999998093E+01 0. -1.
</event>
<event>
 5   0  0.4526837E-02  0.7253647E+03  0.7818609E-02  0.9674812E-01
        2   -1    0    0  501    0  0.00000000000E+00  0.00000000000E+00  0.16420751372E+04  0.16420751372E+04  0.25500000920E-02 0.  1.
       -2   -1    0    0    0  501  0.00000000000E+00  0.00000000000E+00 -0.80105025893E+02  0.80105025934E+02  0.25500000920E-02 0. -1.
    10030    2    1    2    0    0  0.00000000000E+00  0.00000000000E+00  0.15619701113E+04  0.17221801631E+04  0.72536465703E+03 0.  0.
        1    1    3    3  502    0  0.31266628951E+03  0.17000822107E+03  0.61520574576E+03  0.71073280033E+03  0.50400001928E-02 0. -1.
       -1    1    3    3    0  502 -0.31266628951E+03 -0.17000822107E+03  0.94676436550E+03  0.10114473628E+04  0.50400001928E-02 0.  1.
</event>
<event>
 5   0  0.2777999E-02  0.6990545E+03  0.7818609E-02  0.9718850E-01
       -1   -1    0    0    0  501  0.00000000000E+00  0.00000000000E+00  0.41753286181E+03  0.41753286184E+03  0.50400001928E-02 0.  1.
        1   -1    0    0  501    0  0.00000000000E+00  0.00000000000E+00 -0.29259807535E+03  0.29259807540E+03  0.50400001928E-02 0. -1.
    10030    2    1    2    0    0  0.00000000000E+00  0.00000000000E+00  0.12493478646E+03  0.71013093724E+03  0.69905453804E+03 0.  0.
        5    1    3    3  502    0 -0.30453519532E+03  0.41142463893E+02  0.23157683121E+03  0.38481723750E+03  0.46999998093E+01 0.  1.
       -5    1    3    3    0  502  0.30453519532E+03 -0.41142463893E+02 -0.10664204476E+03  0.32531369973E+03  0.46999998093E+01 0. -1.
</event>
<event>
 5   0  0.2758681E-02  0.7029384E+03  0.7818609E-02  0.9712220E-01
        1   -1    0    0  501    0  0.00000000000E+00  0.00000000000E+00  0.25287441363E+03  0.25287441368E+03  0.50400001928E-02 0.  1.
       -1   -1    0    0    0  501  0.00000000000E+00  0.00000000000E+00 -0.48850570226E+03  0.48850570228E+03  0.50400001928E-02 0. -1.
    10030    2    1    2    0    0  0.00000000000E+00  0.00000000000E+00 -0.23563128863E+03  0.74138011597E+03  0.70293838434E+03 0.  0.
        3    1    3    3  502    0 -0.29835389164E+02  0.32087789813E+03  0.30133351640E+02  0.32366773864E+03  0.10100000352E+00 0.  1.
       -3    1    3    3    0  502  0.29835389164E+02 -0.32087789813E+03 -0.26576464027E+03  0.41771237733E+03  0.10100000352E+00 0. -1.
</event>
<event>
 5   0  0.2684924E-02  0.6924874E+03  0.7818609E-02  0.9730167E-01
       -1   -1    0    0    0  501  0.00000000000E+00  0.00000000000E+00  0.13479353085E+03  0.13479353094E+03  0.50400001928E-02 0.  1.
        1   -1    0    0  501    0  0.00000000000E+00  0.00000000000E+00 -0.88939506281E+03  0.88939506283E+03  0.50400001928E-02 0. -1.
    10030    2    1    2    0    0  0.00000000000E+00  0.00000000000E+00 -0.75460153196E+03  0.10241885938E+04  0.69248740319E+03 0.  0.
        4    1    3    3  502    0  0.17079253882E+03  0.10841577711E+03 -0.79289443277E+03  0.81829534183E+03  0.12699999809E+01 0. -1.
       -4    1    3    3    0  502 -0.17079253882E+03 -0.10841577711E+03  0.38292900808E+02  0.20589325194E+03  0.12699999809E+01 0.  1.
</event>
<event>
 5   0  0.4420645E-02  0.6813387E+03  0.7818609E-02  0.9749689E-01
        2   -1    0    0  501    0  0.00000000000E+00  0.00000000000E+00  0.54915220955E+03  0.54915220956E+03  0.25500000920E-02 0. -1.
       -2   -1    0    0    0  501  0.00000000000E+00  0.00000000000E+00 -0.21133595370E+03  0.21133595372E+03  0.25500000920E-02 0.  1.
    10030    2    1    2    0    0  0.00000000000E+00  0.00000000000E+00  0.33781625585E+03  0.76048816328E+03  0.68133869975E+03 0.  0.
        5    1    3    3  502    0  0.32481839530E+03 -0.64798328532E+02  0.25769575155E+03  0.41968440961E+03  0.46999998093E+01 0. -1.
       -5    1    3    3    0  502 -0.32481839530E+03  0.64798328532E+02  0.80120504302E+02  0.34080375367E+03  0.46999998093E+01 0.  1.
</event>
<event>
 5   0  0.4526837E-02  0.6810595E+03  0.7818609E-02  0.9750183E-01
        2   -1    0    0  501    0  0.00000000000E+00  0.00000000000E+00  0.23680674719E+03  0.23680674720E+03  0.25500000920E-02 0. -1.
       -2   -1    0    0    0  501  0.00000000000E+00  0.00000000000E+00 -0.48968418827E+03  0.48968418828E+03  0.25500000920E-02 0.  1.
    10030    2    1    2    0    0  0.00000000000E+00  0.00000000000E+00 -0.25287744108E+03  0.72649093548E+03  0.68105952686E+03 0.  0.
        1    1    3    3  502    0 -0.16683814647E+03 -0.24133586436E+03 -0.31083577454E+03  0.42743051518E+03  0.50400001928E-02 0.  1.
       -1    1    3    3    0  502  0.16683814647E+03  0.24133586436E+03  0.57958333463E+02  0.29906042030E+03  0.50400001928E-02 0. -1.
</event>
<event>
 5   0  0.2750139E-02  0.6999719E+03  0.7818609E-02  0.9717280E-01
        1   -1    0    0  501    0  0.00000000000E+00  0.00000000000E+00  0.96125222445E+03  0.96125222446E+03  0.50400001928E-02 0.  1.
       -1   -1    0    0    0  501  0.00000000000E+00  0.00000000000E+00 -0.12742772251E+03  0.12742772260E+03  0.50400001928E-02 0. -1.
    10030    2    1    2    0    0  0.00000000000E+00  0.00000000000E+00  0.83382450194E+03  0.10886799471E+04  0.69997194737E+03 0.  0.
        2    1    3    3  502    0 -0.13407263294E+03 -0.15358126186E+03 -0.25541283692E+02  0.20546297009E+03  0.25500000920E-02 0. -1.
       -2    1    3    3    0  502  0.13407263294E+03  0.15358126186E+03  0.85936578563E+03  0.88321697698E+03  0.25500000920E-02 0.  1.
</event>
<event>
 5   0  0.2777999E-02  0.7048979E+03  0.7818609E-02  0.9708893E-01
        1   -1    0    0  501    0  0.00000000000E+00  0.00000000000E+00  0.16949782647E+04  0.16949782647E+04  0.50400001928E-02 0.  1.
       -1   -1    0    0    0  501  0.00000000000E+00  0.00000000000E+00 -0.73287235248E+02  0.73287235421E+02  0.50400001928E-02 0. -1.
    10030    2    1    2    0    0  0.00000000000E+00  0.00000000000E+00  0.16216910295E+04  0.17682655001E+04  0.70489792448E+03 0.  0.
        5    1    3    3  502    0 -0.13895189303E+03 -0.19073183534E+03  0.14674507017E+04  0.14863108401E+04  0.46999998093E+01 0.  1.
       -5    1    3    3    0  502  0.13895189303E+03  0.19073183534E+03  0.15424032775E+03  0.28195465999E+03  0.46999998093E+01 0. -1.
</event>
<event>
 5   0  0.4299912E-02  0.7180272E+03  0.7818609E-02  0.9686890E-01
        2   -1    0    0  501    0  0.00000000000E+00  0.00000000000E+00  0.14547209468E+04  0.14547209468E+04  0.25500000920E-02 0.  1.
       -2   -1    0    0    0  501  0.00000000000E+00  0.00000000000E+00 -0.88601721444E+02  0.88601721481E+02  0.25500000920E-02 0. -1.
    10030    2    1    2    0    0  0.00000000000E+00  0.00000000000E+00  0.13661192254E+04  0.15433226683E+04  0.71802724221E+03 0.  0.
        3    1    3    3  502    0 -0.16324076977E+03  0.24265360024E+02  0.13683567734E+04  0.13782730593E+04  0.10100000352E+00 0.  1.
       -3    1    3    3    0  502  0.16324076977E+03 -0.24265360024E+02 -0.22375479692E+01  0.16504960901E+03  0.10100000352E+00 0. -1.
</event>
<event>
 5   0  0.4526837E-02  0.7203862E+03  0.7818609E-02  0.9682991E-01
       -2   -1    0    0    0  501  0.00000000000E+00  0.00000000000E+00  0.20171138586E+03  0.20171138588E+03  0.25500000920E-02 0.  1.
        2   -1    0    0  501    0  0.00000000000E+00  0.00000000000E+00 -0.64319158917E+03  0.64319158917E+03  0.25500000920E-02 0. -1.
    10030    2    1    2    0    0  0.00000000000E+00  0.00000000000E+00 -0.44148020331E+03  0.84490297505E+03  0.72038619319E+03 0.  0.
        1    1    3    3  502    0  0.33670321988E+03  0.41640941052E+01 -0.37072094104E+03  0.50081974213E+03  0.50400001928E-02 0.  1.
       -1    1    3    3    0  502 -0.33670321988E+03 -0.41640941052E+01 -0.70759262265E+02  0.34408323292E+03  0.50400001928E-02 0. -1.
</event>
<event>
 5   0  0.1784625E-02  0.6952377E+03  0.7818609E-02  0.9725411E-01
       -3   -1    0    0    0  501  0.00000000000E+00  0.00000000000E+00  0.48329848510E+02  0.48329954045E+02  0.10100000352E+00 0.  1.
        3   -1    0    0  501    0  0.00000000000E+00  0.00000000000E+00 -0.25002918151E+04  0.25002918172E+04  0.10100000352E+00 0. -1.
    10030    2    1    2    0    0  0.00000000000E+00  0.00000000000E+00 -0.24519619666E+04  0.25486217712E+04  0.69523769098E+03 0.  0.
        4    1    3    3  502    0  0.28300184856E+03  0.42543752199E+02 -0.19493411935E+04  0.19702367164E+04  0.12699999809E+01 0. -1.
       -4    1    3    3    0  502 -0.28300184856E+03 -0.42543752199E+02 -0.50262077312E+03  0.57838505480E+03  0.12699999809E+01 0.  1.
</event>
<event>
 5   0  0.2777999E-02  0.6998386E+03  0.7818609E-02  0.9717508E-01
       -1   -1    0    0    0  501  0.00000000000E+00  0.00000000000E+00  0.37381002249E+03  0.37381002253E+03  0.50400001928E-02 0. -1.
        1   -1    0    0  501    0  0.00000000000E+00  0.00000000000E+00 -0.32755544636E+03  0.32755544640E+03  0.50400001928E-02 0.  1.
    10030    2    1    2    0    0  0.00000000000E+00  0.00000000000E+00  0.46254576128E+02  0.70136546893E+03  0.69983857795E+03 0.  0.
        5    1    3    3  502    0 -0.33305500358E+03 -0.10707226154E+03  0.17519170167E+02  0.35031288290E+03  0.46999998093E+01 0. -1.
       -5    1    3    3    0  502  0.33305500358E+03  0.10707226154E+03  0.28735405961E+02  0.35105258603E+03  0.46999998093E+01 0.  1.
</event>
<event>
 5   0  0.2750139E-02  0.6687879E+03  0.7818609E-02  0.9772150E-01
       -1   -1    0    0    0  501  0.00000000000E+00  0.00000000000E+00  0.10595571718E+03  0.10595571730E+03  0.50400001928E-02 0.  1.
        1   -1    0    0  501    0  0.00000000000E+00  0.00000000000E+00 -0.10553402185E+04  0.10553402185E+04  0.50400001928E-02 0. -1.
    10030    2    1    2    0    0  0.00000000000E+00  0.00000000000E+00 -0.94938450131E+03  0.11612959358E+04  0.66878794785E+03 0.  0.
        2    1    3    3  502    0 -0.79325500477E+02  0.32413288510E+03 -0.51212275198E+03  0.61124821091E+03  0.25500000920E-02 0. -1.
       -2    1    3    3    0  502  0.79325500477E+02 -0.32413288510E+03 -0.43726174932E+03  0.55004772489E+03  0.25500000920E-02 0.  1.
</event>
<event>
 5   0  0.2777999E-02  0.6932185E+03  0.7818609E-02  0.9728900E-01
       -1   -1    0    0    0  501  0.00000000000E+00  0.00000000000E+00  0.89308581365E+02  0.89308581508E+02  0.50400001928E-02 0.  1.
        1   -1    0    0  501    0  0.00000000000E+00  0.00000000000E+00 -0.13452006737E+04  0.13452006737E+04  0.50400001928E-02 0. -1.
    10030    2    1    2    0    0  0.00000000000E+00  0.00000000000E+00 -0.12558920923E+04  0.14345092552E+04  0.69321847618E+03 0.  0.
        5    1    3    3  502    0 -0.16836437253E+03 -0.17298531032E+03 -0.11332575403E+03  0.26671200957E+03  0.46999998093E+01 0.  1.
       -5    1    3    3    0  502  0.16836437253E+03  0.17298531032E+03 -0.11425663383E+04  0.11677972457E+04  0.46999998093E+01 0. -1.
</event>
<event>
 5   0  0.2750139E-02  0.6952531E+03  0.7818609E-02  0.9725385E-01
       -1   -1    0    0    0  501  0.00000000000E+00  0.00000000000E+00  0.32873008176E+03  0.32873008180E+03  0.50400001928E-02 0. -1.
        1   -1    0    0  501    0  0.00000000000E+00  0.00000000000E+00 -0.36760929505E+03  0.36760929509E+03  0.50400001928E-02 0.  1.
    10030    2    1    2    0    0  0.00000000000E+00  0.00000000000E+00 -0.38879213294E+02  0.69633937688E+03  0.69525314424E+03 0.  0.
        2    1    3    3  502    0 -0.19462059912E+03  0.89483717380E+02 -0.29365508909E+03  0.36348015714E+03  0.25500000920E-02 0.  1.
       -2    1    3    3    0  502  0.19462059912E+03 -0.89483717380E+02  0.25477587579E+03  0.33285921975E+03  0.25500000920E-02 0. -1.
</event>
<event>
 5   0  0.2777999E-02  0.6656249E+03  0.7818609E-02  0.9777894E-01
       -1   -1    0    0    0  501  0.00000000000E+00  0.00000000000E+00  0.43922463466E+03  0.43922463469E+03  0.50400001928E-02 0.  1.
        1   -1    0    0  501    0  0.00000000000E+00  0.00000000000E+00 -0.25218108168E+03  0.25218108173E+03  0.50400001928E-02 0. -1.
    10030    2    1    2    0    0  0.00000000000E+00  0.00000000000E+00  0.18704355298E+03  0.69140571642E+03  0.66562494994E+03 0.  0.
        5    1    3    3  502    0 -0.10416825444E+03 -0.27659619400E+03  0.25236818064E+03  0.38867501639E+03  0.46999998093E+01 0.  1.
       -5    1    3    3    0  502  0.10416825444E+03  0.27659619400E+03 -0.65324627652E+02  0.30273070003E+03  0.46999998093E+01 0. -1.
</event>
<event>
 5   0  0.1784625E-02  0.7135232E+03  0.7818609E-02  0.9694381E-01
       -4   -1    0    0    0  501  0.00000000000E+00  0.00000000000E+00  0.27768038698E+03  0.27768329121E+03  0.12699999809E+01 0. -1.
        4   -1    0    0  501    0  0.00000000000E+00  0.00000000000E+00 -0.45835828796E+03  0.45836004739E+03  0.12699999809E+01 0.  1.
    10030    2    1    2    0    0  0.00000000000E+00  0.00000000000E+00 -0.18067790098E+03  0.73604333860E+03  0.71352315477E+03 0.  0.
        4    1    3    3  502    0 -0.35091242393E+03  0.18225385822E+01 -0.24010565510E+02  0.35173991964E+03  0.12699999809E+01 0. -1.
       -4    1    3    3    0  502  0.35091242393E+03 -0.18225385822E+01 -0.15666733547E+03  0.38430341895E+03  0.12699999809E+01 0.  1.
</event>
<event>
 5   0  0.4299912E-02  0.7009887E+03  0.7818609E-02  0.9715543E-01
        2   -1    0    0  501    0  0.00000000000E+00  0.00000000000E+00  0.95763858743E+03  0.95763858743E+03  0.25500000920E-02 0. -1.
       -2   -1    0    0    0  501  0.00000000000E+00  0.00000000000E+00 -0.12828042537E+03  0.12828042540E+03  0.25500000920E-02 0.  1.
    10030    2    1    2    0    0  0.00000000000E+00  0.00000000000E+00  0.82935816206E+03  0.10859190128E+04  0.70098868854E+03 0.  0.
        3    1    3    3  502    0  0.26795507916E+03 -0.87370678854E+02  0.91907788359E+02  0.29644664230E+03  0.10100000352E+00 0.  1.
       -3    1    3    3    0  502 -0.26795507916E+03  0.87370678854E+02  0.73745037370E+03  0.78947237053E+03  0.10100000352E+00 0. -1.
</event>
<event>
 5   0  0.4503289E-02  0.6941075E+03  0.7818609E-02  0.9727362E-01
       -2   -1    0    0    0  501  0.00000000000E+00  0.00000000000E+00  0.13044054194E+03  0.13044054197E+03  0.25500000920E-02 0. -1.
        2   -1    0    0  501    0  0.00000000000E+00  0.00000000000E+00 -0.92338101109E+03  0.92338101109E+03  0.25500000920E-02 0.  1.
    10030    2    1    2    0    0  0.00000000000E+00  0.00000000000E+00 -0.79294046914E+03  0.10538215531E+04  0.69410754072E+03 0.  0.
        2    1    3    3  502    0  0.73917488496E+02  0.33830024735E+03 -0.43160254328E+03  0.55334583024E+03  0.25500000920E-02 0.  1.
       -2    1    3    3    0  502 -0.73917488496E+02 -0.33830024735E+03 -0.36133792586E+03  0.50047572282E+03  0.25500000920E-02 0. -1.
</event>
<event>
 5   0  0.4526837E-02  0.6946234E+03  0.7818609E-02  0.9726471E-01
        2   -1    0    0  501    0  0.00000000000E+00  0.00000000000E+00  0.17161380577E+04  0.17161380577E+04  0.25500000920E-02 0.  1.
       -2   -1    0    0    0  501  0.00000000000E+00  0.00000000000E+00 -0.70288874625E+02  0.70288874671E+02  0.25500000920E-02 0. -1.
    10030    2    1    2    0    0  0.00000000000E+00  0.00000000000E+00  0.16458491830E+04  0.17864269323E+04  0.69462338808E+03 0.  0.
        1    1    3    3  502    0 -0.21002657499E+03 -0.27210388345E+03  0.69501245358E+03  0.77536700745E+03  0.50400001928E-02 0. -1.
       -1    1    3    3    0  502  0.21002657499E+03  0.27210388345E+03  0.95083672945E+03  0.10110599249E+04  0.50400001928E-02 0.  1.
</event>
<event>
 5   0  0.2750139E-02  0.6913557E+03  0.7818609E-02  0.9732130E-01
        1   -1    0    0  501    0  0.00000000000E+00  0.00000000000E+00  0.11175477068E+04  0.11175477068E+04  0.50400001928E-02 0. -1.
       -1   -1    0    0    0  501  0.00000000000E+00  0.00000000000E+00 -0.10692446026E+03  0.10692446038E+03  0.50400001928E-02 0.  1.
    10030    2    1    2    0    0  0.00000000000E+00  0.00000000000E+00  0.10106232465E+04  0.12244721672E+04  0.69135572736E+03 0.  0.
        2    1    3    3  502    0 -0.54458880870E+01 -0.16384358681E+03 -0.33698527144E+02  0.16736179185E+03  0.25500000920E-02 0.  1.
       -2    1    3    3    0  502  0.54458880870E+01  0.16384358681E+03  0.10443217737E+04  0.10571103753E+04  0.25500000920E-02 0. -1.
</event>
<event>
 5   0  0.4365492E-02  0.7011728E+03  0.7818609E-02  0.9715229E-01
       -2   -1    0    0    0  501  0.00000000000E+00  0.00000000000E+00  0.11268298340E+04  0.11268298340E+04  0.25500000920E-02 0.  1.
        2   -1    0    0  501    0  0.00000000000E+00  0.00000000000E+00 -0.10907663673E+03  0.10907663676E+03  0.25500000920E-02 0. -1.
    10030    2    1    2    0    0  0.00000000000E+00  0.00000000000E+00  0.10177531972E+04  0.12359064707E+04  0.70117275610E+03 0.  0.
        4    1    3    3  502    0 -0.14209600508E+03 -0.29834157816E+03  0.30248935901E+03  0.44799597893E+03  0.12699999809E+01 0. -1.
       -4    1    3    3    0  502  0.14209600508E+03  0.29834157816E+03  0.71526383823E+03  0.78791049181E+03  0.12699999809E+01 0.  1.
</event>
<event>
 5   0  0.2684924E-02  0.6982837E+03  0.7818609E-02  0.9720172E-01
        1   -1    0    0  501    0  0.00000000000E+00  0.00000000000E+00  0.92811763616E+03  0.92811763617E+03  0.50400001928E-02 0. -1.
       -1   -1    0    0    0  501  0.00000000000E+00  0.00000000000E+00 -0.13134113585E+03  0.13134113595E+03  0.50400001928E-02 0.  1.
    10030    2    1    2    0    0  0.00000000000E+00  0.00000000000E+00  0.79677650031E+03  0.10594587721E+04  0.69828368045E+03 0.  0.
        4    1    3    3  502    0  0.18076008394E+03  0.10485452150E+03  0.82275181898E+03  0.84887622606E+03  0.12699999809E+01 0. -1.
       -4    1    3    3    0  502 -0.18076008394E+03 -0.10485452150E+03 -0.25975318674E+02  0.21058254606E+03  0.12699999809E+01 0.  1.
</event>
<event>
 5   0  0.2750139E-02  0.7023554E+03  0.7818609E-02  0.9713213E-01
       -1   -1    0    0    0  501  0.00000000000E+00  0.00000000000E+00  0.19785386863E+03  0.19785386869E+03  0.50400001928E-02 0. -1.
        1   -1    0    0  501    0  0.00000000000E+00  0.00000000000E+00 -0.62331750884E+03  0.62331750886E+03  0.50400001928E-02 0.  1.
    10030    2    1    2    0    0  0.00000000000E+00  0.00000000000E+00 -0.42546364021E+03  0.82117137755E+03  0.70235541015E+03 0.  0.
        2    1    3    3  502    0  0.26369896742E+02 -0.34654798648E+03 -0.27159686381E+03  0.44108472523E+03  0.25500000920E-02 0.  1.
       -2    1    3    3    0  502 -0.26369896742E+02  0.34654798648E+03 -0.15386677640E+03  0.38008665233E+03  0.25500000920E-02 0. -1.
</event>
<event>
 5   0  0.4299912E-02  0.6913945E+03  0.7818609E-02  0.9732063E-01
        2   -1    0    0  501    0  0.00000000000E+00  0.00000000000E+00  0.11700642101E+04  0.11700642101E+04  0.25500000920E-02 0. -1.
       -2   -1    0    0    0  501  0.00000000000E+00  0.00000000000E+00 -0.10213677106E+03  0.10213677109E+03  0.25500000920E-02 0.  1.
    10030    2    1    2    0    0  0.00000000000E+00  0.00000000000E+00  0.10679274390E+04  0.12722009812E+04  0.69139447603E+03 0.  0.
        3    1    3    3  502    0  0.29402186310E+03  0.15225247356E+03  0.71683273034E+03  0.78960676617E+03  0.10100000352E+00 0. -1.
       -3    1    3    3    0  502 -0.29402186310E+03 -0.15225247356E+03  0.35109470868E+03  0.48259421500E+03  0.10100000352E+00 0.  1.
</event>
<event>
 5   0  0.2758681E-02  0.7012758E+03  0.7818609E-02  0.9715053E-01
       -1   -1    0    0    0  501  0.00000000000E+00  0.00000000000E+00  0.61308206541E+03  0.61308206543E+03  0.50400001928E-02 0. -1.
        1   -1    0    0  501    0  0.00000000000E+00  0.00000000000E+00 -0.20053911335E+03  0.20053911342E+03  0.50400001928E-02 0.  1.
    10030    2    1    2    0    0  0.00000000000E+00  0.00000000000E+00  0.41254295205E+03  0.81362117885E+03  0.70127579124E+03 0.  0.
        3    1    3    3  502    0 -0.27616096036E+03  0.29571287655E+02  0.45458598928E+03  0.53271734431E+03  0.10100000352E+00 0. -1.
       -3    1    3    3    0  502  0.27616096036E+03 -0.29571287655E+02 -0.42043037221E+02  0.28090383454E+03  0.10100000352E+00 0.  1.
</event>
<event>
 5   0  0.4299912E-02  0.7002673E+03  0.7818609E-02  0.9716775E-01
       -2   -1    0    0    0  501  0.00000000000E+00  0.00000000000E+00  0.65016831724E+02  0.65016831774E+02  0.25500000920E-02 0. -1.
        2   -1    0    0  501    0  0.00000000000E+00  0.00000000000E+00 -0.18855665790E+04  0.18855665790E+04  0.25500000920E-02 0.  1.
    10030    2    1    2    0    0  0.00000000000E+00  0.00000000000E+00 -0.18205497472E+04  0.19505834107E+04  0.70026727760E+03 0.  0.
        3    1    3    3  502    0 -0.17216039336E+02  0.52338803261E+02 -0.18734154362E+04  0.18742254798E+04  0.10100000352E+00 0.  1.
       -3    1    3    3    0  502  0.17216039336E+02 -0.52338803261E+02  0.52865688998E+02  0.76357930901E+02  0.10100000352E+00 0. -1.
</event>
<event>
 5   0  0.1784625E-02  0.6999402E+03  0.7818609E-02  0.9717334E-01
       -3   -1    0    0    0  501  0.00000000000E+00  0.00000000000E+00  0.66366348729E+03  0.66366349498E+03  0.10100000352E+00 0.  1.
        3   -1    0    0  501    0  0.00000000000E+00  0.00000000000E+00 -0.18454995398E+03  0.18454998162E+03  0.10100000352E+00 0. -1.
    10030    2    1    2    0    0  0.00000000000E+00  0.00000000000E+00  0.47911353331E+03  0.84821347660E+03  0.69994022893E+03 0.  0.
        1    1    3    3  502    0  0.28808622561E+03 -0.97107593656E+02  0.44964723872E+03  0.54277637886E+03  0.50400001928E-02 0.  1.
       -1    1    3    3    0  502 -0.28808622561E+03  0.97107593656E+02  0.29466294596E+02  0.30543709774E+03  0.50400001928E-02 0. -1.
</event>
<event>
 5   0  0.2684924E-02  0.6873172E+03  0.7818609E-02  0.9739171E-01
       -1   -1    0    0    0  501  0.00000000000E+00  0.00000000000E+00  0.17639346355E+03  0.17639346362E+03  0.50400001928E-02 0.  1.
        1   -1    0    0  501    0  0.00000000000E+00  0.00000000000E+00 -0.66953287225E+03  0.66953287227E+03  0.50400001928E-02 0. -1.
    10030    2    1    2    0    0  0.00000000000E+00  0.00000000000E+00 -0.49313940870E+03  0.84592633589E+03  0.68731716794E+03 0.  0.
        4    1    3    3  502    0 -0.11747517824E+03 -0.28408902374E+03 -0.57525474200E+02  0.31275834760E+03  0.12699999809E+01 0.  1.
       -4    1    3    3    0  502  0.11747517824E+03  0.28408902374E+03 -0.43561393450E+03  0.53316798829E+03  0.12699999809E+01 0. -1.
</event>
<event>
 5   0  0.2777999E-02  0.6957112E+03  0.7818609E-02  0.9724595E-01
       -1   -1    0    0    0  501  0.00000000000E+00  0.00000000000E+00  0.63520007033E+03  0.63520007035E+03  0.50400001928E-02 0.  1.
        1   -1    0    0  501    0  0.00000000000E+00  0.00000000000E+00 -0.19049672511E+03  0.19049672518E+03  0.50400001928E-02 0. -1.
    10030    2    1    2    0    0  0.00000000000E+00  0.00000000000E+00  0.44470334522E+03  0.82569679552E+03  0.69571124246E+03 0.  0.
        5    1    3    3  502    0  0.25763465248E+03  0.12152402340E+02  0.49931547461E+03  0.56201541636E+03  0.46999998093E+01 0.  1.
       -5    1    3    3    0  502 -0.25763465248E+03 -0.12152402340E+02 -0.54612129395E+02  0.26368137916E+03  0.46999998093E+01 0. -1.
</event>
<event>
 5   0  0.4420645E-02  0.7090725E+03  0.7818609E-02  0.9701842E-01
        2   -1    0    0  501    0  0.00000000000E+00  0.00000000000E+00  0.27402812221E+03  0.27402812223E+03  0.25500000920E-02 0. -1.
       -2   -1    0    0    0  501  0.00000000000E+00  0.00000000000E+00 -0.45869727214E+03  0.45869727215E+03  0.25500000920E-02 0.  1.
    10030    2    1    2    0    0  0.00000000000E+00  0.00000000000E+00 -0.18466914993E+03  0.73272539438E+03  0.70907249885E+03 0.  0.
        5    1    3    3  502    0  0.54810414722E+02 -0.77770119596E+02 -0.44522501463E+03  0.45530185231E+03  0.46999998093E+01 0.  1.
       -5    1    3    3    0  502 -0.54810414722E+02  0.77770119596E+02  0.26055586470E+03  0.27742354207E+03  0.46999998093E+01 0. -1.
</event>
<event>
 5   0  0.2751729E-02  0.6954974E+03  0.7818609E-02  0.9724963E-01
       -1   -1    0    0    0  501  0.00000000000E+00  0.00000000000E+00  0.77413125493E+03  0.77413125494E+03  0.50400001928E-02 0.  1.
        1   -1    0    0  501    0  0.00000000000E+00  0.00000000000E+00 -0.15621273367E+03  0.15621273375E+03  0.50400001928E-02 0. -1.
    10030    2    1    2    0    0  0.00000000000E+00  0.00000000000E+00  0.61791852126E+03  0.93034398869E+03  0.69549740358E+03 0.  0.
        1    1    3    3  502    0  0.18424118932E+03 -0.29252838794E+03  0.35921507636E+03  0.49855104524E+03  0.50400001928E-02 0. -1.
       -1    1    3    3    0  502 -0.18424118932E+03  0.29252838794E+03  0.25870344489E+03  0.43179294346E+03  0.50400001928E-02 0.  1.
</event>
<event>
 5   0  0.4420645E-02  0.6975337E+03  0.7818609E-02  0.9721459E-01
       -2   -1    0    0    0  501  0.00000000000E+00  0.00000000000E+00  0.11441726582E+03  0.11441726585E+03  0.25500000920E-02 0. -1.
        2   -1    0    0  501    0  0.00000000000E+00  0.00000000000E+00 -0.10631115174E+04  0.10631115174E+04  0.25500000920E-02 0.  1.
    10030    2    1    2    0    0  0.00000000000E+00  0.00000000000E+00 -0.94869425158E+03  0.11775287833E+04  0.69753369267E+03 0.  0.
        5    1    3    3  502    0 -0.16289399263E+03 -0.20159469850E+03 -0.80460916138E+02  0.27142388311E+03  0.46999998093E+01 0. -1.
       -5    1    3    3    0  502  0.16289399263E+03  0.20159469850E+03 -0.86823333544E+03  0.90610490014E+03  0.46999998093E+01 0.  1.
</event>
<event>
 5   0  0.2750139E-02  0.7184346E+03  0.7818609E-02  0.9686216E-01
        1   -1    0    0  501    0  0.00000000000E+00  0.00000000000E+00  0.29360359920E+03  0.29360359924E+03  0.50400001928E-02 0.  1.
       -1   -1    0    0    0  501  0.00000000000E+00  0.00000000000E+00 -0.43949412085E+03  0.43949412087E+03  0.50400001928E-02 0. -1.
    10030    2    1    2    0    0  0.00000000000E+00  0.00000000000E+00 -0.14589052165E+03  0.73309772011E+03  0.71843456412E+03 0.  0.
        2    1    3    3  502    0 -0.13753493066E+03 -0.17645546840E+03 -0.35972340128E+03  0.42361930423E+03  0.25500000920E-02 0. -1.
       -2    1    3    3    0  502  0.13753493066E+03  0.17645546840E+03  0.21383287963E+03  0.30947841588E+03  0.25500000920E-02 0.  1.
</event>
<event>
 5   0  0.2758681E-02  0.7034637E+03  0.7818609E-02  0.9711327E-01
       -1   -1    0    0    0  501  0.00000000000E+00  0.00000000000E+00  0.27058121081E+03  0.27058121086E+03  0.50400001928E-02 0. -1.
        1   -1    0    0  501    0  0.00000000000E+00  0.00000000000E+00 -0.45722061004E+03  0.45722061007E+03  0.50400001928E-02 0.  1.
    10030    2    1    2    0    0  0.00000000000E+00  0.00000000000E+00 -0.18663939923E+03  0.72780182093E+03  0.70346373411E+03 0.  0.
        3    1    3    3  502    0  0.23712467415E+03 -0.17824543576E+03 -0.28884425626E+03  0.41404173828E+03  0.10100000352E+00 0.  1.
       -3    1    3    3    0  502 -0.23712467415E+03  0.17824543576E+03  0.10220485704E+03  0.31376008265E+03  0.10100000352E+00 0. -1.
</event>
<event>
 5   0  0.1784625E-02  0.6941456E+03  0.7818609E-02  0.9727297E-01
        3   -1    0    0  501    0  0.00000000000E+00  0.00000000000E+00  0.16484460269E+03  0.16484463363E+03  0.10100000352E+00 0.  1.
       -3   -1    0    0    0  501  0.00000000000E+00  0.00000000000E+00 -0.73074589394E+03  0.73074590092E+03  0.10100000352E+00 0. -1.
    10030    2    1    2    0    0  0.00000000000E+00  0.00000000000E+00 -0.56590129125E+03  0.89559053456E+03  0.69414561451E+03 0.  0.
        1    1    3    3  502    0  0.19418031126E+03 -0.46275856568E+02 -0.64926926074E+03  0.67926285130E+03  0.50400001928E-02 0. -1.
       -1    1    3    3    0  502 -0.19418031126E+03  0.46275856568E+02  0.83367969489E+02  0.21632768326E+03  0.50400001928E-02 0.  1.
</event>
<event>
 5   0  0.2777999E-02  0.7015715E+03  0.7818609E-02  0.9714549E-01
        1   -1    0    0  501    0  0.00000000000E+00  0.00000000000E+00  0.16046226174E+04  0.16046226174E+04  0.50400001928E-02 0.  1.
       -1   -1    0    0    0  501  0.00000000000E+00  0.00000000000E+00 -0.76685088441E+02  0.76685088607E+02  0.50400001928E-02 0. -1.
    10030    2    1    2    0    0  0.00000000000E+00  0.00000000000E+00  0.15279375290E+04  0.16813077061E+04  0.70157145746E+03 0.  0.
        5    1    3    3  502    0 -0.34649070345E+03  0.54516444740E+02  0.76198219823E+03  0.83884850286E+03  0.46999998093E+01 0. -1.
       -5    1    3    3    0  502  0.34649070345E+03 -0.54516444740E+02  0.76595533077E+03  0.84245920320E+03  0.46999998093E+01 0.  1.
</event>
<event>
 5   0  0.4503289E-02  0.7055824E+03  0.7818609E-02  0.9707733E-01
        2   -1    0    0  501    0  0.00000000000E+00  0.00000000000E+00  0.19836855642E+03  0.19836855644E+03  0.25500000920E-02 0.  1.
       -2   -1    0    0    0  501  0.00000000000E+00  0.00000000000E+00 -0.62742622431E+03  0.62742622431E+03  0.25500000920E-02 0. -1.
    10030    2    1    2    0    0  0.00000000000E+00  0.00000000000E+00 -0.42905766788E+03  0.82579478075E+03  0.70558241017E+03 0.  0.
        2    1    3    3  502    0 -0.13489670824E+03  0.28671730431E+02 -0.59457129408E+03  0.61035580916E+03  0.25500000920E-02 0. -1.
       -2    1    3    3    0  502  0.13489670824E+03 -0.28671730431E+02  0.16551362620E+03  0.21543897160E+03  0.25500000920E-02 0.  1.
</event>
<event>
 5   0  0.4526837E-02  0.6918286E+03  0.7818609E-02  0.9731309E-01
        2   -1    0    0  501    0  0.00000000000E+00  0.00000000000E+00  0.26039829930E+03  0.26039829931E+03  0.25500000920E-02 0.  1.
       -2   -1    0    0    0  501  0.00000000000E+00  0.00000000000E+00 -0.45951410242E+03  0.45951410243E+03  0.25500000920E-02 0. -1.
    10030    2    1    2    0    0  0.00000000000E+00  0.00000000000E+00 -0.19911580312E+03  0.71991240174E+03  0.69182856484E+03 0.  0.
        1    1    3    3  502    0 -0.21717106540E+03  0.38826826564E+02 -0.37680512260E+03  0.43663817349E+03  0.50400001928E-02 0. -1.
       -1    1    3    3    0  502  0.21717106540E+03 -0.38826826564E+02  0.17768931948E+03  0.28327422825E+03  0.50400001928E-02 0.  1.
</event>
<event>
 5   0  0.2684924E-02  0.6997042E+03  0.7818609E-02  0.9717738E-01
        1   -1    0    0  501    0  0.00000000000E+00  0.00000000000E+00  0.25056190804E+03  0.25056190809E+03  0.50400001928E-02 0. -1.
       -1   -1    0    0    0  501  0.00000000000E+00  0.00000000000E+00 -0.48848798323E+03  0.48848798326E+03  0.50400001928E-02 0.  1.
    10030    2    1    2    0    0  0.00000000000E+00  0.00000000000E+00 -0.23792607519E+03  0.73904989135E+03  0.69970416938E+03 0.  0.
        4    1    3    3  502    0  0.52018116018E+02  0.29736595212E+03  0.67791417208E+02  0.30940213803E+03  0.12699999809E+01 0. -1.
       -4    1    3    3    0  502 -0.52018116018E+02 -0.29736595212E+03 -0.30571749239E+03  0.42964775331E+03  0.12699999809E+01 0.  1.
</event>
<event>
 5   0  0.2758681E-02  0.6951049E+03  0.7818609E-02  0.9725640E-01
        1   -1    0    0  501    0  0.00000000000E+00  0.00000000000E+00  0.18078891904E+03  0.18078891911E+03  0.50400001928E-02 0. -1.
       -1   -1    0    0    0  501  0.00000000000E+00  0.00000000000E+00 -0.66814219894E+03  0.66814219896E+03  0.50400001928E-02 0.  1.
    10030    2    1    2    0    0  0.00000000000E+00  0.00000000000E+00 -0.48735327991E+03  0.84893111807E+03  0.69510490129E+03 0.  0.
        3    1    3    3  502    0  0.11222433482E+03  0.20057671873E+03  0.74722839334E+02  0.24167919716E+03  0.10100000352E+00 0. -1.
       -3    1    3    3    0  502 -0.11222433482E+03 -0.20057671873E+03 -0.56207611924E+03  0.60725192091E+03  0.10100000352E+00 0.  1.
</event>
<event>
 5   0  0.2751729E-02  0.6888278E+03  0.7818609E-02  0.9736531E-01
        1   -1    0    0  501    0  0.00000000000E+00  0.00000000000E+00  0.13175632414E+03  0.13175632424E+03  0.50400001928E-02 0.  1.
       -1   -1    0    0    0  501  0.00000000000E+00  0.00000000000E+00 -0.90030555559E+03  0.90030555560E+03  0.50400001928E-02 0. -1.
    10030    2    1    2    0    0  0.00000000000E+00  0.00000000000E+00 -0.76854923145E+03  0.10320618798E+04  0.68882784690E+03 0.  0.
        1    1    3    3  502    0 -0.29877563188E+03  0.92858651013E+02 -0.16854549973E+03  0.35538316333E+03  0.50400001928E-02 0. -1.
       -1    1    3    3    0  502  0.29877563188E+03 -0.92858651013E+02 -0.60000373172E+03  0.67667871651E+03  0.50400001928E-02 0.  1.
</event>
<event>
 5   0  0.2750139E-02  0.6915320E+03  0.7818609E-02  0.9731824E-01
       -1   -1    0    0    0  501  0.00000000000E+00  0.00000000000E+00  0.95133904799E+02  0.95133904933E+02  0.50400001928E-02 0. -1.
        1   -1    0    0  501    0  0.00000000000E+00  0.00000000000E+00 -0.12566932416E+04  0.12566932416E+04  0.50400001928E-02 0.  1.
    10030    2    1    2    0    0  0.00000000000E+00  0.00000000000E+00 -0.11615593368E+04  0.13518271465E+04  0.69153202471E+03 0.  0.
        2    1    3    3  502    0 -0.26520858210E+03 -0.15448779990E+03 -0.89203408217E+03  0.94335935682E+03  0.25500000920E-02 0.  1.
       -2    1    3    3    0  502  0.26520858210E+03  0.15448779990E+03 -0.26952525459E+03  0.40846778968E+03  0.25500000920E-02 0. -1.
</event>
<event>
 5   0  0.4526837E-02  0.6965237E+03  0.7818609E-02  0.9723196E-01
       -2   -1    0    0    0  501  0.00000000000E+00  0.00000000000E+00  0.31783636341E+03  0.31783636342E+03  0.25500000920E-02 0. -1.
        2   -1    0    0  501    0  0.00000000000E+00  0.00000000000E+00 -0.38159984981E+03  0.38159984982E+03  0.25500000920E-02 0.  1.
    10030    2    1    2    0    0  0.00000000000E+00  0.00000000000E+00 -0.63763486403E+02  0.69943621324E+03  0.69652367813E+03 0.  0.
        1    1    3    3  502    0 -0.14839909086E+03 -0.29134648379E+03 -0.15230502763E+03  0.36069638929E+03  0.50400001928E-02 0.  1.
       -1    1    3    3    0  502  0.14839909086E+03  0.29134648379E+03  0.88541541222E+02  0.33873982395E+03  0.50400001928E-02 0. -1.
</event>
<event>
 5   0  0.4299912E-02  0.6990442E+03  0.7818609E-02  0.9718868E-01
       -2   -1    0    0    0  501  0.00000000000E+00  0.00000000000E+00  0.23466374127E+03  0.23466374129E+03  0.25500000920E-02 0.  1.
        2   -1    0    0  501    0  0.00000000000E+00  0.00000000000E+00 -0.52059902715E+03  0.52059902715E+03  0.25500000920E-02 0. -1.
    10030    2    1    2    0    0  0.00000000000E+00  0.00000000000E+00 -0.28593528587E+03  0.75526276844E+03  0.69904424873E+03 0.  0.
        3    1    3    3  502    0  0.69065326749E+02  0.45117694902E+02  0.22399443173E+03  0.23870304020E+03  0.10100000352E+00 0.  1.
       -3    1    3    3    0  502 -0.69065326749E+02 -0.45117694902E+02 -0.50992971760E+03  0.51655972825E+03  0.10100000352E+00 0. -1.
</event>
<event>
 5   0  0.2758681E-02  0.6938045E+03  0.7818609E-02  0.9727886E-01
       -1   -1    0    0    0  501  0.00000000000E+00  0.00000000000E+00  0.31537130907E+03  0.31537130911E+03  0.50400001928E-02 0. -1.
        1   -1    0    0  501    0  0.00000000000E+00  0.00000000000E+00 -0.38158570180E+03  0.38158570184E+03  0.50400001928E-02 0.  1.
    10030    2    1    2    0    0  0.00000000000E+00  0.00000000000E+00 -0.66214392733E+02  0.69695701095E+03  0.69380453249E+03 0.  0.
        3    1    3    3  502    0  0.26352468727E+03 -0.20452613119E+03 -0.12874995977E+03  0.35756504510E+03  0.10100000352E+00 0.  1.
       -3    1    3    3    0  502 -0.26352468727E+03  0.20452613119E+03  0.62535567037E+02  0.33939196585E+03  0.10100000352E+00 0. -1.
</event>
<event>
 5   0  0.4365492E-02  0.7035012E+03  0.7818609E-02  0.9711263E-01
       -2   -1    0    0    0  501  0.00000000000E+00  0.00000000000E+00  0.99670164121E+02  0.99670164153E+02  0.25500000920E-02 0. -1.
        2   -1    0    0  501    0  0.00000000000E+00  0.00000000000E+00 -0.12413794135E+04  0.12413794135E+04  0.25500000920E-02 0.  1.
    10030    2    1    2    0    0  0.00000000000E+00  0.00000000000E+00 -0.11417092494E+04  0.13410495777E+04  0.70350121507E+03 0.  0.
        4    1    3    3  502    0 -0.19941115204E+03 -0.13726220245E+03 -0.10573077933E+04  0.10846691212E+04  0.12699999809E+01 0.  1.
       -4    1    3    3    0  502  0.19941115204E+03  0.13726220245E+03 -0.84401456107E+02  0.25638045650E+03  0.12699999809E+01 0. -1.
</event>
<event>
 5   0  0.2758681E-02  0.6945803E+03  0.7818609E-02  0.9726546E-01
        1   -1    0    0  501    0  0.00000000000E+00  0.00000000000E+00  0.56163255058E+03  0.56163255060E+03  0.50400001928E-02 0. -1.
       -1   -1    0    0    0  501  0.00000000000E+00  0.00000000000E+00 -0.21474975577E+03  0.21474975583E+03  0.50400001928E-02 0.  1.
    10030    2    1    2    0    0  0.00000000000E+00  0.00000000000E+00  0.34688279481E+03  0.77638230643E+03  0.69458031387E+03 0.  0.
        3    1    3    3  502    0  0.29168464427E+03 -0.65308142989E+02 -0.24203160097E+02  0.29988479188E+03  0.10100000352E+00 0.  1.
       -3    1    3    3    0  502 -0.29168464427E+03  0.65308142989E+02  0.37108595491E+03  0.47649751455E+03  0.10100000352E+00 0. -1.
</event>
<event>
 5   0  0.2758681E-02  0.6994147E+03  0.7818609E-02  0.9718234E-01
       -1   -1    0    0    0  501  0.00000000000E+00  0.00000000000E+00  0.50968089549E+03  0.50968089552E+03  0.50400001928E-02 0.  1.
        1   -1    0    0  501    0  0.00000000000E+00  0.00000000000E+00 -0.23994467668E+03  0.23994467674E+03  0.50400001928E-02 0. -1.
    10030    2    1    2    0    0  0.00000000000E+00  0.00000000000E+00  0.26973621881E+03  0.74962557225E+03  0.69941466301E+03 0.  0.
        3    1    3    3  502    0  0.28980531405E+03  0.18954639971E+03  0.82577833883E+02  0.35599728447E+03  0.10100000352E+00 0. -1.
       -3    1    3    3    0  502 -0.28980531405E+03 -0.18954639971E+03  0.18715838493E+03  0.39362828779E+03  0.10100000352E+00 0.  1.
</event>
<event>
 5   0  0.4299912E-02  0.6899721E+03  0.7818609E-02  0.9734537E-01
        2   -1    0    0  501    0  0.00000000000E+00  0.00000000000E+00  0.79405156746E+03  0.79405156746E+03  0.25500000920E-02 0.  1.
       -2   -1    0    0    0  501  0.00000000000E+00  0.00000000000E+00 -0.14988369015E+03  0.14988369017E+03  0.25500000920E-02 0. -1.
    10030    2    1    2    0    0  0.00000000000E+00  0.00000000000E+00  0.64416787730E+03  0.94393525764E+03  0.68997211281E+03 0.  0.
        3    1    3    3  502    0 -0.18436578514E+03  0.17330781132E+03  0.64289452762E+03  0.69089776671E+03  0.10100000352E+00 0.  1.
       -3    1    3    3    0  502  0.18436578514E+03 -0.17330781132E+03  0.12733496834E+01  0.25303749093E+03  0.10100000352E+00 0. -1.
</event>
<event>
 5   0  0.2684924E-02  0.6966358E+03  0.7818609E-02  0.9723003E-01
        1   -1    0    0  501    0  0.00000000000E+00  0.00000000000E+00  0.79139070837E+03  0.79139070838E+03  0.50400001928E-02 0.  1.
       -1   -1    0    0    0  501  0.00000000000E+00  0.00000000000E+00 -0.15330654573E+03  0.15330654582E+03  0.50400001928E-02 0. -1.
    10030    2    1    2    0    0  0.00000000000E+00  0.00000000000E+00  0.63808416263E+03  0.94469725420E+03  0.69663584711E+03 0.  0.
        4    1    3    3  502    0 -0.18660615904E+02 -0.31063008278E+03  0.53123574905E+03  0.61567223494E+03  0.12699999809E+01 0.  1.
       -4    1    3    3    0  502  0.18660615904E+02  0.31063008278E+03  0.10684841358E+03  0.32902501926E+03  0.12699999809E+01 0. -1.
</event>
<event>
 5   0  0.2758681E-02  0.7051202E+03  0.7818609E-02  0.9708516E-01
        1   -1    0    0  501    0  0.00000000000E+00  0.00000000000E+00  0.92824314325E+03  0.92824314326E+03  0.50400001928E-02 0. -1.
       -1   -1    0    0    0  501  0.00000000000E+00  0.00000000000E+00 -0.13390740886E+03  0.13390740896E+03  0.50400001928E-02 0.  1.
    10030    2    1    2    0    0  0.00000000000E+00  0.00000000000E+00  0.79433573438E+03  0.10621505522E+04  0.70512022852E+03 0.  0.
        3    1    3    3  502    0 -0.32229213052E+02  0.21393159541E+03 -0.22160874351E+02  0.21747773274E+03  0.10100000352E+00 0.  1.
       -3    1    3    3    0  502  0.32229213052E+02 -0.21393159541E+03  0.81649660873E+03  0.84467281948E+03  0.10100000352E+00 0. -1.
</event>
<event>
 5   0  0.4503289E-02  0.7059171E+03  0.7818609E-02  0.9707166E-01
       -2   -1    0    0    0  501  0.00000000000E+00  0.00000000000E+00  0.32660481331E+03  0.32660481332E+03  0.25500000920E-02 0.  1.
        2   -1    0    0  501    0  0.00000000000E+00  0.00000000000E+00 -0.38143879462E+03  0.38143879463E+03  0.25500000920E-02 0. -1.
    10030    2    1    2    0    0  0.00000000000E+00  0.00000000000E+00 -0.54833981313E+02  0.70804360794E+03  0.70591712350E+03 0.  0.
        2    1    3    3  502    0 -0.97651663047E+02 -0.28765047509E+03 -0.20768346599E+03  0.36798242508E+03  0.25500000920E-02 0.  1.
       -2    1    3    3    0  502  0.97651663047E+02  0.28765047509E+03  0.15284948468E+03  0.34006118286E+03  0.25500000920E-02 0. -1.
</event>
<event>
 5   0  0.2684924E-02  0.6969226E+03  0.7818609E-02  0.9722509E-01
        1   -1    0    0  501    0  0.00000000000E+00  0.00000000000E+00  0.32154432795E+03  0.32154432799E+03  0.50400001928E-02 0. -1.
       -1   -1    0    0    0  501  0.00000000000E+00  0.00000000000E+00 -0.37763157104E+03  0.37763157108E+03  0.50400001928E-02 0.  1.
    10030    2    1    2    0    0  0.00000000000E+00  0.00000000000E+00 -0.56087243089E+02  0.69917589907E+03  0.69692263488E+03 0.  0.
        4    1    3    3  502    0 -0.10679939583E+03  0.29259576519E+03 -0.18477061895E+03  0.36216044412E+03  0.12699999809E+01 0.  1.
       -4    1    3    3    0  502  0.10679939583E+03 -0.29259576519E+03  0.12868337586E+03  0.33701545495E+03  0.12699999809E+01 0. -1.
</event>
<event>
 5   0  0.4526837E-02  0.6967295E+03  0.7818609E-02  0.9722842E-01
       -2   -1    0    0    0  501  0.00000000000E+00  0.00000000000E+00  0.51123511418E+02  0.51123511481E+02  0.25500000920E-02 0. -1.
        2   -1    0    0  501    0  0.00000000000E+00  0.00000000000E+00 -0.23738193918E+04  0.23738193918E+04  0.25500000920E-02 0.  1.
    10030    2    1    2    0    0  0.00000000000E+00  0.00000000000E+00 -0.23226958804E+04  0.24249429033E+04  0.69672945355E+03 0.  0.
        1    1    3    3  502    0 -0.22304240981E+03  0.83385778605E+02 -0.20463508792E+04  0.20601584953E+04  0.50400001928E-02 0.  1.
       -1    1    3    3    0  502  0.22304240981E+03 -0.83385778605E+02 -0.27634500116E+03  0.36478440803E+03  0.50400001928E-02 0. -1.
</event>
<event>
 5   0  0.1784625E-02  0.7842190E+03  0.7818609E-02  0.9583145E-01
        4   -1    0    0  501    0  0.00000000000E+00  0.00000000000E+00  0.11871114009E+04  0.11871120802E+04  0.12699999809E+01 0. -1.
       -4   -1    0    0    0  501  0.00000000000E+00  0.00000000000E+00 -0.12951210875E+03  0.12951833543E+03  0.12699999809E+01 0.  1.
    10030    2    1    2    0    0  0.00000000000E+00  0.00000000000E+00  0.10575992922E+04  0.13166304157E+04  0.78421896732E+03 0.  0.
        4    1    3    3  502    0  0.15009129087E+03  0.30932770646E+03  0.84529562587E+03  0.91254442829E+03  0.12699999809E+01 0. -1.
       -4    1    3    3    0  502 -0.15009129087E+03 -0.30932770646E+03  0.21230366629E+03  0.40408598738E+03  0.12699999809E+01 0.  1.
</event>
<event>
 5   0  0.2684924E-02  0.6891921E+03  0.7818609E-02  0.9735896E-01
        1   -1    0    0  501    0  0.00000000000E+00  0.00000000000E+00  0.55117726099E+03  0.55117726101E+03  0.50400001928E-02 0.  1.
       -1   -1    0    0    0  501  0.00000000000E+00  0.00000000000E+00 -0.21544144899E+03  0.21544144905E+03  0.50400001928E-02 0. -1.
    10030    2    1    2    0    0  0.00000000000E+00  0.00000000000E+00  0.33573581200E+03  0.76661871006E+03  0.68919207131E+03 0.  0.
        4    1    3    3  502    0  0.28406942138E+03 -0.15265595618E+03  0.32794624826E+02  0.32415486644E+03  0.12699999809E+01 0. -1.
       -4    1    3    3    0  502 -0.28406942138E+03  0.15265595618E+03  0.30294118717E+03  0.44246384361E+03  0.12699999809E+01 0.  1.
</event>
<event>
 5   0  0.4299912E-02  0.7374132E+03  0.7818609E-02  0.9655307E-01
        2   -1    0    0  501    0  0.00000000000E+00  0.00000000000E+00  0.18846296676E+04  0.18846296676E+04  0.25500000920E-02 0. -1.
       -2   -1    0    0    0  501  0.00000000000E+00  0.00000000000E+00 -0.72133301236E+02  0.72133301281E+02  0.25500000920E-02 0.  1.
    10030    2    1    2    0    0  0.00000000000E+00  0.00000000000E+00  0.18124963664E+04  0.19567629689E+04  0.73741320730E+03 0.  0.
        3    1    3    3  502    0  0.84258452678E+02 -0.14091759474E+03  0.17822706495E+04  0.17898172905E+04  0.10100000352E+00 0. -1.
       -3    1    3    3    0  502 -0.84258452678E+02  0.14091759474E+03  0.30225716897E+02  0.16694567834E+03  0.10100000352E+00 0.  1.
</event>
<event>
 5   0  0.2758681E-02  0.6913308E+03  0.7818609E-02  0.9732174E-01
        1   -1    0    0  501    0  0.00000000000E+00  0.00000000000E+00  0.85727240979E+03  0.85727240980E+03  0.50400001928E-02 0. -1.
       -1   -1    0    0    0  501  0.00000000000E+00  0.00000000000E+00 -0.13937761670E+03  0.13937761679E+03  0.50400001928E-02 0.  1.
    10030    2    1    2    0    0  0.00000000000E+00  0.00000000000E+00  0.71789479308E+03  0.99665002659E+03  0.69133084813E+03 0.  0.
        3    1    3    3  502    0 -0.23841889089E+03 -0.23625718488E+03  0.47803373537E+03  0.58410383263E+03  0.10100000352E+00 0. -1.
       -3    1    3    3    0  502  0.23841889089E+03  0.23625718488E+03  0.23986105772E+03  0.41254619397E+03  0.10100000352E+00 0.  1.
</event>
<event>
 5   0  0.4503289E-02  0.7317577E+03  0.7818609E-02  0.9664412E-01
       -2   -1    0    0    0  501  0.00000000000E+00  0.00000000000E+00  0.67619082754E+03  0.67619082754E+03  0.25500000920E-02 0. -1.
        2   -1    0    0  501    0  0.00000000000E+00  0.00000000000E+00 -0.19797273355E+03  0.19797273357E+03  0.25500000920E-02 0.  1.
    10030    2    1    2    0    0  0.00000000000E+00  0.00000000000E+00  0.47821809399E+03  0.87416356112E+03  0.73175773735E+03 0.  0.
        2    1    3    3  502    0 -0.24145469374E+03 -0.13140524982E+03 -0.49332824090E+02  0.27928737234E+03  0.25500000920E-02 0.  1.
       -2    1    3    3    0  502  0.24145469374E+03  0.13140524982E+03  0.52755091808E+03  0.59487618878E+03  0.25500000920E-02 0. -1.
</event>
<event>
 5   0  0.4299912E-02  0.6969152E+03  0.7818609E-02  0.9722522E-01
        2   -1    0    0  501    0  0.00000000000E+00  0.00000000000E+00  0.43867983865E+03  0.43867983865E+03  0.25500000920E-02 0. -1.
       -2   -1    0    0    0  501  0.00000000000E+00  0.00000000000E+00 -0.27679116050E+03  0.27679116051E+03  0.25500000920E-02 0.  1.
    10030    2    1    2    0    0  0.00000000000E+00  0.00000000000E+00  0.16188867814E+03  0.71547099917E+03  0.69691520757E+03 0.  0.
        3    1    3    3  502    0  0.16540649748E+03  0.94912399087E+02 -0.21846274045E+03  0.28998905509E+03  0.10100000352E+00 0.  1.
       -3    1    3    3    0  502 -0.16540649748E+03 -0.94912399087E+02  0.38035141859E+03  0.42548194407E+03  0.10100000352E+00 0. -1.
</event>
<event>
 5   0  0.4503289E-02  0.6915686E+03  0.7818609E-02  0.9731761E-01
       -2   -1    0    0    0  501  0.00000000000E+00  0.00000000000E+00  0.27202270735E+03  0.27202270736E+03  0.25500000920E-02 0.  1.
        2   -1    0    0  501    0  0.00000000000E+00  0.00000000000E+00 -0.43954700126E+03  0.43954700126E+03  0.25500000920E-02 0. -1.
    10030    2    1    2    0    0  0.00000000000E+00  0.00000000000E+00 -0.16752429391E+03  0.71156970862E+03  0.69156855133E+03 0.  0.
        2    1    3    3  502    0 -0.27923282421E+02 -0.49588644303E+02 -0.43469529148E+03  0.43840476707E+03  0.25500000920E-02 0. -1.
       -2    1    3    3    0  502  0.27923282421E+02  0.49588644303E+02  0.26717099757E+03  0.27316494156E+03  0.25500000920E-02 0.  1.
</event>
<event>
 5   0  0.4503289E-02  0.7102302E+03  0.7818609E-02  0.9699895E-01
        2   -1    0    0  501    0  0.00000000000E+00  0.00000000000E+00  0.18644564524E+04  0.18644564524E+04  0.25500000920E-02 0.  1.
       -2   -1    0    0    0  501  0.00000000000E+00  0.00000000000E+00 -0.67637255603E+02  0.67637255651E+02  0.25500000920E-02 0. -1.
    10030    2    1    2    0    0  0.00000000000E+00  0.00000000000E+00  0.17968191968E+04  0.19320937080E+04  0.71023015334E+03 0.  0.
        2    1    3    3  502    0  0.26560421707E+03 -0.63525617669E+02  0.15159148637E+04  0.15403178173E+04  0.25500000920E-02 0.  1.
       -2    1    3    3    0  502 -0.26560421707E+03  0.63525617669E+02  0.28090433306E+03  0.39177589074E+03  0.25500000920E-02 0. -1.
</event>
<event>
 5   0  0.2777999E-02  0.6622258E+03  0.7818609E-02  0.9784105E-01
        1   -1    0    0  501    0  0.00000000000E+00  0.00000000000E+00  0.11951430814E+04  0.11951430814E+04  0.50400001928E-02 0. -1.
       -1   -1    0    0    0  501  0.00000000000E+00  0.00000000000E+00 -0.91734403039E+02  0.91734403177E+02  0.50400001928E-02 0.  1.
    10030    2    1    2    0    0  0.00000000000E+00  0.00000000000E+00  0.11034086784E+04  0.12868774846E+04  0.66222575370E+03 0.  0.
        5    1    3    3  502    0  0.17070472527E+03 -0.18520988507E+03  0.13414804392E+03  0.28541302080E+03  0.46999998093E+01 0.  1.
       -5    1    3    3    0  502 -0.17070472527E+03  0.18520988507E+03  0.96926063446E+03  0.10014644638E+04  0.46999998093E+01 0. -1.
</event>
<event>
 5   0  0.2684924E-02  0.7512651E+03  0.7818609E-02  0.9633368E-01
       -1   -1    0    0    0  501  0.00000000000E+00  0.00000000000E+00  0.43471397765E+03  0.43471397768E+03  0.50400001928E-02 0. -1.
        1   -1    0    0  501    0  0.00000000000E+00  0.00000000000E+00 -0.32458078528E+03  0.32458078532E+03  0.50400001928E-02 0.  1.
    10030    2    1    2    0    0  0.00000000000E+00  0.00000000000E+00  0.11013319237E+03  0.75929476299E+03  0.75126507775E+03 0.  0.
        4    1    3    3  502    0  0.13150447070E+03  0.17261404956E+03 -0.25481963397E+03  0.33469940943E+03  0.12699999809E+01 0.  1.
       -4    1    3    3    0  502 -0.13150447070E+03 -0.17261404956E+03  0.36495282633E+03  0.42459535356E+03  0.12699999809E+01 0. -1.
</event>
<event>
 5   0  0.4503289E-02  0.7146951E+03  0.7818609E-02  0.9692427E-01
       -2   -1    0    0    0  501  0.00000000000E+00  0.00000000000E+00  0.18198968718E+03  0.18198968720E+03  0.25500000920E-02 0.  1.
        2   -1    0    0  501    0  0.00000000000E+00  0.00000000000E+00 -0.70167304342E+03  0.70167304343E+03  0.25500000920E-02 0. -1.
    10030    2    1    2    0    0  0.00000000000E+00  0.00000000000E+00 -0.51968335624E+03  0.88366273063E+03  0.71469506137E+03 0.  0.
        2    1    3    3  502    0 -0.11099177830E+03  0.81890628602E+02 -0.66743269424E+03  0.68153624353E+03  0.25500000920E-02 0. -1.
       -2    1    3    3    0  502  0.11099177830E+03 -0.81890628602E+02  0.14774933799E+03  0.20212648710E+03  0.25500000920E-02 0.  1.
</event>
<event>
 5   0  0.4503289E-02  0.6829849E+03  0.7818609E-02  0.9746781E-01
       -2   -1    0    0    0  501  0.00000000000E+00  0.00000000000E+00  0.10927513315E+03  0.10927513318E+03  0.25500000920E-02 0.  1.
        2   -1    0    0  501    0  0.00000000000E+00  0.00000000000E+00 -0.10671879968E+04  0.10671879968E+04  0.25500000920E-02 0. -1.
    10030    2    1    2    0    0  0.00000000000E+00  0.00000000000E+00 -0.95791286366E+03  0.11764631300E+04  0.68298494997E+03 0.  0.
        2    1    3    3  502    0 -0.23373542511E+03 -0.24771304980E+03 -0.43595842553E+03  0.55322125121E+03  0.25500000920E-02 0.  1.
       -2    1    3    3    0  502  0.23373542511E+03  0.24771304980E+03 -0.52195443813E+03  0.62324187879E+03  0.25500000920E-02 0. -1.
</event>
<event>
 5   0  0.2777999E-02  0.6951866E+03  0.7818609E-02  0.9725499E-01
       -1   -1    0    0    0  501  0.00000000000E+00  0.00000000000E+00  0.24453389788E+03  0.24453389793E+03  0.50400001928E-02 0. -1.
        1   -1    0    0  501    0  0.00000000000E+00  0.00000000000E+00 -0.49408731125E+03  0.49408731128E+03  0.50400001928E-02 0.  1.
    10030    2    1    2    0    0  0.00000000000E+00  0.00000000000E+00 -0.24955341337E+03  0.73862120921E+03  0.69518658256E+03 0.  0.
        5    1    3    3  502    0 -0.17700776435E+03  0.25800800936E+03  0.36002482019E+02  0.31498912718E+03  0.46999998093E+01 0.  1.
       -5    1    3    3    0  502  0.17700776435E+03 -0.25800800936E+03 -0.28555589539E+03  0.42363208203E+03  0.46999998093E+01 0. -1.
</event>
<event>
 5   0  0.4299912E-02  0.5083674E+03  0.7818609E-02  0.1011618E+00
       -2   -1    0    0    0  501  0.00000000000E+00  0.00000000000E+00  0.30005033738E+03  0.30005033739E+03  0.25500000920E-02 0. -1.
        2   -1    0    0  501    0  0.00000000000E+00  0.00000000000E+00 -0.21532837793E+03  0.21532837795E+03  0.25500000920E-02 0.  1.
    10030    2    1    2    0    0  0.00000000000E+00  0.00000000000E+00  0.84721959449E+02  0.51537871534E+03  0.50836739649E+03 0.  0.
        3    1    3    3  502    0  0.91306119615E+02  0.76252653559E+02  0.27008775477E+03  0.29512485515E+03  0.10100000352E+00 0. -1.
       -3    1    3    3    0  502 -0.91306119615E+02 -0.76252653559E+02 -0.18536579532E+03  0.22025386019E+03  0.10100000352E+00 0.  1.
</event>
<event>
 5   0  0.1784625E-02  0.7051336E+03  0.7818609E-02  0.9708493E-01
        4   -1    0    0  501    0  0.00000000000E+00  0.00000000000E+00  0.10160442307E+04  0.10160450244E+04  0.12699999809E+01 0.  1.
       -4   -1    0    0    0  501  0.00000000000E+00  0.00000000000E+00 -0.12233634311E+03  0.12234293501E+03  0.12699999809E+01 0. -1.
    10030    2    1    2    0    0  0.00000000000E+00  0.00000000000E+00  0.89370788758E+03  0.11383879594E+04  0.70513357445E+03 0.  0.
        2    1    3    3  502    0  0.22415438129E+03 -0.22409191300E+03  0.19757773202E+03  0.37349609411E+03  0.25500000920E-02 0. -1.
       -2    1    3    3    0  502 -0.22415438129E+03  0.22409191300E+03  0.69613015556E+03  0.76489186530E+03  0.25500000920E-02 0.  1.
</event>
<event>
 5   0  0.2684924E-02  0.7018847E+03  0.7818609E-02  0.9714015E-01
        1   -1    0    0  501    0  0.00000000000E+00  0.00000000000E+00  0.17358704917E+04  0.17358704917E+04  0.50400001928E-02 0.  1.
       -1   -1    0    0    0  501  0.00000000000E+00  0.00000000000E+00 -0.70950300274E+02  0.70950300453E+02  0.50400001928E-02 0. -1.
    10030    2    1    2    0    0  0.00000000000E+00  0.00000000000E+00  0.16649201915E+04  0.18068207922E+04  0.70188469935E+03 0.  0.
        4    1    3    3  502    0 -0.23384057172E+03  0.11211741394E+03  0.14411318464E+04  0.14642794607E+04  0.12699999809E+01 0.  1.
       -4    1    3    3    0  502  0.23384057172E+03 -0.11211741394E+03  0.22378834509E+03  0.34254133150E+03  0.12699999809E+01 0. -1.
</event>
<event>
 5   0  0.4503289E-02  0.7230525E+03  0.7818609E-02  0.9678602E-01
        2   -1    0    0  501    0  0.00000000000E+00  0.00000000000E+00  0.77414738100E+03  0.77414738101E+03  0.25500000920E-02 0. -1.
       -2   -1    0    0    0  501  0.00000000000E+00  0.00000000000E+00 -0.16883248289E+03  0.16883248291E+03  0.25500000920E-02 0.  1.
    10030    2    1    2    0    0  0.00000000000E+00  0.00000000000E+00  0.60531489812E+03  0.94297986391E+03  0.72305248624E+03 0.  0.
        2    1    3    3  502    0  0.26082341822E+03 -0.22903605461E+03  0.43446754951E+03  0.55610108918E+03  0.25500000920E-02 0. -1.
       -2    1    3    3    0  502 -0.26082341822E+03  0.22903605461E+03  0.17084734860E+03  0.38687877473E+03  0.25500000920E-02 0.  1.
</event>
<event>
 5   0  0.4420645E-02  0.6950119E+03  0.7818609E-02  0.9725801E-01
       -2   -1    0    0    0  501  0.00000000000E+00  0.00000000000E+00  0.21940664449E+03  0.21940664450E+03  0.25500000920E-02 0.  1.
        2   -1    0    0  501    0  0.00000000000E+00  0.00000000000E+00 -0.55039523076E+03  0.55039523077E+03  0.25500000920E-02 0. -1.
    10030    2    1    2    0    0  0.00000000000E+00  0.00000000000E+00 -0.33098858627E+03  0.76980187527E+03  0.69501185812E+03 0.  0.
        5    1    3    3  502    0 -0.83208103218E+02  0.29854189536E+03  0.85359321075E+01  0.31007386839E+03  0.46999998093E+01 0.  1.
       -5    1    3    3    0  502  0.83208103218E+02 -0.29854189536E+03 -0.33952451838E+03  0.45972800688E+03  0.46999998093E+01 0. -1.
</event>
<event>
 5   0  0.1784625E-02  0.7057294E+03  0.7818609E-02  0.9707484E-01
        4   -1    0    0  501    0  0.00000000000E+00  0.00000000000E+00  0.52057534014E+03  0.52057688929E+03  0.12699999809E+01 0.  1.
       -4   -1    0    0    0  501  0.00000000000E+00  0.00000000000E+00 -0.23918082909E+03  0.23918420079E+03  0.12699999809E+01 0. -1.
    10030    2    1    2    0    0  0.00000000000E+00  0.00000000000E+00  0.28139451105E+03  0.75976109008E+03  0.70572944047E+03 0.  0.
        2    1    3    3  502    0 -0.26886193914E+03 -0.22851677588E+03  0.14351521605E+03  0.38092423974E+03  0.25500000920E-02 0. -1.
       -2    1    3    3    0  502  0.26886193914E+03  0.22851677588E+03  0.13787929500E+03  0.37883685034E+03  0.25500000920E-02 0.  1.
</event>
<event>
 5   0  0.2777999E-02  0.7020455E+03  0.7818609E-02  0.9713740E-01
       -1   -1    0    0    0  501  0.00000000000E+00  0.00000000000E+00  0.30683208196E+03  0.30683208200E+03  0.50400001928E-02 0.  1.
        1   -1    0    0  501    0  0.00000000000E+00  0.00000000000E+00 -0.40157789702E+03  0.40157789706E+03  0.50400001928E-02 0. -1.
    10030    2    1    2    0    0  0.00000000000E+00  0.00000000000E+00 -0.94745815063E+02  0.70840997906E+03  0.70204553197E+03 0.  0.
        5    1    3    3  502    0  0.26192464683E+03  0.42654848460E+02 -0.27917469859E+03  0.38520716380E+03  0.46999998093E+01 0. -1.
       -5    1    3    3    0  502 -0.26192464683E+03 -0.42654848460E+02  0.18442888353E+03  0.32320281526E+03  0.46999998093E+01 0.  1.
</event>
<event>
 5   0  0.4365492E-02  0.7071163E+03  0.7818609E-02  0.9705139E-01
       -2   -1    0    0    0  501  0.00000000000E+00  0.00000000000E+00  0.18234521382E+03  0.18234521383E+03  0.25500000920E-02 0.  1.
        2   -1    0    0  501    0  0.00000000000E+00  0.00000000000E+00 -0.68553128546E+03  0.68553128546E+03  0.25500000920E-02 0. -1.
    10030    2    1    2    0    0  0.00000000000E+00  0.00000000000E+00 -0.50318607164E+03  0.86787649930E+03  0.70711625306E+03 0.  0.
        4    1    3    3  502    0  0.12823266068E+03 -0.15446775151E+03  0.10560022961E+03  0.22684118435E+03  0.12699999809E+01 0.  1.
       -4    1    3    3    0  502 -0.12823266068E+03  0.15446775151E+03 -0.60878630125E+03  0.64103531495E+03  0.12699999809E+01 0. -1.
</event>
<event>
 5   0  0.2758681E-02  0.7081178E+03  0.7818609E-02  0.9703449E-01
        1   -1    0    0  501    0  0.00000000000E+00  0.00000000000E+00  0.10046323788E+04  0.10046323788E+04  0.50400001928E-02 0.  1.
       -1   -1    0    0    0  501  0.00000000000E+00  0.00000000000E+00 -0.12477968984E+03  0.12477968994E+03  0.50400001928E-02 0. -1.
    10030    2    1    2    0    0  0.00000000000E+00  0.00000000000E+00  0.87985268893E+03  0.11294120687E+04  0.70811783395E+03 0.  0.
        3    1    3    3  502    0  0.33393152793E+03 -0.92079442770E+01  0.62703677675E+03  0.71047180182E+03  0.10100000352E+00 0. -1.
       -3    1    3    3    0  502 -0.33393152793E+03  0.92079442770E+01  0.25281591218E+03  0.41894026691E+03  0.10100000352E+00 0.  1.
</event>
<event>
 5   0  0.2750139E-02  0.6966987E+03  0.7818609E-02  0.9722895E-01
        1   -1    0    0  501    0  0.00000000000E+00  0.00000000000E+00  0.17982853338E+04  0.17982853338E+04  0.50400001928E-02 0. -1.
       -1   -1    0    0    0  501  0.00000000000E+00  0.00000000000E+00 -0.67479420996E+02  0.67479421184E+02  0.50400001928E-02 0.  1.
    10030    2    1    2    0    0  0.00000000000E+00  0.00000000000E+00  0.17308059128E+04  0.18657647550E+04  0.69669865305E+03 0.  0.
        2    1    3    3  502    0 -0.31549740137E+03 -0.33929057421E+01  0.47002579132E+03  0.56610455447E+03  0.25500000920E-02 0.  1.
       -2    1    3    3    0  502  0.31549740137E+03  0.33929057421E+01  0.12607801215E+04  0.12996602005E+04  0.25500000920E-02 0. -1.
</event>
<event>
 5   0  0.4503289E-02  0.6923816E+03  0.7818609E-02  0.9730350E-01
       -2   -1    0    0    0  501  0.00000000000E+00  0.00000000000E+00  0.28648200805E+03  0.28648200806E+03  0.25500000920E-02 0.  1.
        2   -1    0    0  501    0  0.00000000000E+00  0.00000000000E+00 -0.41834418958E+03  0.41834418958E+03  0.25500000920E-02 0. -1.
    10030    2    1    2    0    0  0.00000000000E+00  0.00000000000E+00 -0.13186218153E+03  0.70482619764E+03  0.69238163896E+03 0.  0.
        2    1    3    3  502    0 -0.27924150639E+03  0.18677788146E+03  0.19155226184E+02  0.33649475270E+03  0.25500000920E-02 0.  1.
       -2    1    3    3    0  502  0.27924150639E+03 -0.18677788146E+03 -0.15101740771E+03  0.36833144494E+03  0.25500000920E-02 0. -1.
</event>
<event>
 5   0  0.4299912E-02  0.7036377E+03  0.7818609E-02  0.9711031E-01
        2   -1    0    0  501    0  0.00000000000E+00  0.00000000000E+00  0.14682395337E+04  0.14682395337E+04  0.25500000920E-02 0. -1.
       -2   -1    0    0    0  501  0.00000000000E+00  0.00000000000E+00 -0.84302664993E+02  0.84302665032E+02  0.25500000920E-02 0.  1.
    10030    2    1    2    0    0  0.00000000000E+00  0.00000000000E+00  0.13839368687E+04  0.15525421987E+04  0.70363770670E+03 0.  0.
        3    1    3    3  502    0 -0.35628775136E+02 -0.34249982760E+03  0.53284438992E+03  0.63442784901E+03  0.10100000352E+00 0.  1.
       -3    1    3    3    0  502  0.35628775136E+02  0.34249982760E+03  0.85109247879E+03  0.91811434973E+03  0.10100000352E+00 0. -1.
</event>
<event>
 5   0  0.2684924E-02  0.6639868E+03  0.7818609E-02  0.9780882E-01
        1   -1    0    0  501    0  0.00000000000E+00  0.00000000000E+00  0.37755622270E+03  0.37755622274E+03  0.50400001928E-02 0.  1.
       -1   -1    0    0    0  501  0.00000000000E+00  0.00000000000E+00 -0.29192904223E+03  0.29192904227E+03  0.50400001928E-02 0. -1.
    10030    2    1    2    0    0  0.00000000000E+00  0.00000000000E+00  0.85627180476E+02  0.66948526501E+03  0.66398682670E+03 0.  0.
        4    1    3    3  502    0 -0.99631348621E+02 -0.20678269970E+03  0.28465923445E+03  0.36567469585E+03  0.12699999809E+01 0.  1.
       -4    1    3    3    0  502  0.99631348621E+02  0.20678269970E+03 -0.19903205398E+03  0.30381056916E+03  0.12699999809E+01 0. -1.
</event>
<event>
 5   0  0.4299912E-02  0.7187922E+03  0.7818609E-02  0.9685624E-01
        2   -1    0    0  501    0  0.00000000000E+00  0.00000000000E+00  0.32321363051E+03  0.32321363052E+03  0.25500000920E-02 0. -1.
       -2   -1    0    0    0  501  0.00000000000E+00  0.00000000000E+00 -0.39962900058E+03  0.39962900058E+03  0.25500000920E-02 0.  1.
    10030    2    1    2    0    0  0.00000000000E+00  0.00000000000E+00 -0.76415370070E+02  0.72284263110E+03  0.71879215393E+03 0.  0.
        3    1    3    3  502    0 -0.34266289881E+02 -0.29099330821E+02  0.32037503429E+03  0.32351371296E+03  0.10100000352E+00 0. -1.
       -3    1    3    3    0  502  0.34266289881E+02  0.29099330821E+02 -0.39679040436E+03  0.39932891814E+03  0.10100000352E+00 0.  1.
</event>
<event>
 5   0  0.1784625E-02  0.7283172E+03  0.7818609E-02  0.9669995E-01
        3   -1    0    0  501    0  0.00000000000E+00  0.00000000000E+00  0.40654227637E+03  0.40654228891E+03  0.10100000352E+00 0.  1.
       -3   -1    0    0    0  501  0.00000000000E+00  0.00000000000E+00 -0.32619353845E+03  0.32619355408E+03  0.10100000352E+00 0. -1.
    10030    2    1    2    0    0  0.00000000000E+00  0.00000000000E+00  0.80348737920E+02  0.73273584299E+03  0.72831716712E+03 0.  0.
        1    1    3    3  502    0  0.25483802847E+03  0.22753633178E+03 -0.86670971208E+02  0.35245859375E+03  0.50400001928E-02 0. -1.
       -1    1    3    3    0  502 -0.25483802847E+03 -0.22753633178E+03  0.16701970913E+03  0.38027724925E+03  0.50400001928E-02 0.  1.
</event>
<event>
 5   0  0.2751729E-02  0.7308422E+03  0.7818609E-02  0.9665895E-01
       -1   -1    0    0    0  501  0.00000000000E+00  0.00000000000E+00  0.18285839285E+03  0.18285839291E+03  0.50400001928E-02 0.  1.
        1   -1    0    0  501    0  0.00000000000E+00  0.00000000000E+00 -0.73025135279E+03  0.73025135281E+03  0.50400001928E-02 0. -1.
    10030    2    1    2    0    0  0.00000000000E+00  0.00000000000E+00 -0.54739295994E+03  0.91310974572E+03  0.73084222315E+03 0.  0.
        1    1    3    3  502    0  0.30517420239E+02 -0.33417027988E+03 -0.92937649519E+02  0.34819318720E+03  0.50400001928E-02 0.  1.
       -1    1    3    3    0  502 -0.30517420239E+02  0.33417027988E+03 -0.45445531043E+03  0.56491655852E+03  0.50400001928E-02 0. -1.
</event>
<event>
 5   0  0.4503289E-02  0.6719237E+03  0.7818609E-02  0.9766489E-01
        2   -1    0    0  501    0  0.00000000000E+00  0.00000000000E+00  0.17411143503E+04  0.17411143503E+04  0.25500000920E-02 0. -1.
       -2   -1    0    0    0  501  0.00000000000E+00  0.00000000000E+00 -0.64826512530E+02  0.64826512581E+02  0.25500000920E-02 0.  1.
    10030    2    1    2    0    0  0.00000000000E+00  0.00000000000E+00  0.16762878378E+04  0.18059408629E+04  0.67192371977E+03 0.  0.
        2    1    3    3  502    0 -0.12427416545E+03  0.20465686319E+03  0.20472095106E+03  0.31502248754E+03  0.25500000920E-02 0.  1.
       -2    1    3    3    0  502  0.12427416545E+03 -0.20465686319E+03  0.14715668868E+04  0.14909183754E+04  0.25500000920E-02 0. -1.
</event>
<event>
 5   0  0.4299912E-02  0.7492708E+03  0.7818609E-02  0.9636495E-01
       -2   -1    0    0    0  501  0.00000000000E+00  0.00000000000E+00  0.14744471057E+03  0.14744471059E+03  0.25500000920E-02 0. -1.
        2   -1    0    0  501    0  0.00000000000E+00  0.00000000000E+00 -0.95189375794E+03  0.95189375794E+03  0.25500000920E-02 0.  1.
    10030    2    1    2    0    0  0.00000000000E+00  0.00000000000E+00 -0.80444904737E+03  0.10993384685E+04  0.74927084461E+03 0.  0.
        3    1    3    3  502    0  0.73542870025E+02  0.67667411519E+02 -0.93197561318E+03  0.93731850834E+03  0.10100000352E+00 0.  1.
       -3    1    3    3    0  502 -0.73542870025E+02 -0.67667411519E+02  0.12752656581E+03  0.16201996020E+03  0.10100000352E+00 0. -1.
</event>
<event>
 5   0  0.4526837E-02  0.6471496E+03  0.7818609E-02  0.9812142E-01
        2   -1    0    0  501    0  0.00000000000E+00  0.00000000000E+00  0.10440721654E+04  0.10440721654E+04  0.25500000920E-02 0.  1.
       -2   -1    0    0    0  501  0.00000000000E+00  0.00000000000E+00 -0.10028105731E+03  0.10028105734E+03  0.25500000920E-02 0. -1.
    10030    2    1    2    0    0  0.00000000000E+00  0.00000000000E+00  0.94379110813E+03  0.11443532228E+04  0.64714962931E+03 0.  0.
        1    1    3    3  502    0 -0.15123054965E+03 -0.21471813758E+03  0.13766341171E+03  0.29652280300E+03  0.50400001928E-02 0. -1.
       -1    1    3    3    0  502  0.15123054965E+03  0.21471813758E+03  0.80612769642E+03  0.84783041979E+03  0.50400001928E-02 0.  1.
</event>
<event>
 5   0  0.2684924E-02  0.6833242E+03  0.7818609E-02  0.9746183E-01
        1   -1    0    0  501    0  0.00000000000E+00  0.00000000000E+00  0.10084794582E+04  0.10084794582E+04  0.50400001928E-02 0.  1.
       -1   -1    0    0    0  501  0.00000000000E+00  0.00000000000E+00 -0.11575147443E+03  0.11575147454E+03  0.50400001928E-02 0. -1.
    10030    2    1    2    0    0  0.00000000000E+00  0.00000000000E+00  0.89272798378E+03  0.11242309328E+04  0.68332418161E+03 0.  0.
        4    1    3    3  502    0  0.30382864663E+03 -0.67331436319E+02  0.67837173862E+03  0.74634790647E+03  0.12699999809E+01 0.  1.
       -4    1    3    3    0  502 -0.30382864663E+03  0.67331436319E+02  0.21435624516E+03  0.37788302630E+03  0.12699999809E+01 0. -1.
</event>
<event>
 5   0  0.4299912E-02  0.7226513E+03  0.7818609E-02  0.9679261E-01
       -2   -1    0    0    0  501  0.00000000000E+00  0.00000000000E+00  0.88494600908E+02  0.88494600944E+02  0.25500000920E-02 0.  1.
        2   -1    0    0  501    0  0.00000000000E+00  0.00000000000E+00 -0.14753017513E+04  0.14753017513E+04  0.25500000920E-02 0. -1.
    10030    2    1    2    0    0  0.00000000000E+00  0.00000000000E+00 -0.13868071504E+04  0.15637963522E+04  0.72265133980E+03 0.  0.
        3    1    3    3  502    0 -0.69121555273E+02  0.45669149823E+01  0.73990558939E+02  0.10135708722E+03  0.10100000352E+00 0.  1.
       -3    1    3    3    0  502  0.69121555273E+02 -0.45669149823E+01 -0.14607977093E+04  0.14624392650E+04  0.10100000352E+00 0. -1.
</event>
<event>
 5   0  0.2684924E-02  0.6614475E+03  0.7818609E-02  0.9785533E-01
        1   -1    0    0  501    0  0.00000000000E+00  0.00000000000E+00  0.18766974957E+03  0.18766974963E+03  0.50400001928E-02 0. -1.
       -1   -1    0    0    0  501  0.00000000000E+00  0.00000000000E+00 -0.58282268304E+03  0.58282268306E+03  0.50400001928E-02 0.  1.
    10030    2    1    2    0    0  0.00000000000E+00  0.00000000000E+00 -0.39515293347E+03  0.77049243269E+03  0.66144746428E+03 0.  0.
        4    1    3    3  502    0 -0.12446847494E+03  0.12681876726E+03 -0.52248872342E+03  0.55187995070E+03  0.12699999809E+01 0.  1.
       -4    1    3    3    0  502  0.12446847494E+03 -0.12681876726E+03  0.12733578995E+03  0.21861248199E+03  0.12699999809E+01 0. -1.
</event>
<event>
 5   0  0.4420645E-02  0.6929451E+03  0.7818609E-02  0.9729374E-01
        2   -1    0    0  501    0  0.00000000000E+00  0.00000000000E+00  0.11727841922E+04  0.11727841922E+04  0.25500000920E-02 0. -1.
       -2   -1    0    0    0  501  0.00000000000E+00  0.00000000000E+00 -0.10235747139E+03  0.10235747142E+03  0.25500000920E-02 0.  1.
    10030    2    1    2    0    0  0.00000000000E+00  0.00000000000E+00  0.10704267208E+04  0.12751416636E+04  0.69294508994E+03 0.  0.
        5    1    3    3  502    0  0.23135120128E+03  0.17629478025E+03  0.88152816533E+03  0.92828725303E+03  0.46999998093E+01 0. -1.
       -5    1    3    3    0  502 -0.23135120128E+03 -0.17629478025E+03  0.18889855545E+03  0.34685441056E+03  0.46999998093E+01 0.  1.
</event>
<event>
 5   0  0.2684924E-02  0.6968572E+03  0.7818609E-02  0.9722622E-01
       -1   -1    0    0    0  501  0.00000000000E+00  0.00000000000E+00  0.25032822276E+03  0.25032822281E+03  0.50400001928E-02 0. -1.
        1   -1    0    0  501    0  0.00000000000E+00  0.00000000000E+00 -0.48497323724E+03  0.48497323726E+03  0.50400001928E-02 0.  1.
    10030    2    1    2    0    0  0.00000000000E+00  0.00000000000E+00 -0.23464501448E+03  0.73530146007E+03  0.69685719797E+03 0.  0.
        4    1    3    3  502    0 -0.30500939988E+03  0.10083619595E+03 -0.25968107761E+03  0.41307934758E+03  0.12699999809E+01 0.  1.
       -4    1    3    3    0  502  0.30500939988E+03 -0.10083619595E+03  0.25036063129E+02  0.32222211250E+03  0.12699999809E+01 0. -1.
</event>
<event>
 5   0  0.2758681E-02  0.7049453E+03  0.7818609E-02  0.9708812E-01
       -1   -1    0    0    0  501  0.00000000000E+00  0.00000000000E+00  0.60579372175E+03  0.60579372178E+03  0.50400001928E-02 0.  1.
        1   -1    0    0  501    0  0.00000000000E+00  0.00000000000E+00 -0.20508128438E+03  0.20508128444E+03  0.50400001928E-02 0. -1.
    10030    2    1    2    0    0  0.00000000000E+00  0.00000000000E+00  0.40071243738E+03  0.81087500622E+03  0.70494525904E+03 0.  0.
        3    1    3    3  502    0  0.25158634329E+03  0.21530904993E+03  0.33926380571E+03  0.47408186548E+03  0.10100000352E+00 0.  1.
       -3    1    3    3    0  502 -0.25158634329E+03 -0.21530904993E+03  0.61448631669E+02  0.33679314074E+03  0.10100000352E+00 0. -1.
</event>
<event>
 5   0  0.4526837E-02  0.6993536E+03  0.7818609E-02  0.9718338E-01
       -2   -1    0    0    0  501  0.00000000000E+00  0.00000000000E+00  0.12925869333E+03  0.12925869335E+03  0.25500000920E-02 0. -1.
        2   -1    0    0  501    0  0.00000000000E+00  0.00000000000E+00 -0.94596236365E+03  0.94596236366E+03  0.25500000920E-02 0.  1.
    10030    2    1    2    0    0  0.00000000000E+00  0.00000000000E+00 -0.81670367032E+03  0.10752210570E+04  0.69935358462E+03 0.  0.
        1    1    3    3  502    0  0.80456375515E+02  0.59174196268E+02  0.10686374492E+03  0.14626918291E+03  0.50400001928E-02 0. -1.
       -1    1    3    3    0  502 -0.80456375515E+02 -0.59174196268E+02 -0.92356741525E+03  0.92895187410E+03  0.50400001928E-02 0.  1.
</event>
<event>
 5   0  0.4365492E-02  0.6585844E+03  0.7818609E-02  0.9790803E-01
        2   -1    0    0  501    0  0.00000000000E+00  0.00000000000E+00  0.48781842032E+03  0.48781842032E+03  0.25500000920E-02 0. -1.
       -2   -1    0    0    0  501  0.00000000000E+00  0.00000000000E+00 -0.22228217108E+03  0.22228217110E+03  0.25500000920E-02 0.  1.
    10030    2    1    2    0    0  0.00000000000E+00  0.00000000000E+00  0.26553624924E+03  0.71010059142E+03  0.65858435320E+03 0.  0.
        4    1    3    3  502    0  0.84028968625E+02 -0.16188950089E+03  0.42837157426E+03  0.46558876340E+03  0.12699999809E+01 0. -1.
       -4    1    3    3    0  502 -0.84028968625E+02  0.16188950089E+03 -0.16283532503E+03  0.24451182802E+03  0.12699999809E+01 0.  1.
</event>
<event>
 5   0  0.4299912E-02  0.6977215E+03  0.7818609E-02  0.9721137E-01
        2   -1    0    0  501    0  0.00000000000E+00  0.00000000000E+00  0.12581298378E+04  0.12581298378E+04  0.25500000920E-02 0. -1.
       -2   -1    0    0    0  501  0.00000000000E+00  0.00000000000E+00 -0.96733915950E+02  0.96733915984E+02  0.25500000920E-02 0.  1.
    10030    2    1    2    0    0  0.00000000000E+00  0.00000000000E+00  0.11613959218E+04  0.13548637538E+04  0.69772150893E+03 0.  0.
        3    1    3    3  502    0  0.28022795514E+03 -0.12898022800E+03  0.89704639454E+03  0.94860732140E+03  0.10100000352E+00 0. -1.
       -3    1    3    3    0  502 -0.28022795514E+03  0.12898022800E+03  0.26434952728E+03  0.40625643235E+03  0.10100000352E+00 0.  1.
</event>
<event>
 5   0  0.2750139E-02  0.6887561E+03  0.7818609E-02  0.9736656E-01
       -1   -1    0    0    0  501  0.00000000000E+00  0.00000000000E+00  0.12621535022E+03  0.12621535032E+03  0.50400001928E-02 0.  1.
        1   -1    0    0  501    0  0.00000000000E+00  0.00000000000E+00 -0.93963417679E+03  0.93963417680E+03  0.50400001928E-02 0. -1.
    10030    2    1    2    0    0  0.00000000000E+00  0.00000000000E+00 -0.81341882657E+03  0.10658495271E+04  0.68875614483E+03 0.  0.
        2    1    3    3  502    0 -0.25880741421E+03  0.17761690292E+03 -0.18749254904E+03  0.36562617221E+03  0.25500000920E-02 0.  1.
       -2    1    3    3    0  502  0.25880741421E+03 -0.17761690292E+03 -0.62592627753E+03  0.70022335491E+03  0.25500000920E-02 0. -1.
</event>
<event>
 5   0  0.2750139E-02  0.6917128E+03  0.7818609E-02  0.9731510E-01
       -1   -1    0    0    0  501  0.00000000000E+00  0.00000000000E+00  0.10730593825E+04  0.10730593826E+04  0.50400001928E-02 0. -1.
        1   -1    0    0  501    0  0.00000000000E+00  0.00000000000E+00 -0.11147252367E+03  0.11147252378E+03  0.50400001928E-02 0.  1.
    10030    2    1    2    0    0  0.00000000000E+00  0.00000000000E+00  0.96158685888E+03  0.11845319063E+04  0.69171276550E+03 0.  0.
        2    1    3    3  502    0  0.90928969441E+02  0.11217428248E+03 -0.57381651496E+02  0.15538275666E+03  0.25500000920E-02 0.  1.
       -2    1    3    3    0  502 -0.90928969441E+02 -0.11217428248E+03  0.10189685104E+04  0.10291491497E+04  0.25500000920E-02 0. -1.
</event>
<event>
 5   0  0.4420645E-02  0.7160645E+03  0.7818609E-02  0.9690147E-01
       -2   -1    0    0    0  501  0.00000000000E+00  0.00000000000E+00  0.71996616410E+02  0.71996616455E+02  0.25500000920E-02 0. -1.
        2   -1    0    0  501    0  0.00000000000E+00  0.00000000000E+00 -0.17804601251E+04  0.17804601251E+04  0.25500000920E-02 0.  1.
    10030    2    1    2    0    0  0.00000000000E+00  0.00000000000E+00 -0.17084635087E+04  0.18524567416E+04  0.71606453537E+03 0.  0.
        5    1    3    3  502    0  0.66467177971E+02  0.11616007033E+03 -0.17132314750E+04  0.17184572222E+04  0.46999998093E+01 0.  1.
       -5    1    3    3    0  502 -0.66467177971E+02 -0.11616007033E+03  0.47679662872E+01  0.13399951936E+03  0.46999998093E+01 0. -1.
</event>
<event>
 5   0  0.2751729E-02  0.6928016E+03  0.7818609E-02  0.9729622E-01
        1   -1    0    0  501    0  0.00000000000E+00  0.00000000000E+00  0.63212413353E+03  0.63212413355E+03  0.50400001928E-02 0.  1.
       -1   -1    0    0    0  501  0.00000000000E+00  0.00000000000E+00 -0.18982585196E+03  0.18982585202E+03  0.50400001928E-02 0. -1.
    10030    2    1    2    0    0  0.00000000000E+00  0.00000000000E+00  0.44229828158E+03  0.82194998558E+03  0.69280156532E+03 0.  0.
        1    1    3    3  502    0 -0.25532930003E+03 -0.11247102546E+02  0.49856211668E+03  0.56025327575E+03  0.50400001928E-02 0.  1.
       -1    1    3    3    0  502  0.25532930003E+03  0.11247102546E+02 -0.56263835106E+02  0.26169670983E+03  0.50400001928E-02 0. -1.
</event>
<event>
 5   0  0.4299912E-02  0.7020945E+03  0.7818609E-02  0.9713657E-01
       -2   -1    0    0    0  501  0.00000000000E+00  0.00000000000E+00  0.28753967324E+03  0.28753967325E+03  0.25500000920E-02 0. -1.
        2   -1    0    0  501    0  0.00000000000E+00  0.00000000000E+00 -0.42858139764E+03  0.42858139765E+03  0.25500000920E-02 0.  1.
    10030    2    1    2    0    0  0.00000000000E+00  0.00000000000E+00 -0.14104172440E+03  0.71612107090E+03  0.70209445245E+03 0.  0.
        3    1    3    3  502    0  0.32644188812E+03 -0.16064647986E+02 -0.20118865760E+03  0.38379586420E+03  0.10100000352E+00 0.  1.
       -3    1    3    3    0  502 -0.32644188812E+03  0.16064647986E+02  0.60146933197E+02  0.33232520670E+03  0.10100000352E+00 0. -1.
</event>
<event>
 5   0  0.1784625E-02  0.6872639E+03  0.7818609E-02  0.9739264E-01
        4   -1    0    0  501    0  0.00000000000E+00  0.00000000000E+00  0.52381448599E+03  0.52381602556E+03  0.12699999809E+01 0.  1.
       -4   -1    0    0    0  501  0.00000000000E+00  0.00000000000E+00 -0.22542523764E+03  0.22542881507E+03  0.12699999809E+01 0. -1.
    10030    2    1    2    0    0  0.00000000000E+00  0.00000000000E+00  0.29838924835E+03  0.74924484063E+03  0.68726391414E+03 0.  0.
        1    1    3    3  502    0  0.16278906536E+03  0.61436505661E+02 -0.17385389293E+03  0.24596727453E+03  0.50400001928E-02 0. -1.
       -1    1    3    3    0  502 -0.16278906536E+03 -0.61436505661E+02  0.47224314128E+03  0.50327756610E+03  0.50400001928E-02 0.  1.
</event>
<event>
 5   0  0.2684924E-02  0.7116397E+03  0.7818609E-02  0.9697531E-01
        1   -1    0    0  501    0  0.00000000000E+00  0.00000000000E+00  0.84279417322E+03  0.84279417324E+03  0.50400001928E-02 0. -1.
       -1   -1    0    0    0  501  0.00000000000E+00  0.00000000000E+00 -0.15022382713E+03  0.15022382721E+03  0.50400001928E-02 0.  1.
    10030    2    1    2    0    0  0.00000000000E+00  0.00000000000E+00  0.69257034609E+03  0.99301800045E+03  0.71163970162E+03 0.  0.
        4    1    3    3  502    0  0.29335092706E+03 -0.19119282930E+03  0.25806922072E+03  0.43498367782E+03  0.12699999809E+01 0. -1.
       -4    1    3    3    0  502 -0.29335092706E+03  0.19119282930E+03  0.43450112538E+03  0.55803432263E+03  0.12699999809E+01 0.  1.
</event>
<event>
 5   0  0.2777999E-02  0.6894397E+03  0.7818609E-02  0.9735464E-01
       -1   -1    0    0    0  501  0.00000000000E+00  0.00000000000E+00  0.24380182624E+03  0.24380182630E+03  0.50400001928E-02 0. -1.
        1   -1    0    0  501    0  0.00000000000E+00  0.00000000000E+00 -0.48741137080E+03  0.48741137082E+03  0.50400001928E-02 0.  1.
    10030    2    1    2    0    0  0.00000000000E+00  0.00000000000E+00 -0.24360954455E+03  0.73121319712E+03  0.68943972140E+03 0.  0.
        5    1    3    3  502    0  0.18004134169E+03  0.11584148133E+03  0.16470301762E+03  0.27015422915E+03  0.46999998093E+01 0. -1.
       -5    1    3    3    0  502 -0.18004134169E+03 -0.11584148133E+03 -0.40831256218E+03  0.46105896797E+03  0.46999998093E+01 0.  1.
</event>
<event>
 5   0  0.4365492E-02  0.7075634E+03  0.7818609E-02  0.9704385E-01
        2   -1    0    0  501    0  0.00000000000E+00  0.00000000000E+00  0.17521258491E+03  0.17521258493E+03  0.25500000920E-02 0.  1.
       -2   -1    0    0    0  501  0.00000000000E+00  0.00000000000E+00 -0.71434069537E+03  0.71434069537E+03  0.25500000920E-02 0. -1.
    10030    2    1    2    0    0  0.00000000000E+00  0.00000000000E+00 -0.53912811046E+03  0.88955328030E+03  0.70756336748E+03 0.  0.
        4    1    3    3  502    0 -0.95153513289E+02 -0.22786532139E+03  0.48941397785E+02  0.25174127413E+03  0.12699999809E+01 0. -1.
       -4    1    3    3    0  502  0.95153513289E+02  0.22786532139E+03 -0.58806950825E+03  0.63781200617E+03  0.12699999809E+01 0.  1.
</event>
<event>
 5   0  0.2777999E-02  0.6979480E+03  0.7818609E-02  0.9720748E-01
        1   -1    0    0  501    0  0.00000000000E+00  0.00000000000E+00  0.60532956723E+03  0.60532956725E+03  0.50400001928E-02 0.  1.
       -1   -1    0    0    0  501  0.00000000000E+00  0.00000000000E+00 -0.20118439500E+03  0.20118439506E+03  0.50400001928E-02 0. -1.
    10030    2    1    2    0    0  0.00000000000E+00  0.00000000000E+00  0.40414517223E+03  0.80651396231E+03  0.69794802899E+03 0.  0.
        5    1    3    3  502    0  0.22086791089E+01 -0.12399859236E+03 -0.17482147611E+03  0.21439488725E+03  0.46999998093E+01 0. -1.
       -5    1    3    3    0  502 -0.22086791089E+01  0.12399859236E+03  0.57896664834E+03  0.59211907506E+03  0.46999998093E+01 0.  1.
</event>
<event>
 5   0  0.4503289E-02  0.7031766E+03  0.7818609E-02  0.9711815E-01
       -2   -1    0    0    0  501  0.00000000000E+00  0.00000000000E+00  0.12205576827E+03  0.12205576830E+03  0.25500000920E-02 0. -1.
        2   -1    0    0  501    0  0.00000000000E+00  0.00000000000E+00 -0.10127691882E+04  0.10127691882E+04  0.25500000920E-02 0.  1.
    10030    2    1    2    0    0  0.00000000000E+00  0.00000000000E+00 -0.89071341992E+03  0.11348249565E+04  0.70317656777E+03 0.  0.
        2    1    3    3  502    0 -0.33671225160E+02 -0.34326599466E+03 -0.55539542640E+03  0.65378083037E+03  0.25500000920E-02 0. -1.
       -2    1    3    3    0  502  0.33671225160E+02  0.34326599466E+03 -0.33531799352E+03  0.48104412612E+03  0.25500000920E-02 0.  1.
</event>
<event>
 5   0  0.2750139E-02  0.6847309E+03  0.7818609E-02  0.9743707E-01
        1   -1    0    0  501    0  0.00000000000E+00  0.00000000000E+00  0.27476983065E+03  0.27476983069E+03  0.50400001928E-02 0. -1.
       -1   -1    0    0    0  501  0.00000000000E+00  0.00000000000E+00 -0.42659008887E+03  0.42659008890E+03  0.50400001928E-02 0.  1.
    10030    2    1    2    0    0  0.00000000000E+00  0.00000000000E+00 -0.15182025822E+03  0.70135991959E+03  0.68473085662E+03 0.  0.
        2    1    3    3  502    0  0.21712316256E+03  0.24124573378E+03 -0.18751549780E+03  0.37483867691E+03  0.25500000920E-02 0.  1.
       -2    1    3    3    0  502 -0.21712316256E+03 -0.24124573378E+03  0.35695239585E+02  0.32652124268E+03  0.25500000920E-02 0. -1.
</event>
<event>
 5   0  0.2684924E-02  0.6822138E+03  0.7818609E-02  0.9748142E-01
        1   -1    0    0  501    0  0.00000000000E+00  0.00000000000E+00  0.37771911129E+03  0.37771911132E+03  0.50400001928E-02 0.  1.
       -1   -1    0    0    0  501  0.00000000000E+00  0.00000000000E+00 -0.30804345534E+03  0.30804345538E+03  0.50400001928E-02 0. -1.
    10030    2    1    2    0    0  0.00000000000E+00  0.00000000000E+00  0.69675655947E+02  0.68576256670E+03  0.68221375013E+03 0.  0.
        4    1    3    3  502    0  0.82962297070E+02  0.30733551697E+03 -0.88332941028E+02  0.33036674182E+03  0.12699999809E+01 0. -1.
       -4    1    3    3    0  502 -0.82962297070E+02 -0.30733551697E+03  0.15800859698E+03  0.35539582489E+03  0.12699999809E+01 0.  1.
</event>
<event>
 5   0  0.4503289E-02  0.6845795E+03  0.7818609E-02  0.9743973E-01
        2   -1    0    0  501    0  0.00000000000E+00  0.00000000000E+00  0.10989006665E+04  0.10989006665E+04  0.25500000920E-02 0. -1.
       -2   -1    0    0    0  501  0.00000000000E+00  0.00000000000E+00 -0.10661771037E+03  0.10661771040E+03  0.25500000920E-02 0.  1.
    10030    2    1    2    0    0  0.00000000000E+00  0.00000000000E+00  0.99228295618E+03  0.12055183769E+04  0.68457950016E+03 0.  0.
        2    1    3    3  502    0 -0.10761740160E+03  0.23918208678E+03  0.10883915919E+03  0.28396397367E+03  0.25500000920E-02 0.  1.
       -2    1    3    3    0  502  0.10761740160E+03 -0.23918208678E+03  0.88344379699E+03  0.92155440328E+03  0.25500000920E-02 0. -1.
</event>
<event>
 5   0  0.4365492E-02  0.6581033E+03  0.7818609E-02  0.9791692E-01
        2   -1    0    0  501    0  0.00000000000E+00  0.00000000000E+00  0.53422156470E+03  0.53422156471E+03  0.25500000920E-02 0. -1.
       -2   -1    0    0    0  501  0.00000000000E+00  0.00000000000E+00 -0.20267802567E+03  0.20267802569E+03  0.25500000920E-02 0.  1.
    10030    2    1    2    0    0  0.00000000000E+00  0.00000000000E+00  0.33154353903E+03  0.73689959040E+03  0.65810325029E+03 0.  0.
        4    1    3    3  502    0 -0.20517620319E+03 -0.17328642109E+03 -0.47118504818E+02  0.27266687457E+03  0.12699999809E+01 0.  1.
       -4    1    3    3    0  502  0.20517620319E+03  0.17328642109E+03  0.37866204385E+03  0.46423271583E+03  0.12699999809E+01 0. -1.
</event>
<event>
 5   0  0.2750139E-02  0.6979266E+03  0.7818609E-02  0.9720785E-01
        1   -1    0    0  501    0  0.00000000000E+00  0.00000000000E+00  0.24712496464E+03  0.24712496469E+03  0.50400001928E-02 0.  1.
       -1   -1    0    0    0  501  0.00000000000E+00  0.00000000000E+00 -0.49276843005E+03  0.49276843007E+03  0.50400001928E-02 0. -1.
    10030    2    1    2    0    0  0.00000000000E+00  0.00000000000E+00 -0.24564346541E+03  0.73989339477E+03  0.69792658892E+03 0.  0.
        2    1    3    3  502    0  0.62826159366E+00  0.40228526030E+02  0.24465793539E+03  0.24794401460E+03  0.25500000920E-02 0.  1.
       -2    1    3    3    0  502 -0.62826159366E+00 -0.40228526030E+02 -0.49030140080E+03  0.49194938017E+03  0.25500000920E-02 0. -1.
</event>
<event>
 5   0  0.2751729E-02  0.6972856E+03  0.7818609E-02  0.9721886E-01
       -1   -1    0    0    0  501  0.00000000000E+00  0.00000000000E+00  0.48489372404E+03  0.48489372407E+03  0.50400001928E-02 0.  1.
        1   -1    0    0  501    0  0.00000000000E+00  0.00000000000E+00 -0.25067718115E+03  0.25067718120E+03  0.50400001928E-02 0. -1.
    10030    2    1    2    0    0  0.00000000000E+00  0.00000000000E+00  0.23421654289E+03  0.73557090527E+03  0.69728557114E+03 0.  0.
        1    1    3    3  502    0 -0.21507308520E+03  0.11898104407E+03 -0.14373075585E+03  0.28473048841E+03  0.50400001928E-02 0. -1.
       -1    1    3    3    0  502  0.21507308520E+03 -0.11898104407E+03  0.37794729874E+03  0.45084041686E+03  0.50400001928E-02 0.  1.
</event>
<event>
 5   0  0.2684924E-02  0.7404158E+03  0.7818609E-02  0.9650508E-01
       -1   -1    0    0    0  501  0.00000000000E+00  0.00000000000E+00  0.85711459416E+03  0.85711459418E+03  0.50400001928E-02 0.  1.
        1   -1    0    0  501    0  0.00000000000E+00  0.00000000000E+00 -0.15990146750E+03  0.15990146758E+03  0.50400001928E-02 0. -1.
    10030    2    1    2    0    0  0.00000000000E+00  0.00000000000E+00  0.69721312667E+03  0.10170160618E+04  0.74041577906E+03 0.  0.
        4    1    3    3  502    0 -0.18906577957E+02 -0.36173766837E+03  0.45358097510E+03  0.58047300823E+03  0.12699999809E+01 0.  1.
       -4    1    3    3    0  502  0.18906577957E+02  0.36173766837E+03  0.24363215157E+03  0.43654305353E+03  0.12699999809E+01 0. -1.
</event>
<event>
 5   0  0.4365492E-02  0.7104723E+03  0.7818609E-02  0.9699489E-01
        2   -1    0    0  501    0  0.00000000000E+00  0.00000000000E+00  0.10653122317E+04  0.10653122317E+04  0.25500000920E-02 0.  1.
       -2   -1    0    0    0  501  0.00000000000E+00  0.00000000000E+00 -0.11845608901E+03  0.11845608904E+03  0.25500000920E-02 0. -1.
    10030    2    1    2    0    0  0.00000000000E+00  0.00000000000E+00  0.94685614268E+03  0.11837683207E+04  0.71047229519E+03 0.  0.
        4    1    3    3  502    0  0.29700713690E+02  0.31138063663E+03  0.75397423027E+03  0.81628352064E+03  0.12699999809E+01 0.  1.
       -4    1    3    3    0  502 -0.29700713690E+02 -0.31138063663E+03  0.19288191242E+03  0.36748480009E+03  0.12699999809E+01 0. -1.
</event>
<event>
 5   0  0.2758681E-02  0.6689058E+03  0.7818609E-02  0.9771937E-01
        1   -1    0    0  501    0  0.00000000000E+00  0.00000000000E+00  0.18348713996E+04  0.18348713996E+04  0.50400001928E-02 0. -1.
       -1   -1    0    0    0  501  0.00000000000E+00  0.00000000000E+00 -0.60962715351E+02  0.60962715559E+02  0.50400001928E-02 0.  1.
    10030    2    1    2    0    0  0.00000000000E+00  0.00000000000E+00  0.17739086843E+04  0.18958341152E+04  0.66890580217E+03 0.  0.
        3    1    3    3  502    0  0.12900330426E+03 -0.30299998166E+03  0.10524087141E+04  0.11027306802E+04  0.10100000352E+00 0.  1.
       -3    1    3    3    0  502 -0.12900330426E+03  0.30299998166E+03  0.72149997019E+03  0.79310343499E+03  0.10100000352E+00 0. -1.
</event>
<event>
 5   0  0.2751729E-02  0.6963679E+03  0.7818609E-02  0.9723464E-01
       -1   -1    0    0    0  501  0.00000000000E+00  0.00000000000E+00  0.92848833450E+02  0.92848833587E+02  0.50400001928E-02 0. -1.
        1   -1    0    0  501    0  0.00000000000E+00  0.00000000000E+00 -0.13056929814E+04  0.13056929814E+04  0.50400001928E-02 0.  1.
    10030    2    1    2    0    0  0.00000000000E+00  0.00000000000E+00 -0.12128441480E+04  0.13985418150E+04  0.69636792078E+03 0.  0.
        1    1    3    3  502    0 -0.19788759888E+03 -0.28211717974E+03 -0.70648617484E+03  0.78604854822E+03  0.50400001928E-02 0.  1.
       -1    1    3    3    0  502  0.19788759888E+03  0.28211717974E+03 -0.50635797315E+03  0.61249326681E+03  0.50400001928E-02 0. -1.
</event>
<event>
 5   0  0.2751729E-02  0.7087754E+03  0.7818609E-02  0.9702342E-01
       -1   -1    0    0    0  501  0.00000000000E+00  0.00000000000E+00  0.53243805096E+03  0.53243805099E+03  0.50400001928E-02 0. -1.
        1   -1    0    0  501    0  0.00000000000E+00  0.00000000000E+00 -0.23587841134E+03  0.23587841140E+03  0.50400001928E-02 0.  1.
    10030    2    1    2    0    0  0.00000000000E+00  0.00000000000E+00  0.29655963962E+03  0.76831646238E+03  0.70877539920E+03 0.  0.
        1    1    3    3  502    0  0.99340706244E+02  0.23528219181E+03  0.41461086225E+03  0.48695836868E+03  0.50400001928E-02 0.  1.
       -1    1    3    3    0  502 -0.99340706244E+02 -0.23528219181E+03 -0.11805122263E+03  0.28135809370E+03  0.50400001928E-02 0. -1.
</event>
<event>
 5   0  0.4365492E-02  0.7062544E+03  0.7818609E-02  0.9706596E-01
       -2   -1    0    0    0  501  0.00000000000E+00  0.00000000000E+00  0.24226156734E+03  0.24226156736E+03  0.25500000920E-02 0.  1.
        2   -1    0    0  501    0  0.00000000000E+00  0.00000000000E+00 -0.51472799090E+03  0.51472799090E+03  0.25500000920E-02 0. -1.
    10030    2    1    2    0    0  0.00000000000E+00  0.00000000000E+00 -0.27246642355E+03  0.75698955826E+03  0.70625437298E+03 0.  0.
        4    1    3    3  502    0  0.35104293360E+03  0.40283807237E+01 -0.95421298137E+02  0.36380517605E+03  0.12699999809E+01 0. -1.
       -4    1    3    3    0  502 -0.35104293360E+03 -0.40283807237E+01 -0.17704512541E+03  0.39318438221E+03  0.12699999809E+01 0.  1.
</event>
<event>
 5   0  0.4299912E-02  0.7020704E+03  0.7818609E-02  0.9713698E-01
        2   -1    0    0  501    0  0.00000000000E+00  0.00000000000E+00  0.29162939666E+03  0.29162939667E+03  0.25500000920E-02 0. -1.
       -2   -1    0    0    0  501  0.00000000000E+00  0.00000000000E+00 -0.42254220342E+03  0.42254220342E+03  0.25500000920E-02 0.  1.
    10030    2    1    2    0    0  0.00000000000E+00  0.00000000000E+00 -0.13091280676E+03  0.71417160009E+03  0.70207044618E+03 0.  0.
        3    1    3    3  502    0 -0.23650446831E+03 -0.23431170711E+03 -0.17868252630E+03  0.37784096526E+03  0.10100000352E+00 0. -1.
       -3    1    3    3    0  502  0.23650446831E+03  0.23431170711E+03  0.47769719544E+02  0.33633063483E+03  0.10100000352E+00 0.  1.
</event>
<event>
 5   0  0.1784625E-02  0.7019652E+03  0.7818609E-02  0.9713877E-01
        3   -1    0    0  501    0  0.00000000000E+00  0.00000000000E+00  0.16744855136E+03  0.16744858182E+03  0.10100000352E+00 0.  1.
       -3   -1    0    0    0  501  0.00000000000E+00  0.00000000000E+00 -0.73568130058E+03  0.73568130751E+03  0.10100000352E+00 0. -1.
    10030    2    1    2    0    0  0.00000000000E+00  0.00000000000E+00 -0.56823274923E+03  0.90312988933E+03  0.70196519836E+03 0.  0.
        3    1    3    3  502    0 -0.16097924474E+03  0.99694691711E+02 -0.66433190786E+03  0.69078957925E+03  0.10100000352E+00 0. -1.
       -3    1    3    3    0  502  0.16097924474E+03 -0.99694691711E+02  0.96099158640E+02  0.21234031008E+03  0.10100000352E+00 0.  1.
</event>
<event>
 5   0  0.4420645E-02  0.7027040E+03  0.7818609E-02  0.9712619E-01
       -2   -1    0    0    0  501  0.00000000000E+00  0.00000000000E+00  0.13535843457E+03  0.13535843459E+03  0.25500000920E-02 0.  1.
        2   -1    0    0  501    0  0.00000000000E+00  0.00000000000E+00 -0.91200998911E+03  0.91200998912E+03  0.25500000920E-02 0. -1.
    10030    2    1    2    0    0  0.00000000000E+00  0.00000000000E+00 -0.77665155454E+03  0.10473684237E+04  0.70270404710E+03 0.  0.
        5    1    3    3  502    0  0.10599511557E+03 -0.33467468596E+03 -0.40854611717E+03  0.53867813191E+03  0.46999998093E+01 0. -1.
       -5    1    3    3    0  502 -0.10599511557E+03  0.33467468596E+03 -0.36810543738E+03  0.50869029180E+03  0.46999998093E+01 0.  1.
</event>
<event>
 5   0  0.4299912E-02  0.6887816E+03  0.7818609E-02  0.9736612E-01
       -2   -1    0    0    0  501  0.00000000000E+00  0.00000000000E+00  0.12853828769E+03  0.12853828771E+03  0.25500000920E-02 0.  1.
        2   -1    0    0  501    0  0.00000000000E+00  0.00000000000E+00 -0.92272135271E+03  0.92272135271E+03  0.25500000920E-02 0. -1.
    10030    2    1    2    0    0  0.00000000000E+00  0.00000000000E+00 -0.79418306502E+03  0.10512596404E+04  0.68878159878E+03 0.  0.
        3    1    3    3  502    0  0.11736123131E+03  0.91627712864E+02  0.76874709333E+02  0.16756797879E+03  0.10100000352E+00 0.  1.
       -3    1    3    3    0  502 -0.11736123131E+03 -0.91627712864E+02 -0.87105777436E+03  0.88369166164E+03  0.10100000352E+00 0. -1.
</event>
<event>
 5   0  0.2758681E-02  0.7028382E+03  0.7818609E-02  0.9712391E-01
        1   -1    0    0  501    0  0.00000000000E+00  0.00000000000E+00  0.57573921765E+03  0.57573921767E+03  0.50400001928E-02 0. -1.
       -1   -1    0    0    0  501  0.00000000000E+00  0.00000000000E+00 -0.21449884947E+03  0.21449884953E+03  0.50400001928E-02 0.  1.
    10030    2    1    2    0    0  0.00000000000E+00  0.00000000000E+00  0.36124036818E+03  0.79023806719E+03  0.70283824543E+03 0.  0.
        3    1    3    3  502    0  0.29957634914E+03 -0.17583418412E+03  0.12078876902E+03  0.36776838661E+03  0.10100000352E+00 0.  1.
       -3    1    3    3    0  502 -0.29957634914E+03  0.17583418412E+03  0.24045159916E+03  0.42246968058E+03  0.10100000352E+00 0. -1.
</event>
<event>
 5   0  0.4420645E-02  0.7389930E+03  0.7818609E-02  0.9652779E-01
        2   -1    0    0  501    0  0.00000000000E+00  0.00000000000E+00  0.11398225661E+04  0.11398225661E+04  0.25500000920E-02 0. -1.
       -2   -1    0    0    0  501  0.00000000000E+00  0.00000000000E+00 -0.11977975807E+03  0.11977975809E+03  0.25500000920E-02 0.  1.
    10030    2    1    2    0    0  0.00000000000E+00  0.00000000000E+00  0.10200428080E+04  0.12596023242E+04  0.73899302087E+03 0.  0.
        5    1    3    3  502    0 -0.28339333803E+03 -0.12144075837E+03  0.85702510773E+03  0.91080940219E+03  0.46999998093E+01 0. -1.
       -5    1    3    3    0  502  0.28339333803E+03  0.12144075837E+03  0.16301770031E+03  0.34879292202E+03  0.46999998093E+01 0.  1.
</event>
<event>
 5   0  0.4503289E-02  0.6685594E+03  0.7818609E-02  0.9772564E-01
        2   -1    0    0  501    0  0.00000000000E+00  0.00000000000E+00  0.10553610178E+04  0.10553610178E+04  0.25500000920E-02 0. -1.
       -2   -1    0    0    0  501  0.00000000000E+00  0.00000000000E+00 -0.10588123880E+03  0.10588123883E+03  0.25500000920E-02 0.  1.
    10030    2    1    2    0    0  0.00000000000E+00  0.00000000000E+00  0.94947977904E+03  0.11612422567E+04  0.66855944230E+03 0.  0.
        2    1    3    3  502    0 -0.64265545637E+02 -0.31818963705E+03  0.61334908871E+03  0.69395375214E+03  0.25500000920E-02 0. -1.
       -2    1    3    3    0  502  0.64265545637E+02  0.31818963705E+03  0.33613069033E+03  0.46728850454E+03  0.25500000920E-02 0.  1.
</event>
<event>
 5   0  0.4420645E-02  0.7072855E+03  0.7818609E-02  0.9704853E-01
        2   -1    0    0  501    0  0.00000000000E+00  0.00000000000E+00  0.16517378754E+04  0.16517378754E+04  0.25500000920E-02 0. -1.
       -2   -1    0    0    0  501  0.00000000000E+00  0.00000000000E+00 -0.75716132064E+02  0.75716132107E+02  0.25500000920E-02 0.  1.
    10030    2    1    2    0    0  0.00000000000E+00  0.00000000000E+00  0.15760217433E+04  0.17274540075E+04  0.70728552410E+03 0.  0.
        5    1    3    3  502    0 -0.14212006635E+03 -0.20230369355E+03  0.17053889855E+03  0.30038392701E+03  0.46999998093E+01 0.  1.
       -5    1    3    3    0  502  0.14212006635E+03  0.20230369355E+03  0.14054828448E+04  0.14270700805E+04  0.46999998093E+01 0. -1.
</event>
<event>
 5   0  0.2751729E-02  0.7116807E+03  0.7818609E-02  0.9697463E-01
       -1   -1    0    0    0  501  0.00000000000E+00  0.00000000000E+00  0.22356435955E+03  0.22356435960E+03  0.50400001928E-02 0.  1.
        1   -1    0    0  501    0  0.00000000000E+00  0.00000000000E+00 -0.56637987347E+03  0.56637987349E+03  0.50400001928E-02 0. -1.
    10030    2    1    2    0    0  0.00000000000E+00  0.00000000000E+00 -0.34281551392E+03  0.78994423310E+03  0.71168069723E+03 0.  0.
        1    1    3    3  502    0 -0.19853091059E+02  0.44596483106E+02 -0.56264559714E+03  0.56475929345E+03  0.50400001928E-02 0. -1.
       -1    1    3    3    0  502  0.19853091059E+02 -0.44596483106E+02  0.21983008322E+03  0.22518493965E+03  0.50400001928E-02 0.  1.
</event>
<event>
 5   0  0.1784625E-02  0.6993451E+03  0.7818609E-02  0.9718353E-01
       -3   -1    0    0    0  501  0.00000000000E+00  0.00000000000E+00  0.23644844244E+03  0.23644846402E+03  0.10100000352E+00 0.  1.
        3   -1    0    0  501    0  0.00000000000E+00  0.00000000000E+00 -0.51711429537E+03  0.51711430523E+03  0.10100000352E+00 0. -1.
    10030    2    1    2    0    0  0.00000000000E+00  0.00000000000E+00 -0.28066585292E+03  0.75356276925E+03  0.69934506947E+03 0.  0.
        3    1    3    3  502    0  0.59633096636E+02  0.45370434528E+02  0.22769603327E+03  0.23970831507E+03  0.10100000352E+00 0.  1.
       -3    1    3    3    0  502 -0.59633096636E+02 -0.45370434528E+02 -0.50836188620E+03  0.51385445418E+03  0.10100000352E+00 0. -1.
</event>
<event>
 5   0  0.4503289E-02  0.7034557E+03  0.7818609E-02  0.9711341E-01
        2   -1    0    0  501    0  0.00000000000E+00  0.00000000000E+00  0.61160022549E+03  0.61160022550E+03  0.25500000920E-02 0. -1.
       -2   -1    0    0    0  501  0.00000000000E+00  0.00000000000E+00 -0.20227669737E+03  0.20227669739E+03  0.25500000920E-02 0.  1.
    10030    2    1    2    0    0  0.00000000000E+00  0.00000000000E+00  0.40932352812E+03  0.81387692289E+03  0.70345568086E+03 0.  0.
        2    1    3    3  502    0  0.31700804145E+03 -0.14638503240E+03  0.25360852557E+03  0.43155528070E+03  0.25500000920E-02 0.  1.
       -2    1    3    3    0  502 -0.31700804145E+03  0.14638503240E+03  0.15571500255E+03  0.38232164218E+03  0.25500000920E-02 0. -1.
</event>
<event>
 5   0  0.2777999E-02  0.8923536E+03  0.7818609E-02  0.9435191E-01
        1   -1    0    0  501    0  0.00000000000E+00  0.00000000000E+00  0.49950127083E+03  0.49950127086E+03  0.50400001928E-02 0.  1.
       -1   -1    0    0    0  501  0.00000000000E+00  0.00000000000E+00 -0.39854502945E+03  0.39854502948E+03  0.50400001928E-02 0. -1.
    10030    2    1    2    0    0  0.00000000000E+00  0.00000000000E+00  0.10095624138E+03  0.89804630033E+03  0.89235362658E+03 0.  0.
        5    1    3    3  502    0  0.15169496133E+03 -0.46354056376E+02  0.47014146327E+03  0.49620071072E+03  0.46999998093E+01 0.  1.
       -5    1    3    3    0  502 -0.15169496133E+03  0.46354056376E+02 -0.36918522189E+03  0.40184558961E+03  0.46999998093E+01 0. -1.
</event>
<event>
 5   0  0.2758681E-02  0.7170687E+03  0.7818609E-02  0.9688480E-01
        1   -1    0    0  501    0  0.00000000000E+00  0.00000000000E+00  0.85848451384E+03  0.85848451385E+03  0.50400001928E-02 0. -1.
       -1   -1    0    0    0  501  0.00000000000E+00  0.00000000000E+00 -0.14973699231E+03  0.14973699239E+03  0.50400001928E-02 0.  1.
    10030    2    1    2    0    0  0.00000000000E+00  0.00000000000E+00  0.70874752153E+03  0.10082215062E+04  0.71706872500E+03 0.  0.
        3    1    3    3  502    0  0.20523882187E+03 -0.96718349168E+02  0.74470773226E+03  0.77850306984E+03  0.10100000352E+00 0. -1.
       -3    1    3    3    0  502 -0.20523882187E+03  0.96718349168E+02 -0.35960210725E+02  0.22971843640E+03  0.10100000352E+00 0.  1.
</event>
<event>
 5   0  0.4365492E-02  0.7023064E+03  0.7818609E-02  0.9713296E-01
        2   -1    0    0  501    0  0.00000000000E+00  0.00000000000E+00  0.65180190001E+03  0.65180190001E+03  0.25500000920E-02 0.  1.
       -2   -1    0    0    0  501  0.00000000000E+00  0.00000000000E+00 -0.18918107628E+03  0.18918107630E+03  0.25500000920E-02 0. -1.
    10030    2    1    2    0    0  0.00000000000E+00  0.00000000000E+00  0.46262082373E+03  0.84098297631E+03  0.70230644301E+03 0.  0.
        4    1    3    3  502    0  0.19751651653E+03 -0.18581071481E+03  0.49844994304E+03  0.56744370175E+03  0.12699999809E+01 0.  1.
       -4    1    3    3    0  502 -0.19751651653E+03  0.18581071481E+03 -0.35829119311E+02  0.27353927456E+03  0.12699999809E+01 0. -1.
</event>
<event>
 5   0  0.2758681E-02  0.6978469E+03  0.7818609E-02  0.9720921E-01
        1   -1    0    0  501    0  0.00000000000E+00  0.00000000000E+00  0.52923269469E+03  0.52923269471E+03  0.50400001928E-02 0.  1.
       -1   -1    0    0    0  501  0.00000000000E+00  0.00000000000E+00 -0.23004544395E+03  0.23004544400E+03  0.50400001928E-02 0. -1.
    10030    2    1    2    0    0  0.00000000000E+00  0.00000000000E+00  0.29918725074E+03  0.75927813872E+03  0.69784688932E+03 0.  0.
        3    1    3    3  502    0 -0.33681934077E+03 -0.89909001894E+02  0.16560885673E+03  0.38594973840E+03  0.10100000352E+00 0. -1.
       -3    1    3    3    0  502  0.33681934077E+03  0.89909001894E+02  0.13357839401E+03  0.37332840032E+03  0.10100000352E+00 0.  1.
</event>
<event>
 5   0  0.2684924E-02  0.7015862E+03  0.7818609E-02  0.9714523E-01
        1   -1    0    0  501    0  0.00000000000E+00  0.00000000000E+00  0.16244125082E+03  0.16244125089E+03  0.50400001928E-02 0. -1.
       -1   -1    0    0    0  501  0.00000000000E+00  0.00000000000E+00 -0.75754032668E+03  0.75754032670E+03  0.50400001928E-02 0.  1.
    10030    2    1    2    0    0  0.00000000000E+00  0.00000000000E+00 -0.59509907587E+03  0.91998157759E+03  0.70158619785E+03 0.  0.
        4    1    3    3  502    0  0.32584303493E+03 -0.10420184576E+03 -0.39931154859E+03  0.52581654007E+03  0.12699999809E+01 0.  1.
       -4    1    3    3    0  502 -0.32584303493E+03  0.10420184576E+03 -0.19578752727E+03  0.39416503752E+03  0.12699999809E+01 0. -1.
</event>
<event>
 5   0  0.2758681E-02  0.7012242E+03  0.7818609E-02  0.9715141E-01
       -1   -1    0    0    0  501  0.00000000000E+00  0.00000000000E+00  0.20377809625E+03  0.20377809631E+03  0.50400001928E-02 0. -1.
        1   -1    0    0  501    0  0.00000000000E+00  0.00000000000E+00 -0.60324864954E+03  0.60324864956E+03  0.50400001928E-02 0.  1.
    10030    2    1    2    0    0  0.00000000000E+00  0.00000000000E+00 -0.39947055330E+03  0.80702674587E+03  0.70122424773E+03 0.  0.
        3    1    3    3  502    0  0.75088610804E+02  0.15003655237E+03 -0.55404935050E+03  0.57889546510E+03  0.10100000352E+00 0.  1.
       -3    1    3    3    0  502 -0.75088610804E+02 -0.15003655237E+03  0.15457879721E+03  0.22813128077E+03  0.10100000352E+00 0. -1.
</event>
<event>
 5   0  0.4420645E-02  0.6994469E+03  0.7818609E-02  0.9718179E-01
       -2   -1    0    0    0  501  0.00000000000E+00  0.00000000000E+00  0.96426205342E+02  0.96426205376E+02  0.25500000920E-02 0. -1.
        2   -1    0    0  501    0  0.00000000000E+00  0.00000000000E+00 -0.12683947061E+04  0.12683947061E+04  0.25500000920E-02 0.  1.
    10030    2    1    2    0    0  0.00000000000E+00  0.00000000000E+00 -0.11719685008E+04  0.13648209115E+04  0.69944689122E+03 0.  0.
        5    1    3    3  502    0 -0.17566079733E+03  0.27491313248E+03 -0.83164838300E+03  0.89336166756E+03  0.46999998093E+01 0.  1.
       -5    1    3    3    0  502  0.17566079733E+03 -0.27491313248E+03 -0.34032011776E+03  0.47145924392E+03  0.46999998093E+01 0. -1.
</event>
<event>
 5   0  0.2684924E-02  0.7252150E+03  0.7818609E-02  0.9675057E-01
        1   -1    0    0  501    0  0.00000000000E+00  0.00000000000E+00  0.18586960264E+03  0.18586960270E+03  0.50400001928E-02 0.  1.
       -1   -1    0    0    0  501  0.00000000000E+00  0.00000000000E+00 -0.70740028509E+03  0.70740028511E+03  0.50400001928E-02 0. -1.
    10030    2    1    2    0    0  0.00000000000E+00  0.00000000000E+00 -0.52153068246E+03  0.89326988781E+03  0.72521503000E+03 0.  0.
        4    1    3    3  502    0 -0.19902545442E+03  0.17702290557E+03  0.42286455163E+02  0.26969982906E+03  0.12699999809E+01 0.  1.
       -4    1    3    3    0  502  0.19902545442E+03 -0.17702290557E+03 -0.56381713762E+03  0.62357005876E+03  0.12699999809E+01 0. -1.
</event>
<event>
 5   0  0.2777999E-02  0.7203117E+03  0.7818609E-02  0.9683113E-01
       -1   -1    0    0    0  501  0.00000000000E+00  0.00000000000E+00  0.14854985753E+03  0.14854985761E+03  0.50400001928E-02 0. -1.
        1   -1    0    0  501    0  0.00000000000E+00  0.00000000000E+00 -0.87318997752E+03  0.87318997754E+03  0.50400001928E-02 0.  1.
    10030    2    1    2    0    0  0.00000000000E+00  0.00000000000E+00 -0.72464012000E+03  0.10217398352E+04  0.72031172921E+03 0.  0.
        5    1    3    3  502    0 -0.93927227010E+02 -0.34688381813E+03 -0.39526549607E+03  0.53423553760E+03  0.46999998093E+01 0.  1.
       -5    1    3    3    0  502  0.93927227010E+02  0.34688381813E+03 -0.32937462393E+03  0.48750429756E+03  0.46999998093E+01 0. -1.
</event>
<event>
 5   0  0.4420645E-02  0.6898372E+03  0.7818609E-02  0.9734772E-01
        2   -1    0    0  501    0  0.00000000000E+00  0.00000000000E+00  0.18441127588E+04  0.18441127588E+04  0.25500000920E-02 0. -1.
       -2   -1    0    0    0  501  0.00000000000E+00  0.00000000000E+00 -0.64512777018E+02  0.64512777069E+02  0.25500000920E-02 0.  1.
    10030    2    1    2    0    0  0.00000000000E+00  0.00000000000E+00  0.17795999817E+04  0.19086255358E+04  0.68983718442E+03 0.  0.
        5    1    3    3  502    0 -0.12271044120E+03 -0.32175252151E+03  0.94260179166E+03  0.10035450987E+04  0.46999998093E+01 0. -1.
       -5    1    3    3    0  502  0.12271044120E+03  0.32175252151E+03  0.83699819008E+03  0.90508043713E+03  0.46999998093E+01 0.  1.
</event>
<event>
 5   0  0.2777999E-02  0.6919314E+03  0.7818609E-02  0.9731131E-01
       -1   -1    0    0    0  501  0.00000000000E+00  0.00000000000E+00  0.26334337332E+03  0.26334337337E+03  0.50400001928E-02 0. -1.
        1   -1    0    0  501    0  0.00000000000E+00  0.00000000000E+00 -0.45451031640E+03  0.45451031643E+03  0.50400001928E-02 0.  1.
    10030    2    1    2    0    0  0.00000000000E+00  0.00000000000E+00 -0.19116694308E+03  0.71785368979E+03  0.69193144156E+03 0.  0.
        5    1    3    3  502    0 -0.26917615826E+03 -0.20642870709E+02  0.12882606457E+03  0.29916580219E+03  0.46999998093E+01 0. -1.
       -5    1    3    3    0  502  0.26917615826E+03  0.20642870709E+02 -0.31999300765E+03  0.41868788761E+03  0.46999998093E+01 0.  1.
</event>
<event>
 5   0  0.4365492E-02  0.7007519E+03  0.7818609E-02  0.9715947E-01
       -2   -1    0    0    0  501  0.00000000000E+00  0.00000000000E+00  0.13213703831E+04  0.13213703831E+04  0.25500000920E-02 0. -1.
        2   -1    0    0  501    0  0.00000000000E+00  0.00000000000E+00 -0.92906065559E+02  0.92906065594E+02  0.25500000920E-02 0.  1.
    10030    2    1    2    0    0  0.00000000000E+00  0.00000000000E+00  0.12284643175E+04  0.14142764487E+04  0.70075194889E+03 0.  0.
        4    1    3    3  502    0 -0.20997646059E+03 -0.25481290941E+03  0.85082119534E+03  0.91264344196E+03  0.12699999809E+01 0. -1.
       -4    1    3    3    0  502  0.20997646059E+03  0.25481290941E+03  0.37764312221E+03  0.50163300675E+03  0.12699999809E+01 0.  1.
</event>
<event>
 5   0  0.2750139E-02  0.7044995E+03  0.7818609E-02  0.9709568E-01
        1   -1    0    0  501    0  0.00000000000E+00  0.00000000000E+00  0.18549607801E+03  0.18549607808E+03  0.50400001928E-02 0.  1.
       -1   -1    0    0    0  501  0.00000000000E+00  0.00000000000E+00 -0.66890849111E+03  0.66890849113E+03  0.50400001928E-02 0. -1.
    10030    2    1    2    0    0  0.00000000000E+00  0.00000000000E+00 -0.48341241310E+03  0.85440456921E+03  0.70449954347E+03 0.  0.
        2    1    3    3  502    0 -0.25117381944E+03 -0.22197360424E+03 -0.37299700696E+03  0.50148513014E+03  0.25500000920E-02 0. -1.
       -2    1    3    3    0  502  0.25117381944E+03  0.22197360424E+03 -0.11041540614E+03  0.35291943907E+03  0.25500000920E-02 0.  1.
</event>
<event>
 5   0  0.2750139E-02  0.6974719E+03  0.7818609E-02  0.9721565E-01
        1   -1    0    0  501    0  0.00000000000E+00  0.00000000000E+00  0.14387804063E+04  0.14387804063E+04  0.50400001928E-02 0. -1.
       -1   -1    0    0    0  501  0.00000000000E+00  0.00000000000E+00 -0.84527666461E+02  0.84527666611E+02  0.50400001928E-02 0.  1.
    10030    2    1    2    0    0  0.00000000000E+00  0.00000000000E+00  0.13542527399E+04  0.15233080729E+04  0.69747186443E+03 0.  0.
        2    1    3    3  502    0 -0.12760460513E+02 -0.43772811882E+02  0.14322425786E+04  0.14329681407E+04  0.25500000920E-02 0. -1.
       -2    1    3    3    0  502  0.12760460513E+02  0.43772811882E+02 -0.77989838694E+02  0.90339932248E+02  0.25500000920E-02 0.  1.
</event>
<event>
 5   0  0.2751729E-02  0.7114984E+03  0.7818609E-02  0.9697768E-01
       -1   -1    0    0    0  501  0.00000000000E+00  0.00000000000E+00  0.22139942428E+03  0.22139942434E+03  0.50400001928E-02 0.  1.
        1   -1    0    0  501    0  0.00000000000E+00  0.00000000000E+00 -0.57162523302E+03  0.57162523304E+03  0.50400001928E-02 0. -1.
    10030    2    1    2    0    0  0.00000000000E+00  0.00000000000E+00 -0.35022580874E+03  0.79302465739E+03  0.71149841189E+03 0.  0.
        1    1    3    3  502    0 -0.31505248670E+03 -0.13668750817E+02  0.84133860153E+01  0.31546107401E+03  0.50400001928E-02 0.  1.
       -1    1    3    3    0  502  0.31505248670E+03  0.13668750817E+02 -0.35863919475E+03  0.47756358337E+03  0.50400001928E-02 0. -1.
</event>
<event>
 5   0  0.4299912E-02  0.6956024E+03  0.7818609E-02  0.9724782E-01
        2   -1    0    0  501    0  0.00000000000E+00  0.00000000000E+00  0.69642338840E+03  0.69642338840E+03  0.25500000920E-02 0. -1.
       -2   -1    0    0    0  501  0.00000000000E+00  0.00000000000E+00 -0.17369560163E+03  0.17369560165E+03  0.25500000920E-02 0.  1.
    10030    2    1    2    0    0  0.00000000000E+00  0.00000000000E+00  0.52272778676E+03  0.87011899005E+03  0.69560241359E+03 0.  0.
        3    1    3    3  502    0 -0.47073261193E+02 -0.27431125321E+03  0.46169531943E+00  0.27832135908E+03  0.10100000352E+00 0.  1.
       -3    1    3    3    0  502  0.47073261193E+02  0.27431125321E+03  0.52226609144E+03  0.59179763098E+03  0.10100000352E+00 0. -1.
</event>
<event>
 5   0  0.2750139E-02  0.6960055E+03  0.7818609E-02  0.9724088E-01
       -1   -1    0    0    0  501  0.00000000000E+00  0.00000000000E+00  0.13906442124E+03  0.13906442133E+03  0.50400001928E-02 0. -1.
        1   -1    0    0  501    0  0.00000000000E+00  0.00000000000E+00 -0.87086193602E+03  0.87086193604E+03  0.50400001928E-02 0.  1.
    10030    2    1    2    0    0  0.00000000000E+00  0.00000000000E+00 -0.73179751478E+03  0.10099263574E+04  0.69600549183E+03 0.  0.
        2    1    3    3  502    0 -0.10009478504E+03 -0.12948913049E+03 -0.81153223461E+03  0.82787134793E+03  0.25500000920E-02 0.  1.
       -2    1    3    3    0  502  0.10009478504E+03  0.12948913049E+03  0.79734719825E+02  0.18205500944E+03  0.25500000920E-02 0. -1.
</event>
<event>
 5   0  0.1784625E-02  0.7111059E+03  0.7818609E-02  0.9698426E-01
       -3   -1    0    0    0  501  0.00000000000E+00  0.00000000000E+00  0.31800127668E+03  0.31800129272E+03  0.10100000352E+00 0.  1.
        3   -1    0    0  501    0  0.00000000000E+00  0.00000000000E+00 -0.39753893772E+03  0.39753895055E+03  0.10100000352E+00 0. -1.
    10030    2    1    2    0    0  0.00000000000E+00  0.00000000000E+00 -0.79537661042E+02  0.71554024328E+03  0.71110589944E+03 0.  0.
        4    1    3    3  502    0  0.12615959157E+03  0.29159312914E+03 -0.20036826865E+03  0.37562195289E+03  0.12699999809E+01 0. -1.
       -4    1    3    3    0  502 -0.12615959157E+03 -0.29159312914E+03  0.12083060761E+03  0.33991829039E+03  0.12699999809E+01 0.  1.
</event>
<event>
 5   0  0.2750139E-02  0.6987843E+03  0.7818609E-02  0.9719313E-01
       -1   -1    0    0    0  501  0.00000000000E+00  0.00000000000E+00  0.16942781431E+03  0.16942781438E+03  0.50400001928E-02 0. -1.
        1   -1    0    0  501    0  0.00000000000E+00  0.00000000000E+00 -0.72051265770E+03  0.72051265772E+03  0.50400001928E-02 0.  1.
    10030    2    1    2    0    0  0.00000000000E+00  0.00000000000E+00 -0.55108484340E+03  0.88994047210E+03  0.69878432958E+03 0.  0.
        2    1    3    3  502    0  0.29012862210E+03  0.80934362765E+02 -0.50047972706E+02  0.30533553350E+03  0.25500000920E-02 0. -1.
       -2    1    3    3    0  502 -0.29012862210E+03 -0.80934362765E+02 -0.50103687069E+03  0.58460493860E+03  0.25500000920E-02 0.  1.
</event>
<event>
 5   0  0.4420645E-02  0.7050086E+03  0.7818609E-02  0.9708705E-01
       -2   -1    0    0    0  501  0.00000000000E+00  0.00000000000E+00  0.28827658440E+03  0.28827658441E+03  0.25500000920E-02 0. -1.
        2   -1    0    0  501    0  0.00000000000E+00  0.00000000000E+00 -0.43104193947E+03  0.43104193948E+03  0.25500000920E-02 0.  1.
    10030    2    1    2    0    0  0.00000000000E+00  0.00000000000E+00 -0.14276535507E+03  0.71931852389E+03  0.70500864690E+03 0.  0.
        5    1    3    3  502    0 -0.18725443613E+03 -0.27422881490E+03 -0.19198313633E+03  0.38359520513E+03  0.46999998093E+01 0.  1.
       -5    1    3    3    0  502  0.18725443613E+03  0.27422881490E+03  0.49217781253E+02  0.33572331876E+03  0.46999998093E+01 0. -1.
</event>
<event>
 5   0  0.4365492E-02  0.6901461E+03  0.7818609E-02  0.9734234E-01
       -2   -1    0    0    0  501  0.00000000000E+00  0.00000000000E+00  0.37593315616E+03  0.37593315617E+03  0.25500000920E-02 0.  1.
        2   -1    0    0  501    0  0.00000000000E+00  0.00000000000E+00 -0.31674626516E+03  0.31674626517E+03  0.25500000920E-02 0. -1.
    10030    2    1    2    0    0  0.00000000000E+00  0.00000000000E+00  0.59186890995E+02  0.69267942134E+03  0.69014613864E+03 0.  0.
        4    1    3    3  502    0  0.27416831034E+02 -0.26417238687E+03 -0.19152200366E+03  0.32744621451E+03  0.12699999809E+01 0. -1.
       -4    1    3    3    0  502 -0.27416831034E+02  0.26417238687E+03  0.25070889466E+03  0.36523320683E+03  0.12699999809E+01 0.  1.
</event>
<event>
 5   0  0.2750139E-02  0.6847456E+03  0.7818609E-02  0.9743681E-01
       -1   -1    0    0    0  501  0.00000000000E+00  0.00000000000E+00  0.84676798116E+02  0.84676798266E+02  0.50400001928E-02 0.  1.
        1   -1    0    0  501    0  0.00000000000E+00  0.00000000000E+00 -0.13843121108E+04  0.13843121108E+04  0.50400001928E-02 0. -1.
    10030    2    1    2    0    0  0.00000000000E+00  0.00000000000E+00 -0.12996353127E+04  0.14689889091E+04  0.68474555056E+03 0.  0.
        2    1    3    3  502    0 -0.19754033597E+03 -0.24937582914E+03 -0.92125297998E+03  0.97463713331E+03  0.25500000920E-02 0. -1.
       -2    1    3    3    0  502  0.19754033597E+03  0.24937582914E+03 -0.37838233270E+03  0.49435177576E+03  0.25500000920E-02 0.  1.
</event>
<event>
 5   0  0.2751729E-02  0.6995931E+03  0.7818609E-02  0.9717928E-01
       -1   -1    0    0    0  501  0.00000000000E+00  0.00000000000E+00  0.95138480804E+03  0.95138480806E+03  0.50400001928E-02 0. -1.
        1   -1    0    0  501    0  0.00000000000E+00  0.00000000000E+00 -0.12861004273E+03  0.12861004282E+03  0.50400001928E-02 0.  1.
    10030    2    1    2    0    0  0.00000000000E+00  0.00000000000E+00  0.82277476532E+03  0.10799948509E+04  0.69959314139E+03 0.  0.
        1    1    3    3  502    0 -0.34004462638E+03  0.80982288801E+02  0.43146570007E+03  0.55529373254E+03  0.50400001928E-02 0.  1.
       -1    1    3    3    0  502  0.34004462638E+03 -0.80982288801E+02  0.39130906524E+03  0.52470111835E+03  0.50400001928E-02 0. -1.
</event>
<event>
 5   0  0.2758681E-02  0.7277922E+03  0.7818609E-02  0.9670850E-01
        1   -1    0    0  501    0  0.00000000000E+00  0.00000000000E+00  0.20747451523E+03  0.20747451529E+03  0.50400001928E-02 0.  1.
       -1   -1    0    0    0  501  0.00000000000E+00  0.00000000000E+00 -0.63824878889E+03  0.63824878891E+03  0.50400001928E-02 0. -1.
    10030    2    1    2    0    0  0.00000000000E+00  0.00000000000E+00 -0.43077427367E+03  0.84572330420E+03  0.72779216293E+03 0.  0.
        3    1    3    3  502    0  0.83533530472E+00 -0.23564672669E+03 -0.53761019643E+03  0.58698791393E+03  0.10100000352E+00 0. -1.
       -3    1    3    3    0  502 -0.83533530472E+00  0.23564672669E+03  0.10683592277E+03  0.25873539028E+03  0.10100000352E+00 0.  1.
</event>
<event>
 5   0  0.4503289E-02  0.7052014E+03  0.7818609E-02  0.9708378E-01
       -2   -1    0    0    0  501  0.00000000000E+00  0.00000000000E+00  0.10660965683E+03  0.10660965686E+03  0.25500000920E-02 0.  1.
        2   -1    0    0  501    0  0.00000000000E+00  0.00000000000E+00 -0.11661913833E+04  0.11661913833E+04  0.25500000920E-02 0. -1.
    10030    2    1    2    0    0  0.00000000000E+00  0.00000000000E+00 -0.10595817264E+04  0.12728010401E+04  0.70520142708E+03 0.  0.
        2    1    3    3  502    0  0.18332279744E+03 -0.13764176291E+03 -0.46249963520E+02  0.23386227162E+03  0.25500000920E-02 0.  1.
       -2    1    3    3    0  502 -0.18332279744E+03  0.13764176291E+03 -0.10133317629E+04  0.10389387685E+04  0.25500000920E-02 0. -1.
</event>
<event>
 5   0  0.2751729E-02  0.7048670E+03  0.7818609E-02  0.9708945E-01
       -1   -1    0    0    0  501  0.00000000000E+00  0.00000000000E+00  0.77200244610E+02  0.77200244774E+02  0.50400001928E-02 0.  1.
        1   -1    0    0  501    0  0.00000000000E+00  0.00000000000E+00 -0.16089245369E+04  0.16089245369E+04  0.50400001928E-02 0. -1.
    10030    2    1    2    0    0  0.00000000000E+00  0.00000000000E+00 -0.15317242923E+04  0.16861247817E+04  0.70486698874E+03 0.  0.
        1    1    3    3  502    0  0.18492740877E+03 -0.21989706666E+03 -0.27763273679E+03  0.39954074011E+03  0.50400001928E-02 0.  1.
       -1    1    3    3    0  502 -0.18492740877E+03  0.21989706666E+03 -0.12540915555E+04  0.12865840416E+04  0.50400001928E-02 0. -1.
</event>
<event>
 5   0  0.4420645E-02  0.6925629E+03  0.7818609E-02  0.9730036E-01
       -2   -1    0    0    0  501  0.00000000000E+00  0.00000000000E+00  0.61912100496E+03  0.61912100496E+03  0.25500000920E-02 0.  1.
        2   -1    0    0  501    0  0.00000000000E+00  0.00000000000E+00 -0.19367916393E+03  0.19367916395E+03  0.25500000920E-02 0. -1.
    10030    2    1    2    0    0  0.00000000000E+00  0.00000000000E+00  0.42544184103E+03  0.81280016891E+03  0.69256288847E+03 0.  0.
        5    1    3    3  502    0 -0.15185936464E+03 -0.81787665723E+02 -0.13963303715E+03  0.22196838504E+03  0.46999998093E+01 0. -1.
       -5    1    3    3    0  502  0.15185936464E+03  0.81787665723E+02  0.56507487817E+03  0.59083178387E+03  0.46999998093E+01 0.  1.
</event>
<event>
 5   0  0.2751729E-02  0.7041926E+03  0.7818609E-02  0.9710089E-01
        1   -1    0    0  501    0  0.00000000000E+00  0.00000000000E+00  0.70048914686E+03  0.70048914688E+03  0.50400001928E-02 0.  1.
       -1   -1    0    0    0  501  0.00000000000E+00  0.00000000000E+00 -0.17697891958E+03  0.17697891966E+03  0.50400001928E-02 0. -1.
    10030    2    1    2    0    0  0.00000000000E+00  0.00000000000E+00  0.52351022728E+03  0.87746806654E+03  0.70419262260E+03 0.  0.
        1    1    3    3  502    0 -0.34695833507E+03  0.50282472068E+02  0.30238896623E+03  0.46297678149E+03  0.50400001928E-02 0.  1.
       -1    1    3    3    0  502  0.34695833507E+03 -0.50282472068E+02  0.22112126104E+03  0.41449128505E+03  0.50400001928E-02 0. -1.
</event>
<event>
 5   0  0.4503289E-02  0.6960286E+03  0.7818609E-02  0.9724048E-01
       -2   -1    0    0    0  501  0.00000000000E+00  0.00000000000E+00  0.19884002603E+03  0.19884002604E+03  0.25500000920E-02 0. -1.
        2   -1    0    0  501    0  0.00000000000E+00  0.00000000000E+00 -0.60910244539E+03  0.60910244539E+03  0.25500000920E-02 0.  1.
    10030    2    1    2    0    0  0.00000000000E+00  0.00000000000E+00 -0.41026241936E+03  0.80794247143E+03  0.69602858017E+03 0.  0.
        2    1    3    3  502    0  0.19360709894E+03  0.55250786068E+02 -0.53463506250E+03  0.57128890081E+03  0.25500000920E-02 0.  1.
       -2    1    3    3    0  502 -0.19360709894E+03 -0.55250786068E+02  0.12437264314E+03  0.23665357063E+03  0.25500000920E-02 0. -1.
</event>
<event>
 5   0  0.2777999E-02  0.7013080E+03  0.7818609E-02  0.9714998E-01
       -1   -1    0    0    0  501  0.00000000000E+00  0.00000000000E+00  0.82653332836E+02  0.82653332989E+02  0.50400001928E-02 0.  1.
        1   -1    0    0  501    0  0.00000000000E+00  0.00000000000E+00 -0.14876378253E+04  0.14876378253E+04  0.50400001928E-02 0. -1.
    10030    2    1    2    0    0  0.00000000000E+00  0.00000000000E+00 -0.14049844924E+04  0.15702911583E+04  0.70130799065E+03 0.  0.
        5    1    3    3  502    0  0.79300239048E+02  0.28532233102E+03 -0.28217056459E+03  0.40907172722E+03  0.46999998093E+01 0.  1.
       -5    1    3    3    0  502 -0.79300239048E+02 -0.28532233102E+03 -0.11228139279E+04  0.11612194311E+04  0.46999998093E+01 0. -1.
</event>
<event>
 5   0  0.4420645E-02  0.6955155E+03  0.7818609E-02  0.9724932E-01
        2   -1    0    0  501    0  0.00000000000E+00  0.00000000000E+00  0.79352828328E+03  0.79352828329E+03  0.25500000920E-02 0. -1.
       -2   -1    0    0    0  501  0.00000000000E+00  0.00000000000E+00 -0.15240220281E+03  0.15240220283E+03  0.25500000920E-02 0.  1.
    10030    2    1    2    0    0  0.00000000000E+00  0.00000000000E+00  0.64112608047E+03  0.94593048612E+03  0.69551551637E+03 0.  0.
        5    1    3    3  502    0  0.29864372729E+03  0.12467150864E+03  0.14755247559E+03  0.35570336514E+03  0.46999998093E+01 0.  1.
       -5    1    3    3    0  502 -0.29864372729E+03 -0.12467150864E+03  0.49357360488E+03  0.59022712098E+03  0.46999998093E+01 0. -1.
</event>
<event>
 5   0  0.2751729E-02  0.6697757E+03  0.7818609E-02  0.9770363E-01
       -1   -1    0    0    0  501  0.00000000000E+00  0.00000000000E+00  0.31746450166E+03  0.31746450170E+03  0.50400001928E-02 0.  1.
        1   -1    0    0  501    0  0.00000000000E+00  0.00000000000E+00 -0.35326739490E+03  0.35326739494E+03  0.50400001928E-02 0. -1.
    10030    2    1    2    0    0  0.00000000000E+00  0.00000000000E+00 -0.35802893240E+02  0.67073189664E+03  0.66977565647E+03 0.  0.
        1    1    3    3  502    0  0.20764807987E+03  0.25265311495E+02 -0.27979689865E+03  0.34934562478E+03  0.50400001928E-02 0. -1.
       -1    1    3    3    0  502 -0.20764807987E+03 -0.25265311495E+02  0.24399400541E+03  0.32138627186E+03  0.50400001928E-02 0.  1.
</event>
<event>
 5   0  0.2750139E-02  0.7147290E+03  0.7818609E-02  0.9692370E-01
        1   -1    0    0  501    0  0.00000000000E+00  0.00000000000E+00  0.11024521552E+04  0.11024521552E+04  0.50400001928E-02 0.  1.
       -1   -1    0    0    0  501  0.00000000000E+00  0.00000000000E+00 -0.11584120273E+03  0.11584120284E+03  0.50400001928E-02 0. -1.
    10030    2    1    2    0    0  0.00000000000E+00  0.00000000000E+00  0.98661095246E+03  0.12182933580E+04  0.71472899392E+03 0.  0.
        2    1    3    3  502    0 -0.13923416809E+03  0.26103955089E+03  0.83498896861E+03  0.88585234571E+03  0.25500000920E-02 0.  1.
       -2    1    3    3    0  502  0.13923416809E+03 -0.26103955089E+03  0.15162198385E+03  0.33244101234E+03  0.25500000920E-02 0. -1.
</event>
<event>
 5   0  0.4299912E-02  0.7181889E+03  0.7818609E-02  0.9686623E-01
        2   -1    0    0  501    0  0.00000000000E+00  0.00000000000E+00  0.52267079143E+03  0.52267079144E+03  0.25500000920E-02 0. -1.
       -2   -1    0    0    0  501  0.00000000000E+00  0.00000000000E+00 -0.24671134625E+03  0.24671134627E+03  0.25500000920E-02 0.  1.
    10030    2    1    2    0    0  0.00000000000E+00  0.00000000000E+00  0.27595944518E+03  0.76938213771E+03  0.71818887379E+03 0.  0.
        3    1    3    3  502    0 -0.31078953810E+03  0.84895786008E+02  0.30787616111E+03  0.44562896254E+03  0.10100000352E+00 0. -1.
       -3    1    3    3    0  502  0.31078953810E+03 -0.84895786008E+02 -0.31916715926E+02  0.32375317517E+03  0.10100000352E+00 0.  1.
</event>
<event>
 5   0  0.2758681E-02  0.6647920E+03  0.7818609E-02  0.9779412E-01
        1   -1    0    0  501    0  0.00000000000E+00  0.00000000000E+00  0.74079839860E+03  0.74079839862E+03  0.50400001928E-02 0. -1.
       -1   -1    0    0    0  501  0.00000000000E+00  0.00000000000E+00 -0.14914598085E+03  0.14914598093E+03  0.50400001928E-02 0.  1.
    10030    2    1    2    0    0  0.00000000000E+00  0.00000000000E+00  0.59165241775E+03  0.88994437955E+03  0.66479200902E+03 0.  0.
        3    1    3    3  502    0 -0.19933741127E+03  0.26529479017E+03  0.32158892740E+03  0.46209974859E+03  0.10100000352E+00 0. -1.
       -3    1    3    3    0  502  0.19933741127E+03 -0.26529479017E+03  0.27006349035E+03  0.42784463096E+03  0.10100000352E+00 0.  1.
</event>
<event>
 5   0  0.4526837E-02  0.7190918E+03  0.7818609E-02  0.9685129E-01
        2   -1    0    0  501    0  0.00000000000E+00  0.00000000000E+00  0.56720704012E+03  0.56720704012E+03  0.25500000920E-02 0.  1.
       -2   -1    0    0    0  501  0.00000000000E+00  0.00000000000E+00 -0.22791190522E+03  0.22791190523E+03  0.25500000920E-02 0. -1.
    10030    2    1    2    0    0  0.00000000000E+00  0.00000000000E+00  0.33929513490E+03  0.79511894535E+03  0.71909175263E+03 0.  0.
        1    1    3    3  502    0  0.33472714494E+03 -0.29282645976E+01  0.24538470159E+02  0.33563815760E+03  0.50400001928E-02 0. -1.
       -1    1    3    3    0  502 -0.33472714494E+03  0.29282645976E+01  0.31475666474E+03  0.45948078776E+03  0.50400001928E-02 0.  1.
</event>
<event>
 5   0  0.2751729E-02  0.6975670E+03  0.7818609E-02  0.9721402E-01
       -1   -1    0    0    0  501  0.00000000000E+00  0.00000000000E+00  0.29091002781E+03  0.29091002785E+03  0.50400001928E-02 0.  1.
        1   -1    0    0  501    0  0.00000000000E+00  0.00000000000E+00 -0.41817029680E+03  0.41817029683E+03  0.50400001928E-02 0. -1.
    10030    2    1    2    0    0  0.00000000000E+00  0.00000000000E+00 -0.12726026899E+03  0.70908032469E+03  0.69756700810E+03 0.  0.
        1    1    3    3  502    0 -0.26094358798E+03 -0.11546827336E+03 -0.26750326056E+03  0.39112973895E+03  0.50400001928E-02 0. -1.
       -1    1    3    3    0  502  0.26094358798E+03  0.11546827336E+03  0.14024299157E+03  0.31795058573E+03  0.50400001928E-02 0.  1.
</event>
<event>
 5   0  0.4503289E-02  0.5855690E+03  0.7818609E-02  0.9935807E-01
        2   -1    0    0  501    0  0.00000000000E+00  0.00000000000E+00  0.90473969576E+03  0.90473969577E+03  0.25500000920E-02 0.  1.
       -2   -1    0    0    0  501  0.00000000000E+00  0.00000000000E+00 -0.94748534106E+02  0.94748534140E+02  0.25500000920E-02 0. -1.
    10030    2    1    2    0    0  0.00000000000E+00  0.00000000000E+00  0.80999116166E+03  0.99948822991E+03  0.58556898804E+03 0.  0.
        2    1    3    3  502    0 -0.19182565295E+03 -0.20605712775E+03  0.26774249072E+03  0.38851340050E+03  0.25500000920E-02 0. -1.
       -2    1    3    3    0  502  0.19182565295E+03  0.20605712775E+03  0.54224867094E+03  0.61097482940E+03  0.25500000920E-02 0.  1.
</event>
<event>
 5   0  0.2758681E-02  0.6936294E+03  0.7818609E-02  0.9728189E-01
       -1   -1    0    0    0  501  0.00000000000E+00  0.00000000000E+00  0.11028436499E+03  0.11028436510E+03  0.50400001928E-02 0. -1.
        1   -1    0    0  501    0  0.00000000000E+00  0.00000000000E+00 -0.10906389369E+04  0.10906389369E+04  0.50400001928E-02 0.  1.
    10030    2    1    2    0    0  0.00000000000E+00  0.00000000000E+00 -0.98035457191E+03  0.12009233020E+04  0.69362936115E+03 0.  0.
        3    1    3    3  502    0 -0.14638763366E+03  0.21957576432E+03 -0.87978197520E+03  0.91850922132E+03  0.10100000352E+00 0.  1.
       -3    1    3    3    0  502  0.14638763366E+03 -0.21957576432E+03 -0.10057259671E+03  0.28241408069E+03  0.10100000352E+00 0. -1.
</event>
<event>
 5   0  0.4365492E-02  0.6936390E+03  0.7818609E-02  0.9728173E-01
       -2   -1    0    0    0  501  0.00000000000E+00  0.00000000000E+00  0.20471838374E+03  0.20471838376E+03  0.25500000920E-02 0. -1.
        2   -1    0    0  501    0  0.00000000000E+00  0.00000000000E+00 -0.58755717842E+03  0.58755717843E+03  0.25500000920E-02 0.  1.
    10030    2    1    2    0    0  0.00000000000E+00  0.00000000000E+00 -0.38283879468E+03  0.79227556219E+03  0.69363897218E+03 0.  0.
        4    1    3    3  502    0  0.17735225484E+03  0.16657774801E+03  0.90868922717E+02  0.25973205894E+03  0.12699999809E+01 0. -1.
       -4    1    3    3    0  502 -0.17735225484E+03 -0.16657774801E+03 -0.47370771740E+03  0.53254350325E+03  0.12699999809E+01 0.  1.
</event>
<event>
 5   0  0.4526837E-02  0.7137452E+03  0.7818609E-02  0.9694011E-01
       -2   -1    0    0    0  501  0.00000000000E+00  0.00000000000E+00  0.65378121188E+02  0.65378121237E+02  0.25500000920E-02 0. -1.
        2   -1    0    0  501    0  0.00000000000E+00  0.00000000000E+00 -0.19480223417E+04  0.19480223417E+04  0.25500000920E-02 0.  1.
    10030    2    1    2    0    0  0.00000000000E+00  0.00000000000E+00 -0.18826442205E+04  0.20134004630E+04  0.71374516681E+03 0.  0.
        1    1    3    3  502    0 -0.14840711757E+03 -0.57765417702E+02 -0.18422285079E+04  0.18490990756E+04  0.50400001928E-02 0.  1.
       -1    1    3    3    0  502  0.14840711757E+03  0.57765417702E+02 -0.40415712598E+02  0.16430138733E+03  0.50400001928E-02 0. -1.
</event>
<event>
 5   0  0.2758681E-02  0.6634641E+03  0.7818609E-02  0.9781838E-01
        1   -1    0    0  501    0  0.00000000000E+00  0.00000000000E+00  0.57496536869E+03  0.57496536871E+03  0.50400001928E-02 0.  1.
       -1   -1    0    0    0  501  0.00000000000E+00  0.00000000000E+00 -0.19139612167E+03  0.19139612173E+03  0.50400001928E-02 0. -1.
    10030    2    1    2    0    0  0.00000000000E+00  0.00000000000E+00  0.38356924702E+03  0.76636149045E+03  0.66346406593E+03 0.  0.
        3    1    3    3  502    0  0.21887730073E+03 -0.86819470980E+02 -0.78124467801E+02  0.24808937097E+03  0.10100000352E+00 0. -1.
       -3    1    3    3    0  502 -0.21887730073E+03  0.86819470980E+02  0.46169371482E+03  0.51827211948E+03  0.10100000352E+00 0.  1.
</event>
<event>
 5   0  0.2777999E-02  0.6885404E+03  0.7818609E-02  0.9737033E-01
       -1   -1    0    0    0  501  0.00000000000E+00  0.00000000000E+00  0.64588594158E+03  0.64588594160E+03  0.50400001928E-02 0. -1.
        1   -1    0    0  501    0  0.00000000000E+00  0.00000000000E+00 -0.18350293075E+03  0.18350293082E+03  0.50400001928E-02 0.  1.
    10030    2    1    2    0    0  0.00000000000E+00  0.00000000000E+00  0.46238301083E+03  0.82938887242E+03  0.68854037862E+03 0.  0.
        5    1    3    3  502    0  0.17725185467E+02  0.18535050997E+03  0.57995482409E+03  0.60912944579E+03  0.46999998093E+01 0. -1.
       -5    1    3    3    0  502 -0.17725185467E+02 -0.18535050997E+03 -0.11757181327E+03  0.22025942663E+03  0.46999998093E+01 0.  1.
</event>
<event>
 5   0  0.2758681E-02  0.6681700E+03  0.7818609E-02  0.9773269E-01
        1   -1    0    0  501    0  0.00000000000E+00  0.00000000000E+00  0.95247525442E+03  0.95247525444E+03  0.50400001928E-02 0.  1.
       -1   -1    0    0    0  501  0.00000000000E+00  0.00000000000E+00 -0.11718182833E+03  0.11718182844E+03  0.50400001928E-02 0. -1.
    10030    2    1    2    0    0  0.00000000000E+00  0.00000000000E+00  0.83529342609E+03  0.10696570829E+04  0.66817001375E+03 0.  0.
        3    1    3    3  502    0 -0.17902520464E+03  0.27568034726E+03  0.32208766153E+03  0.46020663801E+03  0.10100000352E+00 0.  1.
       -3    1    3    3    0  502  0.17902520464E+03 -0.27568034726E+03  0.51320576456E+03  0.60945044486E+03  0.10100000352E+00 0. -1.
</event>
<event>
 5   0  0.2777999E-02  0.6924753E+03  0.7818609E-02  0.9730188E-01
       -1   -1    0    0    0  501  0.00000000000E+00  0.00000000000E+00  0.20478459088E+03  0.20478459094E+03  0.50400001928E-02 0. -1.
        1   -1    0    0  501    0  0.00000000000E+00  0.00000000000E+00 -0.58539809195E+03  0.58539809198E+03  0.50400001928E-02 0.  1.
    10030    2    1    2    0    0  0.00000000000E+00  0.00000000000E+00 -0.38061350107E+03  0.79018268292E+03  0.69247529572E+03 0.  0.
        5    1    3    3  502    0 -0.28115805042E+03 -0.12491170322E+03 -0.37147081367E+03  0.48235405909E+03  0.46999998093E+01 0.  1.
       -5    1    3    3    0  502  0.28115805042E+03  0.12491170322E+03 -0.91426874069E+01  0.30782862383E+03  0.46999998093E+01 0. -1.
</event>
<event>
 5   0  0.4503289E-02  0.6993018E+03  0.7818609E-02  0.9718427E-01
        2   -1    0    0  501    0  0.00000000000E+00  0.00000000000E+00  0.41098134091E+03  0.41098134092E+03  0.25500000920E-02 0.  1.
       -2   -1    0    0    0  501  0.00000000000E+00  0.00000000000E+00 -0.29747277855E+03  0.29747277856E+03  0.25500000920E-02 0. -1.
    10030    2    1    2    0    0  0.00000000000E+00  0.00000000000E+00  0.11350856236E+03  0.70845411949E+03  0.69930182732E+03 0.  0.
        2    1    3    3  502    0  0.17607309771E+02  0.28453623354E+03  0.26185107858E+03  0.38708768117E+03  0.25500000920E-02 0.  1.
       -2    1    3    3    0  502 -0.17607309771E+02 -0.28453623354E+03 -0.14834251622E+03  0.32136643832E+03  0.25500000920E-02 0. -1.
</event>
<event>
 5   0  0.2751729E-02  0.7025991E+03  0.7818609E-02  0.9712798E-01
        1   -1    0    0  501    0  0.00000000000E+00  0.00000000000E+00  0.41398006160E+03  0.41398006163E+03  0.50400001928E-02 0. -1.
       -1   -1    0    0    0  501  0.00000000000E+00  0.00000000000E+00 -0.29810949372E+03  0.29810949377E+03  0.50400001928E-02 0.  1.
    10030    2    1    2    0    0  0.00000000000E+00  0.00000000000E+00  0.11587056787E+03  0.71208955540E+03  0.70259913635E+03 0.  0.
        1    1    3    3  502    0  0.16064162749E+03  0.13367502302E+03  0.34412628649E+03  0.40261351857E+03  0.50400001928E-02 0. -1.
       -1    1    3    3    0  502 -0.16064162749E+03 -0.13367502302E+03 -0.22825571861E+03  0.30947603682E+03  0.50400001928E-02 0.  1.
</event>
<event>
 5   0  0.4526837E-02  0.6922396E+03  0.7818609E-02  0.9730596E-01
        2   -1    0    0  501    0  0.00000000000E+00  0.00000000000E+00  0.41550521605E+03  0.41550521606E+03  0.25500000920E-02 0. -1.
       -2   -1    0    0    0  501  0.00000000000E+00  0.00000000000E+00 -0.28832112801E+03  0.28832112802E+03  0.25500000920E-02 0.  1.
    10030    2    1    2    0    0  0.00000000000E+00  0.00000000000E+00  0.12718408804E+03  0.70382634407E+03  0.69223964807E+03 0.  0.
        1    1    3    3  502    0  0.19553713517E+03  0.22730757877E+03  0.23938902859E+03  0.38368035346E+03  0.50400001928E-02 0. -1.
       -1    1    3    3    0  502 -0.19553713517E+03 -0.22730757877E+03 -0.11220494055E+03  0.32014599061E+03  0.50400001928E-02 0.  1.
</event>
<event>
 5   0  0.4365492E-02  0.6956291E+03  0.7818609E-02  0.9724736E-01
        2   -1    0    0  501    0  0.00000000000E+00  0.00000000000E+00  0.27663765138E+03  0.27663765139E+03  0.25500000920E-02 0. -1.
       -2   -1    0    0    0  501  0.00000000000E+00  0.00000000000E+00 -0.43730473908E+03  0.43730473909E+03  0.25500000920E-02 0.  1.
    10030    2    1    2    0    0  0.00000000000E+00  0.00000000000E+00 -0.16066708770E+03  0.71394239047E+03  0.69562908496E+03 0.  0.
        4    1    3    3  502    0  0.25121335037E+03  0.23477076685E+03 -0.13413382328E+03  0.36907852256E+03  0.12699999809E+01 0. -1.
       -4    1    3    3    0  502 -0.25121335037E+03 -0.23477076685E+03 -0.26533264426E+02  0.34486386791E+03  0.12699999809E+01 0.  1.
</event>
<event>
 5   0  0.2758681E-02  0.7356501E+03  0.7818609E-02  0.9658136E-01
       -1   -1    0    0    0  501  0.00000000000E+00  0.00000000000E+00  0.99830747802E+02  0.99830747929E+02  0.50400001928E-02 0. -1.
        1   -1    0    0  501    0  0.00000000000E+00  0.00000000000E+00 -0.13552464532E+04  0.13552464532E+04  0.50400001928E-02 0.  1.
    10030    2    1    2    0    0  0.00000000000E+00  0.00000000000E+00 -0.12554157054E+04  0.14550772012E+04  0.73565009884E+03 0.  0.
        3    1    3    3  502    0 -0.71731551892E+02  0.32523288681E+03 -0.31891098202E+03  0.46111394563E+03  0.10100000352E+00 0. -1.
       -3    1    3    3    0  502  0.71731551892E+02 -0.32523288681E+03 -0.93650472342E+03  0.99396325555E+03  0.10100000352E+00 0.  1.
</event>
<event>
 5   0  0.4299912E-02  0.7015325E+03  0.7818609E-02  0.9714615E-01
       -2   -1    0    0    0  501  0.00000000000E+00  0.00000000000E+00  0.52767433256E+03  0.52767433256E+03  0.25500000920E-02 0.  1.
        2   -1    0    0  501    0  0.00000000000E+00  0.00000000000E+00 -0.23316834449E+03  0.23316834450E+03  0.25500000920E-02 0. -1.
    10030    2    1    2    0    0  0.00000000000E+00  0.00000000000E+00  0.29450598807E+03  0.76084267706E+03  0.70153246698E+03 0.  0.
        3    1    3    3  502    0 -0.34647854791E+03  0.48105017881E+02  0.11906604854E+03  0.36951077254E+03  0.10100000352E+00 0. -1.
       -3    1    3    3    0  502  0.34647854791E+03 -0.48105017881E+02  0.17543993953E+03  0.39133190452E+03  0.10100000352E+00 0.  1.
</event>
<event>
 5   0  0.4299912E-02  0.6974514E+03  0.7818609E-02  0.9721601E-01
        2   -1    0    0  501    0  0.00000000000E+00  0.00000000000E+00  0.26042821724E+03  0.26042821726E+03  0.25500000920E-02 0. -1.
       -2   -1    0    0    0  501  0.00000000000E+00  0.00000000000E+00 -0.46696017821E+03  0.46696017821E+03  0.25500000920E-02 0.  1.
    10030    2    1    2    0    0  0.00000000000E+00  0.00000000000E+00 -0.20653196096E+03  0.72738839547E+03  0.69745137964E+03 0.  0.
        3    1    3    3  502    0 -0.93581463841E+02  0.33060163420E+03 -0.41085824376E+02  0.34603899502E+03  0.10100000352E+00 0.  1.
       -3    1    3    3    0  502  0.93581463841E+02 -0.33060163420E+03 -0.16544613659E+03  0.38134940045E+03  0.10100000352E+00 0. -1.
</event>
<event>
 5   0  0.2750139E-02  0.6984311E+03  0.7818609E-02  0.9719919E-01
       -1   -1    0    0    0  501  0.00000000000E+00  0.00000000000E+00  0.39404925164E+03  0.39404925167E+03  0.50400001928E-02 0. -1.
        1   -1    0    0  501    0  0.00000000000E+00  0.00000000000E+00 -0.30948285535E+03  0.30948285539E+03  0.50400001928E-02 0.  1.
    10030    2    1    2    0    0  0.00000000000E+00  0.00000000000E+00  0.84566396286E+02  0.70353210706E+03  0.69843106337E+03 0.  0.
        2    1    3    3  502    0 -0.16498256588E+03 -0.21592384939E+03 -0.17865669265E+03  0.32520850175E+03  0.25500000920E-02 0.  1.
       -2    1    3    3    0  502  0.16498256588E+03  0.21592384939E+03  0.26322308894E+03  0.37832360531E+03  0.25500000920E-02 0. -1.
</event>
<event>
 5   0  0.2758681E-02  0.7260061E+03  0.7818609E-02  0.9673764E-01
       -1   -1    0    0    0  501  0.00000000000E+00  0.00000000000E+00  0.18857692810E+03  0.18857692817E+03  0.50400001928E-02 0.  1.
        1   -1    0    0  501    0  0.00000000000E+00  0.00000000000E+00 -0.69876641149E+03  0.69876641151E+03  0.50400001928E-02 0. -1.
    10030    2    1    2    0    0  0.00000000000E+00  0.00000000000E+00 -0.51018948339E+03  0.88734333967E+03  0.72600612497E+03 0.  0.
        3    1    3    3  502    0 -0.15660976206E+03 -0.15955288189E+03  0.94443587100E+02  0.24270010514E+03  0.10100000352E+00 0.  1.
       -3    1    3    3    0  502  0.15660976206E+03  0.15955288189E+03 -0.60463307049E+03  0.64464323453E+03  0.10100000352E+00 0. -1.
</event>
<event>
 5   0  0.2751729E-02  0.7482180E+03  0.7818609E-02  0.9638150E-01
       -1   -1    0    0    0  501  0.00000000000E+00  0.00000000000E+00  0.19339003729E+03  0.19339003736E+03  0.50400001928E-02 0. -1.
        1   -1    0    0  501    0  0.00000000000E+00  0.00000000000E+00 -0.72370610203E+03  0.72370610204E+03  0.50400001928E-02 0.  1.
    10030    2    1    2    0    0  0.00000000000E+00  0.00000000000E+00 -0.53031606473E+03  0.91709613941E+03  0.74821801662E+03 0.  0.
        1    1    3    3  502    0  0.26010198480E+02  0.32383312972E+03 -0.37779870246E+02  0.32706535272E+03  0.50400001928E-02 0. -1.
       -1    1    3    3    0  502 -0.26010198480E+02 -0.32383312972E+03 -0.49253619449E+03  0.59003078668E+03  0.50400001928E-02 0.  1.
</event>
<event>
 5   0  0.4420645E-02  0.7116754E+03  0.7818609E-02  0.9697471E-01
       -2   -1    0    0    0  501  0.00000000000E+00  0.00000000000E+00  0.15354599132E+03  0.15354599134E+03  0.25500000920E-02 0. -1.
        2   -1    0    0  501    0  0.00000000000E+00  0.00000000000E+00 -0.82464201518E+03  0.82464201518E+03  0.25500000920E-02 0.  1.
    10030    2    1    2    0    0  0.00000000000E+00  0.00000000000E+00 -0.67109602386E+03  0.97818800652E+03  0.71167541960E+03 0.  0.
        5    1    3    3  502    0 -0.71884443672E+02  0.63344154497E+02  0.13543873655E+03  0.16596866122E+03  0.46999998093E+01 0. -1.
       -5    1    3    3    0  502  0.71884443672E+02 -0.63344154497E+02 -0.80653476040E+03  0.81221934531E+03  0.46999998093E+01 0.  1.
</event>
<event>
 5   0  0.4299912E-02  0.6760483E+03  0.7818609E-02  0.9759093E-01
        2   -1    0    0  501    0  0.00000000000E+00  0.00000000000E+00  0.10593251540E+04  0.10593251540E+04  0.25500000920E-02 0.  1.
       -2   -1    0    0    0  501  0.00000000000E+00  0.00000000000E+00 -0.10786142229E+03  0.10786142232E+03  0.25500000920E-02 0. -1.
    10030    2    1    2    0    0  0.00000000000E+00  0.00000000000E+00  0.95146373175E+03  0.11671865764E+04  0.67604827579E+03 0.  0.
        3    1    3    3  502    0 -0.19002744584E+03  0.19873698357E+03  0.13629662947E+03  0.30689346721E+03  0.10100000352E+00 0. -1.
       -3    1    3    3    0  502  0.19002744584E+03 -0.19873698357E+03  0.81516710228E+03  0.86029310915E+03  0.10100000352E+00 0.  1.
</event>
<event>
 5   0  0.4365492E-02  0.6936626E+03  0.7818609E-02  0.9728132E-01
        2   -1    0    0  501    0  0.00000000000E+00  0.00000000000E+00  0.31612860463E+03  0.31612860464E+03  0.25500000920E-02 0. -1.
       -2   -1    0    0    0  501  0.00000000000E+00  0.00000000000E+00 -0.38051592031E+03  0.38051592032E+03  0.25500000920E-02 0.  1.
    10030    2    1    2    0    0  0.00000000000E+00  0.00000000000E+00 -0.64387315678E+02  0.69664452496E+03  0.69366264693E+03 0.  0.
        4    1    3    3  502    0 -0.23411133680E+03 -0.97882001989E+02 -0.26964469254E+03  0.37026865577E+03  0.12699999809E+01 0.  1.
       -4    1    3    3    0  502  0.23411133680E+03  0.97882001989E+02  0.20525737686E+03  0.32637586919E+03  0.12699999809E+01 0. -1.
</event>
<event>
 5   0  0.4299912E-02  0.6542802E+03  0.7818609E-02  0.9798781E-01
       -2   -1    0    0    0  501  0.00000000000E+00  0.00000000000E+00  0.88574374124E+02  0.88574374161E+02  0.25500000920E-02 0. -1.
        2   -1    0    0  501    0  0.00000000000E+00  0.00000000000E+00 -0.12082572661E+04  0.12082572661E+04  0.25500000920E-02 0.  1.
    10030    2    1    2    0    0  0.00000000000E+00  0.00000000000E+00 -0.11196828920E+04  0.12968316403E+04  0.65428015758E+03 0.  0.
        3    1    3    3  502    0 -0.12611048187E+03  0.13990570911E+03 -0.29685169611E+02  0.19067952322E+03  0.10100000352E+00 0. -1.
       -3    1    3    3    0  502  0.12611048187E+03 -0.13990570911E+03 -0.10899977224E+04  0.11061521170E+04  0.10100000352E+00 0.  1.
</event>
<event>
 5   0  0.2777999E-02  0.7033461E+03  0.7818609E-02  0.9711527E-01
        1   -1    0    0  501    0  0.00000000000E+00  0.00000000000E+00  0.88331861708E+03  0.88331861709E+03  0.50400001928E-02 0. -1.
       -1   -1    0    0    0  501  0.00000000000E+00  0.00000000000E+00 -0.14001055770E+03  0.14001055779E+03  0.50400001928E-02 0.  1.
    10030    2    1    2    0    0  0.00000000000E+00  0.00000000000E+00  0.74330805938E+03  0.10233291749E+04  0.70334609476E+03 0.  0.
        5    1    3    3  502    0  0.24725963497E+03  0.24156343705E+03  0.27779467987E+03  0.44348866430E+03  0.46999998093E+01 0.  1.
       -5    1    3    3    0  502 -0.24725963497E+03 -0.24156343705E+03  0.46551337951E+03  0.57984051058E+03  0.46999998093E+01 0. -1.
</event>
<event>
 5   0  0.2684924E-02  0.6992849E+03  0.7818609E-02  0.9718456E-01
        1   -1    0    0  501    0  0.00000000000E+00  0.00000000000E+00  0.86420595524E+03  0.86420595525E+03  0.50400001928E-02 0.  1.
       -1   -1    0    0    0  501  0.00000000000E+00  0.00000000000E+00 -0.14145914213E+03  0.14145914222E+03  0.50400001928E-02 0. -1.
    10030    2    1    2    0    0  0.00000000000E+00  0.00000000000E+00  0.72274681311E+03  0.10056650975E+04  0.69928487216E+03 0.  0.
        4    1    3    3  502    0  0.16054308678E+02 -0.19836479456E+03  0.77480090435E+03  0.79995274037E+03  0.12699999809E+01 0.  1.
       -4    1    3    3    0  502 -0.16054308678E+02  0.19836479456E+03 -0.52054091244E+02  0.20571235710E+03  0.12699999809E+01 0. -1.
</event>
<event>
 5   0  0.2777999E-02  0.5752265E+03  0.7818609E-02  0.9958179E-01
        1   -1    0    0  501    0  0.00000000000E+00  0.00000000000E+00  0.97673154313E+03  0.97673154314E+03  0.50400001928E-02 0. -1.
       -1   -1    0    0    0  501  0.00000000000E+00  0.00000000000E+00 -0.84692041716E+02  0.84692041866E+02  0.50400001928E-02 0.  1.
    10030    2    1    2    0    0  0.00000000000E+00  0.00000000000E+00  0.89203950141E+03  0.10614235850E+04  0.57522652471E+03 0.  0.
        5    1    3    3  502    0 -0.69146401418E+01  0.11096102843E+02  0.97611198839E+03  0.97621085818E+03  0.46999998093E+01 0. -1.
       -5    1    3    3    0  502  0.69146401418E+01 -0.11096102843E+02 -0.84072486984E+02  0.85212726823E+02  0.46999998093E+01 0.  1.
</event>
<event>
 5   0  0.2684924E-02  0.7012663E+03  0.7818609E-02  0.9715069E-01
        1   -1    0    0  501    0  0.00000000000E+00  0.00000000000E+00  0.48382006383E+03  0.48382006386E+03  0.50400001928E-02 0. -1.
       -1   -1    0    0    0  501  0.00000000000E+00  0.00000000000E+00 -0.25411018941E+03  0.25411018946E+03  0.50400001928E-02 0.  1.
    10030    2    1    2    0    0  0.00000000000E+00  0.00000000000E+00  0.22970987442E+03  0.73793025332E+03  0.70126630631E+03 0.  0.
        4    1    3    3  502    0 -0.22424792838E+03 -0.18163497485E+03 -0.94714716212E+02  0.30372831254E+03  0.12699999809E+01 0.  1.
       -4    1    3    3    0  502  0.22424792838E+03  0.18163497485E+03  0.32442459063E+03  0.43420194078E+03  0.12699999809E+01 0. -1.
</event>
<event>
 5   0  0.4299912E-02  0.6920950E+03  0.7818609E-02  0.9730847E-01
        2   -1    0    0  501    0  0.00000000000E+00  0.00000000000E+00  0.18638034223E+04  0.18638034223E+04  0.25500000920E-02 0.  1.
       -2   -1    0    0    0  501  0.00000000000E+00  0.00000000000E+00 -0.64249728834E+02  0.64249728884E+02  0.25500000920E-02 0. -1.
    10030    2    1    2    0    0  0.00000000000E+00  0.00000000000E+00  0.17995536935E+04  0.19280531512E+04  0.69209497768E+03 0.  0.
        3    1    3    3  502    0  0.27778403355E+02  0.34487111732E+03  0.91764243030E+03  0.98070146698E+03  0.10100000352E+00 0. -1.
       -3    1    3    3    0  502 -0.27778403355E+02 -0.34487111732E+03  0.88191126316E+03  0.94735168420E+03  0.10100000352E+00 0.  1.
</event>
<event>
 5   0  0.2758681E-02  0.6994479E+03  0.7818609E-02  0.9718177E-01
       -1   -1    0    0    0  501  0.00000000000E+00  0.00000000000E+00  0.29396402008E+03  0.29396402012E+03  0.50400001928E-02 0. -1.
        1   -1    0    0  501    0  0.00000000000E+00  0.00000000000E+00 -0.41606055609E+03  0.41606055612E+03  0.50400001928E-02 0.  1.
    10030    2    1    2    0    0  0.00000000000E+00  0.00000000000E+00 -0.12209653601E+03  0.71002457624E+03  0.69944787851E+03 0.  0.
        3    1    3    3  502    0 -0.19144462804E+03 -0.19195611121E+02  0.23540771750E+03  0.30403342045E+03  0.10100000352E+00 0. -1.
       -3    1    3    3    0  502  0.19144462804E+03  0.19195611121E+02 -0.35750425352E+03  0.40599115578E+03  0.10100000352E+00 0.  1.
</event>
<event>
 5   0  0.4420645E-02  0.7038305E+03  0.7818609E-02  0.9710704E-01
       -2   -1    0    0    0  501  0.00000000000E+00  0.00000000000E+00  0.32154415840E+03  0.32154415841E+03  0.25500000920E-02 0.  1.
        2   -1    0    0  501    0  0.00000000000E+00  0.00000000000E+00 -0.38515502027E+03  0.38515502027E+03  0.25500000920E-02 0. -1.
    10030    2    1    2    0    0  0.00000000000E+00  0.00000000000E+00 -0.63610861871E+02  0.70669917868E+03  0.70383051042E+03 0.  0.
        5    1    3    3  502    0  0.96028945689E+02 -0.25197783378E+03  0.19518648312E+03  0.33291776810E+03  0.46999998093E+01 0.  1.
       -5    1    3    3    0  502 -0.96028945689E+02  0.25197783378E+03 -0.25879734499E+03  0.37378141058E+03  0.46999998093E+01 0. -1.
</event>
<event>
 5   0  0.4299912E-02  0.6971568E+03  0.7818609E-02  0.9722107E-01
       -2   -1    0    0    0  501  0.00000000000E+00  0.00000000000E+00  0.88694983312E+03  0.88694983312E+03  0.25500000920E-02 0.  1.
        2   -1    0    0  501    0  0.00000000000E+00  0.00000000000E+00 -0.13699412255E+03  0.13699412258E+03  0.25500000920E-02 0. -1.
    10030    2    1    2    0    0  0.00000000000E+00  0.00000000000E+00  0.74995571056E+03  0.10239439557E+04  0.69715683788E+03 0.  0.
        3    1    3    3  502    0 -0.34552867819E+03  0.15643810940E+02  0.31142850608E+03  0.46542724552E+03  0.10100000352E+00 0.  1.
       -3    1    3    3    0  502  0.34552867819E+03 -0.15643810940E+02  0.43852720448E+03  0.55851671017E+03  0.10100000352E+00 0. -1.
</event>
<event>
 5   0  0.2758681E-02  0.6647490E+03  0.7818609E-02  0.9779491E-01
       -1   -1    0    0    0  501  0.00000000000E+00  0.00000000000E+00  0.56747761741E+03  0.56747761743E+03  0.50400001928E-02 0. -1.
        1   -1    0    0  501    0  0.00000000000E+00  0.00000000000E+00 -0.19467341647E+03  0.19467341654E+03  0.50400001928E-02 0.  1.
    10030    2    1    2    0    0  0.00000000000E+00  0.00000000000E+00  0.37280420094E+03  0.76215103397E+03  0.66474899499E+03 0.  0.
        3    1    3    3  502    0  0.89591556807E+02 -0.25985527844E+03 -0.27851966711E+02  0.27627369588E+03  0.10100000352E+00 0.  1.
       -3    1    3    3    0  502 -0.89591556807E+02  0.25985527844E+03  0.40065616765E+03  0.48587733808E+03  0.10100000352E+00 0. -1.
</event>
<event>
 5   0  0.4365492E-02  0.7061165E+03  0.7818609E-02  0.9706829E-01
       -2   -1    0    0    0  501  0.00000000000E+00  0.00000000000E+00  0.27796914025E+03  0.27796914026E+03  0.25500000920E-02 0. -1.
        2   -1    0    0  501    0  0.00000000000E+00  0.00000000000E+00 -0.44843155834E+03  0.44843155835E+03  0.25500000920E-02 0.  1.
    10030    2    1    2    0    0  0.00000000000E+00  0.00000000000E+00 -0.17046241809E+03  0.72640069861E+03  0.70611651939E+03 0.  0.
        4    1    3    3  502    0  0.18480919692E+03  0.15415248442E+03 -0.35097553729E+03  0.42556182676E+03  0.12699999809E+01 0.  1.
       -4    1    3    3    0  502 -0.18480919692E+03 -0.15415248442E+03  0.18051311920E+03  0.30083887186E+03  0.12699999809E+01 0. -1.
</event>
<event>
 5   0  0.4420645E-02  0.7411378E+03  0.7818609E-02  0.9649357E-01
        2   -1    0    0  501    0  0.00000000000E+00  0.00000000000E+00  0.35126780091E+03  0.35126780092E+03  0.25500000920E-02 0. -1.
       -2   -1    0    0    0  501  0.00000000000E+00  0.00000000000E+00 -0.39093057521E+03  0.39093057522E+03  0.25500000920E-02 0.  1.
    10030    2    1    2    0    0  0.00000000000E+00  0.00000000000E+00 -0.39662774305E+02  0.74219837614E+03  0.74113783730E+03 0.  0.
        5    1    3    3  502    0 -0.23335016383E+03  0.28708855887E+03  0.86443509123E+00  0.36999321189E+03  0.46999998093E+01 0.  1.
       -5    1    3    3    0  502  0.23335016383E+03 -0.28708855887E+03 -0.40527209396E+02  0.37220516425E+03  0.46999998093E+01 0. -1.
</event>
<event>
 5   0  0.2750139E-02  0.7056395E+03  0.7818609E-02  0.9707636E-01
       -1   -1    0    0    0  501  0.00000000000E+00  0.00000000000E+00  0.19825731796E+03  0.19825731802E+03  0.50400001928E-02 0.  1.
        1   -1    0    0  501    0  0.00000000000E+00  0.00000000000E+00 -0.62787988306E+03  0.62787988308E+03  0.50400001928E-02 0. -1.
    10030    2    1    2    0    0  0.00000000000E+00  0.00000000000E+00 -0.42962256510E+03  0.82613720110E+03  0.70563951604E+03 0.  0.
        2    1    3    3  502    0 -0.31679544981E+03  0.29871215404E+02 -0.36370075062E+02  0.32027242919E+03  0.25500000920E-02 0.  1.
       -2    1    3    3    0  502  0.31679544981E+03 -0.29871215404E+02 -0.39325249004E+03  0.50586477191E+03  0.25500000920E-02 0. -1.
</event>
<event>
 5   0  0.2684924E-02  0.6947050E+03  0.7818609E-02  0.9726330E-01
       -1   -1    0    0    0  501  0.00000000000E+00  0.00000000000E+00  0.12068052474E+03  0.12068052484E+03  0.50400001928E-02 0. -1.
        1   -1    0    0  501    0  0.00000000000E+00  0.00000000000E+00 -0.99977814333E+03  0.99977814335E+03  0.50400001928E-02 0.  1.
    10030    2    1    2    0    0  0.00000000000E+00  0.00000000000E+00 -0.87909761860E+03  0.11204586682E+04  0.69470497630E+03 0.  0.
        4    1    3    3  502    0 -0.15395758119E+03 -0.16930648927E+03 -0.18088635045E+02  0.22955704243E+03  0.12699999809E+01 0. -1.
       -4    1    3    3    0  502  0.15395758119E+03  0.16930648927E+03 -0.86100898355E+03  0.89090162575E+03  0.12699999809E+01 0.  1.
</event>
<event>
 5   0  0.2758681E-02  0.6882900E+03  0.7818609E-02  0.9737470E-01
       -1   -1    0    0    0  501  0.00000000000E+00  0.00000000000E+00  0.28607010563E+03  0.28607010568E+03  0.50400001928E-02 0.  1.
        1   -1    0    0  501    0  0.00000000000E+00  0.00000000000E+00 -0.41400960660E+03  0.41400960663E+03  0.50400001928E-02 0. -1.
    10030    2    1    2    0    0  0.00000000000E+00  0.00000000000E+00 -0.12793950097E+03  0.70007971231E+03  0.68828997354E+03 0.  0.
        3    1    3    3  502    0 -0.74080478854E+02 -0.21135577663E+03  0.20180390446E+03  0.30146974594E+03  0.10100000352E+00 0.  1.
       -3    1    3    3    0  502  0.74080478854E+02  0.21135577663E+03 -0.32974340544E+03  0.39860996637E+03  0.10100000352E+00 0. -1.
</event>
<event>
 5   0  0.2777999E-02  0.7014037E+03  0.7818609E-02  0.9714835E-01
       -1   -1    0    0    0  501  0.00000000000E+00  0.00000000000E+00  0.88441039811E+02  0.88441039955E+02  0.50400001928E-02 0. -1.
        1   -1    0    0  501    0  0.00000000000E+00  0.00000000000E+00 -0.13906640352E+04  0.13906640352E+04  0.50400001928E-02 0.  1.
    10030    2    1    2    0    0  0.00000000000E+00  0.00000000000E+00 -0.13022229954E+04  0.14791050751E+04  0.70140365956E+03 0.  0.
        5    1    3    3  502    0 -0.33951902712E+03 -0.82095893964E+02 -0.71633987149E+03  0.79698043079E+03  0.46999998093E+01 0.  1.
       -5    1    3    3    0  502  0.33951902712E+03  0.82095893964E+02 -0.58588312387E+03  0.68212464434E+03  0.46999998093E+01 0. -1.
</event>
<event>
 5   0  0.4299912E-02  0.6792882E+03  0.7818609E-02  0.9753323E-01
       -2   -1    0    0    0  501  0.00000000000E+00  0.00000000000E+00  0.26897016592E+03  0.26897016593E+03  0.25500000920E-02 0. -1.
        2   -1    0    0  501    0  0.00000000000E+00  0.00000000000E+00 -0.42888812832E+03  0.42888812833E+03  0.25500000920E-02 0.  1.
    10030    2    1    2    0    0  0.00000000000E+00  0.00000000000E+00 -0.15991796240E+03  0.69785829426E+03  0.67928818934E+03 0.  0.
        3    1    3    3  502    0 -0.18009401398E+03 -0.51417708119E+02  0.21112487789E+03  0.28222572322E+03  0.10100000352E+00 0. -1.
       -3    1    3    3    0  502  0.18009401398E+03  0.51417708119E+02 -0.37104284029E+03  0.41563257104E+03  0.10100000352E+00 0.  1.
</event>
<event>
 5   0  0.2751729E-02  0.7014172E+03  0.7818609E-02  0.9714812E-01
        1   -1    0    0  501    0  0.00000000000E+00  0.00000000000E+00  0.93659090991E+03  0.93659090993E+03  0.50400001928E-02 0.  1.
       -1   -1    0    0    0  501  0.00000000000E+00  0.00000000000E+00 -0.13132362591E+03  0.13132362601E+03  0.50400001928E-02 0. -1.
    10030    2    1    2    0    0  0.00000000000E+00  0.00000000000E+00  0.80526728400E+03  0.10679145359E+04  0.70141717785E+03 0.  0.
        1    1    3    3  502    0 -0.11668328799E+03  0.83101967405E+02 -0.84749281895E+02  0.16644328611E+03  0.50400001928E-02 0. -1.
       -1    1    3    3    0  502  0.11668328799E+03 -0.83101967405E+02  0.89001656589E+03  0.90147124983E+03  0.50400001928E-02 0.  1.
</event>
<event>
 5   0  0.4526837E-02  0.5973354E+03  0.7818609E-02  0.9910950E-01
        2   -1    0    0  501    0  0.00000000000E+00  0.00000000000E+00  0.28280652307E+03  0.28280652308E+03  0.25500000920E-02 0. -1.
       -2   -1    0    0    0  501  0.00000000000E+00  0.00000000000E+00 -0.31541846239E+03  0.31541846240E+03  0.25500000920E-02 0.  1.
    10030    2    1    2    0    0  0.00000000000E+00  0.00000000000E+00 -0.32611939315E+02  0.59822498548E+03  0.59733541220E+03 0.  0.
        1    1    3    3  502    0 -0.98589159133E+02 -0.53915448077E+02 -0.29344122397E+03  0.31422038411E+03  0.50400001928E-02 0.  1.
       -1    1    3    3    0  502  0.98589159133E+02  0.53915448077E+02  0.26082928465E+03  0.28400460137E+03  0.50400001928E-02 0. -1.
</event>
<event>
 5   0  0.2758681E-02  0.6958654E+03  0.7818609E-02  0.9724329E-01
       -1   -1    0    0    0  501  0.00000000000E+00  0.00000000000E+00  0.93316527513E+03  0.93316527515E+03  0.50400001928E-02 0.  1.
        1   -1    0    0  501    0  0.00000000000E+00  0.00000000000E+00 -0.12972746846E+03  0.12972746856E+03  0.50400001928E-02 0. -1.
    10030    2    1    2    0    0  0.00000000000E+00  0.00000000000E+00  0.80343780668E+03  0.10628927437E+04  0.69586541473E+03 0.  0.
        3    1    3    3  502    0 -0.68220433461E+02  0.25291758604E+03  0.51952375331E+02  0.26705878075E+03  0.10100000352E+00 0. -1.
       -3    1    3    3    0  502  0.68220433461E+02 -0.25291758604E+03  0.75148543135E+03  0.79583396296E+03  0.10100000352E+00 0.  1.
</event>
<event>
 5   0  0.2750139E-02  0.7039512E+03  0.7818609E-02  0.9710499E-01
        1   -1    0    0  501    0  0.00000000000E+00  0.00000000000E+00  0.78499160162E+03  0.78499160164E+03  0.50400001928E-02 0. -1.
       -1   -1    0    0    0  501  0.00000000000E+00  0.00000000000E+00 -0.15781931310E+03  0.15781931319E+03  0.50400001928E-02 0.  1.
    10030    2    1    2    0    0  0.00000000000E+00  0.00000000000E+00  0.62717228852E+03  0.94281091482E+03  0.70395123526E+03 0.  0.
        2    1    3    3  502    0  0.13091887897E+03  0.32402281391E+03  0.25745793281E+03  0.43406810984E+03  0.25500000920E-02 0.  1.
       -2    1    3    3    0  502 -0.13091887897E+03 -0.32402281391E+03  0.36971435571E+03  0.50874280499E+03  0.25500000920E-02 0. -1.
</event>
<event>
 5   0  0.2777999E-02  0.6858398E+03  0.7818609E-02  0.9741759E-01
       -1   -1    0    0    0  501  0.00000000000E+00  0.00000000000E+00  0.20880619720E+03  0.20880619726E+03  0.50400001928E-02 0. -1.
        1   -1    0    0  501    0  0.00000000000E+00  0.00000000000E+00 -0.56317321054E+03  0.56317321056E+03  0.50400001928E-02 0.  1.
    10030    2    1    2    0    0  0.00000000000E+00  0.00000000000E+00 -0.35436701334E+03  0.77197940783E+03  0.68583979614E+03 0.  0.
        5    1    3    3  502    0 -0.19014297666E+02 -0.13611415254E+03 -0.53077759808E+03  0.54830242992E+03  0.46999998093E+01 0.  1.
       -5    1    3    3    0  502  0.19014297666E+02  0.13611415254E+03  0.17641058474E+03  0.22367697790E+03  0.46999998093E+01 0. -1.
</event>
<event>
 5   0  0.4420645E-02  0.6963115E+03  0.7818609E-02  0.9723561E-01
        2   -1    0    0  501    0  0.00000000000E+00  0.00000000000E+00  0.85441481381E+03  0.85441481381E+03  0.25500000920E-02 0.  1.
       -2   -1    0    0    0  501  0.00000000000E+00  0.00000000000E+00 -0.14186600068E+03  0.14186600071E+03  0.25500000920E-02 0. -1.
    10030    2    1    2    0    0  0.00000000000E+00  0.00000000000E+00  0.71254881313E+03  0.99628081452E+03  0.69631146069E+03 0.  0.
        5    1    3    3  502    0  0.12986585553E+03  0.18590991175E+03  0.73418565883E+03  0.76842586327E+03  0.46999998093E+01 0.  1.
       -5    1    3    3    0  502 -0.12986585553E+03 -0.18590991175E+03 -0.21636845702E+02  0.22785495125E+03  0.46999998093E+01 0. -1.
</event>
<event>
 5   0  0.4420645E-02  0.6750038E+03  0.7818609E-02  0.9760960E-01
       -2   -1    0    0    0  501  0.00000000000E+00  0.00000000000E+00  0.23050751260E+03  0.23050751262E+03  0.25500000920E-02 0. -1.
        2   -1    0    0  501    0  0.00000000000E+00  0.00000000000E+00 -0.49415977585E+03  0.49415977585E+03  0.25500000920E-02 0.  1.
    10030    2    1    2    0    0  0.00000000000E+00  0.00000000000E+00 -0.26365226325E+03  0.72466728847E+03  0.67500382448E+03 0.  0.
        5    1    3    3  502    0 -0.13774884177E+03 -0.90630190838E+02  0.18428089385E+03  0.24732592411E+03  0.46999998093E+01 0. -1.
       -5    1    3    3    0  502  0.13774884177E+03  0.90630190838E+02 -0.44793315710E+03  0.47734136436E+03  0.46999998093E+01 0.  1.
</event>
<event>
 5   0  0.4420645E-02  0.7006889E+03  0.7818609E-02  0.9716055E-01
        2   -1    0    0  501    0  0.00000000000E+00  0.00000000000E+00  0.73135086618E+03  0.73135086618E+03  0.25500000920E-02 0.  1.
       -2   -1    0    0    0  501  0.00000000000E+00  0.00000000000E+00 -0.16782808727E+03  0.16782808729E+03  0.25500000920E-02 0. -1.
    10030    2    1    2    0    0  0.00000000000E+00  0.00000000000E+00  0.56352277891E+03  0.89917895347E+03  0.70068885250E+03 0.  0.
        5    1    3    3  502    0 -0.17343305262E+03  0.17601236859E+03  0.60041717092E+03  0.64929365218E+03  0.46999998093E+01 0.  1.
       -5    1    3    3    0  502  0.17343305262E+03 -0.17601236859E+03 -0.36894392010E+02  0.24988530128E+03  0.46999998093E+01 0. -1.
</event>
<event>
 5   0  0.2684924E-02  0.6990248E+03  0.7818609E-02  0.9718901E-01
       -1   -1    0    0    0  501  0.00000000000E+00  0.00000000000E+00  0.11195568407E+04  0.11195568407E+04  0.50400001928E-02 0. -1.
        1   -1    0    0  501    0  0.00000000000E+00  0.00000000000E+00 -0.10911362923E+03  0.10911362935E+03  0.50400001928E-02 0.  1.
    10030    2    1    2    0    0  0.00000000000E+00  0.00000000000E+00  0.10104432114E+04  0.12286704700E+04  0.69902477807E+03 0.  0.
        4    1    3    3  502    0  0.48701065119E+02 -0.28512526741E+03  0.16038636264E+03  0.33074704848E+03  0.12699999809E+01 0.  1.
       -4    1    3    3    0  502 -0.48701065119E+02  0.28512526741E+03  0.85005684878E+03  0.89792342152E+03  0.12699999809E+01 0. -1.
</event>
<event>
 5   0  0.4503289E-02  0.6991793E+03  0.7818609E-02  0.9718637E-01
        2   -1    0    0  501    0  0.00000000000E+00  0.00000000000E+00  0.43727393119E+03  0.43727393120E+03  0.25500000920E-02 0.  1.
       -2   -1    0    0    0  501  0.00000000000E+00  0.00000000000E+00 -0.27948820977E+03  0.27948820978E+03  0.25500000920E-02 0. -1.
    10030    2    1    2    0    0  0.00000000000E+00  0.00000000000E+00  0.15778572142E+03  0.71676214098E+03  0.69917925659E+03 0.  0.
        2    1    3    3  502    0  0.29944286364E+03 -0.17578306179E+03  0.37286569355E+02  0.34922199480E+03  0.25500000920E-02 0. -1.
       -2    1    3    3    0  502 -0.29944286364E+03  0.17578306179E+03  0.12049915207E+03  0.36754014617E+03  0.25500000920E-02 0.  1.
</event>
<event>
 5   0  0.4299912E-02  0.7145031E+03  0.7818609E-02  0.9692747E-01
       -2   -1    0    0    0  501  0.00000000000E+00  0.00000000000E+00  0.85485244202E+02  0.85485244240E+02  0.25500000920E-02 0. -1.
        2   -1    0    0  501    0  0.00000000000E+00  0.00000000000E+00 -0.14929905139E+04  0.14929905139E+04  0.25500000920E-02 0.  1.
    10030    2    1    2    0    0  0.00000000000E+00  0.00000000000E+00 -0.14075052697E+04  0.15784757581E+04  0.71450306844E+03 0.  0.
        3    1    3    3  502    0 -0.25324894344E+03 -0.13853221758E+03 -0.23875829128E+03  0.37460877528E+03  0.10100000352E+00 0. -1.
       -3    1    3    3    0  502  0.25324894344E+03  0.13853221758E+03 -0.11687469784E+04  0.12038669828E+04  0.10100000352E+00 0.  1.
</event>
<event>
 5   0  0.2751729E-02  0.6210968E+03  0.7818609E-02  0.9862578E-01
        1   -1    0    0  501    0  0.00000000000E+00  0.00000000000E+00  0.16670164857E+04  0.16670164857E+04  0.50400001928E-02 0. -1.
       -1   -1    0    0    0  501  0.00000000000E+00  0.00000000000E+00 -0.57852039110E+02  0.57852039329E+02  0.50400001928E-02 0.  1.
    10030    2    1    2    0    0  0.00000000000E+00  0.00000000000E+00  0.16091644466E+04  0.17248685250E+04  0.62109678190E+03 0.  0.
        1    1    3    3  502    0  0.89041632540E+02 -0.83121422442E+02  0.15979033784E+04  0.16025394815E+04  0.50400001928E-02 0. -1.
       -1    1    3    3    0  502 -0.89041632540E+02  0.83121422442E+02  0.11261068170E+02  0.12232904347E+03  0.50400001928E-02 0.  1.
</event>
<event>
 5   0  0.4299912E-02  0.6927488E+03  0.7818609E-02  0.9729714E-01
       -2   -1    0    0    0  501  0.00000000000E+00  0.00000000000E+00  0.32692228908E+03  0.32692228909E+03  0.25500000920E-02 0.  1.
        2   -1    0    0  501    0  0.00000000000E+00  0.00000000000E+00 -0.36698388379E+03  0.36698388380E+03  0.25500000920E-02 0. -1.
    10030    2    1    2    0    0  0.00000000000E+00  0.00000000000E+00 -0.40061594706E+02  0.69390617289E+03  0.69274876067E+03 0.  0.
        3    1    3    3  502    0  0.21246319467E+03  0.93616822033E+02 -0.27750204248E+03  0.36181778873E+03  0.10100000352E+00 0. -1.
       -3    1    3    3    0  502 -0.21246319467E+03 -0.93616822033E+02  0.23744044777E+03  0.33208838417E+03  0.10100000352E+00 0.  1.
</event>
<event>
 5   0  0.2684924E-02  0.7041508E+03  0.7818609E-02  0.9710160E-01
        1   -1    0    0  501    0  0.00000000000E+00  0.00000000000E+00  0.15580743995E+03  0.15580744004E+03  0.50400001928E-02 0.  1.
       -1   -1    0    0    0  501  0.00000000000E+00  0.00000000000E+00 -0.79557867478E+03  0.79557867480E+03  0.50400001928E-02 0. -1.
    10030    2    1    2    0    0  0.00000000000E+00  0.00000000000E+00 -0.63977123483E+03  0.95138611483E+03  0.70415076978E+03 0.  0.
        4    1    3    3  502    0  0.14916824074E+03 -0.31879430248E+03 -0.30822431244E+03  0.46785127019E+03  0.12699999809E+01 0.  1.
       -4    1    3    3    0  502 -0.14916824074E+03  0.31879430248E+03 -0.33154692239E+03  0.48353484465E+03  0.12699999809E+01 0. -1.
</event>
<event>
 5   0  0.4420645E-02  0.6866617E+03  0.7818609E-02  0.9740318E-01
       -2   -1    0    0    0  501  0.00000000000E+00  0.00000000000E+00  0.22062809592E+03  0.22062809594E+03  0.25500000920E-02 0.  1.
        2   -1    0    0  501    0  0.00000000000E+00  0.00000000000E+00 -0.53427501144E+03  0.53427501145E+03  0.25500000920E-02 0. -1.
    10030    2    1    2    0    0  0.00000000000E+00  0.00000000000E+00 -0.31364691552E+03  0.75490310738E+03  0.68666171724E+03 0.  0.
        5    1    3    3  502    0  0.97815926781E+02  0.25833621301E+03  0.67268209332E+02  0.28434601539E+03  0.46999998093E+01 0.  1.
       -5    1    3    3    0  502 -0.97815926781E+02 -0.25833621301E+03 -0.38091512485E+03  0.47055709199E+03  0.46999998093E+01 0. -1.
</event>
<event>
 5   0  0.2758681E-02  0.7278803E+03  0.7818609E-02  0.9670706E-01
       -1   -1    0    0    0  501  0.00000000000E+00  0.00000000000E+00  0.31245279169E+03  0.31245279173E+03  0.50400001928E-02 0. -1.
        1   -1    0    0  501    0  0.00000000000E+00  0.00000000000E+00 -0.42391183720E+03  0.42391183723E+03  0.50400001928E-02 0.  1.
    10030    2    1    2    0    0  0.00000000000E+00  0.00000000000E+00 -0.11145904551E+03  0.73636462895E+03  0.72788031155E+03 0.  0.
        3    1    3    3  502    0  0.18747493605E+02  0.13066037323E+03  0.28738277868E+03  0.31624748747E+03  0.10100000352E+00 0. -1.
       -3    1    3    3    0  502 -0.18747493605E+02 -0.13066037323E+03 -0.39884182419E+03  0.42011714149E+03  0.10100000352E+00 0.  1.
</event>
<event>
 5   0  0.4503289E-02  0.7005243E+03  0.7818609E-02  0.9716336E-01
        2   -1    0    0  501    0  0.00000000000E+00  0.00000000000E+00  0.32038862531E+03  0.32038862532E+03  0.25500000920E-02 0. -1.
       -2   -1    0    0    0  501  0.00000000000E+00  0.00000000000E+00 -0.38292109731E+03  0.38292109731E+03  0.25500000920E-02 0.  1.
    10030    2    1    2    0    0  0.00000000000E+00  0.00000000000E+00 -0.62532471999E+02  0.70330972263E+03  0.70052427217E+03 0.  0.
        2    1    3    3  502    0 -0.61684823298E+02  0.14973547608E+03  0.28054530514E+03  0.32393116315E+03  0.25500000920E-02 0. -1.
       -2    1    3    3    0  502  0.61684823298E+02 -0.14973547608E+03 -0.34307777714E+03  0.37937855948E+03  0.25500000920E-02 0.  1.
</event>
<event>
 5   0  0.2777999E-02  0.5360070E+03  0.7818609E-02  0.1004786E+00
       -1   -1    0    0    0  501  0.00000000000E+00  0.00000000000E+00  0.11709743748E+03  0.11709743759E+03  0.50400001928E-02 0. -1.
        1   -1    0    0  501    0  0.00000000000E+00  0.00000000000E+00 -0.61338561176E+03  0.61338561178E+03  0.50400001928E-02 0.  1.
    10030    2    1    2    0    0  0.00000000000E+00  0.00000000000E+00 -0.49628817428E+03  0.73048304937E+03  0.53600702747E+03 0.  0.
        5    1    3    3  502    0  0.23883448390E+03  0.70547179835E+02 -0.11333486961E+03  0.27365251314E+03  0.46999998093E+01 0. -1.
       -5    1    3    3    0  502 -0.23883448390E+03 -0.70547179835E+02 -0.38295330467E+03  0.45683053623E+03  0.46999998093E+01 0.  1.
</event>
<event>
 5   0  0.2750139E-02  0.6960626E+03  0.7818609E-02  0.9723990E-01
       -1   -1    0    0    0  501  0.00000000000E+00  0.00000000000E+00  0.52825676623E+03  0.52825676625E+03  0.50400001928E-02 0.  1.
        1   -1    0    0  501    0  0.00000000000E+00  0.00000000000E+00 -0.22929337435E+03  0.22929337441E+03  0.50400001928E-02 0. -1.
    10030    2    1    2    0    0  0.00000000000E+00  0.00000000000E+00  0.29896339188E+03  0.75755014066E+03  0.69606257329E+03 0.  0.
        2    1    3    3  502    0  0.58787115277E+02 -0.27544696640E+03  0.37198943077E+03  0.46658664022E+03  0.25500000920E-02 0. -1.
       -2    1    3    3    0  502 -0.58787115277E+02  0.27544696640E+03 -0.73026038894E+02  0.29096350044E+03  0.25500000920E-02 0.  1.
</event>
<event>
 5   0  0.2777999E-02  0.7087732E+03  0.7818609E-02  0.9702345E-01
        1   -1    0    0  501    0  0.00000000000E+00  0.00000000000E+00  0.73628359197E+03  0.73628359198E+03  0.50400001928E-02 0. -1.
       -1   -1    0    0    0  501  0.00000000000E+00  0.00000000000E+00 -0.17057268661E+03  0.17057268668E+03  0.50400001928E-02 0.  1.
    10030    2    1    2    0    0  0.00000000000E+00  0.00000000000E+00  0.56571090536E+03  0.90685627867E+03  0.70877322305E+03 0.  0.
        5    1    3    3  502    0  0.24512108255E+02 -0.12167588378E+03 -0.14180997219E+03  0.18851531067E+03  0.46999998093E+01 0.  1.
       -5    1    3    3    0  502 -0.24512108255E+02  0.12167588378E+03  0.70752087755E+03  0.71834096800E+03  0.46999998093E+01 0. -1.
</event>
<event>
 5   0  0.4420645E-02  0.6849706E+03  0.7818609E-02  0.9743285E-01
        2   -1    0    0  501    0  0.00000000000E+00  0.00000000000E+00  0.26742081929E+03  0.26742081930E+03  0.25500000920E-02 0.  1.
       -2   -1    0    0    0  501  0.00000000000E+00  0.00000000000E+00 -0.43862025381E+03  0.43862025382E+03  0.25500000920E-02 0. -1.
    10030    2    1    2    0    0  0.00000000000E+00  0.00000000000E+00 -0.17119943452E+03  0.70604107312E+03  0.68497062021E+03 0.  0.
        5    1    3    3  502    0  0.19276019193E+03 -0.24311015699E+03 -0.23502473454E+03  0.38925281742E+03  0.46999998093E+01 0. -1.
       -5    1    3    3    0  502 -0.19276019193E+03  0.24311015699E+03  0.63825300016E+02  0.31678825570E+03  0.46999998093E+01 0.  1.
</event>
<event>
 5   0  0.2777999E-02  0.6945275E+03  0.7818609E-02  0.9726637E-01
        1   -1    0    0  501    0  0.00000000000E+00  0.00000000000E+00  0.43698331364E+03  0.43698331367E+03  0.50400001928E-02 0. -1.
       -1   -1    0    0    0  501  0.00000000000E+00  0.00000000000E+00 -0.27596499471E+03  0.27596499476E+03  0.50400001928E-02 0.  1.
    10030    2    1    2    0    0  0.00000000000E+00  0.00000000000E+00  0.16101831893E+03  0.71294830843E+03  0.69452745911E+03 0.  0.
        5    1    3    3  502    0 -0.29926917132E+03 -0.42791523948E+02 -0.94833613859E+02  0.31687324870E+03  0.46999998093E+01 0.  1.
       -5    1    3    3    0  502  0.29926917132E+03  0.42791523948E+02  0.25585193279E+03  0.39607505973E+03  0.46999998093E+01 0. -1.
</event>
<event>
 5   0  0.4526837E-02  0.6996663E+03  0.7818609E-02  0.9717803E-01
        2   -1    0    0  501    0  0.00000000000E+00  0.00000000000E+00  0.14431462035E+04  0.14431462035E+04  0.25500000920E-02 0. -1.
       -2   -1    0    0    0  501  0.00000000000E+00  0.00000000000E+00 -0.84803081524E+02  0.84803081562E+02  0.25500000920E-02 0.  1.
    10030    2    1    2    0    0  0.00000000000E+00  0.00000000000E+00  0.13583431220E+04  0.15279492851E+04  0.69966633527E+03 0.  0.
        1    1    3    3  502    0 -0.32198833444E+03  0.11561501020E+03  0.83875419298E+03  0.90584320629E+03  0.50400001928E-02 0.  1.
       -1    1    3    3    0  502  0.32198833444E+03 -0.11561501020E+03  0.51958892900E+03  0.62210607879E+03  0.50400001928E-02 0. -1.
</event>
<event>
 5   0  0.4420645E-02  0.6998784E+03  0.7818609E-02  0.9717440E-01
       -2   -1    0    0    0  501  0.00000000000E+00  0.00000000000E+00  0.76461386098E+03  0.76461386098E+03  0.25500000920E-02 0.  1.
        2   -1    0    0  501    0  0.00000000000E+00  0.00000000000E+00 -0.16015591247E+03  0.16015591249E+03  0.25500000920E-02 0. -1.
    10030    2    1    2    0    0  0.00000000000E+00  0.00000000000E+00  0.60445794851E+03  0.92476977348E+03  0.69987836259E+03 0.  0.
        5    1    3    3  502    0 -0.64852704985E+02 -0.34200418329E+03  0.25527796175E+03  0.43169626184E+03  0.46999998093E+01 0.  1.
       -5    1    3    3    0  502  0.64852704985E+02  0.34200418329E+03  0.34917998675E+03  0.49307351164E+03  0.46999998093E+01 0. -1.
</event>
<event>
 5   0  0.4420645E-02  0.6992149E+03  0.7818609E-02  0.9718576E-01
        2   -1    0    0  501    0  0.00000000000E+00  0.00000000000E+00  0.26302473459E+03  0.26302473460E+03  0.25500000920E-02 0. -1.
       -2   -1    0    0    0  501  0.00000000000E+00  0.00000000000E+00 -0.46469157224E+03  0.46469157225E+03  0.25500000920E-02 0.  1.
    10030    2    1    2    0    0  0.00000000000E+00  0.00000000000E+00 -0.20166683765E+03  0.72771630685E+03  0.69921492393E+03 0.  0.
        5    1    3    3  502    0 -0.11135002835E+03 -0.22820113949E+03  0.14922835129E+03  0.29456031590E+03  0.46999998093E+01 0. -1.
       -5    1    3    3    0  502  0.11135002835E+03  0.22820113949E+03 -0.35089518893E+03  0.43315599095E+03  0.46999998093E+01 0.  1.
</event>
<event>
 5   0  0.2758681E-02  0.6845303E+03  0.7818609E-02  0.9744059E-01
       -1   -1    0    0    0  501  0.00000000000E+00  0.00000000000E+00  0.16656229277E+03  0.16656229285E+03  0.50400001928E-02 0.  1.
        1   -1    0    0  501    0  0.00000000000E+00  0.00000000000E+00 -0.70331311190E+03  0.70331311192E+03  0.50400001928E-02 0. -1.
    10030    2    1    2    0    0  0.00000000000E+00  0.00000000000E+00 -0.53675081913E+03  0.86987540477E+03  0.68453033386E+03 0.  0.
        3    1    3    3  502    0 -0.20342259273E+03 -0.25639083357E+03 -0.14111870077E+03  0.35641479863E+03  0.10100000352E+00 0. -1.
       -3    1    3    3    0  502  0.20342259273E+03  0.25639083357E+03 -0.39563211837E+03  0.51346060614E+03  0.10100000352E+00 0.  1.
</event>
<event>
 5   0  0.2777999E-02  0.6807417E+03  0.7818609E-02  0.9750745E-01
       -1   -1    0    0    0  501  0.00000000000E+00  0.00000000000E+00  0.11833281239E+03  0.11833281249E+03  0.50400001928E-02 0. -1.
        1   -1    0    0  501    0  0.00000000000E+00  0.00000000000E+00 -0.97903808865E+03  0.97903808866E+03  0.50400001928E-02 0.  1.
    10030    2    1    2    0    0  0.00000000000E+00  0.00000000000E+00 -0.86070527626E+03  0.10973709012E+04  0.68074174407E+03 0.  0.
        5    1    3    3  502    0 -0.30183713658E+02 -0.20419030244E+03 -0.86656929266E+03  0.89082499133E+03  0.46999998093E+01 0.  1.
       -5    1    3    3    0  502  0.30183713658E+02  0.20419030244E+03  0.58640164018E+01  0.20654590983E+03  0.46999998093E+01 0. -1.
</event>
<event>
 5   0  0.4420645E-02  0.6906973E+03  0.7818609E-02  0.9733275E-01
       -2   -1    0    0    0  501  0.00000000000E+00  0.00000000000E+00  0.14869323588E+03  0.14869323590E+03  0.25500000920E-02 0.  1.
        2   -1    0    0  501    0  0.00000000000E+00  0.00000000000E+00 -0.80209213746E+03  0.80209213747E+03  0.25500000920E-02 0. -1.
    10030    2    1    2    0    0  0.00000000000E+00  0.00000000000E+00 -0.65339890159E+03  0.95078537337E+03  0.69069725757E+03 0.  0.
        5    1    3    3  502    0 -0.14312921409E+03 -0.28107927357E+03 -0.52016378292E+03  0.60834528108E+03  0.46999998093E+01 0. -1.
       -5    1    3    3    0  502  0.14312921409E+03  0.28107927357E+03 -0.13323511867E+03  0.34244009228E+03  0.46999998093E+01 0.  1.
</event>
<event>
 5   0  0.2750139E-02  0.6992336E+03  0.7818609E-02  0.9718544E-01
       -1   -1    0    0    0  501  0.00000000000E+00  0.00000000000E+00  0.10855632123E+03  0.10855632135E+03  0.50400001928E-02 0. -1.
        1   -1    0    0  501    0  0.00000000000E+00  0.00000000000E+00 -0.11259769623E+04  0.11259769623E+04  0.50400001928E-02 0.  1.
    10030    2    1    2    0    0  0.00000000000E+00  0.00000000000E+00 -0.10174206411E+04  0.12345332837E+04  0.69923362877E+03 0.  0.
        2    1    3    3  502    0  0.21230561609E+03 -0.25838011402E+02 -0.20412661742E+02  0.21484402301E+03  0.25500000920E-02 0. -1.
       -2    1    3    3    0  502 -0.21230561609E+03  0.25838011402E+02 -0.99700797934E+03  0.10196892607E+04  0.25500000920E-02 0.  1.
</event>
<event>
 5   0  0.4526837E-02  0.6944162E+03  0.7818609E-02  0.9726829E-01
       -2   -1    0    0    0  501  0.00000000000E+00  0.00000000000E+00  0.11916165819E+03  0.11916165822E+03  0.25500000920E-02 0.  1.
        2   -1    0    0  501    0  0.00000000000E+00  0.00000000000E+00 -0.10116800056E+04  0.10116800056E+04  0.25500000920E-02 0. -1.
    10030    2    1    2    0    0  0.00000000000E+00  0.00000000000E+00 -0.89251834739E+03  0.11308416638E+04  0.69441620672E+03 0.  0.
        1    1    3    3  502    0 -0.14552930659E+03 -0.17402592879E+03 -0.87430325196E+03  0.90325521276E+03  0.50400001928E-02 0. -1.
       -1    1    3    3    0  502  0.14552930659E+03  0.17402592879E+03 -0.18215095425E+02  0.22758645103E+03  0.50400001928E-02 0.  1.
</event>
<event>
 5   0  0.2777999E-02  0.6856085E+03  0.7818609E-02  0.9742165E-01
       -1   -1    0    0    0  501  0.00000000000E+00  0.00000000000E+00  0.21964598816E+03  0.21964598822E+03  0.50400001928E-02 0. -1.
        1   -1    0    0  501    0  0.00000000000E+00  0.00000000000E+00 -0.53501886986E+03  0.53501886989E+03  0.50400001928E-02 0.  1.
    10030    2    1    2    0    0  0.00000000000E+00  0.00000000000E+00 -0.31537288171E+03  0.75466485810E+03  0.68560848415E+03 0.  0.
        5    1    3    3  502    0 -0.55849048404E+02 -0.33819086406E+03 -0.15692253436E+03  0.37701319411E+03  0.46999998093E+01 0.  1.
       -5    1    3    3    0  502  0.55849048404E+02  0.33819086406E+03 -0.15845034734E+03  0.37765166399E+03  0.46999998093E+01 0. -1.
</event>
<event>
 5   0  0.2751729E-02  0.7182931E+03  0.7818609E-02  0.9686450E-01
        1   -1    0    0  501    0  0.00000000000E+00  0.00000000000E+00  0.37391241091E+03  0.37391241094E+03  0.50400001928E-02 0. -1.
       -1   -1    0    0    0  501  0.00000000000E+00  0.00000000000E+00 -0.34496380918E+03  0.34496380921E+03  0.50400001928E-02 0.  1.
    10030    2    1    2    0    0  0.00000000000E+00  0.00000000000E+00  0.28948601731E+02  0.71887622016E+03  0.71829311452E+03 0.  0.
        1    1    3    3  502    0 -0.23941437960E+03  0.10319130780E+03 -0.23274557605E+03  0.34948275260E+03  0.50400001928E-02 0.  1.
       -1    1    3    3    0  502  0.23941437960E+03 -0.10319130780E+03  0.26169417779E+03  0.36939346756E+03  0.50400001928E-02 0. -1.
</event>
<event>
 5   0  0.2751729E-02  0.7010045E+03  0.7818609E-02  0.9715516E-01
       -1   -1    0    0    0  501  0.00000000000E+00  0.00000000000E+00  0.20785212196E+03  0.20785212202E+03  0.50400001928E-02 0.  1.
        1   -1    0    0  501    0  0.00000000000E+00  0.00000000000E+00 -0.59105395040E+03  0.59105395042E+03  0.50400001928E-02 0. -1.
    10030    2    1    2    0    0  0.00000000000E+00  0.00000000000E+00 -0.38320182843E+03  0.79890607244E+03  0.70100447307E+03 0.  0.
        1    1    3    3  502    0  0.70370982014E+02  0.17759956995E+02  0.19919467309E+03  0.21200473815E+03  0.50400001928E-02 0.  1.
       -1    1    3    3    0  502 -0.70370982014E+02 -0.17759956995E+02 -0.58239650153E+03  0.58690133430E+03  0.50400001928E-02 0. -1.
</event>
<event>
 5   0  0.2750139E-02  0.7164414E+03  0.7818609E-02  0.9689521E-01
       -1   -1    0    0    0  501  0.00000000000E+00  0.00000000000E+00  0.90388053615E+03  0.90388053616E+03  0.50400001928E-02 0. -1.
        1   -1    0    0  501    0  0.00000000000E+00  0.00000000000E+00 -0.14196795416E+03  0.14196795424E+03  0.50400001928E-02 0.  1.
    10030    2    1    2    0    0  0.00000000000E+00  0.00000000000E+00  0.76191258199E+03  0.10458484904E+04  0.71644140185E+03 0.  0.
        2    1    3    3  502    0 -0.48425723763E+02 -0.35389508549E+03  0.34137254148E+03  0.49408703113E+03  0.25500000920E-02 0. -1.
       -2    1    3    3    0  502  0.48425723763E+02  0.35389508549E+03  0.42054004051E+03  0.55176145927E+03  0.25500000920E-02 0.  1.
</event>
<event>
 5   0  0.4365492E-02  0.7014593E+03  0.7818609E-02  0.9714740E-01
        2   -1    0    0  501    0  0.00000000000E+00  0.00000000000E+00  0.61048221900E+03  0.61048221901E+03  0.25500000920E-02 0. -1.
       -2   -1    0    0    0  501  0.00000000000E+00  0.00000000000E+00 -0.20149858334E+03  0.20149858336E+03  0.25500000920E-02 0.  1.
    10030    2    1    2    0    0  0.00000000000E+00  0.00000000000E+00  0.40898363566E+03  0.81198080237E+03  0.70145934249E+03 0.  0.
        4    1    3    3  502    0  0.10988008773E+03  0.10490270349E+03 -0.16143514749E+03  0.22167798859E+03  0.12699999809E+01 0.  1.
       -4    1    3    3    0  502 -0.10988008773E+03 -0.10490270349E+03  0.57041878316E+03  0.59030281378E+03  0.12699999809E+01 0. -1.
</event>
<event>
 5   0  0.4299912E-02  0.6774367E+03  0.7818609E-02  0.9756616E-01
       -2   -1    0    0    0  501  0.00000000000E+00  0.00000000000E+00  0.22226189649E+03  0.22226189651E+03  0.25500000920E-02 0.  1.
        2   -1    0    0  501    0  0.00000000000E+00  0.00000000000E+00 -0.51619342707E+03  0.51619342707E+03  0.25500000920E-02 0. -1.
    10030    2    1    2    0    0  0.00000000000E+00  0.00000000000E+00 -0.29393153058E+03  0.73845532358E+03  0.67743672786E+03 0.  0.
        3    1    3    3  502    0  0.22938312209E+03  0.24792149312E+03 -0.17472382999E+03  0.38027636059E+03  0.10100000352E+00 0.  1.
       -3    1    3    3    0  502 -0.22938312209E+03 -0.24792149312E+03 -0.11920770059E+03  0.35817896300E+03  0.10100000352E+00 0. -1.
</event>
<event>
 5   0  0.2684924E-02  0.6983912E+03  0.7818609E-02  0.9719987E-01
        1   -1    0    0  501    0  0.00000000000E+00  0.00000000000E+00  0.41957272500E+03  0.41957272504E+03  0.50400001928E-02 0. -1.
       -1   -1    0    0    0  501  0.00000000000E+00  0.00000000000E+00 -0.29062317867E+03  0.29062317871E+03  0.50400001928E-02 0.  1.
    10030    2    1    2    0    0  0.00000000000E+00  0.00000000000E+00  0.12894954633E+03  0.71019590375E+03  0.69839117707E+03 0.  0.
        4    1    3    3  502    0 -0.13771472893E+03  0.25074326972E+03 -0.13915581106E+03  0.31812495426E+03  0.12699999809E+01 0.  1.
       -4    1    3    3    0  502  0.13771472893E+03 -0.25074326972E+03  0.26810535739E+03  0.39207094949E+03  0.12699999809E+01 0. -1.
</event>
<event>
 5   0  0.4420645E-02  0.6667957E+03  0.7818609E-02  0.9775764E-01
        2   -1    0    0  501    0  0.00000000000E+00  0.00000000000E+00  0.44248783109E+03  0.44248783110E+03  0.25500000920E-02 0.  1.
       -2   -1    0    0    0  501  0.00000000000E+00  0.00000000000E+00 -0.25120270587E+03  0.25120270588E+03  0.25500000920E-02 0. -1.
    10030    2    1    2    0    0  0.00000000000E+00  0.00000000000E+00  0.19128512522E+03  0.69369053698E+03  0.66679574231E+03 0.  0.
        5    1    3    3  502    0  0.16210564128E+03 -0.27292148835E+03 -0.10286125166E+02  0.31763543900E+03  0.46999998093E+01 0. -1.
       -5    1    3    3    0  502 -0.16210564128E+03  0.27292148835E+03  0.20157125039E+03  0.37605509798E+03  0.46999998093E+01 0.  1.
</event>
<event>
 5   0  0.4299912E-02  0.7076997E+03  0.7818609E-02  0.9704154E-01
        2   -1    0    0  501    0  0.00000000000E+00  0.00000000000E+00  0.22588292325E+04  0.22588292325E+04  0.25500000920E-02 0. -1.
       -2   -1    0    0    0  501  0.00000000000E+00  0.00000000000E+00 -0.55431249837E+02  0.55431249896E+02  0.25500000920E-02 0.  1.
    10030    2    1    2    0    0  0.00000000000E+00  0.00000000000E+00  0.22033979827E+04  0.23142604824E+04  0.70769973180E+03 0.  0.
        3    1    3    3  502    0  0.27266137771E+03 -0.15720412348E+03  0.16305320573E+04  0.16606300502E+04  0.10100000352E+00 0. -1.
       -3    1    3    3    0  502 -0.27266137771E+03  0.15720412348E+03  0.57286592536E+03  0.65363043226E+03  0.10100000352E+00 0.  1.
</event>
<event>
 5   0  0.4365492E-02  0.6995722E+03  0.7818609E-02  0.9717964E-01
       -2   -1    0    0    0  501  0.00000000000E+00  0.00000000000E+00  0.47501494913E+03  0.47501494914E+03  0.25500000920E-02 0.  1.
        2   -1    0    0  501    0  0.00000000000E+00  0.00000000000E+00 -0.25757151431E+03  0.25757151433E+03  0.25500000920E-02 0. -1.
    10030    2    1    2    0    0  0.00000000000E+00  0.00000000000E+00  0.21744343482E+03  0.73258646347E+03  0.69957221150E+03 0.  0.
        4    1    3    3  502    0  0.19466756391E+03  0.17504205918E+03 -0.13420319558E+03  0.29418921382E+03  0.12699999809E+01 0. -1.
       -4    1    3    3    0  502 -0.19466756391E+03 -0.17504205918E+03  0.35164663040E+03  0.43839724965E+03  0.12699999809E+01 0.  1.
</event>
<event>
 5   0  0.4503289E-02  0.6954787E+03  0.7818609E-02  0.9724996E-01
        2   -1    0    0  501    0  0.00000000000E+00  0.00000000000E+00  0.11472290256E+04  0.11472290256E+04  0.25500000920E-02 0.  1.
       -2   -1    0    0    0  501  0.00000000000E+00  0.00000000000E+00 -0.10540412288E+03  0.10540412291E+03  0.25500000920E-02 0. -1.
    10030    2    1    2    0    0  0.00000000000E+00  0.00000000000E+00  0.10418249027E+04  0.12526331485E+04  0.69547873931E+03 0.  0.
        2    1    3    3  502    0 -0.12945637738E+03 -0.23992956501E+03  0.90970814047E+03  0.94968102574E+03  0.25500000920E-02 0.  1.
       -2    1    3    3    0  502  0.12945637738E+03  0.23992956501E+03  0.13211676222E+03  0.30295212275E+03  0.25500000920E-02 0. -1.
</event>
<event>
 5   0  0.4503289E-02  0.6971394E+03  0.7818609E-02  0.9722137E-01
        2   -1    0    0  501    0  0.00000000000E+00  0.00000000000E+00  0.18095786749E+04  0.18095786749E+04  0.25500000920E-02 0.  1.
       -2   -1    0    0    0  501  0.00000000000E+00  0.00000000000E+00 -0.67143169005E+02  0.67143169053E+02  0.25500000920E-02 0. -1.
    10030    2    1    2    0    0  0.00000000000E+00  0.00000000000E+00  0.17424355059E+04  0.18767218440E+04  0.69713943181E+03 0.  0.
        2    1    3    3  502    0 -0.20778418584E+03  0.19542090750E+03  0.14105471043E+04  0.14390992782E+04  0.25500000920E-02 0.  1.
       -2    1    3    3    0  502  0.20778418584E+03 -0.19542090750E+03  0.33188840163E+03  0.43762256582E+03  0.25500000920E-02 0. -1.
</event>
<event>
 5   0  0.4503289E-02  0.7043535E+03  0.7818609E-02  0.9709816E-01
        2   -1    0    0  501    0  0.00000000000E+00  0.00000000000E+00  0.12937449377E+04  0.12937449377E+04  0.25500000920E-02 0.  1.
       -2   -1    0    0    0  501  0.00000000000E+00  0.00000000000E+00 -0.95867773586E+02  0.95867773620E+02  0.25500000920E-02 0. -1.
    10030    2    1    2    0    0  0.00000000000E+00  0.00000000000E+00  0.11978771641E+04  0.13896127113E+04  0.70435345328E+03 0.  0.
        2    1    3    3  502    0  0.31355459462E+03  0.17648268028E+02  0.91336879980E+03  0.96585221935E+03  0.25500000920E-02 0.  1.
       -2    1    3    3    0  502 -0.31355459462E+03 -0.17648268028E+02  0.28450836427E+03  0.42376049193E+03  0.25500000920E-02 0. -1.
</event>
<event>
 5   0  0.4299912E-02  0.6998053E+03  0.7818609E-02  0.9717565E-01
        2   -1    0    0  501    0  0.00000000000E+00  0.00000000000E+00  0.12183482536E+04  0.12183482536E+04  0.25500000920E-02 0. -1.
       -2   -1    0    0    0  501  0.00000000000E+00  0.00000000000E+00 -0.10049004897E+03  0.10049004901E+03  0.25500000920E-02 0.  1.
    10030    2    1    2    0    0  0.00000000000E+00  0.00000000000E+00  0.11178582046E+04  0.13188383026E+04  0.69980533205E+03 0.  0.
        3    1    3    3  502    0 -0.32517509588E+03  0.19200597171E+02  0.31814246550E+03  0.45532641530E+03  0.10100000352E+00 0.  1.
       -3    1    3    3    0  502  0.32517509588E+03 -0.19200597171E+02  0.79971573909E+03  0.86351188727E+03  0.10100000352E+00 0. -1.
</event>
<event>
 5   0  0.4365492E-02  0.7001103E+03  0.7818609E-02  0.9717044E-01
        2   -1    0    0  501    0  0.00000000000E+00  0.00000000000E+00  0.11378813742E+04  0.11378813742E+04  0.25500000920E-02 0.  1.
       -2   -1    0    0    0  501  0.00000000000E+00  0.00000000000E+00 -0.10769013635E+03  0.10769013638E+03  0.25500000920E-02 0. -1.
    10030    2    1    2    0    0  0.00000000000E+00  0.00000000000E+00  0.10301912378E+04  0.12455715106E+04  0.70011027806E+03 0.  0.
        4    1    3    3  502    0 -0.25086791365E+03  0.10105454174E+03  0.11970819133E+03  0.29576746690E+03  0.12699999809E+01 0. -1.
       -4    1    3    3    0  502  0.25086791365E+03 -0.10105454174E+03  0.91048304652E+03  0.94980404369E+03  0.12699999809E+01 0.  1.
</event>
<event>
 5   0  0.4526837E-02  0.6974981E+03  0.7818609E-02  0.9721520E-01
        2   -1    0    0  501    0  0.00000000000E+00  0.00000000000E+00  0.12914391250E+04  0.12914391250E+04  0.25500000920E-02 0. -1.
       -2   -1    0    0    0  501  0.00000000000E+00  0.00000000000E+00 -0.94178583473E+02  0.94178583508E+02  0.25500000920E-02 0.  1.
    10030    2    1    2    0    0  0.00000000000E+00  0.00000000000E+00  0.11972605415E+04  0.13856177085E+04  0.69749812175E+03 0.  0.
        1    1    3    3  502    0 -0.22810594160E+03 -0.15129485326E+03  0.10279441055E+04  0.10637629140E+04  0.50400001928E-02 0. -1.
       -1    1    3    3    0  502  0.22810594160E+03  0.15129485326E+03  0.16931643610E+03  0.32185479455E+03  0.50400001928E-02 0.  1.
</event>
<event>
 5   0  0.2684924E-02  0.7048820E+03  0.7818609E-02  0.9708920E-01
        1   -1    0    0  501    0  0.00000000000E+00  0.00000000000E+00  0.32462913468E+03  0.32462913472E+03  0.50400001928E-02 0.  1.
       -1   -1    0    0    0  501  0.00000000000E+00  0.00000000000E+00 -0.38263560166E+03  0.38263560170E+03  0.50400001928E-02 0. -1.
    10030    2    1    2    0    0  0.00000000000E+00  0.00000000000E+00 -0.58006466982E+02  0.70726473642E+03  0.70488201649E+03 0.  0.
        4    1    3    3  502    0  0.29628715429E+03 -0.12090562356E+03 -0.17718047206E+03  0.36578515578E+03  0.12699999809E+01 0. -1.
       -4    1    3    3    0  502 -0.29628715429E+03  0.12090562356E+03  0.11917400508E+03  0.34147958064E+03  0.12699999809E+01 0.  1.
</event>
<event>
 5   0  0.2758681E-02  0.6533948E+03  0.7818609E-02  0.9800430E-01
       -1   -1    0    0    0  501  0.00000000000E+00  0.00000000000E+00  0.17755465215E+03  0.17755465222E+03  0.50400001928E-02 0. -1.
        1   -1    0    0  501    0  0.00000000000E+00  0.00000000000E+00 -0.60111740576E+03  0.60111740578E+03  0.50400001928E-02 0.  1.
    10030    2    1    2    0    0  0.00000000000E+00  0.00000000000E+00 -0.42356275360E+03  0.77867205800E+03  0.65339480230E+03 0.  0.
        3    1    3    3  502    0  0.14436010287E+03  0.11476944498E+03  0.10958749686E+03  0.21452574314E+03  0.10100000352E+00 0. -1.
       -3    1    3    3    0  502 -0.14436010287E+03 -0.11476944498E+03 -0.53315025047E+03  0.56414631486E+03  0.10100000352E+00 0.  1.
</event>
<event>
 5   0  0.2684924E-02  0.6983970E+03  0.7818609E-02  0.9719977E-01
        1   -1    0    0  501    0  0.00000000000E+00  0.00000000000E+00  0.22662802638E+03  0.22662802644E+03  0.50400001928E-02 0.  1.
       -1   -1    0    0    0  501  0.00000000000E+00  0.00000000000E+00 -0.53806056974E+03  0.53806056977E+03  0.50400001928E-02 0. -1.
    10030    2    1    2    0    0  0.00000000000E+00  0.00000000000E+00 -0.31143254336E+03  0.76468859621E+03  0.69839703615E+03 0.  0.
        4    1    3    3  502    0 -0.10828284685E+02  0.17394732002E+03 -0.48703226396E+03  0.51727841722E+03  0.12699999809E+01 0. -1.
       -4    1    3    3    0  502  0.10828284685E+02 -0.17394732002E+03  0.17559972060E+03  0.24741017898E+03  0.12699999809E+01 0.  1.
</event>
<event>
 5   0  0.4365492E-02  0.7058365E+03  0.7818609E-02  0.9707303E-01
       -2   -1    0    0    0  501  0.00000000000E+00  0.00000000000E+00  0.63597581706E+03  0.63597581706E+03  0.25500000920E-02 0.  1.
        2   -1    0    0  501    0  0.00000000000E+00  0.00000000000E+00 -0.19584279727E+03  0.19584279729E+03  0.25500000920E-02 0. -1.
    10030    2    1    2    0    0  0.00000000000E+00  0.00000000000E+00  0.44013301979E+03  0.83181861435E+03  0.70583647686E+03 0.  0.
        4    1    3    3  502    0  0.16881413139E+03 -0.26800968317E+03  0.36652736108E+02  0.31886115661E+03  0.12699999809E+01 0. -1.
       -4    1    3    3    0  502 -0.16881413139E+03  0.26800968317E+03  0.40348028368E+03  0.51295745774E+03  0.12699999809E+01 0.  1.
</event>
<event>
 5   0  0.4503289E-02  0.7001363E+03  0.7818609E-02  0.9716999E-01
       -2   -1    0    0    0  501  0.00000000000E+00  0.00000000000E+00  0.19087791172E+03  0.19087791173E+03  0.25500000920E-02 0.  1.
        2   -1    0    0  501    0  0.00000000000E+00  0.00000000000E+00 -0.64202143535E+03  0.64202143536E+03  0.25500000920E-02 0. -1.
    10030    2    1    2    0    0  0.00000000000E+00  0.00000000000E+00 -0.45114352364E+03  0.83289934709E+03  0.70013630349E+03 0.  0.
        2    1    3    3  502    0  0.30927224424E+03 -0.23279628331E+02 -0.32440147489E+02  0.31183910167E+03  0.25500000920E-02 0.  1.
       -2    1    3    3    0  502 -0.30927224424E+03  0.23279628331E+02 -0.41870337615E+03  0.52106024542E+03  0.25500000920E-02 0. -1.
</event>
<event>
 5   0  0.4503289E-02  0.7009289E+03  0.7818609E-02  0.9715645E-01
       -2   -1    0    0    0  501  0.00000000000E+00  0.00000000000E+00  0.62224138369E+03  0.62224138369E+03  0.25500000920E-02 0. -1.
        2   -1    0    0  501    0  0.00000000000E+00  0.00000000000E+00 -0.19739175680E+03  0.19739175681E+03  0.25500000920E-02 0.  1.
    10030    2    1    2    0    0  0.00000000000E+00  0.00000000000E+00  0.42484962689E+03  0.81963314050E+03  0.70092886910E+03 0.  0.
        2    1    3    3  502    0 -0.26938273529E+02  0.21222456082E+03  0.53703425679E+03  0.57807501916E+03  0.25500000920E-02 0. -1.
       -2    1    3    3    0  502  0.26938273529E+02 -0.21222456082E+03 -0.11218462990E+03  0.24155812135E+03  0.25500000920E-02 0.  1.
</event>
<event>
 5   0  0.4526837E-02  0.7042698E+03  0.7818609E-02  0.9709958E-01
       -2   -1    0    0    0  501  0.00000000000E+00  0.00000000000E+00  0.22490671980E+03  0.22490671981E+03  0.25500000920E-02 0.  1.
        2   -1    0    0  501    0  0.00000000000E+00  0.00000000000E+00 -0.55133517060E+03  0.55133517060E+03  0.25500000920E-02 0. -1.
    10030    2    1    2    0    0  0.00000000000E+00  0.00000000000E+00 -0.32642845080E+03  0.77624189042E+03  0.70426979131E+03 0.  0.
        1    1    3    3  502    0 -0.19440820152E+03  0.37248198538E+02  0.15778167719E+03  0.25313442041E+03  0.50400001928E-02 0.  1.
       -1    1    3    3    0  502  0.19440820152E+03 -0.37248198538E+02 -0.48421012798E+03  0.52310747001E+03  0.50400001928E-02 0. -1.
</event>
<event>
 5   0  0.4420645E-02  0.6863693E+03  0.7818609E-02  0.9740831E-01
        2   -1    0    0  501    0  0.00000000000E+00  0.00000000000E+00  0.18518509019E+04  0.18518509019E+04  0.25500000920E-02 0. -1.
       -2   -1    0    0    0  501  0.00000000000E+00  0.00000000000E+00 -0.63598915297E+02  0.63598915348E+02  0.25500000920E-02 0.  1.
    10030    2    1    2    0    0  0.00000000000E+00  0.00000000000E+00  0.17882519866E+04  0.19154498172E+04  0.68636931371E+03 0.  0.
        5    1    3    3  502    0  0.51624895377E+02  0.28938878980E+03  0.13881869659E+04  0.14189771470E+04  0.46999998093E+01 0. -1.
       -5    1    3    3    0  502 -0.51624895377E+02 -0.28938878980E+03  0.40006502069E+03  0.49647267021E+03  0.46999998093E+01 0.  1.
</event>
<event>
 5   0  0.2750139E-02  0.6998659E+03  0.7818609E-02  0.9717462E-01
       -1   -1    0    0    0  501  0.00000000000E+00  0.00000000000E+00  0.59436678095E+03  0.59436678097E+03  0.50400001928E-02 0. -1.
        1   -1    0    0  501    0  0.00000000000E+00  0.00000000000E+00 -0.20602273860E+03  0.20602273866E+03  0.50400001928E-02 0.  1.
    10030    2    1    2    0    0  0.00000000000E+00  0.00000000000E+00  0.38834404236E+03  0.80038951963E+03  0.69986590709E+03 0.  0.
        2    1    3    3  502    0 -0.26918703935E+03  0.55657075050E+02 -0.53481099436E+02  0.28003499810E+03  0.25500000920E-02 0.  1.
       -2    1    3    3    0  502  0.26918703935E+03 -0.55657075050E+02  0.44182514179E+03  0.52035452153E+03  0.25500000920E-02 0. -1.
</event>
<event>
 5   0  0.2758681E-02  0.6331230E+03  0.7818609E-02  0.9838973E-01
        1   -1    0    0  501    0  0.00000000000E+00  0.00000000000E+00  0.38626235747E+03  0.38626235751E+03  0.50400001928E-02 0.  1.
       -1   -1    0    0    0  501  0.00000000000E+00  0.00000000000E+00 -0.25943816198E+03  0.25943816203E+03  0.50400001928E-02 0. -1.
    10030    2    1    2    0    0  0.00000000000E+00  0.00000000000E+00  0.12682419549E+03  0.64570051954E+03  0.63312304047E+03 0.  0.
        3    1    3    3  502    0  0.19625956518E+03  0.20131859913E+03 -0.84957134513E+02  0.29370856335E+03  0.10100000352E+00 0. -1.
       -3    1    3    3    0  502 -0.19625956518E+03 -0.20131859913E+03  0.21178133000E+03  0.35199195619E+03  0.10100000352E+00 0.  1.
</event>
<event>
 5   0  0.2751729E-02  0.7033518E+03  0.7818609E-02  0.9711517E-01
        1   -1    0    0  501    0  0.00000000000E+00  0.00000000000E+00  0.34565214013E+03  0.34565214017E+03  0.50400001928E-02 0. -1.
       -1   -1    0    0    0  501  0.00000000000E+00  0.00000000000E+00 -0.35780466503E+03  0.35780466506E+03  0.50400001928E-02 0.  1.
    10030    2    1    2    0    0  0.00000000000E+00  0.00000000000E+00 -0.12152524892E+02  0.70345680523E+03  0.70335182730E+03 0.  0.
        1    1    3    3  502    0  0.62237460727E+02  0.31253057861E+03 -0.15485021757E+03  0.35429853795E+03  0.50400001928E-02 0.  1.
       -1    1    3    3    0  502 -0.62237460727E+02 -0.31253057861E+03  0.14269769268E+03  0.34915826728E+03  0.50400001928E-02 0. -1.
</event>
<event>
 5   0  0.2750139E-02  0.6898268E+03  0.7818609E-02  0.9734790E-01
       -1   -1    0    0    0  501  0.00000000000E+00  0.00000000000E+00  0.23466946707E+03  0.23466946712E+03  0.50400001928E-02 0. -1.
        1   -1    0    0  501    0  0.00000000000E+00  0.00000000000E+00 -0.50694814777E+03  0.50694814779E+03  0.50400001928E-02 0.  1.
    10030    2    1    2    0    0  0.00000000000E+00  0.00000000000E+00 -0.27227868070E+03  0.74161761491E+03  0.68982679478E+03 0.  0.
        2    1    3    3  502    0  0.20125394372E+03  0.27949493615E+03 -0.11617984349E+03  0.36348084577E+03  0.25500000920E-02 0. -1.
       -2    1    3    3    0  502 -0.20125394372E+03 -0.27949493615E+03 -0.15609883721E+03  0.37813676915E+03  0.25500000920E-02 0.  1.
</event>
<event>
 5   0  0.4299912E-02  0.7060140E+03  0.7818609E-02  0.9707002E-01
       -2   -1    0    0    0  501  0.00000000000E+00  0.00000000000E+00  0.60763692650E+02  0.60763692703E+02  0.25500000920E-02 0.  1.
        2   -1    0    0  501    0  0.00000000000E+00  0.00000000000E+00 -0.20507959317E+04  0.20507959317E+04  0.25500000920E-02 0. -1.
    10030    2    1    2    0    0  0.00000000000E+00  0.00000000000E+00 -0.19900322390E+04  0.21115596244E+04  0.70601397645E+03 0.  0.
        3    1    3    3  502    0  0.77055056722E+02  0.11894760782E+03 -0.28061303778E+02  0.14447651070E+03  0.10100000352E+00 0.  1.
       -3    1    3    3    0  502 -0.77055056722E+02 -0.11894760782E+03 -0.19619709352E+04  0.19670831137E+04  0.10100000352E+00 0. -1.
</event>
<event>
 5   0  0.2750139E-02  0.6971602E+03  0.7818609E-02  0.9722101E-01
        1   -1    0    0  501    0  0.00000000000E+00  0.00000000000E+00  0.51273359099E+03  0.51273359101E+03  0.50400001928E-02 0. -1.
       -1   -1    0    0    0  501  0.00000000000E+00  0.00000000000E+00 -0.23698096481E+03  0.23698096486E+03  0.50400001928E-02 0.  1.
    10030    2    1    2    0    0  0.00000000000E+00  0.00000000000E+00  0.27575262618E+03  0.74971455587E+03  0.69716024302E+03 0.  0.
        2    1    3    3  502    0 -0.19176013287E+03  0.15725358886E+03 -0.12555412689E+03  0.27796488727E+03  0.25500000920E-02 0.  1.
       -2    1    3    3    0  502  0.19176013287E+03 -0.15725358886E+03  0.40130675306E+03  0.47174966861E+03  0.25500000920E-02 0. -1.
</event>
<event>
 5   0  0.4420645E-02  0.6909404E+03  0.7818609E-02  0.9732852E-01
        2   -1    0    0  501    0  0.00000000000E+00  0.00000000000E+00  0.17001302997E+04  0.17001302997E+04  0.25500000920E-02 0. -1.
       -2   -1    0    0    0  501  0.00000000000E+00  0.00000000000E+00 -0.70200296827E+02  0.70200296873E+02  0.25500000920E-02 0.  1.
    10030    2    1    2    0    0  0.00000000000E+00  0.00000000000E+00  0.16299300029E+04  0.17703305966E+04  0.69094037869E+03 0.  0.
        5    1    3    3  502    0  0.12281091649E+03 -0.21840054902E+03  0.20568675780E+03  0.32420742334E+03  0.46999998093E+01 0. -1.
       -5    1    3    3    0  502 -0.12281091649E+03  0.21840054902E+03  0.14242432451E+04  0.14461231733E+04  0.46999998093E+01 0.  1.
</event>
<event>
 5   0  0.4365492E-02  0.7023945E+03  0.7818609E-02  0.9713146E-01
       -2   -1    0    0    0  501  0.00000000000E+00  0.00000000000E+00  0.12362489343E+03  0.12362489345E+03  0.25500000920E-02 0.  1.
        2   -1    0    0  501    0  0.00000000000E+00  0.00000000000E+00 -0.99769165202E+03  0.99769165203E+03  0.25500000920E-02 0. -1.
    10030    2    1    2    0    0  0.00000000000E+00  0.00000000000E+00 -0.87406675860E+03  0.11213165455E+04  0.70239454488E+03 0.  0.
        4    1    3    3  502    0  0.25897163159E+03  0.22311985568E+03 -0.56563324504E+03  0.66090192673E+03  0.12699999809E+01 0. -1.
       -4    1    3    3    0  502 -0.25897163159E+03 -0.22311985568E+03 -0.30843351356E+03  0.46041461875E+03  0.12699999809E+01 0.  1.
</event>
<event>
 5   0  0.2777999E-02  0.6894599E+03  0.7818609E-02  0.9735429E-01
        1   -1    0    0  501    0  0.00000000000E+00  0.00000000000E+00  0.59287907263E+03  0.59287907265E+03  0.50400001928E-02 0.  1.
       -1   -1    0    0    0  501  0.00000000000E+00  0.00000000000E+00 -0.20044348804E+03  0.20044348810E+03  0.50400001928E-02 0. -1.
    10030    2    1    2    0    0  0.00000000000E+00  0.00000000000E+00  0.39243558460E+03  0.79332256075E+03  0.68945993164E+03 0.  0.
        5    1    3    3  502    0  0.15501620328E+03 -0.29485147849E+03  0.29816013838E+03  0.44708944939E+03  0.46999998093E+01 0.  1.
       -5    1    3    3    0  502 -0.15501620328E+03  0.29485147849E+03  0.94275446218E+02  0.34623311136E+03  0.46999998093E+01 0. -1.
</event>
<event>
 5   0  0.2758681E-02  0.7029672E+03  0.7818609E-02  0.9712171E-01
        1   -1    0    0  501    0  0.00000000000E+00  0.00000000000E+00  0.15876319705E+03  0.15876319713E+03  0.50400001928E-02 0.  1.
       -1   -1    0    0    0  501  0.00000000000E+00  0.00000000000E+00 -0.77814456809E+03  0.77814456811E+03  0.50400001928E-02 0. -1.
    10030    2    1    2    0    0  0.00000000000E+00  0.00000000000E+00 -0.61938137104E+03  0.93690776524E+03  0.70296719537E+03 0.  0.
        3    1    3    3  502    0 -0.10147407005E+03  0.63159803155E+02  0.13084548181E+03  0.17721934978E+03  0.10100000352E+00 0.  1.
       -3    1    3    3    0  502  0.10147407005E+03 -0.63159803155E+02 -0.75022685285E+03  0.75968841545E+03  0.10100000352E+00 0. -1.
</event>
<event>
 5   0  0.2684924E-02  0.7559145E+03  0.7818609E-02  0.9626117E-01
        1   -1    0    0  501    0  0.00000000000E+00  0.00000000000E+00  0.19285919807E+03  0.19285919813E+03  0.50400001928E-02 0.  1.
       -1   -1    0    0    0  501  0.00000000000E+00  0.00000000000E+00 -0.74070460397E+03  0.74070460399E+03  0.50400001928E-02 0. -1.
    10030    2    1    2    0    0  0.00000000000E+00  0.00000000000E+00 -0.54784540591E+03  0.93356380212E+03  0.75591453476E+03 0.  0.
        4    1    3    3  502    0 -0.11252058065E+03 -0.30716728610E+03 -0.40125171842E+02  0.32958195496E+03  0.12699999809E+01 0.  1.
       -4    1    3    3    0  502  0.11252058065E+03  0.30716728610E+03 -0.50772023407E+03  0.60398184716E+03  0.12699999809E+01 0. -1.
</event>
<event>
 5   0  0.2777999E-02  0.7084142E+03  0.7818609E-02  0.9702950E-01
        1   -1    0    0  501    0  0.00000000000E+00  0.00000000000E+00  0.54377024224E+03  0.54377024227E+03  0.50400001928E-02 0. -1.
       -1   -1    0    0    0  501  0.00000000000E+00  0.00000000000E+00 -0.23072734046E+03  0.23072734052E+03  0.50400001928E-02 0.  1.
    10030    2    1    2    0    0  0.00000000000E+00  0.00000000000E+00  0.31304290178E+03  0.77449758278E+03  0.70841417785E+03 0.  0.
        5    1    3    3  502    0  0.18312891751E+03 -0.22865030127E+03  0.37414643517E+03  0.47521027519E+03  0.46999998093E+01 0. -1.
       -5    1    3    3    0  502 -0.18312891751E+03  0.22865030127E+03 -0.61103533385E+02  0.29928730760E+03  0.46999998093E+01 0.  1.
</event>
<event>
 5   0  0.4503289E-02  0.7196006E+03  0.7818609E-02  0.9684288E-01
       -2   -1    0    0    0  501  0.00000000000E+00  0.00000000000E+00  0.24110592434E+03  0.24110592435E+03  0.25500000920E-02 0.  1.
        2   -1    0    0  501    0  0.00000000000E+00  0.00000000000E+00 -0.53692682403E+03  0.53692682404E+03  0.25500000920E-02 0. -1.
    10030    2    1    2    0    0  0.00000000000E+00  0.00000000000E+00 -0.29582089970E+03  0.77803274839E+03  0.71960055091E+03 0.  0.
        2    1    3    3  502    0  0.19703370088E+03  0.12022103906E+03 -0.44633141301E+03  0.50248095264E+03  0.25500000920E-02 0.  1.
       -2    1    3    3    0  502 -0.19703370088E+03 -0.12022103906E+03  0.15051051331E+03  0.27555179575E+03  0.25500000920E-02 0. -1.
</event>
<event>
 5   0  0.2750139E-02  0.7069516E+03  0.7818609E-02  0.9705417E-01
       -1   -1    0    0    0  501  0.00000000000E+00  0.00000000000E+00  0.39761980190E+03  0.39761980194E+03  0.50400001928E-02 0. -1.
        1   -1    0    0  501    0  0.00000000000E+00  0.00000000000E+00 -0.31423265548E+03  0.31423265552E+03  0.50400001928E-02 0.  1.
    10030    2    1    2    0    0  0.00000000000E+00  0.00000000000E+00  0.83387146419E+02  0.71185245746E+03  0.70695155775E+03 0.  0.
        2    1    3    3  502    0 -0.26907102279E+03 -0.24344291337E+02 -0.18781914779E+03  0.32904086692E+03  0.25500000920E-02 0. -1.
       -2    1    3    3    0  502  0.26907102279E+03  0.24344291337E+02  0.27120629421E+03  0.38281159054E+03  0.25500000920E-02 0.  1.
</event>
<event>
 5   0  0.4420645E-02  0.7269809E+03  0.7818609E-02  0.9672172E-01
       -2   -1    0    0    0  501  0.00000000000E+00  0.00000000000E+00  0.84374634700E+02  0.84374634739E+02  0.25500000920E-02 0. -1.
        2   -1    0    0  501    0  0.00000000000E+00  0.00000000000E+00 -0.15659362630E+04  0.15659362630E+04  0.25500000920E-02 0.  1.
    10030    2    1    2    0    0  0.00000000000E+00  0.00000000000E+00 -0.14815616283E+04  0.16503108978E+04  0.72698088060E+03 0.  0.
        5    1    3    3  502    0  0.28936699767E+03 -0.46107964042E+02 -0.12289501604E+04  0.12634080063E+04  0.46999998093E+01 0.  1.
       -5    1    3    3    0  502 -0.28936699767E+03  0.46107964042E+02 -0.25261146793E+03  0.38690289145E+03  0.46999998093E+01 0. -1.
</event>
<event>
 5   0  0.2751729E-02  0.7044638E+03  0.7818609E-02  0.9709629E-01
       -1   -1    0    0    0  501  0.00000000000E+00  0.00000000000E+00  0.89799502401E+02  0.89799502543E+02  0.50400001928E-02 0.  1.
        1   -1    0    0  501    0  0.00000000000E+00  0.00000000000E+00 -0.13816034385E+04  0.13816034385E+04  0.50400001928E-02 0. -1.
    10030    2    1    2    0    0  0.00000000000E+00  0.00000000000E+00 -0.12918039361E+04  0.14714029411E+04  0.70446377169E+03 0.  0.
        1    1    3    3  502    0  0.27495935073E+03  0.19724907956E+02 -0.18793385105E+03  0.33363280555E+03  0.50400001928E-02 0.  1.
       -1    1    3    3    0  502 -0.27495935073E+03 -0.19724907956E+02 -0.11038700851E+04  0.11377701355E+04  0.50400001928E-02 0. -1.
</event>
<event>
 5   0  0.4299912E-02  0.6921981E+03  0.7818609E-02  0.9730668E-01
       -2   -1    0    0    0  501  0.00000000000E+00  0.00000000000E+00  0.10563300408E+03  0.10563300411E+03  0.25500000920E-02 0.  1.
        2   -1    0    0  501    0  0.00000000000E+00  0.00000000000E+00 -0.11339690348E+04  0.11339690348E+04  0.25500000920E-02 0. -1.
    10030    2    1    2    0    0  0.00000000000E+00  0.00000000000E+00 -0.10283360307E+04  0.12396020389E+04  0.69219810948E+03 0.  0.
        3    1    3    3  502    0 -0.29571246567E+03 -0.13207060670E+03 -0.29559967294E+03  0.43848339119E+03  0.10100000352E+00 0.  1.
       -3    1    3    3    0  502  0.29571246567E+03  0.13207060670E+03 -0.73273635774E+03  0.80111864768E+03  0.10100000352E+00 0. -1.
</event>
<event>
 5   0  0.4420645E-02  0.8493121E+03  0.7818609E-02  0.9491261E-01
        2   -1    0    0  501    0  0.00000000000E+00  0.00000000000E+00  0.11360663423E+04  0.11360663423E+04  0.25500000920E-02 0.  1.
       -2   -1    0    0    0  501  0.00000000000E+00  0.00000000000E+00 -0.15873435295E+03  0.15873435297E+03  0.25500000920E-02 0. -1.
    10030    2    1    2    0    0  0.00000000000E+00  0.00000000000E+00  0.97733198930E+03  0.12948006952E+04  0.84931208813E+03 0.  0.
        5    1    3    3  502    0  0.30700672734E+03  0.24846061135E+02  0.43043846362E+02  0.31103909737E+03  0.46999998093E+01 0. -1.
       -5    1    3    3    0  502 -0.30700672734E+03 -0.24846061135E+02  0.93428814294E+03  0.98376159786E+03  0.46999998093E+01 0.  1.
</event>
<event>
 5   0  0.4420645E-02  0.6930887E+03  0.7818609E-02  0.9729125E-01
        2   -1    0    0  501    0  0.00000000000E+00  0.00000000000E+00  0.67546051442E+03  0.67546051442E+03  0.25500000920E-02 0.  1.
       -2   -1    0    0    0  501  0.00000000000E+00  0.00000000000E+00 -0.17779422794E+03  0.17779422796E+03  0.25500000920E-02 0. -1.
    10030    2    1    2    0    0  0.00000000000E+00  0.00000000000E+00  0.49766628648E+03  0.85325474238E+03  0.69308868314E+03 0.  0.
        5    1    3    3  502    0 -0.29670188653E+03  0.17076082012E+03  0.31489606222E+03  0.46515899127E+03  0.46999998093E+01 0.  1.
       -5    1    3    3    0  502  0.29670188653E+03 -0.17076082012E+03  0.18277022426E+03  0.38809575111E+03  0.46999998093E+01 0. -1.
</event>
<event>
 5   0  0.4299912E-02  0.6950555E+03  0.7818609E-02  0.9725725E-01
       -2   -1    0    0    0  501  0.00000000000E+00  0.00000000000E+00  0.12987029059E+03  0.12987029062E+03  0.25500000920E-02 0.  1.
        2   -1    0    0  501    0  0.00000000000E+00  0.00000000000E+00 -0.92997051926E+03  0.92997051926E+03  0.25500000920E-02 0. -1.
    10030    2    1    2    0    0  0.00000000000E+00  0.00000000000E+00 -0.80010022867E+03  0.10598408099E+04  0.69505551316E+03 0.  0.
        3    1    3    3  502    0 -0.73071293206E+02  0.20953885960E+03 -0.80786586482E+03  0.83779067392E+03  0.10100000352E+00 0. -1.
       -3    1    3    3    0  502  0.73071293206E+02 -0.20953885960E+03  0.77656361487E+01  0.22205013596E+03  0.10100000352E+00 0.  1.
</event>
<event>
 5   0  0.2751729E-02  0.6900224E+03  0.7818609E-02  0.9734449E-01
        1   -1    0    0  501    0  0.00000000000E+00  0.00000000000E+00  0.43796917904E+03  0.43796917907E+03  0.50400001928E-02 0.  1.
       -1   -1    0    0    0  501  0.00000000000E+00  0.00000000000E+00 -0.27178332617E+03  0.27178332622E+03  0.50400001928E-02 0. -1.
    10030    2    1    2    0    0  0.00000000000E+00  0.00000000000E+00  0.16618585286E+03  0.70975250529E+03  0.69002237722E+03 0.  0.
        1    1    3    3  502    0  0.31542337270E+03  0.13924863532E+03  0.70468695976E+02  0.35192033704E+03  0.50400001928E-02 0.  1.
       -1    1    3    3    0  502 -0.31542337270E+03 -0.13924863532E+03  0.95717156889E+02  0.35783216825E+03  0.50400001928E-02 0. -1.
</event>
<event>
 5   0  0.2750139E-02  0.7007515E+03  0.7818609E-02  0.9715948E-01
        1   -1    0    0  501    0  0.00000000000E+00  0.00000000000E+00  0.24097057357E+03  0.24097057362E+03  0.50400001928E-02 0.  1.
       -1   -1    0    0    0  501  0.00000000000E+00  0.00000000000E+00 -0.50945300172E+03  0.50945300175E+03  0.50400001928E-02 0. -1.
    10030    2    1    2    0    0  0.00000000000E+00  0.00000000000E+00 -0.26848242815E+03  0.75042357537E+03  0.70075154530E+03 0.  0.
        2    1    3    3  502    0 -0.19044442810E+03  0.28862061895E+03 -0.19474606355E+03  0.39685888065E+03  0.25500000920E-02 0. -1.
       -2    1    3    3    0  502  0.19044442810E+03 -0.28862061895E+03 -0.73736364602E+02  0.35356469472E+03  0.25500000920E-02 0.  1.
</event>
<event>
 5   0  0.2777999E-02  0.6926374E+03  0.7818609E-02  0.9729907E-01
        1   -1    0    0  501    0  0.00000000000E+00  0.00000000000E+00  0.52882880355E+03  0.52882880357E+03  0.50400001928E-02 0. -1.
       -1   -1    0    0    0  501  0.00000000000E+00  0.00000000000E+00 -0.22679670618E+03  0.22679670624E+03  0.50400001928E-02 0.  1.
    10030    2    1    2    0    0  0.00000000000E+00  0.00000000000E+00  0.30203209736E+03  0.75562550981E+03  0.69263736778E+03 0.  0.
        5    1    3    3  502    0  0.28757780514E+03 -0.16688171657E+02 -0.58646108079E+02  0.29400840987E+03  0.46999998093E+01 0. -1.
       -5    1    3    3    0  502 -0.28757780514E+03  0.16688171657E+02  0.36067820544E+03  0.46161709995E+03  0.46999998093E+01 0.  1.
</event>
<event>
 5   0  0.4503289E-02  0.6873496E+03  0.7818609E-02  0.9739114E-01
        2   -1    0    0  501    0  0.00000000000E+00  0.00000000000E+00  0.45786830058E+03  0.45786830059E+03  0.25500000920E-02 0.  1.
       -2   -1    0    0    0  501  0.00000000000E+00  0.00000000000E+00 -0.25796142510E+03  0.25796142511E+03  0.25500000920E-02 0. -1.
    10030    2    1    2    0    0  0.00000000000E+00  0.00000000000E+00  0.19990687548E+03  0.71582972569E+03  0.68734957432E+03 0.  0.
        2    1    3    3  502    0  0.21603603625E+03  0.17103141802E+03 -0.11395696497E+03  0.29817696890E+03  0.25500000920E-02 0. -1.
       -2    1    3    3    0  502 -0.21603603625E+03 -0.17103141802E+03  0.31386384046E+03  0.41765275680E+03  0.25500000920E-02 0.  1.
</event>
<event>
 5   0  0.2758681E-02  0.6835531E+03  0.7818609E-02  0.9745779E-01
       -1   -1    0    0    0  501  0.00000000000E+00  0.00000000000E+00  0.30244635116E+03  0.30244635120E+03  0.50400001928E-02 0. -1.
        1   -1    0    0  501    0  0.00000000000E+00  0.00000000000E+00 -0.38622123963E+03  0.38622123966E+03  0.50400001928E-02 0.  1.
    10030    2    1    2    0    0  0.00000000000E+00  0.00000000000E+00 -0.83774888469E+02  0.68866759086E+03  0.68355308408E+03 0.  0.
        3    1    3    3  502    0 -0.36085892022E+02 -0.33928373652E+03 -0.21850220169E+02  0.34189631146E+03  0.10100000352E+00 0.  1.
       -3    1    3    3    0  502  0.36085892022E+02  0.33928373652E+03 -0.61924668300E+02  0.34677127940E+03  0.10100000352E+00 0. -1.
</event>
<event>
 5   0  0.2684924E-02  0.6962563E+03  0.7818609E-02  0.9723656E-01
        1   -1    0    0  501    0  0.00000000000E+00  0.00000000000E+00  0.10365867874E+04  0.10365867874E+04  0.50400001928E-02 0. -1.
       -1   -1    0    0    0  501  0.00000000000E+00  0.00000000000E+00 -0.11691564400E+03  0.11691564411E+03  0.50400001928E-02 0.  1.
    10030    2    1    2    0    0  0.00000000000E+00  0.00000000000E+00  0.91967114338E+03  0.11535024315E+04  0.69625630878E+03 0.  0.
        4    1    3    3  502    0  0.31695335726E+02 -0.32300493874E+03  0.66844308673E+03  0.74307103150E+03  0.12699999809E+01 0. -1.
       -4    1    3    3    0  502 -0.31695335726E+02  0.32300493874E+03  0.25122805664E+03  0.41043140000E+03  0.12699999809E+01 0.  1.
</event>
<event>
 5   0  0.4365492E-02  0.7082825E+03  0.7818609E-02  0.9703172E-01
       -2   -1    0    0    0  501  0.00000000000E+00  0.00000000000E+00  0.21052986987E+03  0.21052986988E+03  0.25500000920E-02 0. -1.
        2   -1    0    0  501    0  0.00000000000E+00  0.00000000000E+00 -0.59571607943E+03  0.59571607944E+03  0.25500000920E-02 0.  1.
    10030    2    1    2    0    0  0.00000000000E+00  0.00000000000E+00 -0.38518620957E+03  0.80624594932E+03  0.70828251055E+03 0.  0.
        4    1    3    3  502    0 -0.91658561364E+02  0.29177194312E+03 -0.39584544639E+03  0.50022733731E+03  0.12699999809E+01 0.  1.
       -4    1    3    3    0  502  0.91658561364E+02 -0.29177194312E+03  0.10659236823E+02  0.30601861201E+03  0.12699999809E+01 0. -1.
</event>
<event>
 5   0  0.1784625E-02  0.6963707E+03  0.7818609E-02  0.9723459E-01
        3   -1    0    0  501    0  0.00000000000E+00  0.00000000000E+00  0.22001972235E+03  0.22001974553E+03  0.10100000352E+00 0.  1.
       -3   -1    0    0    0  501  0.00000000000E+00  0.00000000000E+00 -0.55100975400E+03  0.55100976326E+03  0.10100000352E+00 0. -1.
    10030    2    1    2    0    0  0.00000000000E+00  0.00000000000E+00 -0.33099003165E+03  0.77102950879E+03  0.69637066449E+03 0.  0.
        1    1    3    3  502    0  0.72432682110E+02  0.82485066901E+02  0.20035875715E+03  0.22845986801E+03  0.50400001928E-02 0.  1.
       -1    1    3    3    0  502 -0.72432682110E+02 -0.82485066901E+02 -0.53134878881E+03  0.54256964077E+03  0.50400001928E-02 0. -1.
</event>
<event>
 5   0  0.2684924E-02  0.7185084E+03  0.7818609E-02  0.9686094E-01
       -1   -1    0    0    0  501  0.00000000000E+00  0.00000000000E+00  0.96761612641E+03  0.96761612642E+03  0.50400001928E-02 0.  1.
        1   -1    0    0  501    0  0.00000000000E+00  0.00000000000E+00 -0.13338302633E+03  0.13338302642E+03  0.50400001928E-02 0. -1.
    10030    2    1    2    0    0  0.00000000000E+00  0.00000000000E+00  0.83423310008E+03  0.11009991528E+04  0.71850836411E+03 0.  0.
        4    1    3    3  502    0  0.34158294534E+03 -0.95684764476E+02  0.50417007876E+03  0.61646051286E+03  0.12699999809E+01 0. -1.
       -4    1    3    3    0  502 -0.34158294534E+03  0.95684764476E+02  0.33006302131E+03  0.48453863998E+03  0.12699999809E+01 0.  1.
</event>
<event>
 5   0  0.1784625E-02  0.6965614E+03  0.7818609E-02  0.9723131E-01
        3   -1    0    0  501    0  0.00000000000E+00  0.00000000000E+00  0.17750570306E+03  0.17750573179E+03  0.10100000352E+00 0.  1.
       -3   -1    0    0    0  501  0.00000000000E+00  0.00000000000E+00 -0.68335510924E+03  0.68335511670E+03  0.10100000352E+00 0. -1.
    10030    2    1    2    0    0  0.00000000000E+00  0.00000000000E+00 -0.50584940618E+03  0.86086084849E+03  0.69656139624E+03 0.  0.
        5    1    3    3  502    0 -0.22172334255E+03  0.77500950344E+02 -0.57068980739E+03  0.61715199440E+03  0.46999998093E+01 0. -1.
       -5    1    3    3    0  502  0.22172334255E+03 -0.77500950344E+02  0.64840401203E+02  0.24370885409E+03  0.46999998093E+01 0.  1.
</event>
<event>
 5   0  0.2684924E-02  0.6998381E+03  0.7818609E-02  0.9717509E-01
        1   -1    0    0  501    0  0.00000000000E+00  0.00000000000E+00  0.39970379488E+03  0.39970379491E+03  0.50400001928E-02 0.  1.
       -1   -1    0    0    0  501  0.00000000000E+00  0.00000000000E+00 -0.30633520130E+03  0.30633520134E+03  0.50400001928E-02 0. -1.
    10030    2    1    2    0    0  0.00000000000E+00  0.00000000000E+00  0.93368593580E+02  0.70603899625E+03  0.69983810267E+03 0.  0.
        4    1    3    3  502    0 -0.63931014154E+02 -0.28696653934E+03 -0.14474617381E+03  0.32770419132E+03  0.12699999809E+01 0. -1.
       -4    1    3    3    0  502  0.63931014154E+02  0.28696653934E+03  0.23811476739E+03  0.37833480493E+03  0.12699999809E+01 0.  1.
</event>
<event>
 5   0  0.2751729E-02  0.6989085E+03  0.7818609E-02  0.9719101E-01
       -1   -1    0    0    0  501  0.00000000000E+00  0.00000000000E+00  0.39153481427E+03  0.39153481430E+03  0.50400001928E-02 0.  1.
        1   -1    0    0  501    0  0.00000000000E+00  0.00000000000E+00 -0.31189635063E+03  0.31189635067E+03  0.50400001928E-02 0. -1.
    10030    2    1    2    0    0  0.00000000000E+00  0.00000000000E+00  0.79638463639E+02  0.70343116497E+03  0.69890851974E+03 0.  0.
        1    1    3    3  502    0 -0.19373586180E+03  0.21171897438E+03 -0.16086960258E+03  0.32899473752E+03  0.50400001928E-02 0.  1.
       -1    1    3    3    0  502  0.19373586180E+03 -0.21171897438E+03  0.24050806622E+03  0.37443642745E+03  0.50400001928E-02 0. -1.
</event>
<event>
 5   0  0.4526837E-02  0.6853470E+03  0.7818609E-02  0.9742624E-01
       -2   -1    0    0    0  501  0.00000000000E+00  0.00000000000E+00  0.21943638064E+03  0.21943638065E+03  0.25500000920E-02 0.  1.
        2   -1    0    0  501    0  0.00000000000E+00  0.00000000000E+00 -0.53512156284E+03  0.53512156284E+03  0.25500000920E-02 0. -1.
    10030    2    1    2    0    0  0.00000000000E+00  0.00000000000E+00 -0.31568518220E+03  0.75455794349E+03  0.68534703314E+03 0.  0.
        1    1    3    3  502    0  0.15028095456E+03  0.29037925680E+03 -0.27077109347E+03  0.42452498533E+03  0.50400001928E-02 0. -1.
       -1    1    3    3    0  502 -0.15028095456E+03 -0.29037925680E+03 -0.44914088727E+02  0.33003295816E+03  0.50400001928E-02 0.  1.
</event>
<event>
 5   0  0.2758681E-02  0.7226488E+03  0.7818609E-02  0.9679265E-01
        1   -1    0    0  501    0  0.00000000000E+00  0.00000000000E+00  0.28211773336E+03  0.28211773340E+03  0.50400001928E-02 0. -1.
       -1   -1    0    0    0  501  0.00000000000E+00  0.00000000000E+00 -0.46276889066E+03  0.46276889069E+03  0.50400001928E-02 0.  1.
    10030    2    1    2    0    0  0.00000000000E+00  0.00000000000E+00 -0.18065115730E+03  0.74488662409E+03  0.72264876816E+03 0.  0.
        3    1    3    3  502    0  0.39898123884E+02  0.35235105289E+03 -0.18821034718E+02  0.35510190975E+03  0.10100000352E+00 0.  1.
       -3    1    3    3    0  502 -0.39898123884E+02 -0.35235105289E+03 -0.16183012259E+03  0.38978471434E+03  0.10100000352E+00 0. -1.
</event>
<event>
 5   0  0.4503289E-02  0.6908659E+03  0.7818609E-02  0.9732982E-01
       -2   -1    0    0    0  501  0.00000000000E+00  0.00000000000E+00  0.51031840703E+02  0.51031840766E+02  0.25500000920E-02 0.  1.
        2   -1    0    0  501    0  0.00000000000E+00  0.00000000000E+00 -0.23382246458E+04  0.23382246458E+04  0.25500000920E-02 0. -1.
    10030    2    1    2    0    0  0.00000000000E+00  0.00000000000E+00 -0.22871928051E+04  0.23892564866E+04  0.69086585595E+03 0.  0.
        2    1    3    3  502    0 -0.18102116954E+03 -0.80081786836E+02 -0.16455841655E+03  0.25741256549E+03  0.25500000920E-02 0.  1.
       -2    1    3    3    0  502  0.18102116954E+03  0.80081786836E+02 -0.21226343886E+04  0.21318439211E+04  0.25500000920E-02 0. -1.
</event>
<event>
 5   0  0.4299912E-02  0.6983289E+03  0.7818609E-02  0.9720094E-01
        2   -1    0    0  501    0  0.00000000000E+00  0.00000000000E+00  0.11431554561E+04  0.11431554561E+04  0.25500000920E-02 0.  1.
       -2   -1    0    0    0  501  0.00000000000E+00  0.00000000000E+00 -0.10664848494E+03  0.10664848497E+03  0.25500000920E-02 0. -1.
    10030    2    1    2    0    0  0.00000000000E+00  0.00000000000E+00  0.10365069712E+04  0.12498039411E+04  0.69832885511E+03 0.  0.
        3    1    3    3  502    0 -0.91957462570E+02  0.83715379454E+02 -0.65672071951E+02  0.14063168532E+03  0.10100000352E+00 0. -1.
       -3    1    3    3    0  502  0.91957462570E+02 -0.83715379454E+02  0.11021790431E+04  0.11091722558E+04  0.10100000352E+00 0.  1.
</event>
<event>
 5   0  0.1784625E-02  0.7003390E+03  0.7818609E-02  0.9716653E-01
        3   -1    0    0  501    0  0.00000000000E+00  0.00000000000E+00  0.96526644216E+03  0.96526644744E+03  0.10100000352E+00 0.  1.
       -3   -1    0    0    0  501  0.00000000000E+00  0.00000000000E+00 -0.12703089502E+03  0.12703093518E+03  0.10100000352E+00 0. -1.
    10030    2    1    2    0    0  0.00000000000E+00  0.00000000000E+00  0.83823554713E+03  0.10922973826E+04  0.70033901762E+03 0.  0.
        2    1    3    3  502    0 -0.28055759550E+02  0.15416213304E+03 -0.69299377866E+02  0.17133444688E+03  0.25500000920E-02 0. -1.
       -2    1    3    3    0  502  0.28055759550E+02 -0.15416213304E+03  0.90753492500E+03  0.92096293574E+03  0.25500000920E-02 0.  1.
</event>
<event>
 5   0  0.2777999E-02  0.7076258E+03  0.7818609E-02  0.9704279E-01
        1   -1    0    0  501    0  0.00000000000E+00  0.00000000000E+00  0.54599215540E+03  0.54599215542E+03  0.50400001928E-02 0.  1.
       -1   -1    0    0    0  501  0.00000000000E+00  0.00000000000E+00 -0.22927724169E+03  0.22927724175E+03  0.50400001928E-02 0. -1.
    10030    2    1    2    0    0  0.00000000000E+00  0.00000000000E+00  0.31671491371E+03  0.77526939717E+03  0.70762582035E+03 0.  0.
        5    1    3    3  502    0 -0.81598595752E+02  0.33663227789E+03  0.23722384969E+03  0.41985338656E+03  0.46999998093E+01 0.  1.
       -5    1    3    3    0  502  0.81598595752E+02 -0.33663227789E+03  0.79491064019E+02  0.35541601061E+03  0.46999998093E+01 0. -1.
</event>
<event>
 5   0  0.4365492E-02  0.6814193E+03  0.7818609E-02  0.9749546E-01
       -2   -1    0    0    0  501  0.00000000000E+00  0.00000000000E+00  0.66136702383E+02  0.66136702432E+02  0.25500000920E-02 0. -1.
        2   -1    0    0  501    0  0.00000000000E+00  0.00000000000E+00 -0.17551989848E+04  0.17551989848E+04  0.25500000920E-02 0.  1.
    10030    2    1    2    0    0  0.00000000000E+00  0.00000000000E+00 -0.16890622824E+04  0.18213356873E+04  0.68141932150E+03 0.  0.
        4    1    3    3  502    0  0.22419944340E+03 -0.25628138322E+03 -0.81336946643E+03  0.88176926666E+03  0.12699999809E+01 0.  1.
       -4    1    3    3    0  502 -0.22419944340E+03  0.25628138322E+03 -0.87569281601E+03  0.93956642060E+03  0.12699999809E+01 0. -1.
</event>
<event>
 5   0  0.4365492E-02  0.7031617E+03  0.7818609E-02  0.9711841E-01
        2   -1    0    0  501    0  0.00000000000E+00  0.00000000000E+00  0.29349554646E+03  0.29349554647E+03  0.25500000920E-02 0. -1.
       -2   -1    0    0    0  501  0.00000000000E+00  0.00000000000E+00 -0.42116172201E+03  0.42116172202E+03  0.25500000920E-02 0.  1.
    10030    2    1    2    0    0  0.00000000000E+00  0.00000000000E+00 -0.12766617555E+03  0.71465726849E+03  0.70316168768E+03 0.  0.
        4    1    3    3  502    0  0.56760340657E+02  0.11828696212E+03 -0.39534646020E+03  0.41655009083E+03  0.12699999809E+01 0.  1.
       -4    1    3    3    0  502 -0.56760340657E+02 -0.11828696212E+03  0.26768028465E+03  0.29810717765E+03  0.12699999809E+01 0. -1.
</event>
<event>
 5   0  0.4503289E-02  0.7004628E+03  0.7818609E-02  0.9716441E-01
        2   -1    0    0  501    0  0.00000000000E+00  0.00000000000E+00  0.16233965923E+03  0.16233965925E+03  0.25500000920E-02 0.  1.
       -2   -1    0    0    0  501  0.00000000000E+00  0.00000000000E+00 -0.75558879737E+03  0.75558879738E+03  0.25500000920E-02 0. -1.
    10030    2    1    2    0    0  0.00000000000E+00  0.00000000000E+00 -0.59324913814E+03  0.91792845663E+03  0.70046278387E+03 0.  0.
        2    1    3    3  502    0  0.23380261236E+03 -0.25799033363E+03 -0.24690726264E+03  0.42683236773E+03  0.25500000920E-02 0. -1.
       -2    1    3    3    0  502 -0.23380261236E+03  0.25799033363E+03 -0.34634187551E+03  0.49109608890E+03  0.25500000920E-02 0.  1.
</event>
<event>
 5   0  0.2758681E-02  0.7077667E+03  0.7818609E-02  0.9704041E-01
       -1   -1    0    0    0  501  0.00000000000E+00  0.00000000000E+00  0.50294576356E+03  0.50294576358E+03  0.50400001928E-02 0. -1.
        1   -1    0    0  501    0  0.00000000000E+00  0.00000000000E+00 -0.24899989071E+03  0.24899989076E+03  0.50400001928E-02 0.  1.
    10030    2    1    2    0    0  0.00000000000E+00  0.00000000000E+00  0.25394587284E+03  0.75194565435E+03  0.70776674177E+03 0.  0.
        3    1    3    3  502    0  0.68369202941E+02 -0.34699007784E+03  0.11366220857E+03  0.37147754964E+03  0.10100000352E+00 0.  1.
       -3    1    3    3    0  502 -0.68369202941E+02  0.34699007784E+03  0.14028366427E+03  0.38046810470E+03  0.10100000352E+00 0. -1.
</event>
<event>
 5   0  0.4299912E-02  0.6249545E+03  0.7818609E-02  0.9854944E-01
       -2   -1    0    0    0  501  0.00000000000E+00  0.00000000000E+00  0.11354219701E+03  0.11354219704E+03  0.25500000920E-02 0.  1.
        2   -1    0    0  501    0  0.00000000000E+00  0.00000000000E+00 -0.85996255200E+03  0.85996255200E+03  0.25500000920E-02 0. -1.
    10030    2    1    2    0    0  0.00000000000E+00  0.00000000000E+00 -0.74642035499E+03  0.97350474904E+03  0.62495451839E+03 0.  0.
        3    1    3    3  502    0 -0.65551376152E+02  0.73708253583E+02  0.88653790716E+02  0.13262501412E+03  0.10100000352E+00 0.  1.
       -3    1    3    3    0  502  0.65551376152E+02 -0.73708253583E+02 -0.83507414571E+03  0.84087973492E+03  0.10100000352E+00 0. -1.
</event>
<event>
 5   0  0.2777999E-02  0.7040466E+03  0.7818609E-02  0.9710337E-01
        1   -1    0    0  501    0  0.00000000000E+00  0.00000000000E+00  0.29437753135E+03  0.29437753140E+03  0.50400001928E-02 0. -1.
       -1   -1    0    0    0  501  0.00000000000E+00  0.00000000000E+00 -0.42095744104E+03  0.42095744107E+03  0.50400001928E-02 0.  1.
    10030    2    1    2    0    0  0.00000000000E+00  0.00000000000E+00 -0.12657990969E+03  0.71533497247E+03  0.70404662438E+03 0.  0.
        5    1    3    3  502    0  0.18857825068E+03 -0.18404110079E+03  0.17383023904E+03  0.31570860839E+03  0.46999998093E+01 0.  1.
       -5    1    3    3    0  502 -0.18857825068E+03  0.18404110079E+03 -0.30041014873E+03  0.39962636408E+03  0.46999998093E+01 0. -1.
</event>
<event>
 5   0  0.2758681E-02  0.5736177E+03  0.7818609E-02  0.9961705E-01
       -1   -1    0    0    0  501  0.00000000000E+00  0.00000000000E+00  0.13741649323E+03  0.13741649332E+03  0.50400001928E-02 0. -1.
        1   -1    0    0  501    0  0.00000000000E+00  0.00000000000E+00 -0.59861309965E+03  0.59861309967E+03  0.50400001928E-02 0.  1.
    10030    2    1    2    0    0  0.00000000000E+00  0.00000000000E+00 -0.46119660642E+03  0.73602959299E+03  0.57361768800E+03 0.  0.
        3    1    3    3  502    0  0.40833165954E-02 -0.40534394668E+02  0.13372259131E+03  0.13973109459E+03  0.10100000352E+00 0. -1.
       -3    1    3    3    0  502 -0.40833165954E-02  0.40534394668E+02 -0.59491919773E+03  0.59629849840E+03  0.10100000352E+00 0.  1.
</event>
<event>
 5   0  0.2777999E-02  0.7014180E+03  0.7818609E-02  0.9714810E-01
        1   -1    0    0  501    0  0.00000000000E+00  0.00000000000E+00  0.16117747243E+04  0.16117747244E+04  0.50400001928E-02 0. -1.
       -1   -1    0    0    0  501  0.00000000000E+00  0.00000000000E+00 -0.76311411053E+02  0.76311411220E+02  0.50400001928E-02 0.  1.
    10030    2    1    2    0    0  0.00000000000E+00  0.00000000000E+00  0.15354633133E+04  0.16880861356E+04  0.70141800280E+03 0.  0.
        5    1    3    3  502    0  0.34303398721E+03  0.64217109493E+02  0.68511006316E+03  0.76889143719E+03  0.46999998093E+01 0.  1.
       -5    1    3    3    0  502 -0.34303398721E+03 -0.64217109493E+02  0.85035325013E+03  0.91919469838E+03  0.46999998093E+01 0. -1.
</event>
<event>
 5   0  0.4365492E-02  0.7028313E+03  0.7818609E-02  0.9712402E-01
        2   -1    0    0  501    0  0.00000000000E+00  0.00000000000E+00  0.47147563149E+03  0.47147563150E+03  0.25500000920E-02 0.  1.
       -2   -1    0    0    0  501  0.00000000000E+00  0.00000000000E+00 -0.26192865016E+03  0.26192865017E+03  0.25500000920E-02 0. -1.
    10030    2    1    2    0    0  0.00000000000E+00  0.00000000000E+00  0.20954698133E+03  0.73340428167E+03  0.70283134747E+03 0.  0.
        4    1    3    3  502    0  0.17488152851E+03  0.74253895317E+02  0.41325813857E+03  0.45484183182E+03  0.12699999809E+01 0.  1.
       -4    1    3    3    0  502 -0.17488152851E+03 -0.74253895317E+02 -0.20371115723E+03  0.27856244985E+03  0.12699999809E+01 0. -1.
</event>
<event>
 5   0  0.2750139E-02  0.7037412E+03  0.7818609E-02  0.9710856E-01
        1   -1    0    0  501    0  0.00000000000E+00  0.00000000000E+00  0.13125398594E+03  0.13125398603E+03  0.50400001928E-02 0. -1.
       -1   -1    0    0    0  501  0.00000000000E+00  0.00000000000E+00 -0.94330795310E+03  0.94330795311E+03  0.50400001928E-02 0.  1.
    10030    2    1    2    0    0  0.00000000000E+00  0.00000000000E+00 -0.81205396716E+03  0.10745619391E+04  0.70374122764E+03 0.  0.
        2    1    3    3  502    0  0.32621978084E+02 -0.28056806334E+03 -0.85625684526E+02  0.29515146870E+03  0.25500000920E-02 0. -1.
       -2    1    3    3    0  502 -0.32621978084E+02  0.28056806334E+03 -0.72642828263E+03  0.77941047044E+03  0.25500000920E-02 0.  1.
</event>
<event>
 5   0  0.2758681E-02  0.7012039E+03  0.7818609E-02  0.9715176E-01
        1   -1    0    0  501    0  0.00000000000E+00  0.00000000000E+00  0.22018589799E+03  0.22018589804E+03  0.50400001928E-02 0. -1.
       -1   -1    0    0    0  501  0.00000000000E+00  0.00000000000E+00 -0.55826344814E+03  0.55826344817E+03  0.50400001928E-02 0.  1.
    10030    2    1    2    0    0  0.00000000000E+00  0.00000000000E+00 -0.33807755016E+03  0.77844934621E+03  0.70120393232E+03 0.  0.
        3    1    3    3  502    0 -0.46635157178E+02 -0.84392097860E+02  0.20517752823E+03  0.22670397517E+03  0.10100000352E+00 0. -1.
       -3    1    3    3    0  502  0.46635157178E+02  0.84392097860E+02 -0.54325507839E+03  0.55174537104E+03  0.10100000352E+00 0.  1.
</event>
<event>
 5   0  0.4503289E-02  0.6671637E+03  0.7818609E-02  0.9775095E-01
       -2   -1    0    0    0  501  0.00000000000E+00  0.00000000000E+00  0.68335844437E+02  0.68335844485E+02  0.25500000920E-02 0. -1.
        2   -1    0    0  501    0  0.00000000000E+00  0.00000000000E+00 -0.16283817442E+04  0.16283817442E+04  0.25500000920E-02 0.  1.
    10030    2    1    2    0    0  0.00000000000E+00  0.00000000000E+00 -0.15600458998E+04  0.16967175887E+04  0.66716367286E+03 0.  0.
        2    1    3    3  502    0 -0.12325503385E+03  0.12857603619E+03 -0.62714230309E+02  0.18882975174E+03  0.25500000920E-02 0. -1.
       -2    1    3    3    0  502  0.12325503385E+03 -0.12857603619E+03 -0.14973316694E+04  0.15078878369E+04  0.25500000920E-02 0.  1.
</event>
<event>
 5   0  0.2758681E-02  0.6881122E+03  0.7818609E-02  0.9737781E-01
        1   -1    0    0  501    0  0.00000000000E+00  0.00000000000E+00  0.53883353587E+03  0.53883353590E+03  0.50400001928E-02 0. -1.
       -1   -1    0    0    0  501  0.00000000000E+00  0.00000000000E+00 -0.21968679724E+03  0.21968679730E+03  0.50400001928E-02 0.  1.
    10030    2    1    2    0    0  0.00000000000E+00  0.00000000000E+00  0.31914673863E+03  0.75852033319E+03  0.68811224018E+03 0.  0.
        3    1    3    3  502    0 -0.32174450933E+03  0.93491588183E+02  0.24576890416E+03  0.41552685929E+03  0.10100000352E+00 0.  1.
       -3    1    3    3    0  502  0.32174450933E+03 -0.93491588183E+02  0.73377834475E+02  0.34299347390E+03  0.10100000352E+00 0. -1.
</event>
<event>
 5   0  0.4365492E-02  0.7182740E+03  0.7818609E-02  0.9686482E-01
       -2   -1    0    0    0  501  0.00000000000E+00  0.00000000000E+00  0.19684213177E+03  0.19684213179E+03  0.25500000920E-02 0. -1.
        2   -1    0    0  501    0  0.00000000000E+00  0.00000000000E+00 -0.65524281691E+03  0.65524281691E+03  0.25500000920E-02 0.  1.
    10030    2    1    2    0    0  0.00000000000E+00  0.00000000000E+00 -0.45840068513E+03  0.85208494870E+03  0.71827402269E+03 0.  0.
        4    1    3    3  502    0  0.18729556560E+03  0.23039252602E+02 -0.59168550666E+03  0.62105055168E+03  0.12699999809E+01 0.  1.
       -4    1    3    3    0  502 -0.18729556560E+03 -0.23039252602E+02  0.13328482153E+03  0.23103439702E+03  0.12699999809E+01 0. -1.
</event>
<event>
 5   0  0.4526837E-02  0.6965268E+03  0.7818609E-02  0.9723190E-01
       -2   -1    0    0    0  501  0.00000000000E+00  0.00000000000E+00  0.13130519117E+03  0.13130519120E+03  0.25500000920E-02 0. -1.
        2   -1    0    0  501    0  0.00000000000E+00  0.00000000000E+00 -0.92370610666E+03  0.92370610667E+03  0.25500000920E-02 0.  1.
    10030    2    1    2    0    0  0.00000000000E+00  0.00000000000E+00 -0.79240091549E+03  0.10550112979E+04  0.69652683203E+03 0.  0.
        1    1    3    3  502    0 -0.20854157208E+03  0.22742396251E+03 -0.15160911273E+03  0.34379727908E+03  0.50400001928E-02 0. -1.
       -1    1    3    3    0  502  0.20854157208E+03 -0.22742396251E+03 -0.64079180276E+03  0.71121401879E+03  0.50400001928E-02 0.  1.
</event>
<event>
 5   0  0.4526837E-02  0.6856758E+03  0.7818609E-02  0.9742047E-01
       -2   -1    0    0    0  501  0.00000000000E+00  0.00000000000E+00  0.23759773299E+03  0.23759773300E+03  0.25500000920E-02 0.  1.
        2   -1    0    0  501    0  0.00000000000E+00  0.00000000000E+00 -0.49469248870E+03  0.49469248870E+03  0.25500000920E-02 0. -1.
    10030    2    1    2    0    0  0.00000000000E+00  0.00000000000E+00 -0.25709475571E+03  0.73229022171E+03  0.68567576550E+03 0.  0.
        1    1    3    3  502    0  0.30327636693E+03 -0.14050434989E+03 -0.47073578254E+02  0.33754103288E+03  0.50400001928E-02 0.  1.
       -1    1    3    3    0  502 -0.30327636693E+03  0.14050434989E+03 -0.21002117745E+03  0.39474918883E+03  0.50400001928E-02 0. -1.
</event>
<event>
 5   0  0.4299912E-02  0.6969034E+03  0.7818609E-02  0.9722543E-01
       -2   -1    0    0    0  501  0.00000000000E+00  0.00000000000E+00  0.16079155770E+03  0.16079155772E+03  0.25500000920E-02 0.  1.
        2   -1    0    0  501    0  0.00000000000E+00  0.00000000000E+00 -0.75513032014E+03  0.75513032014E+03  0.25500000920E-02 0. -1.
    10030    2    1    2    0    0  0.00000000000E+00  0.00000000000E+00 -0.59433876244E+03  0.91592187786E+03  0.69690338054E+03 0.  0.
        3    1    3    3  502    0  0.15915965755E+03  0.17523973581E+02 -0.70391469828E+03  0.72189666774E+03  0.10100000352E+00 0. -1.
       -3    1    3    3    0  502 -0.15915965755E+03 -0.17523973581E+02  0.10957593585E+03  0.19402521011E+03  0.10100000352E+00 0.  1.
</event>
<event>
 5   0  0.4420645E-02  0.7132385E+03  0.7818609E-02  0.9694857E-01
       -2   -1    0    0    0  501  0.00000000000E+00  0.00000000000E+00  0.12689146766E+03  0.12689146768E+03  0.25500000920E-02 0.  1.
        2   -1    0    0  501    0  0.00000000000E+00  0.00000000000E+00 -0.10022526229E+04  0.10022526229E+04  0.25500000920E-02 0. -1.
    10030    2    1    2    0    0  0.00000000000E+00  0.00000000000E+00 -0.87536115527E+03  0.11291440906E+04  0.71323854720E+03 0.  0.
        5    1    3    3  502    0 -0.45492122161E+02 -0.10389364541E+03  0.97526790055E+02  0.14965623112E+03  0.46999998093E+01 0.  1.
       -5    1    3    3    0  502  0.45492122161E+02  0.10389364541E+03 -0.97288794532E+03  0.97948785949E+03  0.46999998093E+01 0. -1.
</event>
<event>
 5   0  0.2758681E-02  0.7174394E+03  0.7818609E-02  0.9687865E-01
        1   -1    0    0  501    0  0.00000000000E+00  0.00000000000E+00  0.22445440555E+03  0.22445440560E+03  0.50400001928E-02 0. -1.
       -1   -1    0    0    0  501  0.00000000000E+00  0.00000000000E+00 -0.57330045292E+03  0.57330045294E+03  0.50400001928E-02 0.  1.
    10030    2    1    2    0    0  0.00000000000E+00  0.00000000000E+00 -0.34884604737E+03  0.79775485854E+03  0.71743936995E+03 0.  0.
        3    1    3    3  502    0  0.29240906390E+03  0.13223130544E+03  0.38066558890E+01  0.32094030538E+03  0.10100000352E+00 0. -1.
       -3    1    3    3    0  502 -0.29240906390E+03 -0.13223130544E+03 -0.35265270326E+03  0.47681455316E+03  0.10100000352E+00 0.  1.
</event>
<event>
 5   0  0.2684924E-02  0.6909488E+03  0.7818609E-02  0.9732837E-01
        1   -1    0    0  501    0  0.00000000000E+00  0.00000000000E+00  0.34463017455E+03  0.34463017458E+03  0.50400001928E-02 0.  1.
       -1   -1    0    0    0  501  0.00000000000E+00  0.00000000000E+00 -0.34632069081E+03  0.34632069084E+03  0.50400001928E-02 0. -1.
    10030    2    1    2    0    0  0.00000000000E+00  0.00000000000E+00 -0.16905162590E+01  0.69095086543E+03  0.69094879737E+03 0.  0.
        4    1    3    3  502    0 -0.64214324219E+01 -0.19976706876E+03  0.28094066417E+03  0.34478600065E+03  0.12699999809E+01 0.  1.
       -4    1    3    3    0  502  0.64214324219E+01  0.19976706876E+03 -0.28263118043E+03  0.34616486478E+03  0.12699999809E+01 0. -1.
</event>
<event>
 5   0  0.4365492E-02  0.6851004E+03  0.7818609E-02  0.9743057E-01
       -2   -1    0    0    0  501  0.00000000000E+00  0.00000000000E+00  0.39980796586E+03  0.39980796587E+03  0.25500000920E-02 0. -1.
        2   -1    0    0  501    0  0.00000000000E+00  0.00000000000E+00 -0.29349245939E+03  0.29349245940E+03  0.25500000920E-02 0.  1.
    10030    2    1    2    0    0  0.00000000000E+00  0.00000000000E+00  0.10631550647E+03  0.69330042527E+03  0.68510035233E+03 0.  0.
        4    1    3    3  502    0 -0.27289202847E+03  0.34158251820E+02  0.25981306682E+03  0.37834017492E+03  0.12699999809E+01 0. -1.
       -4    1    3    3    0  502  0.27289202847E+03 -0.34158251820E+02 -0.15349756035E+03  0.31496025035E+03  0.12699999809E+01 0.  1.
</event>
<event>
 5   0  0.2758681E-02  0.6957404E+03  0.7818609E-02  0.9724545E-01
       -1   -1    0    0    0  501  0.00000000000E+00  0.00000000000E+00  0.14321128276E+03  0.14321128285E+03  0.50400001928E-02 0. -1.
        1   -1    0    0  501    0  0.00000000000E+00  0.00000000000E+00 -0.84500098201E+03  0.84500098202E+03  0.50400001928E-02 0.  1.
    10030    2    1    2    0    0  0.00000000000E+00  0.00000000000E+00 -0.70178969925E+03  0.98821226487E+03  0.69574039589E+03 0.  0.
        3    1    3    3  502    0  0.83019834409E+02 -0.16727481079E+03 -0.76777069985E+03  0.79015505629E+03  0.10100000352E+00 0.  1.
       -3    1    3    3    0  502 -0.83019834409E+02  0.16727481079E+03  0.65981000605E+02  0.19805720858E+03  0.10100000352E+00 0. -1.
</event>
<event>
 5   0  0.2750139E-02  0.6956798E+03  0.7818609E-02  0.9724649E-01
       -1   -1    0    0    0  501  0.00000000000E+00  0.00000000000E+00  0.11253900505E+03  0.11253900516E+03  0.50400001928E-02 0. -1.
        1   -1    0    0  501    0  0.00000000000E+00  0.00000000000E+00 -0.10751170225E+04  0.10751170225E+04  0.50400001928E-02 0.  1.
    10030    2    1    2    0    0  0.00000000000E+00  0.00000000000E+00 -0.96257801742E+03  0.11876560276E+04  0.69567981167E+03 0.  0.
        2    1    3    3  502    0 -0.20531508258E+03 -0.26681296983E+03 -0.63059871396E+03  0.71484136846E+03  0.25500000920E-02 0.  1.
       -2    1    3    3    0  502  0.20531508258E+03  0.26681296983E+03 -0.33197930345E+03  0.47281465918E+03  0.25500000920E-02 0. -1.
</event>
<event>
 5   0  0.2758681E-02  0.7017975E+03  0.7818609E-02  0.9714163E-01
       -1   -1    0    0    0  501  0.00000000000E+00  0.00000000000E+00  0.75045611115E+03  0.75045611117E+03  0.50400001928E-02 0. -1.
        1   -1    0    0  501    0  0.00000000000E+00  0.00000000000E+00 -0.16407344767E+03  0.16407344774E+03  0.50400001928E-02 0.  1.
    10030    2    1    2    0    0  0.00000000000E+00  0.00000000000E+00  0.58638266348E+03  0.91452955891E+03  0.70179746799E+03 0.  0.
        3    1    3    3  502    0 -0.12038983475E+03 -0.20097965713E+03 -0.47229558449E+02  0.23899200046E+03  0.10100000352E+00 0.  1.
       -3    1    3    3    0  502  0.12038983475E+03  0.20097965713E+03  0.63361222193E+03  0.67553755845E+03  0.10100000352E+00 0. -1.
</event>
<event>
 5   0  0.2751729E-02  0.6983813E+03  0.7818609E-02  0.9720004E-01
        1   -1    0    0  501    0  0.00000000000E+00  0.00000000000E+00  0.22254190302E+03  0.22254190307E+03  0.50400001928E-02 0. -1.
       -1   -1    0    0    0  501  0.00000000000E+00  0.00000000000E+00 -0.54791525386E+03  0.54791525388E+03  0.50400001928E-02 0.  1.
    10030    2    1    2    0    0  0.00000000000E+00  0.00000000000E+00 -0.32537335084E+03  0.77045715695E+03  0.69838128072E+03 0.  0.
        1    1    3    3  502    0  0.11038963194E+03 -0.19129265781E+02  0.20217599841E+03  0.23114267025E+03  0.50400001928E-02 0. -1.
       -1    1    3    3    0  502 -0.11038963194E+03  0.19129265781E+02 -0.52754934925E+03  0.53931448671E+03  0.50400001928E-02 0.  1.
</event>
<event>
 5   0  0.2777999E-02  0.7062388E+03  0.7818609E-02  0.9706622E-01
       -1   -1    0    0    0  501  0.00000000000E+00  0.00000000000E+00  0.21136974065E+03  0.21136974071E+03  0.50400001928E-02 0.  1.
        1   -1    0    0  501    0  0.00000000000E+00  0.00000000000E+00 -0.58992986484E+03  0.58992986487E+03  0.50400001928E-02 0. -1.
    10030    2    1    2    0    0  0.00000000000E+00  0.00000000000E+00 -0.37856012419E+03  0.80129960558E+03  0.70623883373E+03 0.  0.
        5    1    3    3  502    0  0.21777950955E+03  0.75229704761E+02  0.11428426686E+03  0.25723609177E+03  0.46999998093E+01 0.  1.
       -5    1    3    3    0  502 -0.21777950955E+03 -0.75229704761E+02 -0.49284439106E+03  0.54406351380E+03  0.46999998093E+01 0. -1.
</event>
<event>
 5   0  0.1784625E-02  0.7726361E+03  0.7818609E-02  0.9600492E-01
        4   -1    0    0  501    0  0.00000000000E+00  0.00000000000E+00  0.94930510282E+03  0.94930595233E+03  0.12699999809E+01 0.  1.
       -4   -1    0    0    0  501  0.00000000000E+00  0.00000000000E+00 -0.15720798869E+03  0.15721311844E+03  0.12699999809E+01 0. -1.
    10030    2    1    2    0    0  0.00000000000E+00  0.00000000000E+00  0.79209711412E+03  0.11065190708E+04  0.77263614708E+03 0.  0.
        5    1    3    3  502    0  0.18467278731E+03  0.33034427533E+03  0.28522515003E+03  0.47392705644E+03  0.46999998093E+01 0.  1.
       -5    1    3    3    0  502 -0.18467278731E+03 -0.33034427533E+03  0.50687196409E+03  0.63259201433E+03  0.46999998093E+01 0. -1.
</event>
<event>
 5   0  0.1784625E-02  0.7007019E+03  0.7818609E-02  0.9716033E-01
       -3   -1    0    0    0  501  0.00000000000E+00  0.00000000000E+00  0.45272141301E+03  0.45272142428E+03  0.10100000352E+00 0.  1.
        3   -1    0    0  501    0  0.00000000000E+00  0.00000000000E+00 -0.27112871713E+03  0.27112873594E+03  0.10100000352E+00 0. -1.
    10030    2    1    2    0    0  0.00000000000E+00  0.00000000000E+00  0.18159269588E+03  0.72385016022E+03  0.70070189614E+03 0.  0.
        2    1    3    3  502    0 -0.22232433421E+03 -0.20069708022E+02  0.36974449242E+03  0.43190495765E+03  0.25500000920E-02 0.  1.
       -2    1    3    3    0  502  0.22232433421E+03  0.20069708022E+02 -0.18815179654E+03  0.29194520257E+03  0.25500000920E-02 0. -1.
</event>
<event>
 5   0  0.1784625E-02  0.6902772E+03  0.7818609E-02  0.9734005E-01
        4   -1    0    0  501    0  0.00000000000E+00  0.00000000000E+00  0.13900338434E+03  0.13900918587E+03  0.12699999809E+01 0.  1.
       -4   -1    0    0    0  501  0.00000000000E+00  0.00000000000E+00 -0.85693807057E+03  0.85693901165E+03  0.12699999809E+01 0. -1.
    10030    2    1    2    0    0  0.00000000000E+00  0.00000000000E+00 -0.71793468623E+03  0.99594819752E+03  0.69027718958E+03 0.  0.
        4    1    3    3  502    0 -0.12630172014E+03 -0.61493893470E+02 -0.81382399650E+03  0.82585999638E+03  0.12699999809E+01 0. -1.
       -4    1    3    3    0  502  0.12630172014E+03  0.61493893470E+02  0.95889310268E+02  0.17008820114E+03  0.12699999809E+01 0.  1.
</event>
<event>
 5   0  0.4420645E-02  0.7016928E+03  0.7818609E-02  0.9714342E-01
       -2   -1    0    0    0  501  0.00000000000E+00  0.00000000000E+00  0.32916678085E+03  0.32916678086E+03  0.25500000920E-02 0. -1.
        2   -1    0    0  501    0  0.00000000000E+00  0.00000000000E+00 -0.37395392664E+03  0.37395392665E+03  0.25500000920E-02 0.  1.
    10030    2    1    2    0    0  0.00000000000E+00  0.00000000000E+00 -0.44787145793E+02  0.70312070751E+03  0.70169283942E+03 0.  0.
        5    1    3    3  502    0 -0.11133055683E+03  0.33157767498E+03  0.47331383240E+01  0.34983244565E+03  0.46999998093E+01 0. -1.
       -5    1    3    3    0  502  0.11133055683E+03 -0.33157767498E+03 -0.49520284117E+02  0.35328826186E+03  0.46999998093E+01 0.  1.
</event>
<event>
 5   0  0.2751729E-02  0.6992415E+03  0.7818609E-02  0.9718530E-01
       -1   -1    0    0    0  501  0.00000000000E+00  0.00000000000E+00  0.26642813149E+03  0.26642813154E+03  0.50400001928E-02 0.  1.
        1   -1    0    0  501    0  0.00000000000E+00  0.00000000000E+00 -0.45879040820E+03  0.45879040823E+03  0.50400001928E-02 0. -1.
    10030    2    1    2    0    0  0.00000000000E+00  0.00000000000E+00 -0.19236227671E+03  0.72521853976E+03  0.69924150686E+03 0.  0.
        1    1    3    3  502    0 -0.15450177877E+02  0.34105913893E+03 -0.17430979492E+03  0.38333268693E+03  0.50400001928E-02 0. -1.
       -1    1    3    3    0  502  0.15450177877E+02 -0.34105913893E+03 -0.18052481792E+02  0.34188585283E+03  0.50400001928E-02 0.  1.
</event>
<event>
 5   0  0.4420645E-02  0.6528175E+03  0.7818609E-02  0.9801507E-01
       -2   -1    0    0    0  501  0.00000000000E+00  0.00000000000E+00  0.18971748623E+03  0.18971748624E+03  0.25500000920E-02 0. -1.
        2   -1    0    0  501    0  0.00000000000E+00  0.00000000000E+00 -0.56158593200E+03  0.56158593201E+03  0.25500000920E-02 0.  1.
    10030    2    1    2    0    0  0.00000000000E+00  0.00000000000E+00 -0.37186844578E+03  0.75130341825E+03  0.65281749771E+03 0.  0.
        5    1    3    3  502    0  0.80503874735E+02  0.63608040635E+02 -0.54250438612E+03  0.55214124610E+03  0.46999998093E+01 0.  1.
       -5    1    3    3    0  502 -0.80503874735E+02 -0.63608040635E+02  0.17063594035E+03  0.19916217216E+03  0.46999998093E+01 0. -1.
</event>
<event>
 5   0  0.2758681E-02  0.6983157E+03  0.7818609E-02  0.9720117E-01
        1   -1    0    0  501    0  0.00000000000E+00  0.00000000000E+00  0.17605512182E+04  0.17605512183E+04  0.50400001928E-02 0.  1.
       -1   -1    0    0    0  501  0.00000000000E+00  0.00000000000E+00 -0.69246038879E+02  0.69246039063E+02  0.50400001928E-02 0. -1.
    10030    2    1    2    0    0  0.00000000000E+00  0.00000000000E+00  0.16913051794E+04  0.18297972573E+04  0.69831568300E+03 0.  0.
        3    1    3    3  502    0 -0.29978715730E+03  0.31967262043E+02  0.38417494276E+03  0.48834889410E+03  0.10100000352E+00 0. -1.
       -3    1    3    3    0  502  0.29978715730E+03 -0.31967262043E+02  0.13071302366E+04  0.13414483632E+04  0.10100000352E+00 0.  1.
</event>
<event>
 5   0  0.4365492E-02  0.7010726E+03  0.7818609E-02  0.9715400E-01
        2   -1    0    0  501    0  0.00000000000E+00  0.00000000000E+00  0.67201199387E+03  0.67201199388E+03  0.25500000920E-02 0. -1.
       -2   -1    0    0    0  501  0.00000000000E+00  0.00000000000E+00 -0.18284747493E+03  0.18284747495E+03  0.25500000920E-02 0.  1.
    10030    2    1    2    0    0  0.00000000000E+00  0.00000000000E+00  0.48916451894E+03  0.85485946883E+03  0.70107259599E+03 0.  0.
        4    1    3    3  502    0 -0.12702850283E+03 -0.47076564232E+02  0.63879880008E+03  0.65300686314E+03  0.12699999809E+01 0. -1.
       -4    1    3    3    0  502  0.12702850283E+03  0.47076564232E+02 -0.14963428114E+03  0.20185260568E+03  0.12699999809E+01 0.  1.
</event>
<event>
 5   0  0.2684924E-02  0.7045840E+03  0.7818609E-02  0.9709425E-01
        1   -1    0    0  501    0  0.00000000000E+00  0.00000000000E+00  0.72975617601E+03  0.72975617603E+03  0.50400001928E-02 0.  1.
       -1   -1    0    0    0  501  0.00000000000E+00  0.00000000000E+00 -0.17007004506E+03  0.17007004513E+03  0.50400001928E-02 0. -1.
    10030    2    1    2    0    0  0.00000000000E+00  0.00000000000E+00  0.55968613095E+03  0.89982622116E+03  0.70458403552E+03 0.  0.
        4    1    3    3  502    0 -0.51908375193E+02 -0.32471004861E+03  0.44126884405E+03  0.55031890819E+03  0.12699999809E+01 0.  1.
       -4    1    3    3    0  502  0.51908375193E+02  0.32471004861E+03  0.11841728690E+03  0.34950731297E+03  0.12699999809E+01 0. -1.
</event>
<event>
 5   0  0.4365492E-02  0.7057719E+03  0.7818609E-02  0.9707412E-01
        2   -1    0    0  501    0  0.00000000000E+00  0.00000000000E+00  0.81541990013E+03  0.81541990014E+03  0.25500000920E-02 0.  1.
       -2   -1    0    0    0  501  0.00000000000E+00  0.00000000000E+00 -0.15271700163E+03  0.15271700165E+03  0.25500000920E-02 0. -1.
    10030    2    1    2    0    0  0.00000000000E+00  0.00000000000E+00  0.66270289850E+03  0.96813690179E+03  0.70577186748E+03 0.  0.
        4    1    3    3  502    0 -0.69225693166E+02 -0.33365660659E+03  0.45713309551E+03  0.57016770132E+03  0.12699999809E+01 0.  1.
       -4    1    3    3    0  502  0.69225693166E+02  0.33365660659E+03  0.20556980299E+03  0.39796920047E+03  0.12699999809E+01 0. -1.
</event>
<event>
 5   0  0.4503289E-02  0.6980998E+03  0.7818609E-02  0.9720487E-01
        2   -1    0    0  501    0  0.00000000000E+00  0.00000000000E+00  0.37431535543E+03  0.37431535544E+03  0.25500000920E-02 0. -1.
       -2   -1    0    0    0  501  0.00000000000E+00  0.00000000000E+00 -0.32548978237E+03  0.32548978238E+03  0.25500000920E-02 0.  1.
    10030    2    1    2    0    0  0.00000000000E+00  0.00000000000E+00  0.48825573059E+02  0.69980513782E+03  0.69809977391E+03 0.  0.
        2    1    3    3  502    0  0.11807555613E+03 -0.32784243231E+03  0.40326966603E+01  0.34848064513E+03  0.25500000920E-02 0. -1.
       -2    1    3    3    0  502 -0.11807555613E+03  0.32784243231E+03  0.44792876399E+02  0.35132449269E+03  0.25500000920E-02 0.  1.
</event>
<event>
 5   0  0.2751729E-02  0.7053151E+03  0.7818609E-02  0.9708186E-01
       -1   -1    0    0    0  501  0.00000000000E+00  0.00000000000E+00  0.14770529927E+03  0.14770529936E+03  0.50400001928E-02 0. -1.
        1   -1    0    0  501    0  0.00000000000E+00  0.00000000000E+00 -0.84199646810E+03  0.84199646812E+03  0.50400001928E-02 0.  1.
    10030    2    1    2    0    0  0.00000000000E+00  0.00000000000E+00 -0.69429116883E+03  0.98970176748E+03  0.70531507955E+03 0.  0.
        1    1    3    3  502    0  0.17626168255E+03  0.30424103335E+02  0.79330768108E+02  0.19567109544E+03  0.50400001928E-02 0. -1.
       -1    1    3    3    0  502 -0.17626168255E+03 -0.30424103335E+02 -0.77362193694E+03  0.79403067203E+03  0.50400001928E-02 0.  1.
</event>
<event>
 5   0  0.2777999E-02  0.6898755E+03  0.7818609E-02  0.9734705E-01
       -1   -1    0    0    0  501  0.00000000000E+00  0.00000000000E+00  0.59709947856E+02  0.59709948069E+02  0.50400001928E-02 0. -1.
        1   -1    0    0  501    0  0.00000000000E+00  0.00000000000E+00 -0.19926672931E+04  0.19926672931E+04  0.50400001928E-02 0.  1.
    10030    2    1    2    0    0  0.00000000000E+00  0.00000000000E+00 -0.19329573452E+04  0.20523772412E+04  0.68987552614E+03 0.  0.
        5    1    3    3  502    0 -0.30755599571E+03  0.59835557752E+02 -0.53753219647E+03  0.62220088132E+03  0.46999998093E+01 0.  1.
       -5    1    3    3    0  502  0.30755599571E+03 -0.59835557752E+02 -0.13954251488E+04  0.14301763599E+04  0.46999998093E+01 0. -1.
</event>
<event>
 5   0  0.2751729E-02  0.6764409E+03  0.7818609E-02  0.9758392E-01
        1   -1    0    0  501    0  0.00000000000E+00  0.00000000000E+00  0.26877655194E+03  0.26877655199E+03  0.50400001928E-02 0.  1.
       -1   -1    0    0    0  501  0.00000000000E+00  0.00000000000E+00 -0.42560654759E+03  0.42560654762E+03  0.50400001928E-02 0. -1.
    10030    2    1    2    0    0  0.00000000000E+00  0.00000000000E+00 -0.15682999565E+03  0.69438309961E+03  0.67644086326E+03 0.  0.
        1    1    3    3  502    0  0.26202009014E+03  0.16186583196E+03 -0.22190088743E+03  0.37959857621E+03  0.50400001928E-02 0. -1.
       -1    1    3    3    0  502 -0.26202009014E+03 -0.16186583196E+03  0.65070891780E+02  0.31478452340E+03  0.50400001928E-02 0.  1.
</event>
<event>
 5   0  0.4420645E-02  0.7046530E+03  0.7818609E-02  0.9709308E-01
        2   -1    0    0  501    0  0.00000000000E+00  0.00000000000E+00  0.51430015632E+03  0.51430015632E+03  0.25500000920E-02 0. -1.
       -2   -1    0    0    0  501  0.00000000000E+00  0.00000000000E+00 -0.24136479239E+03  0.24136479240E+03  0.25500000920E-02 0.  1.
    10030    2    1    2    0    0  0.00000000000E+00  0.00000000000E+00  0.27293536393E+03  0.75566494872E+03  0.70465296554E+03 0.  0.
        5    1    3    3  502    0 -0.30936000517E+03 -0.15775762964E+03  0.20009935062E+03  0.40081532234E+03  0.46999998093E+01 0.  1.
       -5    1    3    3    0  502  0.30936000517E+03  0.15775762964E+03  0.72836013310E+02  0.35484962638E+03  0.46999998093E+01 0. -1.
</event>
<event>
 5   0  0.4299912E-02  0.6909158E+03  0.7818609E-02  0.9732895E-01
        2   -1    0    0  501    0  0.00000000000E+00  0.00000000000E+00  0.11683349242E+04  0.11683349242E+04  0.25500000920E-02 0.  1.
       -2   -1    0    0    0  501  0.00000000000E+00  0.00000000000E+00 -0.10214637502E+03  0.10214637505E+03  0.25500000920E-02 0. -1.
    10030    2    1    2    0    0  0.00000000000E+00  0.00000000000E+00  0.10661885491E+04  0.12704812992E+04  0.69091584822E+03 0.  0.
        3    1    3    3  502    0  0.84672691727E+02  0.94370476991E+02  0.11240046587E+04  0.11311329430E+04  0.10100000352E+00 0.  1.
       -3    1    3    3    0  502 -0.84672691727E+02 -0.94370476991E+02 -0.57816109595E+02  0.13934835622E+03  0.10100000352E+00 0. -1.
</event>
<event>
 5   0  0.4299912E-02  0.7026800E+03  0.7818609E-02  0.9712660E-01
        2   -1    0    0  501    0  0.00000000000E+00  0.00000000000E+00  0.71989604226E+03  0.71989604226E+03  0.25500000920E-02 0.  1.
       -2   -1    0    0    0  501  0.00000000000E+00  0.00000000000E+00 -0.17146892207E+03  0.17146892209E+03  0.25500000920E-02 0. -1.
    10030    2    1    2    0    0  0.00000000000E+00  0.00000000000E+00  0.54842712019E+03  0.89136496435E+03  0.70268000790E+03 0.  0.
        3    1    3    3  502    0 -0.15200520119E+02  0.44966817628E+02  0.71580990876E+03  0.71738198067E+03  0.10100000352E+00 0.  1.
       -3    1    3    3    0  502  0.15200520119E+02 -0.44966817628E+02 -0.16738278857E+03  0.17398298368E+03  0.10100000352E+00 0. -1.
</event>
<event>
 5   0  0.2750139E-02  0.7034848E+03  0.7818609E-02  0.9711291E-01
        1   -1    0    0  501    0  0.00000000000E+00  0.00000000000E+00  0.26670903676E+03  0.26670903681E+03  0.50400001928E-02 0. -1.
       -1   -1    0    0    0  501  0.00000000000E+00  0.00000000000E+00 -0.46388652805E+03  0.46388652808E+03  0.50400001928E-02 0.  1.
    10030    2    1    2    0    0  0.00000000000E+00  0.00000000000E+00 -0.19717749129E+03  0.73059556489E+03  0.70348483733E+03 0.  0.
        2    1    3    3  502    0 -0.16637812619E+03  0.30197942926E+02  0.22172756840E+03  0.27884890394E+03  0.25500000920E-02 0. -1.
       -2    1    3    3    0  502  0.16637812619E+03 -0.30197942926E+02 -0.41890505969E+03  0.45174666094E+03  0.25500000920E-02 0.  1.
</event>
<event>
 5   0  0.4365492E-02  0.6991315E+03  0.7818609E-02  0.9718719E-01
        2   -1    0    0  501    0  0.00000000000E+00  0.00000000000E+00  0.97325003857E+03  0.97325003857E+03  0.25500000920E-02 0. -1.
       -2   -1    0    0    0  501  0.00000000000E+00  0.00000000000E+00 -0.12555479703E+03  0.12555479706E+03  0.25500000920E-02 0.  1.
    10030    2    1    2    0    0  0.00000000000E+00  0.00000000000E+00  0.84769524154E+03  0.10988048356E+04  0.69913149284E+03 0.  0.
        4    1    3    3  502    0 -0.26282107731E+02  0.24022025607E+03  0.82082475520E+03  0.85565846706E+03  0.12699999809E+01 0. -1.
       -4    1    3    3    0  502  0.26282107731E+02 -0.24022025607E+03  0.26870486342E+02  0.24314636857E+03  0.12699999809E+01 0.  1.
</event>
<event>
 5   0  0.2751729E-02  0.6081940E+03  0.7818609E-02  0.9888551E-01
        1   -1    0    0  501    0  0.00000000000E+00  0.00000000000E+00  0.25525219031E+03  0.25525219036E+03  0.50400001928E-02 0. -1.
       -1   -1    0    0    0  501  0.00000000000E+00  0.00000000000E+00 -0.36228865725E+03  0.36228865729E+03  0.50400001928E-02 0.  1.
    10030    2    1    2    0    0  0.00000000000E+00  0.00000000000E+00 -0.10703646694E+03  0.61754084765E+03  0.60819396023E+03 0.  0.
        1    1    3    3  502    0  0.31809572593E+02  0.18592935746E+03  0.18867082827E+03  0.26679253427E+03  0.50400001928E-02 0. -1.
       -1    1    3    3    0  502 -0.31809572593E+02 -0.18592935746E+03 -0.29570729521E+03  0.35074831338E+03  0.50400001928E-02 0.  1.
</event>
<event>
 5   0  0.4299912E-02  0.6983974E+03  0.7818609E-02  0.9719977E-01
        2   -1    0    0  501    0  0.00000000000E+00  0.00000000000E+00  0.18533313101E+04  0.18533313101E+04  0.25500000920E-02 0.  1.
       -2   -1    0    0    0  501  0.00000000000E+00  0.00000000000E+00 -0.65794893193E+02  0.65794893243E+02  0.25500000920E-02 0. -1.
    10030    2    1    2    0    0  0.00000000000E+00  0.00000000000E+00  0.17875364169E+04  0.19191262033E+04  0.69839741021E+03 0.  0.
        3    1    3    3  502    0  0.55114008259E+02 -0.31863369099E+03  0.53155848598E+03  0.62218921331E+03  0.10100000352E+00 0.  1.
       -3    1    3    3    0  502 -0.55114008259E+02  0.31863369099E+03  0.12559779309E+04  0.12969369900E+04  0.10100000352E+00 0. -1.
</event>
<event>
 5   0  0.2751729E-02  0.7041705E+03  0.7818609E-02  0.9710127E-01
       -1   -1    0    0    0  501  0.00000000000E+00  0.00000000000E+00  0.19176574433E+03  0.19176574440E+03  0.50400001928E-02 0. -1.
        1   -1    0    0  501    0  0.00000000000E+00  0.00000000000E+00 -0.64643471109E+03  0.64643471111E+03  0.50400001928E-02 0.  1.
    10030    2    1    2    0    0  0.00000000000E+00  0.00000000000E+00 -0.45466896676E+03  0.83820045551E+03  0.70417052926E+03 0.  0.
        1    1    3    3  502    0 -0.19229968045E+01 -0.34490319328E+03 -0.31152190835E+03  0.46476640376E+03  0.50400001928E-02 0. -1.
       -1    1    3    3    0  502  0.19229968045E+01  0.34490319328E+03 -0.14314705841E+03  0.37343405175E+03  0.50400001928E-02 0.  1.
</event>
<event>
 5   0  0.4420645E-02  0.7102976E+03  0.7818609E-02  0.9699782E-01
        2   -1    0    0  501    0  0.00000000000E+00  0.00000000000E+00  0.21494221022E+03  0.21494221024E+03  0.25500000920E-02 0.  1.
       -2   -1    0    0    0  501  0.00000000000E+00  0.00000000000E+00 -0.58681200525E+03  0.58681200526E+03  0.25500000920E-02 0. -1.
    10030    2    1    2    0    0  0.00000000000E+00  0.00000000000E+00 -0.37186979503E+03  0.80175421549E+03  0.71029759792E+03 0.  0.
        5    1    3    3  502    0  0.13701629600E+03  0.32351392013E+03 -0.24430225564E+03  0.42794906706E+03  0.46999998093E+01 0.  1.
       -5    1    3    3    0  502 -0.13701629600E+03 -0.32351392013E+03 -0.12756753939E+03  0.37380514843E+03  0.46999998093E+01 0. -1.
</event>
<event>
 5   0  0.2777999E-02  0.6952030E+03  0.7818609E-02  0.9725471E-01
        1   -1    0    0  501    0  0.00000000000E+00  0.00000000000E+00  0.80231657603E+03  0.80231657605E+03  0.50400001928E-02 0.  1.
       -1   -1    0    0    0  501  0.00000000000E+00  0.00000000000E+00 -0.15059740906E+03  0.15059740914E+03  0.50400001928E-02 0. -1.
    10030    2    1    2    0    0  0.00000000000E+00  0.00000000000E+00  0.65171916697E+03  0.95291398519E+03  0.69520298516E+03 0.  0.
        5    1    3    3  502    0  0.28096724593E+03  0.13104952359E+03  0.11048907695E+03  0.32916029080E+03  0.46999998093E+01 0. -1.
       -5    1    3    3    0  502 -0.28096724593E+03 -0.13104952359E+03  0.54123009002E+03  0.62375369438E+03  0.46999998093E+01 0.  1.
</event>
<event>
 5   0  0.2750139E-02  0.7074904E+03  0.7818609E-02  0.9704508E-01
       -1   -1    0    0    0  501  0.00000000000E+00  0.00000000000E+00  0.62463364440E+03  0.62463364442E+03  0.50400001928E-02 0. -1.
        1   -1    0    0  501    0  0.00000000000E+00  0.00000000000E+00 -0.20033449446E+03  0.20033449453E+03  0.50400001928E-02 0.  1.
    10030    2    1    2    0    0  0.00000000000E+00  0.00000000000E+00  0.42429914994E+03  0.82496813895E+03  0.70749039685E+03 0.  0.
        2    1    3    3  502    0 -0.27561393504E+03  0.36738334405E+02  0.46714633781E+03  0.54363447954E+03  0.25500000920E-02 0. -1.
       -2    1    3    3    0  502  0.27561393504E+03 -0.36738334405E+02 -0.42847187874E+02  0.28133365941E+03  0.25500000920E-02 0.  1.
</event>
<event>
 5   0  0.4503289E-02  0.6852119E+03  0.7818609E-02  0.9742861E-01
       -2   -1    0    0    0  501  0.00000000000E+00  0.00000000000E+00  0.13297275765E+03  0.13297275767E+03  0.25500000920E-02 0. -1.
        2   -1    0    0  501    0  0.00000000000E+00  0.00000000000E+00 -0.88272836439E+03  0.88272836439E+03  0.25500000920E-02 0.  1.
    10030    2    1    2    0    0  0.00000000000E+00  0.00000000000E+00 -0.74975560674E+03  0.10157011221E+04  0.68521186470E+03 0.  0.
        2    1    3    3  502    0 -0.19747522853E+03  0.24027868931E+03 -0.16187494971E+03  0.35061918626E+03  0.25500000920E-02 0.  1.
       -2    1    3    3    0  502  0.19747522853E+03 -0.24027868931E+03 -0.58788065703E+03  0.66508193580E+03  0.25500000920E-02 0. -1.
</event>
<event>
 5   0  0.4299912E-02  0.7020670E+03  0.7818609E-02  0.9713704E-01
       -2   -1    0    0    0  501  0.00000000000E+00  0.00000000000E+00  0.20897205226E+03  0.20897205227E+03  0.25500000920E-02 0. -1.
        2   -1    0    0  501    0  0.00000000000E+00  0.00000000000E+00 -0.58966985397E+03  0.58966985398E+03  0.25500000920E-02 0.  1.
    10030    2    1    2    0    0  0.00000000000E+00  0.00000000000E+00 -0.38069780171E+03  0.79864190625E+03  0.70206700406E+03 0.  0.
        3    1    3    3  502    0 -0.19759515153E+03  0.96146804087E+02 -0.50174997884E+03  0.54776007823E+03  0.10100000352E+00 0.  1.
       -3    1    3    3    0  502  0.19759515153E+03 -0.96146804087E+02  0.12105217712E+03  0.25088182802E+03  0.10100000352E+00 0. -1.
</event>
<event>
 5   0  0.2758681E-02  0.7053017E+03  0.7818609E-02  0.9708208E-01
        1   -1    0    0  501    0  0.00000000000E+00  0.00000000000E+00  0.83953374097E+03  0.83953374098E+03  0.50400001928E-02 0.  1.
       -1   -1    0    0    0  501  0.00000000000E+00  0.00000000000E+00 -0.14813295024E+03  0.14813295032E+03  0.50400001928E-02 0. -1.
    10030    2    1    2    0    0  0.00000000000E+00  0.00000000000E+00  0.69140079073E+03  0.98766669131E+03  0.70530166574E+03 0.  0.
        3    1    3    3  502    0 -0.35160181478E+03 -0.20673307545E+01  0.38365184375E+03  0.52040067009E+03  0.10100000352E+00 0.  1.
       -3    1    3    3    0  502  0.35160181478E+03  0.20673307545E+01  0.30774894699E+03  0.46726602122E+03  0.10100000352E+00 0. -1.
</event>
<event>
 5   0  0.4420645E-02  0.6980268E+03  0.7818609E-02  0.9720613E-01
       -2   -1    0    0    0  501  0.00000000000E+00  0.00000000000E+00  0.15626047833E+03  0.15626047835E+03  0.25500000920E-02 0. -1.
        2   -1    0    0  501    0  0.00000000000E+00  0.00000000000E+00 -0.77953392583E+03  0.77953392584E+03  0.25500000920E-02 0.  1.
    10030    2    1    2    0    0  0.00000000000E+00  0.00000000000E+00 -0.62327344750E+03  0.93579440419E+03  0.69802677352E+03 0.  0.
        5    1    3    3  502    0 -0.54543529226E+02 -0.28610220935E+03 -0.56936804273E+03  0.63955572772E+03  0.46999998093E+01 0.  1.
       -5    1    3    3    0  502  0.54543529226E+02  0.28610220935E+03 -0.53905404770E+02  0.29623867647E+03  0.46999998093E+01 0. -1.
</event>
<event>
 5   0  0.4365492E-02  0.7006379E+03  0.7818609E-02  0.9716142E-01
        2   -1    0    0  501    0  0.00000000000E+00  0.00000000000E+00  0.24564971695E+03  0.24564971697E+03  0.25500000920E-02 0.  1.
       -2   -1    0    0    0  501  0.00000000000E+00  0.00000000000E+00 -0.49958687594E+03  0.49958687595E+03  0.25500000920E-02 0. -1.
    10030    2    1    2    0    0  0.00000000000E+00  0.00000000000E+00 -0.25393715899E+03  0.74523659292E+03  0.70063792269E+03 0.  0.
        4    1    3    3  502    0 -0.63756314829E+02 -0.22355163789E+03 -0.40572225642E+03  0.46760278521E+03  0.12699999809E+01 0. -1.
       -4    1    3    3    0  502  0.63756314829E+02  0.22355163789E+03  0.15178509743E+03  0.27763380771E+03  0.12699999809E+01 0.  1.
</event>
<event>
 5   0  0.4503289E-02  0.7121302E+03  0.7818609E-02  0.9696710E-01
        2   -1    0    0  501    0  0.00000000000E+00  0.00000000000E+00  0.40395846930E+03  0.40395846931E+03  0.25500000920E-02 0. -1.
       -2   -1    0    0    0  501  0.00000000000E+00  0.00000000000E+00 -0.31384998175E+03  0.31384998177E+03  0.25500000920E-02 0.  1.
    10030    2    1    2    0    0  0.00000000000E+00  0.00000000000E+00  0.90108487549E+02  0.71780845108E+03  0.71213020783E+03 0.  0.
        2    1    3    3  502    0 -0.14994205264E+03 -0.17499663922E+03 -0.22854313278E+03  0.32455878733E+03  0.25500000920E-02 0.  1.
       -2    1    3    3    0  502  0.14994205264E+03  0.17499663922E+03  0.31865162033E+03  0.39324966374E+03  0.25500000920E-02 0. -1.
</event>
<event>
 5   0  0.1784625E-02  0.6998120E+03  0.7818609E-02  0.9717554E-01
        4   -1    0    0  501    0  0.00000000000E+00  0.00000000000E+00  0.14310399062E+03  0.14310962592E+03  0.12699999809E+01 0.  1.
       -4   -1    0    0    0  501  0.00000000000E+00  0.00000000000E+00 -0.85553808826E+03  0.85553903088E+03  0.12699999809E+01 0. -1.
    10030    2    1    2    0    0  0.00000000000E+00  0.00000000000E+00 -0.71243409764E+03  0.99864865681E+03  0.69981197208E+03 0.  0.
        1    1    3    3  502    0 -0.22964942874E+03  0.16376944928E+03 -0.65170035298E+03  0.71012156899E+03  0.50400001928E-02 0. -1.
       -1    1    3    3    0  502  0.22964942874E+03 -0.16376944928E+03 -0.60733744656E+02  0.28852708782E+03  0.50400001928E-02 0.  1.
</event>
<event>
 5   0  0.4503289E-02  0.7011200E+03  0.7818609E-02  0.9715319E-01
       -2   -1    0    0    0  501  0.00000000000E+00  0.00000000000E+00  0.16894853370E+03  0.16894853371E+03  0.25500000920E-02 0.  1.
        2   -1    0    0  501    0  0.00000000000E+00  0.00000000000E+00 -0.72739493079E+03  0.72739493080E+03  0.25500000920E-02 0. -1.
    10030    2    1    2    0    0  0.00000000000E+00  0.00000000000E+00 -0.55844639710E+03  0.89634346451E+03  0.70111998113E+03 0.  0.
        2    1    3    3  502    0 -0.74328503076E+02 -0.41242642694E+02 -0.71401980315E+03  0.71906186191E+03  0.25500000920E-02 0. -1.
       -2    1    3    3    0  502  0.74328503076E+02  0.41242642694E+02  0.15557340605E+03  0.17728160261E+03  0.25500000920E-02 0.  1.
</event>
<event>
 5   0  0.4420645E-02  0.7238748E+03  0.7818609E-02  0.9677252E-01
       -2   -1    0    0    0  501  0.00000000000E+00  0.00000000000E+00  0.31579471754E+03  0.31579471755E+03  0.25500000920E-02 0. -1.
        2   -1    0    0  501    0  0.00000000000E+00  0.00000000000E+00 -0.41482229710E+03  0.41482229711E+03  0.25500000920E-02 0.  1.
    10030    2    1    2    0    0  0.00000000000E+00  0.00000000000E+00 -0.99027579568E+02  0.73061701466E+03  0.72387482384E+03 0.  0.
        5    1    3    3  502    0 -0.33054448089E+03 -0.14645516736E+03 -0.66031739077E+02  0.36754734451E+03  0.46999998093E+01 0.  1.
       -5    1    3    3    0  502  0.33054448089E+03  0.14645516736E+03 -0.32995840490E+02  0.36306967015E+03  0.46999998093E+01 0. -1.
</event>
<event>
 5   0  0.4365492E-02  0.6934533E+03  0.7818609E-02  0.9728494E-01
       -2   -1    0    0    0  501  0.00000000000E+00  0.00000000000E+00  0.62751078261E+02  0.62751078313E+02  0.25500000920E-02 0.  1.
        2   -1    0    0  501    0  0.00000000000E+00  0.00000000000E+00 -0.19158133936E+04  0.19158133936E+04  0.25500000920E-02 0. -1.
    10030    2    1    2    0    0  0.00000000000E+00  0.00000000000E+00 -0.18530623154E+04  0.19785644719E+04  0.69345326086E+03 0.  0.
        4    1    3    3  502    0  0.27499107892E+03 -0.21070148726E+03 -0.96713630121E+03  0.10273117581E+04  0.12699999809E+01 0.  1.
       -4    1    3    3    0  502 -0.27499107892E+03  0.21070148726E+03 -0.88592601414E+03  0.95125271388E+03  0.12699999809E+01 0. -1.
</event>
<event>
 5   0  0.4503289E-02  0.7038320E+03  0.7818609E-02  0.9710701E-01
        2   -1    0    0  501    0  0.00000000000E+00  0.00000000000E+00  0.31293965844E+03  0.31293965845E+03  0.25500000920E-02 0.  1.
       -2   -1    0    0    0  501  0.00000000000E+00  0.00000000000E+00 -0.39574676313E+03  0.39574676314E+03  0.25500000920E-02 0. -1.
    10030    2    1    2    0    0  0.00000000000E+00  0.00000000000E+00 -0.82807104695E+02  0.70868642159E+03  0.70383195975E+03 0.  0.
        2    1    3    3  502    0 -0.21429709650E+03  0.22057613452E+03  0.13085469363E+03  0.33421554054E+03  0.25500000920E-02 0.  1.
       -2    1    3    3    0  502  0.21429709650E+03 -0.22057613452E+03 -0.21366179832E+03  0.37447088105E+03  0.25500000920E-02 0. -1.
</event>
<event>
 5   0  0.4420645E-02  0.6940889E+03  0.7818609E-02  0.9727395E-01
       -2   -1    0    0    0  501  0.00000000000E+00  0.00000000000E+00  0.10508825258E+03  0.10508825261E+03  0.25500000920E-02 0.  1.
        2   -1    0    0  501    0  0.00000000000E+00  0.00000000000E+00 -0.11460830404E+04  0.11460830404E+04  0.25500000920E-02 0. -1.
    10030    2    1    2    0    0  0.00000000000E+00  0.00000000000E+00 -0.10409947878E+04  0.12511712930E+04  0.69408893969E+03 0.  0.
        5    1    3    3  502    0 -0.64541360984E+02  0.81689471445E+02 -0.11172101851E+04  0.11220603570E+04  0.46999998093E+01 0. -1.
       -5    1    3    3    0  502  0.64541360984E+02 -0.81689471445E+02  0.76215397283E+02  0.12911093603E+03  0.46999998093E+01 0.  1.
</event>
<event>
 5   0  0.2751729E-02  0.6990613E+03  0.7818609E-02  0.9718839E-01
        1   -1    0    0  501    0  0.00000000000E+00  0.00000000000E+00  0.53895379856E+03  0.53895379859E+03  0.50400001928E-02 0. -1.
       -1   -1    0    0    0  501  0.00000000000E+00  0.00000000000E+00 -0.22668304090E+03  0.22668304095E+03  0.50400001928E-02 0.  1.
    10030    2    1    2    0    0  0.00000000000E+00  0.00000000000E+00  0.31227075767E+03  0.76563683954E+03  0.69906133062E+03 0.  0.
        1    1    3    3  502    0 -0.27717577879E+03 -0.13602357228E+03 -0.23305731177E+02  0.30963201012E+03  0.50400001928E-02 0.  1.
       -1    1    3    3    0  502  0.27717577879E+03  0.13602357228E+03  0.33557648884E+03  0.45600482942E+03  0.50400001928E-02 0. -1.
</event>
<event>
 5   0  0.4299912E-02  0.6945195E+03  0.7818609E-02  0.9726651E-01
        2   -1    0    0  501    0  0.00000000000E+00  0.00000000000E+00  0.58359093873E+03  0.58359093873E+03  0.25500000920E-02 0. -1.
       -2   -1    0    0    0  501  0.00000000000E+00  0.00000000000E+00 -0.20663329353E+03  0.20663329354E+03  0.25500000920E-02 0.  1.
    10030    2    1    2    0    0  0.00000000000E+00  0.00000000000E+00  0.37695764520E+03  0.79022423228E+03  0.69451945329E+03 0.  0.
        3    1    3    3  502    0  0.34659901086E+03 -0.16799051292E+02  0.20358309501E+03  0.40231724948E+03  0.10100000352E+00 0.  1.
       -3    1    3    3    0  502 -0.34659901086E+03  0.16799051292E+02  0.17337455019E+03  0.38790698280E+03  0.10100000352E+00 0. -1.
</event>
<event>
 5   0  0.2751729E-02  0.7066298E+03  0.7818609E-02  0.9705961E-01
        1   -1    0    0  501    0  0.00000000000E+00  0.00000000000E+00  0.98207585164E+03  0.98207585166E+03  0.50400001928E-02 0. -1.
       -1   -1    0    0    0  501  0.00000000000E+00  0.00000000000E+00 -0.12710975453E+03  0.12710975463E+03  0.50400001928E-02 0.  1.
    10030    2    1    2    0    0  0.00000000000E+00  0.00000000000E+00  0.85496609711E+03  0.11091856063E+04  0.70662980548E+03 0.  0.
        1    1    3    3  502    0 -0.22688057845E+02  0.23255350464E+03  0.84348056334E+03  0.87524587474E+03  0.50400001928E-02 0. -1.
       -1    1    3    3    0  502  0.22688057845E+02 -0.23255350464E+03  0.11485533772E+02  0.23393973155E+03  0.50400001928E-02 0.  1.
</event>
<event>
 5   0  0.4503289E-02  0.7042846E+03  0.7818609E-02  0.9709933E-01
        2   -1    0    0  501    0  0.00000000000E+00  0.00000000000E+00  0.24211198899E+03  0.24211198901E+03  0.25500000920E-02 0.  1.
       -2   -1    0    0    0  501  0.00000000000E+00  0.00000000000E+00 -0.51217706544E+03  0.51217706544E+03  0.25500000920E-02 0. -1.
    10030    2    1    2    0    0  0.00000000000E+00  0.00000000000E+00 -0.27006507644E+03  0.75428905445E+03  0.70428462439E+03 0.  0.
        2    1    3    3  502    0  0.30015518230E+03  0.11381613159E+03 -0.29007611163E+03  0.43265620972E+03  0.25500000920E-02 0. -1.
       -2    1    3    3    0  502 -0.30015518230E+03 -0.11381613159E+03  0.20011035185E+02  0.32163284472E+03  0.25500000920E-02 0.  1.
</event>
<event>
 5   0  0.4420645E-02  0.6984894E+03  0.7818609E-02  0.9719819E-01
       -2   -1    0    0    0  501  0.00000000000E+00  0.00000000000E+00  0.28336345889E+03  0.28336345890E+03  0.25500000920E-02 0.  1.
        2   -1    0    0  501    0  0.00000000000E+00  0.00000000000E+00 -0.43044318796E+03  0.43044318797E+03  0.25500000920E-02 0. -1.
    10030    2    1    2    0    0  0.00000000000E+00  0.00000000000E+00 -0.14707972907E+03  0.71380664687E+03  0.69848942900E+03 0.  0.
        5    1    3    3  502    0  0.17916864649E+03 -0.29223972856E+03 -0.14166749776E+03  0.37094100981E+03  0.46999998093E+01 0.  1.
       -5    1    3    3    0  502 -0.17916864649E+03  0.29223972856E+03 -0.54122313095E+01  0.34286563707E+03  0.46999998093E+01 0. -1.
</event>
<event>
 5   0  0.2751729E-02  0.6732023E+03  0.7818609E-02  0.9764190E-01
        1   -1    0    0  501    0  0.00000000000E+00  0.00000000000E+00  0.74571237082E+03  0.74571237083E+03  0.50400001928E-02 0.  1.
       -1   -1    0    0    0  501  0.00000000000E+00  0.00000000000E+00 -0.15193572628E+03  0.15193572637E+03  0.50400001928E-02 0. -1.
    10030    2    1    2    0    0  0.00000000000E+00  0.00000000000E+00  0.59377664453E+03  0.89764809720E+03  0.67320234909E+03 0.  0.
        1    1    3    3  502    0  0.89388385887E+01 -0.32747238678E+03  0.40002045426E+03  0.51704393507E+03  0.50400001928E-02 0.  1.
       -1    1    3    3    0  502 -0.89388385887E+01  0.32747238678E+03  0.19375619027E+03  0.38060416213E+03  0.50400001928E-02 0. -1.
</event>
<event>
 5   0  0.2684924E-02  0.7095378E+03  0.7818609E-02  0.9701059E-01
       -1   -1    0    0    0  501  0.00000000000E+00  0.00000000000E+00  0.38638245215E+03  0.38638245219E+03  0.50400001928E-02 0.  1.
        1   -1    0    0  501    0  0.00000000000E+00  0.00000000000E+00 -0.32574198892E+03  0.32574198896E+03  0.50400001928E-02 0. -1.
    10030    2    1    2    0    0  0.00000000000E+00  0.00000000000E+00  0.60640463229E+02  0.71212444115E+03  0.70953784529E+03 0.  0.
        4    1    3    3  502    0  0.30373811273E+03  0.14258050555E+03  0.14595018122E+03  0.36590860879E+03  0.12699999809E+01 0.  1.
       -4    1    3    3    0  502 -0.30373811273E+03 -0.14258050555E+03 -0.85309717988E+02  0.34621583236E+03  0.12699999809E+01 0. -1.
</event>
<event>
 5   0  0.2758681E-02  0.7197418E+03  0.7818609E-02  0.9684054E-01
       -1   -1    0    0    0  501  0.00000000000E+00  0.00000000000E+00  0.89097919742E+02  0.89097919884E+02  0.50400001928E-02 0. -1.
        1   -1    0    0  501    0  0.00000000000E+00  0.00000000000E+00 -0.14535364857E+04  0.14535364857E+04  0.50400001928E-02 0.  1.
    10030    2    1    2    0    0  0.00000000000E+00  0.00000000000E+00 -0.13644385660E+04  0.15426344056E+04  0.71974183500E+03 0.  0.
        3    1    3    3  502    0  0.25461765596E+03 -0.18413491691E+03 -0.30624440530E+03  0.43877267956E+03  0.10100000352E+00 0. -1.
       -3    1    3    3    0  502 -0.25461765596E+03  0.18413491691E+03 -0.10581941607E+04  0.11038617261E+04  0.10100000352E+00 0.  1.
</event>
<event>
 5   0  0.2777999E-02  0.7016692E+03  0.7818609E-02  0.9714382E-01
       -1   -1    0    0    0  501  0.00000000000E+00  0.00000000000E+00  0.35780695947E+03  0.35780695950E+03  0.50400001928E-02 0.  1.
        1   -1    0    0  501    0  0.00000000000E+00  0.00000000000E+00 -0.34399809048E+03  0.34399809051E+03  0.50400001928E-02 0. -1.
    10030    2    1    2    0    0  0.00000000000E+00  0.00000000000E+00  0.13808868990E+02  0.70180505001E+03  0.70166918370E+03 0.  0.
        5    1    3    3  502    0  0.51533576014E+02 -0.18206516941E+03 -0.28854976050E+03  0.34508910393E+03  0.46999998093E+01 0. -1.
       -5    1    3    3    0  502 -0.51533576014E+02  0.18206516941E+03  0.30235862949E+03  0.35671594609E+03  0.46999998093E+01 0.  1.
</event>
<event>
 5   0  0.2777999E-02  0.6465574E+03  0.7818609E-02  0.9813260E-01
        1   -1    0    0  501    0  0.00000000000E+00  0.00000000000E+00  0.66167194751E+03  0.66167194753E+03  0.50400001928E-02 0.  1.
       -1   -1    0    0    0  501  0.00000000000E+00  0.00000000000E+00 -0.15794703194E+03  0.15794703202E+03  0.50400001928E-02 0. -1.
    10030    2    1    2    0    0  0.00000000000E+00  0.00000000000E+00  0.50372491558E+03  0.81961897955E+03  0.64655740740E+03 0.  0.
        5    1    3    3  502    0  0.20448331060E+03  0.24269639975E+03  0.17400604088E+03  0.36196016221E+03  0.46999998093E+01 0. -1.
       -5    1    3    3    0  502 -0.20448331060E+03 -0.24269639975E+03  0.32971887470E+03  0.45765881734E+03  0.46999998093E+01 0.  1.
</event>
<event>
 5   0  0.2758681E-02  0.6936974E+03  0.7818609E-02  0.9728072E-01
        1   -1    0    0  501    0  0.00000000000E+00  0.00000000000E+00  0.19846325985E+03  0.19846325991E+03  0.50400001928E-02 0.  1.
       -1   -1    0    0    0  501  0.00000000000E+00  0.00000000000E+00 -0.60617777906E+03  0.60617777908E+03  0.50400001928E-02 0. -1.
    10030    2    1    2    0    0  0.00000000000E+00  0.00000000000E+00 -0.40771451921E+03  0.80464103900E+03  0.69369739257E+03 0.  0.
        3    1    3    3  502    0  0.19038757833E+03 -0.35991712604E+02 -0.53754898672E+03  0.57140332225E+03  0.10100000352E+00 0. -1.
       -3    1    3    3    0  502 -0.19038757833E+03  0.35991712604E+02  0.12983446751E+03  0.23323771674E+03  0.10100000352E+00 0.  1.
</event>
<event>
 5   0  0.4420645E-02  0.7137679E+03  0.7818609E-02  0.9693973E-01
       -2   -1    0    0    0  501  0.00000000000E+00  0.00000000000E+00  0.10074809911E+03  0.10074809914E+03  0.25500000920E-02 0.  1.
        2   -1    0    0  501    0  0.00000000000E+00  0.00000000000E+00 -0.12642039164E+04  0.12642039164E+04  0.25500000920E-02 0. -1.
    10030    2    1    2    0    0  0.00000000000E+00  0.00000000000E+00 -0.11634558173E+04  0.13649520155E+04  0.71376786559E+03 0.  0.
        5    1    3    3  502    0 -0.30378395786E+03 -0.18273427464E+03 -0.65981854348E+03  0.74903878972E+03  0.46999998093E+01 0.  1.
       -5    1    3    3    0  502  0.30378395786E+03  0.18273427464E+03 -0.50363727378E+03  0.61591322581E+03  0.46999998093E+01 0. -1.
</event>
<event>
 5   0  0.1784625E-02  0.7028616E+03  0.7818609E-02  0.9712351E-01
       -3   -1    0    0    0  501  0.00000000000E+00  0.00000000000E+00  0.12052724985E+04  0.12052725027E+04  0.10100000352E+00 0. -1.
        3   -1    0    0  501    0  0.00000000000E+00  0.00000000000E+00 -0.10246941681E+03  0.10246946659E+03  0.10100000352E+00 0.  1.
    10030    2    1    2    0    0  0.00000000000E+00  0.00000000000E+00  0.11028030817E+04  0.13077419693E+04  0.70286159472E+03 0.  0.
        3    1    3    3  502    0 -0.14424823716E+03 -0.17952973632E+03  0.57501194527E+02  0.23737076004E+03  0.10100000352E+00 0.  1.
       -3    1    3    3    0  502  0.14424823716E+03  0.17952973632E+03  0.10453018871E+04  0.10703712093E+04  0.10100000352E+00 0. -1.
</event>
<event>
 5   0  0.2777999E-02  0.6997455E+03  0.7818609E-02  0.9717668E-01
        1   -1    0    0  501    0  0.00000000000E+00  0.00000000000E+00  0.81817563951E+03  0.81817563953E+03  0.50400001928E-02 0.  1.
       -1   -1    0    0    0  501  0.00000000000E+00  0.00000000000E+00 -0.14961449441E+03  0.14961449449E+03  0.50400001928E-02 0. -1.
    10030    2    1    2    0    0  0.00000000000E+00  0.00000000000E+00  0.66856114510E+03  0.96779013402E+03  0.69974548142E+03 0.  0.
        5    1    3    3  502    0 -0.34825782041E+02  0.23624067114E+03  0.68788542940E+03  0.72816958449E+03  0.46999998093E+01 0.  1.
       -5    1    3    3    0  502  0.34825782041E+02 -0.23624067114E+03 -0.19324284295E+02  0.23962054953E+03  0.46999998093E+01 0. -1.
</event>
<event>
 5   0  0.4420645E-02  0.7042585E+03  0.7818609E-02  0.9709977E-01
       -2   -1    0    0    0  501  0.00000000000E+00  0.00000000000E+00  0.12906493468E+03  0.12906493471E+03  0.25500000920E-02 0.  1.
        2   -1    0    0  501    0  0.00000000000E+00  0.00000000000E+00 -0.96071810293E+03  0.96071810293E+03  0.25500000920E-02 0. -1.
    10030    2    1    2    0    0  0.00000000000E+00  0.00000000000E+00 -0.83165316825E+03  0.10897830376E+04  0.70425852985E+03 0.  0.
        5    1    3    3  502    0  0.20368082188E+03 -0.94807088392E+02 -0.83534174687E+03  0.86503883455E+03  0.46999998093E+01 0. -1.
       -5    1    3    3    0  502 -0.20368082188E+03  0.94807088392E+02  0.36885786223E+01  0.22474420309E+03  0.46999998093E+01 0.  1.
</event>
<event>
 5   0  0.2684924E-02  0.6615540E+03  0.7818609E-02  0.9785337E-01
        1   -1    0    0  501    0  0.00000000000E+00  0.00000000000E+00  0.45434139373E+03  0.45434139376E+03  0.50400001928E-02 0. -1.
       -1   -1    0    0    0  501  0.00000000000E+00  0.00000000000E+00 -0.24081767438E+03  0.24081767443E+03  0.50400001928E-02 0.  1.
    10030    2    1    2    0    0  0.00000000000E+00  0.00000000000E+00  0.21352371935E+03  0.69515906818E+03  0.66155404265E+03 0.  0.
        4    1    3    3  502    0 -0.31054623481E+01 -0.12228370246E+03 -0.21617473718E+03  0.24838695151E+03  0.12699999809E+01 0.  1.
       -4    1    3    3    0  502  0.31054623481E+01  0.12228370246E+03  0.42969845654E+03  0.44677211667E+03  0.12699999809E+01 0. -1.
</event>
<event>
 5   0  0.2777999E-02  0.6990714E+03  0.7818609E-02  0.9718822E-01
        1   -1    0    0  501    0  0.00000000000E+00  0.00000000000E+00  0.81932274164E+03  0.81932274166E+03  0.50400001928E-02 0. -1.
       -1   -1    0    0    0  501  0.00000000000E+00  0.00000000000E+00 -0.14911732160E+03  0.14911732169E+03  0.50400001928E-02 0.  1.
    10030    2    1    2    0    0  0.00000000000E+00  0.00000000000E+00  0.67020542004E+03  0.96844006334E+03  0.69907142070E+03 0.  0.
        5    1    3    3  502    0  0.17200720638E+03 -0.30417118938E+03  0.32565288303E+03  0.47768031331E+03  0.46999998093E+01 0. -1.
       -5    1    3    3    0  502 -0.17200720638E+03  0.30417118938E+03  0.34455253701E+03  0.49075975004E+03  0.46999998093E+01 0.  1.
</event>
<event>
 5   0  0.4299912E-02  0.6855068E+03  0.7818609E-02  0.9742344E-01
       -2   -1    0    0    0  501  0.00000000000E+00  0.00000000000E+00  0.74835381497E+02  0.74835381540E+02  0.25500000920E-02 0. -1.
        2   -1    0    0  501    0  0.00000000000E+00  0.00000000000E+00 -0.15698442590E+04  0.15698442590E+04  0.25500000920E-02 0.  1.
    10030    2    1    2    0    0  0.00000000000E+00  0.00000000000E+00 -0.14950088775E+04  0.16446796405E+04  0.68550680244E+03 0.  0.
        3    1    3    3  502    0  0.10486151707E+03  0.31302730267E+02 -0.15268035583E+04  0.15307203907E+04  0.10100000352E+00 0.  1.
       -3    1    3    3    0  502 -0.10486151707E+03 -0.31302730267E+02  0.31794680835E+02  0.11395924980E+03  0.10100000352E+00 0. -1.
</event>
<event>
 5   0  0.4420645E-02  0.7085345E+03  0.7818609E-02  0.9702747E-01
        2   -1    0    0  501    0  0.00000000000E+00  0.00000000000E+00  0.12641402188E+04  0.12641402188E+04  0.25500000920E-02 0.  1.
       -2   -1    0    0    0  501  0.00000000000E+00  0.00000000000E+00 -0.99281128408E+02  0.99281128440E+02  0.25500000920E-02 0. -1.
    10030    2    1    2    0    0  0.00000000000E+00  0.00000000000E+00  0.11648590904E+04  0.13634213473E+04  0.70853445199E+03 0.  0.
        5    1    3    3  502    0 -0.19063753079E+03  0.24419625023E+03  0.91298487230E+03  0.96412548137E+03  0.46999998093E+01 0.  1.
       -5    1    3    3    0  502  0.19063753079E+03 -0.24419625023E+03  0.25187421810E+03  0.39929586588E+03  0.46999998093E+01 0. -1.
</event>
<event>
 5   0  0.2777999E-02  0.7009494E+03  0.7818609E-02  0.9715610E-01
       -1   -1    0    0    0  501  0.00000000000E+00  0.00000000000E+00  0.36945674782E+03  0.36945674785E+03  0.50400001928E-02 0.  1.
        1   -1    0    0  501    0  0.00000000000E+00  0.00000000000E+00 -0.33246787574E+03  0.33246787578E+03  0.50400001928E-02 0. -1.
    10030    2    1    2    0    0  0.00000000000E+00  0.00000000000E+00  0.36988872078E+02  0.70192462363E+03  0.70094935666E+03 0.  0.
        5    1    3    3  502    0 -0.80973649594E+02  0.16022027823E+03  0.31988352345E+03  0.36684441942E+03  0.46999998093E+01 0.  1.
       -5    1    3    3    0  502  0.80973649594E+02 -0.16022027823E+03 -0.28289465137E+03  0.33508020422E+03  0.46999998093E+01 0. -1.
</event>
<event>
 5   0  0.4365492E-02  0.7069796E+03  0.7818609E-02  0.9705370E-01
       -2   -1    0    0    0  501  0.00000000000E+00  0.00000000000E+00  0.13663769829E+03  0.13663769831E+03  0.25500000920E-02 0. -1.
        2   -1    0    0  501    0  0.00000000000E+00  0.00000000000E+00 -0.91449889214E+03  0.91449889214E+03  0.25500000920E-02 0.  1.
    10030    2    1    2    0    0  0.00000000000E+00  0.00000000000E+00 -0.77786119385E+03  0.10511365905E+04  0.70697955763E+03 0.  0.
        4    1    3    3  502    0 -0.29905296364E+02 -0.97314830931E+00  0.13474812205E+03  0.13803602089E+03  0.12699999809E+01 0. -1.
       -4    1    3    3    0  502  0.29905296364E+02  0.97314830931E+00 -0.91260931590E+03  0.91310056956E+03  0.12699999809E+01 0.  1.
</event>
<event>
 5   0  0.2751729E-02  0.6996422E+03  0.7818609E-02  0.9717844E-01
       -1   -1    0    0    0  501  0.00000000000E+00  0.00000000000E+00  0.18046607740E+03  0.18046607747E+03  0.50400001928E-02 0.  1.
        1   -1    0    0  501    0  0.00000000000E+00  0.00000000000E+00 -0.67810417387E+03  0.67810417389E+03  0.50400001928E-02 0. -1.
    10030    2    1    2    0    0  0.00000000000E+00  0.00000000000E+00 -0.49763809646E+03  0.85857025136E+03  0.69964219532E+03 0.  0.
        1    1    3    3  502    0 -0.31931086562E+02 -0.71146701075E+02  0.16966343958E+03  0.18672742198E+03  0.50400001928E-02 0.  1.
       -1    1    3    3    0  502  0.31931086562E+02  0.71146701075E+02 -0.66730153604E+03  0.67184282938E+03  0.50400001928E-02 0. -1.
</event>
<event>
 5   0  0.2750139E-02  0.7073794E+03  0.7818609E-02  0.9704695E-01
       -1   -1    0    0    0  501  0.00000000000E+00  0.00000000000E+00  0.40981250318E+03  0.40981250321E+03  0.50400001928E-02 0. -1.
        1   -1    0    0  501    0  0.00000000000E+00  0.00000000000E+00 -0.30525275412E+03  0.30525275416E+03  0.50400001928E-02 0.  1.
    10030    2    1    2    0    0  0.00000000000E+00  0.00000000000E+00  0.10455974906E+03  0.71506525737E+03  0.70737937571E+03 0.  0.
        2    1    3    3  502    0 -0.29645635897E+03 -0.82220169920E+02 -0.12411500674E+03  0.33173945201E+03  0.25500000920E-02 0.  1.
       -2    1    3    3    0  502  0.29645635897E+03  0.82220169920E+02  0.22867475580E+03  0.38332580537E+03  0.25500000920E-02 0. -1.
</event>
<event>
 5   0  0.2684924E-02  0.6962057E+03  0.7818609E-02  0.9723743E-01
        1   -1    0    0  501    0  0.00000000000E+00  0.00000000000E+00  0.78563831405E+03  0.78563831407E+03  0.50400001928E-02 0.  1.
       -1   -1    0    0    0  501  0.00000000000E+00  0.00000000000E+00 -0.15423839238E+03  0.15423839246E+03  0.50400001928E-02 0. -1.
    10030    2    1    2    0    0  0.00000000000E+00  0.00000000000E+00  0.63139992168E+03  0.93987670653E+03  0.69620568971E+03 0.  0.
        4    1    3    3  502    0 -0.23215983075E+03 -0.21836092124E+03  0.12672764692E+03  0.34298861254E+03  0.12699999809E+01 0. -1.
       -4    1    3    3    0  502  0.23215983075E+03  0.21836092124E+03  0.50467227476E+03  0.59688809399E+03  0.12699999809E+01 0.  1.
</event>
<event>
 5   0  0.2684924E-02  0.7016454E+03  0.7818609E-02  0.9714422E-01
        1   -1    0    0  501    0  0.00000000000E+00  0.00000000000E+00  0.65277019123E+03  0.65277019125E+03  0.50400001928E-02 0.  1.
       -1   -1    0    0    0  501  0.00000000000E+00  0.00000000000E+00 -0.18854502559E+03  0.18854502565E+03  0.50400001928E-02 0. -1.
    10030    2    1    2    0    0  0.00000000000E+00  0.00000000000E+00  0.46422516565E+03  0.84131521691E+03  0.70164541599E+03 0.  0.
        4    1    3    3  502    0  0.48991691532E+02  0.29845307301E+03  0.44526402859E+03  0.53827139129E+03  0.12699999809E+01 0.  1.
       -4    1    3    3    0  502 -0.48991691532E+02 -0.29845307301E+03  0.18961137056E+02  0.30304382562E+03  0.12699999809E+01 0. -1.
</event>
<event>
 5   0  0.2751729E-02  0.6982181E+03  0.7818609E-02  0.9720284E-01
       -1   -1    0    0    0  501  0.00000000000E+00  0.00000000000E+00  0.11962884646E+03  0.11962884656E+03  0.50400001928E-02 0. -1.
        1   -1    0    0  501    0  0.00000000000E+00  0.00000000000E+00 -0.10187937713E+04  0.10187937713E+04  0.50400001928E-02 0.  1.
    10030    2    1    2    0    0  0.00000000000E+00  0.00000000000E+00 -0.89916492488E+03  0.11384226179E+04  0.69821808545E+03 0.  0.
        1    1    3    3  502    0  0.13626434139E+03  0.28284095292E+03 -0.20064804834E+03  0.37259443730E+03  0.50400001928E-02 0.  1.
       -1    1    3    3    0  502 -0.13626434139E+03 -0.28284095292E+03 -0.69851687654E+03  0.76582818061E+03  0.50400001928E-02 0. -1.
</event>
<event>
 5   0  0.2777999E-02  0.6953852E+03  0.7818609E-02  0.9725157E-01
       -1   -1    0    0    0  501  0.00000000000E+00  0.00000000000E+00  0.16283112059E+03  0.16283112067E+03  0.50400001928E-02 0. -1.
        1   -1    0    0  501    0  0.00000000000E+00  0.00000000000E+00 -0.74242650596E+03  0.74242650598E+03  0.50400001928E-02 0.  1.
    10030    2    1    2    0    0  0.00000000000E+00  0.00000000000E+00 -0.57959538537E+03  0.90525762665E+03  0.69538518812E+03 0.  0.
        5    1    3    3  502    0 -0.32453976263E+03  0.45303680294E+02 -0.44099560454E+03  0.54943397620E+03  0.46999998093E+01 0.  1.
       -5    1    3    3    0  502  0.32453976263E+03 -0.45303680294E+02 -0.13859978082E+03  0.35582365045E+03  0.46999998093E+01 0. -1.
</event>
<event>
 5   0  0.4365492E-02  0.7037619E+03  0.7818609E-02  0.9710820E-01
       -2   -1    0    0    0  501  0.00000000000E+00  0.00000000000E+00  0.11063714597E+03  0.11063714600E+03  0.25500000920E-02 0. -1.
        2   -1    0    0  501    0  0.00000000000E+00  0.00000000000E+00 -0.11191557744E+04  0.11191557744E+04  0.25500000920E-02 0.  1.
    10030    2    1    2    0    0  0.00000000000E+00  0.00000000000E+00 -0.10085186284E+04  0.12297929204E+04  0.70376189381E+03 0.  0.
        4    1    3    3  502    0 -0.71251544803E+02  0.34450896164E+03 -0.51726355826E+03  0.62556087545E+03  0.12699999809E+01 0.  1.
       -4    1    3    3    0  502  0.71251544803E+02 -0.34450896164E+03 -0.49125507016E+03  0.60423204495E+03  0.12699999809E+01 0. -1.
</event>
<event>
 5   0  0.2777999E-02  0.6988399E+03  0.7818609E-02  0.9719218E-01
       -1   -1    0    0    0  501  0.00000000000E+00  0.00000000000E+00  0.42386758744E+03  0.42386758747E+03  0.50400001928E-02 0.  1.
        1   -1    0    0  501    0  0.00000000000E+00  0.00000000000E+00 -0.28804822099E+03  0.28804822103E+03  0.50400001928E-02 0. -1.
    10030    2    1    2    0    0  0.00000000000E+00  0.00000000000E+00  0.13581936646E+03  0.71191580850E+03  0.69883990877E+03 0.  0.
        5    1    3    3  502    0  0.36859747463E+02  0.34695490491E+03  0.86579279584E+02  0.35951969164E+03  0.46999998093E+01 0. -1.
       -5    1    3    3    0  502 -0.36859747463E+02 -0.34695490491E+03  0.49240086872E+02  0.35239611686E+03  0.46999998093E+01 0.  1.
</event>
<event>
 5   0  0.4365492E-02  0.6896541E+03  0.7818609E-02  0.9735090E-01
       -2   -1    0    0    0  501  0.00000000000E+00  0.00000000000E+00  0.12447222405E+03  0.12447222408E+03  0.25500000920E-02 0. -1.
        2   -1    0    0  501    0  0.00000000000E+00  0.00000000000E+00 -0.95527893759E+03  0.95527893759E+03  0.25500000920E-02 0.  1.
    10030    2    1    2    0    0  0.00000000000E+00  0.00000000000E+00 -0.83080671354E+03  0.10797511617E+04  0.68965409871E+03 0.  0.
        4    1    3    3  502    0  0.33318631783E+03 -0.51765686737E+02 -0.30238102997E+03  0.45291136980E+03  0.12699999809E+01 0. -1.
       -4    1    3    3    0  502 -0.33318631783E+03  0.51765686737E+02 -0.52842568357E+03  0.62683979187E+03  0.12699999809E+01 0.  1.
</event>
<event>
 5   0  0.2751729E-02  0.7106161E+03  0.7818609E-02  0.9699248E-01
        1   -1    0    0  501    0  0.00000000000E+00  0.00000000000E+00  0.55211931684E+03  0.55211931686E+03  0.50400001928E-02 0.  1.
       -1   -1    0    0    0  501  0.00000000000E+00  0.00000000000E+00 -0.22865311944E+03  0.22865311949E+03  0.50400001928E-02 0. -1.
    10030    2    1    2    0    0  0.00000000000E+00  0.00000000000E+00  0.32346619740E+03  0.78077243635E+03  0.71061608236E+03 0.  0.
        1    1    3    3  502    0  0.11188369681E+03 -0.12527970791E+03  0.50574288461E+03  0.53290602566E+03  0.50400001928E-02 0.  1.
       -1    1    3    3    0  502 -0.11188369681E+03  0.12527970791E+03 -0.18227668721E+03  0.24786641069E+03  0.50400001928E-02 0. -1.
</event>
<event>
 5   0  0.1784625E-02  0.6957774E+03  0.7818609E-02  0.9724481E-01
       -3   -1    0    0    0  501  0.00000000000E+00  0.00000000000E+00  0.25308929493E+03  0.25308931508E+03  0.10100000352E+00 0.  1.
        3   -1    0    0  501    0  0.00000000000E+00  0.00000000000E+00 -0.47819696335E+03  0.47819697401E+03  0.10100000352E+00 0. -1.
    10030    2    1    2    0    0  0.00000000000E+00  0.00000000000E+00 -0.22510766841E+03  0.73128628910E+03  0.69577738842E+03 0.  0.
        1    1    3    3  502    0  0.32132602861E+03  0.10192799451E+03 -0.22221005899E+02  0.33783650758E+03  0.50400001928E-02 0.  1.
       -1    1    3    3    0  502 -0.32132602861E+03 -0.10192799451E+03 -0.20288666252E+03  0.39344978152E+03  0.50400001928E-02 0. -1.
</event>
<event>
 5   0  0.4526837E-02  0.6996842E+03  0.7818609E-02  0.9717772E-01
        2   -1    0    0  501    0  0.00000000000E+00  0.00000000000E+00  0.30076762827E+03  0.30076762828E+03  0.25500000920E-02 0.  1.
       -2   -1    0    0    0  501  0.00000000000E+00  0.00000000000E+00 -0.40692373952E+03  0.40692373953E+03  0.25500000920E-02 0. -1.
    10030    2    1    2    0    0  0.00000000000E+00  0.00000000000E+00 -0.10615611125E+03  0.70769136781E+03  0.69968418027E+03 0.  0.
        1    1    3    3  502    0 -0.14436348868E+03 -0.29559547726E+03  0.67330455131E+02  0.33578399792E+03  0.50400001928E-02 0.  1.
       -1    1    3    3    0  502  0.14436348868E+03  0.29559547726E+03 -0.17348656638E+03  0.37190736990E+03  0.50400001928E-02 0. -1.
</event>
<event>
 5   0  0.2751729E-02  0.7212266E+03  0.7818609E-02  0.9681605E-01
       -1   -1    0    0    0  501  0.00000000000E+00  0.00000000000E+00  0.33617574454E+03  0.33617574458E+03  0.50400001928E-02 0.  1.
        1   -1    0    0  501    0  0.00000000000E+00  0.00000000000E+00 -0.38682723804E+03  0.38682723808E+03  0.50400001928E-02 0. -1.
    10030    2    1    2    0    0  0.00000000000E+00  0.00000000000E+00 -0.50651493505E+02  0.72300298266E+03  0.72122655188E+03 0.  0.
        1    1    3    3  502    0  0.21243830625E+03 -0.14828330851E+02  0.26640998947E+03  0.34106333118E+03  0.50400001928E-02 0.  1.
       -1    1    3    3    0  502 -0.21243830625E+03  0.14828330851E+02 -0.31706148298E+03  0.38193965148E+03  0.50400001928E-02 0. -1.
</event>
<event>
 5   0  0.4503289E-02  0.6988136E+03  0.7818609E-02  0.9719263E-01
       -2   -1    0    0    0  501  0.00000000000E+00  0.00000000000E+00  0.65465297443E+03  0.65465297443E+03  0.25500000920E-02 0.  1.
        2   -1    0    0  501    0  0.00000000000E+00  0.00000000000E+00 -0.18648827384E+03  0.18648827386E+03  0.25500000920E-02 0. -1.
    10030    2    1    2    0    0  0.00000000000E+00  0.00000000000E+00  0.46816470059E+03  0.84114124829E+03  0.69881357507E+03 0.  0.
        2    1    3    3  502    0 -0.17857042257E+03 -0.30029844208E+03  0.23926694787E+03  0.42345628167E+03  0.25500000920E-02 0.  1.
       -2    1    3    3    0  502  0.17857042257E+03  0.30029844208E+03  0.22889775272E+03  0.41768496662E+03  0.25500000920E-02 0. -1.
</event>
<event>
 5   0  0.2751729E-02  0.7061998E+03  0.7818609E-02  0.9706688E-01
       -1   -1    0    0    0  501  0.00000000000E+00  0.00000000000E+00  0.47154210619E+03  0.47154210622E+03  0.50400001928E-02 0.  1.
        1   -1    0    0  501    0  0.00000000000E+00  0.00000000000E+00 -0.26440809607E+03  0.26440809612E+03  0.50400001928E-02 0. -1.
    10030    2    1    2    0    0  0.00000000000E+00  0.00000000000E+00  0.20713401012E+03  0.73595020233E+03  0.70619983161E+03 0.  0.
        1    1    3    3  502    0  0.19721993798E+03  0.29271829006E+03  0.93153589451E+02  0.36504423366E+03  0.50400001928E-02 0.  1.
       -1    1    3    3    0  502 -0.19721993798E+03 -0.29271829006E+03  0.11398042067E+03  0.37090596867E+03  0.50400001928E-02 0. -1.
</event>
<event>
 5   0  0.2758681E-02  0.7185051E+03  0.7818609E-02  0.9686099E-01
       -1   -1    0    0    0  501  0.00000000000E+00  0.00000000000E+00  0.53491607744E+03  0.53491607746E+03  0.50400001928E-02 0.  1.
        1   -1    0    0  501    0  0.00000000000E+00  0.00000000000E+00 -0.24127599515E+03  0.24127599521E+03  0.50400001928E-02 0. -1.
    10030    2    1    2    0    0  0.00000000000E+00  0.00000000000E+00  0.29364008228E+03  0.77619207267E+03  0.71850513968E+03 0.  0.
        3    1    3    3  502    0 -0.14392043812E+03 -0.16588240666E+03 -0.16031677765E+03  0.27190355780E+03  0.10100000352E+00 0. -1.
       -3    1    3    3    0  502  0.14392043812E+03  0.16588240666E+03  0.45395685993E+03  0.50428851487E+03  0.10100000352E+00 0.  1.
</event>
<event>
 5   0  0.2751729E-02  0.6974635E+03  0.7818609E-02  0.9721580E-01
       -1   -1    0    0    0  501  0.00000000000E+00  0.00000000000E+00  0.14747437513E+03  0.14747437521E+03  0.50400001928E-02 0.  1.
        1   -1    0    0  501    0  0.00000000000E+00  0.00000000000E+00 -0.82464378879E+03  0.82464378881E+03  0.50400001928E-02 0. -1.
    10030    2    1    2    0    0  0.00000000000E+00  0.00000000000E+00 -0.67716941366E+03  0.97211816402E+03  0.69746348292E+03 0.  0.
        1    1    3    3  502    0 -0.69702602663E+02  0.28610543860E+03 -0.78206637246E+02  0.30468188813E+03  0.50400001928E-02 0.  1.
       -1    1    3    3    0  502  0.69702602663E+02 -0.28610543860E+03 -0.59896277642E+03  0.66743627589E+03  0.50400001928E-02 0. -1.
</event>
<event>
 5   0  0.4420645E-02  0.7163949E+03  0.7818609E-02  0.9689598E-01
        2   -1    0    0  501    0  0.00000000000E+00  0.00000000000E+00  0.78788614492E+03  0.78788614492E+03  0.25500000920E-02 0.  1.
       -2   -1    0    0    0  501  0.00000000000E+00  0.00000000000E+00 -0.16284767335E+03  0.16284767337E+03  0.25500000920E-02 0. -1.
    10030    2    1    2    0    0  0.00000000000E+00  0.00000000000E+00  0.62503847157E+03  0.95073381829E+03  0.71639493458E+03 0.  0.
        5    1    3    3  502    0 -0.13561907257E+03  0.20374263834E+03  0.65955174361E+03  0.70351559188E+03  0.46999998093E+01 0.  1.
       -5    1    3    3    0  502  0.13561907257E+03 -0.20374263834E+03 -0.34513272040E+02  0.24721822641E+03  0.46999998093E+01 0. -1.
</event>
<event>
 5   0  0.4299912E-02  0.6836575E+03  0.7818609E-02  0.9745596E-01
       -2   -1    0    0    0  501  0.00000000000E+00  0.00000000000E+00  0.84426060831E+02  0.84426060870E+02  0.25500000920E-02 0. -1.
        2   -1    0    0  501    0  0.00000000000E+00  0.00000000000E+00 -0.13840144356E+04  0.13840144356E+04  0.25500000920E-02 0.  1.
    10030    2    1    2    0    0  0.00000000000E+00  0.00000000000E+00 -0.12995883748E+04  0.14684404965E+04  0.68365747846E+03 0.  0.
        3    1    3    3  502    0  0.73010420975E+02 -0.17770788681E+03 -0.12570751997E+04  0.12716716096E+04  0.10100000352E+00 0.  1.
       -3    1    3    3    0  502 -0.73010420975E+02  0.17770788681E+03 -0.42513175050E+02  0.19676888692E+03  0.10100000352E+00 0. -1.
</event>
<event>
 5   0  0.4526837E-02  0.6986273E+03  0.7818609E-02  0.9719583E-01
        2   -1    0    0  501    0  0.00000000000E+00  0.00000000000E+00  0.15436876059E+04  0.15436876059E+04  0.25500000920E-02 0.  1.
       -2   -1    0    0    0  501  0.00000000000E+00  0.00000000000E+00 -0.79044507235E+02  0.79044507276E+02  0.25500000920E-02 0. -1.
    10030    2    1    2    0    0  0.00000000000E+00  0.00000000000E+00  0.14646430986E+04  0.16227321132E+04  0.69862730026E+03 0.  0.
        1    1    3    3  502    0  0.24446538188E+03  0.23154455861E+03  0.51637108112E+03  0.61645380931E+03  0.50400001928E-02 0. -1.
       -1    1    3    3    0  502 -0.24446538188E+03 -0.23154455861E+03  0.94827201752E+03  0.10062783038E+04  0.50400001928E-02 0.  1.
</event>
<event>
 5   0  0.2750139E-02  0.6900363E+03  0.7818609E-02  0.9734425E-01
       -1   -1    0    0    0  501  0.00000000000E+00  0.00000000000E+00  0.10580309696E+03  0.10580309708E+03  0.50400001928E-02 0.  1.
        1   -1    0    0  501    0  0.00000000000E+00  0.00000000000E+00 -0.11250853924E+04  0.11250853924E+04  0.50400001928E-02 0. -1.
    10030    2    1    2    0    0  0.00000000000E+00  0.00000000000E+00 -0.10192822954E+04  0.12308884895E+04  0.69003628583E+03 0.  0.
        2    1    3    3  502    0 -0.20093138272E+02 -0.34443162288E+03 -0.50821200021E+03  0.61426078681E+03  0.25500000920E-02 0. -1.
       -2    1    3    3    0  502  0.20093138272E+02  0.34443162288E+03 -0.51107029522E+03  0.61662770268E+03  0.25500000920E-02 0.  1.
</event>
<event>
 5   0  0.2751729E-02  0.7015151E+03  0.7818609E-02  0.9714645E-01
        1   -1    0    0  501    0  0.00000000000E+00  0.00000000000E+00  0.46705849381E+03  0.46705849384E+03  0.50400001928E-02 0. -1.
       -1   -1    0    0    0  501  0.00000000000E+00  0.00000000000E+00 -0.26341637576E+03  0.26341637580E+03  0.50400001928E-02 0.  1.
    10030    2    1    2    0    0  0.00000000000E+00  0.00000000000E+00  0.20364211805E+03  0.73047486964E+03  0.70151509102E+03 0.  0.
        1    1    3    3  502    0  0.17713759850E+03  0.11830752025E+03 -0.18835197408E+03  0.28434286401E+03  0.50400001928E-02 0.  1.
       -1    1    3    3    0  502 -0.17713759850E+03 -0.11830752025E+03  0.39199409213E+03  0.44613200563E+03  0.50400001928E-02 0. -1.
</event>
<event>
 5   0  0.4420645E-02  0.6708070E+03  0.7818609E-02  0.9768501E-01
       -2   -1    0    0    0  501  0.00000000000E+00  0.00000000000E+00  0.48493244515E+02  0.48493244582E+02  0.25500000920E-02 0. -1.
        2   -1    0    0  501    0  0.00000000000E+00  0.00000000000E+00 -0.23198182368E+04  0.23198182368E+04  0.25500000920E-02 0.  1.
    10030    2    1    2    0    0  0.00000000000E+00  0.00000000000E+00 -0.22713249923E+04  0.23683114814E+04  0.67080701567E+03 0.  0.
        5    1    3    3  502    0 -0.23630094872E+03 -0.23439982930E+03 -0.99043728685E+03  0.10448777572E+04  0.46999998093E+01 0.  1.
       -5    1    3    3    0  502  0.23630094872E+03  0.23439982930E+03 -0.12808877055E+04  0.13234337242E+04  0.46999998093E+01 0. -1.
</event>
<event>
 5   0  0.2758681E-02  0.6951450E+03  0.7818609E-02  0.9725571E-01
       -1   -1    0    0    0  501  0.00000000000E+00  0.00000000000E+00  0.12021799486E+03  0.12021799496E+03  0.50400001928E-02 0. -1.
        1   -1    0    0  501    0  0.00000000000E+00  0.00000000000E+00 -0.10048965444E+04  0.10048965445E+04  0.50400001928E-02 0.  1.
    10030    2    1    2    0    0  0.00000000000E+00  0.00000000000E+00 -0.88467854959E+03  0.11251145394E+04  0.69514501417E+03 0.  0.
        3    1    3    3  502    0 -0.26006162533E+03  0.81039092270E+02 -0.79175953508E+03  0.83730672698E+03  0.10100000352E+00 0.  1.
       -3    1    3    3    0  502  0.26006162533E+03 -0.81039092270E+02 -0.92919014504E+02  0.28780781244E+03  0.10100000352E+00 0. -1.
</event>
<event>
 5   0  0.2684924E-02  0.6845169E+03  0.7818609E-02  0.9744083E-01
        1   -1    0    0  501    0  0.00000000000E+00  0.00000000000E+00  0.54088395206E+03  0.54088395208E+03  0.50400001928E-02 0.  1.
       -1   -1    0    0    0  501  0.00000000000E+00  0.00000000000E+00 -0.21657294406E+03  0.21657294412E+03  0.50400001928E-02 0. -1.
    10030    2    1    2    0    0  0.00000000000E+00  0.00000000000E+00  0.32431100800E+03  0.75745689620E+03  0.68451685128E+03 0.  0.
        4    1    3    3  502    0  0.14003388697E+03  0.14432982343E+03  0.46861111832E+03  0.50993978129E+03  0.12699999809E+01 0.  1.
       -4    1    3    3    0  502 -0.14003388697E+03 -0.14432982343E+03 -0.14430011032E+03  0.24751711490E+03  0.12699999809E+01 0. -1.
</event>
<event>
 5   0  0.4299912E-02  0.6982886E+03  0.7818609E-02  0.9720163E-01
        2   -1    0    0  501    0  0.00000000000E+00  0.00000000000E+00  0.62881513175E+03  0.62881513176E+03  0.25500000920E-02 0. -1.
       -2   -1    0    0    0  501  0.00000000000E+00  0.00000000000E+00 -0.19385942620E+03  0.19385942621E+03  0.25500000920E-02 0.  1.
    10030    2    1    2    0    0  0.00000000000E+00  0.00000000000E+00  0.43495570556E+03  0.82267455797E+03  0.69828859545E+03 0.  0.
        3    1    3    3  502    0  0.25701801882E+02 -0.23514116648E+03  0.52002968810E+03  0.57129925389E+03  0.10100000352E+00 0. -1.
       -3    1    3    3    0  502 -0.25701801882E+02  0.23514116648E+03 -0.85073982540E+02  0.25137530408E+03  0.10100000352E+00 0.  1.
</event>
<event>
 5   0  0.2777999E-02  0.6761394E+03  0.7818609E-02  0.9758930E-01
       -1   -1    0    0    0  501  0.00000000000E+00  0.00000000000E+00  0.16110201639E+03  0.16110201647E+03  0.50400001928E-02 0. -1.
        1   -1    0    0  501    0  0.00000000000E+00  0.00000000000E+00 -0.70943312416E+03  0.70943312418E+03  0.50400001928E-02 0.  1.
    10030    2    1    2    0    0  0.00000000000E+00  0.00000000000E+00 -0.54833110777E+03  0.87053514065E+03  0.67613935498E+03 0.  0.
        5    1    3    3  502    0 -0.31921616407E+03 -0.56064001610E+02 -0.15049176970E+03  0.35736814971E+03  0.46999998093E+01 0. -1.
       -5    1    3    3    0  502  0.31921616407E+03  0.56064001610E+02 -0.39783933807E+03  0.51316699094E+03  0.46999998093E+01 0.  1.
</event>
<event>
 5   0  0.4420645E-02  0.7053288E+03  0.7818609E-02  0.9708162E-01
        2   -1    0    0  501    0  0.00000000000E+00  0.00000000000E+00  0.89924614122E+02  0.89924614159E+02  0.25500000920E-02 0. -1.
       -2   -1    0    0    0  501  0.00000000000E+00  0.00000000000E+00 -0.13830714377E+04  0.13830714377E+04  0.25500000920E-02 0.  1.
    10030    2    1    2    0    0  0.00000000000E+00  0.00000000000E+00 -0.12931468236E+04  0.14729960519E+04  0.70532876127E+03 0.  0.
        5    1    3    3  502    0 -0.32058194527E+02 -0.20785160187E+03 -0.12377001715E+04  0.12554496489E+04  0.46999998093E+01 0.  1.
       -5    1    3    3    0  502  0.32058194527E+02  0.20785160187E+03 -0.55446652060E+02  0.21754640301E+03  0.46999998093E+01 0. -1.
</event>
<event>
 5   0  0.4365492E-02  0.6332023E+03  0.7818609E-02  0.9838820E-01
        2   -1    0    0  501    0  0.00000000000E+00  0.00000000000E+00  0.48368888188E+03  0.48368888189E+03  0.25500000920E-02 0.  1.
       -2   -1    0    0    0  501  0.00000000000E+00  0.00000000000E+00 -0.20723300427E+03  0.20723300428E+03  0.25500000920E-02 0. -1.
    10030    2    1    2    0    0  0.00000000000E+00  0.00000000000E+00  0.27645587761E+03  0.69092188617E+03  0.63320233774E+03 0.  0.
        4    1    3    3  502    0 -0.29105406215E+03 -0.12389583669E+03  0.12391583698E+03  0.33973429764E+03  0.12699999809E+01 0. -1.
       -4    1    3    3    0  502  0.29105406215E+03  0.12389583669E+03  0.15254004063E+03  0.35118758853E+03  0.12699999809E+01 0.  1.
</event>
<event>
 5   0  0.4526837E-02  0.6943660E+03  0.7818609E-02  0.9726916E-01
       -2   -1    0    0    0  501  0.00000000000E+00  0.00000000000E+00  0.27485388303E+03  0.27485388304E+03  0.25500000920E-02 0. -1.
        2   -1    0    0  501    0  0.00000000000E+00  0.00000000000E+00 -0.43854584169E+03  0.43854584170E+03  0.25500000920E-02 0.  1.
    10030    2    1    2    0    0  0.00000000000E+00  0.00000000000E+00 -0.16369195866E+03  0.71339972474E+03  0.69436597694E+03 0.  0.
        1    1    3    3  502    0  0.13114650134E+03 -0.87645485801E+02  0.23591319347E+03  0.28378895482E+03  0.50400001928E-02 0. -1.
       -1    1    3    3    0  502 -0.13114650134E+03  0.87645485801E+02 -0.39960515214E+03  0.42961076993E+03  0.50400001928E-02 0.  1.
</event>
<event>
 5   0  0.4526837E-02  0.7069274E+03  0.7818609E-02  0.9705458E-01
       -2   -1    0    0    0  501  0.00000000000E+00  0.00000000000E+00  0.12018138840E+04  0.12018138840E+04  0.25500000920E-02 0.  1.
        2   -1    0    0  501    0  0.00000000000E+00  0.00000000000E+00 -0.10395667253E+03  0.10395667256E+03  0.25500000920E-02 0. -1.
    10030    2    1    2    0    0  0.00000000000E+00  0.00000000000E+00  0.10978572115E+04  0.13057705566E+04  0.70692735809E+03 0.  0.
        1    1    3    3  502    0 -0.83585645266E+02 -0.30297600997E+03  0.25020192859E+03  0.40172382031E+03  0.50400001928E-02 0. -1.
       -1    1    3    3    0  502  0.83585645266E+02  0.30297600997E+03  0.84765528288E+03  0.90404673625E+03  0.50400001928E-02 0.  1.
</event>
<event>
 5   0  0.2750139E-02  0.6923155E+03  0.7818609E-02  0.9730465E-01
       -1   -1    0    0    0  501  0.00000000000E+00  0.00000000000E+00  0.17694293393E+03  0.17694293400E+03  0.50400001928E-02 0. -1.
        1   -1    0    0  501    0  0.00000000000E+00  0.00000000000E+00 -0.67719672480E+03  0.67719672482E+03  0.50400001928E-02 0.  1.
    10030    2    1    2    0    0  0.00000000000E+00  0.00000000000E+00 -0.50025379086E+03  0.85413965882E+03  0.69231546386E+03 0.  0.
        2    1    3    3  502    0 -0.15090128283E+03 -0.11168006013E+03  0.10868154869E+03  0.21692236405E+03  0.25500000920E-02 0. -1.
       -2    1    3    3    0  502  0.15090128283E+03  0.11168006013E+03 -0.60893533956E+03  0.63721729477E+03  0.25500000920E-02 0.  1.
</event>
<event>
 5   0  0.4526837E-02  0.7243533E+03  0.7818609E-02  0.9676468E-01
       -2   -1    0    0    0  501  0.00000000000E+00  0.00000000000E+00  0.58390374755E+03  0.58390374756E+03  0.25500000920E-02 0. -1.
        2   -1    0    0  501    0  0.00000000000E+00  0.00000000000E+00 -0.22464651690E+03  0.22464651692E+03  0.25500000920E-02 0.  1.
    10030    2    1    2    0    0  0.00000000000E+00  0.00000000000E+00  0.35925723065E+03  0.80855026448E+03  0.72435334776E+03 0.  0.
        1    1    3    3  502    0 -0.30246633641E+03  0.17035362877E+03  0.64349343313E+02  0.35305393569E+03  0.50400001928E-02 0.  1.
       -1    1    3    3    0  502  0.30246633641E+03 -0.17035362877E+03  0.29490788734E+03  0.45549632878E+03  0.50400001928E-02 0. -1.
</event>
<event>
 5   0  0.2777999E-02  0.7109367E+03  0.7818609E-02  0.9698710E-01
        1   -1    0    0  501    0  0.00000000000E+00  0.00000000000E+00  0.18098952364E+03  0.18098952371E+03  0.50400001928E-02 0.  1.
       -1   -1    0    0    0  501  0.00000000000E+00  0.00000000000E+00 -0.69814954435E+03  0.69814954437E+03  0.50400001928E-02 0. -1.
    10030    2    1    2    0    0  0.00000000000E+00  0.00000000000E+00 -0.51716002071E+03  0.87913906807E+03  0.71093671589E+03 0.  0.
        5    1    3    3  502    0 -0.14962424387E+03  0.21663616113E+03  0.36696503520E+02  0.26587095371E+03  0.46999998093E+01 0.  1.
       -5    1    3    3    0  502  0.14962424387E+03 -0.21663616113E+03 -0.55385652423E+03  0.61326811436E+03  0.46999998093E+01 0. -1.
</event>
<event>
 5   0  0.2758681E-02  0.7012184E+03  0.7818609E-02  0.9715151E-01
        1   -1    0    0  501    0  0.00000000000E+00  0.00000000000E+00  0.26192090454E+03  0.26192090458E+03  0.50400001928E-02 0. -1.
       -1   -1    0    0    0  501  0.00000000000E+00  0.00000000000E+00 -0.46932798325E+03  0.46932798328E+03  0.50400001928E-02 0.  1.
    10030    2    1    2    0    0  0.00000000000E+00  0.00000000000E+00 -0.20740707871E+03  0.73124888786E+03  0.70121839658E+03 0.  0.
        3    1    3    3  502    0 -0.30407953409E+03  0.36823460132E+02 -0.28161612938E+03  0.41608651119E+03  0.10100000352E+00 0.  1.
       -3    1    3    3    0  502  0.30407953409E+03 -0.36823460132E+02  0.74209050669E+02  0.31516237667E+03  0.10100000352E+00 0. -1.
</event>
<event>
 5   0  0.4365492E-02  0.6992904E+03  0.7818609E-02  0.9718446E-01
        2   -1    0    0  501    0  0.00000000000E+00  0.00000000000E+00  0.40911733848E+03  0.40911733849E+03  0.25500000920E-02 0. -1.
       -2   -1    0    0    0  501  0.00000000000E+00  0.00000000000E+00 -0.29881838364E+03  0.29881838365E+03  0.25500000920E-02 0.  1.
    10030    2    1    2    0    0  0.00000000000E+00  0.00000000000E+00  0.11029895484E+03  0.70793572214E+03  0.69929044555E+03 0.  0.
        4    1    3    3  502    0 -0.58372629962E+02  0.25202123615E+03  0.29327673857E+03  0.39106895260E+03  0.12699999809E+01 0. -1.
       -4    1    3    3    0  502  0.58372629962E+02 -0.25202123615E+03 -0.18297778372E+03  0.31686676954E+03  0.12699999809E+01 0.  1.
</event>
<event>
 5   0  0.2684924E-02  0.6966235E+03  0.7818609E-02  0.9723024E-01
       -1   -1    0    0    0  501  0.00000000000E+00  0.00000000000E+00  0.12171656888E+03  0.12171656899E+03  0.50400001928E-02 0. -1.
        1   -1    0    0  501    0  0.00000000000E+00  0.00000000000E+00 -0.99675061249E+03  0.99675061251E+03  0.50400001928E-02 0.  1.
    10030    2    1    2    0    0  0.00000000000E+00  0.00000000000E+00 -0.87503404361E+03  0.11184671815E+04  0.69662346974E+03 0.  0.
        4    1    3    3  502    0 -0.66939888303E+02  0.22288607320E+03 -0.85360144906E+03  0.88475770526E+03  0.12699999809E+01 0.  1.
       -4    1    3    3    0  502  0.66939888303E+02 -0.22288607320E+03 -0.21432594548E+02  0.23370947623E+03  0.12699999809E+01 0. -1.
</event>
<event>
 5   0  0.4299912E-02  0.6896765E+03  0.7818609E-02  0.9735051E-01
        2   -1    0    0  501    0  0.00000000000E+00  0.00000000000E+00  0.65479129604E+03  0.65479129605E+03  0.25500000920E-02 0.  1.
       -2   -1    0    0    0  501  0.00000000000E+00  0.00000000000E+00 -0.18160506323E+03  0.18160506325E+03  0.25500000920E-02 0. -1.
    10030    2    1    2    0    0  0.00000000000E+00  0.00000000000E+00  0.47318623281E+03  0.83639635930E+03  0.68967648860E+03 0.  0.
        3    1    3    3  502    0 -0.22593443066E+03 -0.13845584039E+03 -0.31026470436E+02  0.26679400062E+03  0.10100000352E+00 0. -1.
       -3    1    3    3    0  502  0.22593443066E+03  0.13845584039E+03  0.50421270324E+03  0.56960235868E+03  0.10100000352E+00 0.  1.
</event>
<event>
 5   0  0.4299912E-02  0.7128295E+03  0.7818609E-02  0.9695540E-01
       -2   -1    0    0    0  501  0.00000000000E+00  0.00000000000E+00  0.96232307828E+02  0.96232307862E+02  0.25500000920E-02 0. -1.
        2   -1    0    0  501    0  0.00000000000E+00  0.00000000000E+00 -0.13200502633E+04  0.13200502633E+04  0.25500000920E-02 0.  1.
    10030    2    1    2    0    0  0.00000000000E+00  0.00000000000E+00 -0.12238179555E+04  0.14162825712E+04  0.71282952609E+03 0.  0.
        3    1    3    3  502    0 -0.25271833496E+03  0.21667854823E+03 -0.86491277114E+03  0.92676332576E+03  0.10100000352E+00 0.  1.
       -3    1    3    3    0  502  0.25271833496E+03 -0.21667854823E+03 -0.35890518436E+03  0.48951924544E+03  0.10100000352E+00 0. -1.
</event>
<event>
 5   0  0.4299912E-02  0.6924650E+03  0.7818609E-02  0.9730205E-01
       -2   -1    0    0    0  501  0.00000000000E+00  0.00000000000E+00  0.56803464716E+03  0.56803464717E+03  0.25500000920E-02 0. -1.
        2   -1    0    0  501    0  0.00000000000E+00  0.00000000000E+00 -0.21103810362E+03  0.21103810364E+03  0.25500000920E-02 0.  1.
    10030    2    1    2    0    0  0.00000000000E+00  0.00000000000E+00  0.35699654354E+03  0.77907275081E+03  0.69246503085E+03 0.  0.
        3    1    3    3  502    0 -0.84982839905E+02 -0.44141868664E+02 -0.19584191057E+03  0.21800149491E+03  0.10100000352E+00 0.  1.
       -3    1    3    3    0  502  0.84982839905E+02  0.44141868664E+02  0.55283845411E+03  0.56107125590E+03  0.10100000352E+00 0. -1.
</event>
<event>
 5   0  0.2750139E-02  0.7396869E+03  0.7818609E-02  0.9651670E-01
       -1   -1    0    0    0  501  0.00000000000E+00  0.00000000000E+00  0.22938891097E+03  0.22938891102E+03  0.50400001928E-02 0. -1.
        1   -1    0    0  501    0  0.00000000000E+00  0.00000000000E+00 -0.59629810111E+03  0.59629810113E+03  0.50400001928E-02 0.  1.
    10030    2    1    2    0    0  0.00000000000E+00  0.00000000000E+00 -0.36690919014E+03  0.82568701215E+03  0.73968688526E+03 0.  0.
        2    1    3    3  502    0  0.95453396381E+02  0.55867754846E+00 -0.58231068852E+03  0.59008253742E+03  0.25500000920E-02 0.  1.
       -2    1    3    3    0  502 -0.95453396381E+02 -0.55867754846E+00  0.21540149838E+03  0.23560447473E+03  0.25500000920E-02 0. -1.
</event>
<event>
 5   0  0.4420645E-02  0.7026261E+03  0.7818609E-02  0.9712752E-01
        2   -1    0    0  501    0  0.00000000000E+00  0.00000000000E+00  0.24750651824E+03  0.24750651825E+03  0.25500000920E-02 0. -1.
       -2   -1    0    0    0  501  0.00000000000E+00  0.00000000000E+00 -0.49865697344E+03  0.49865697345E+03  0.25500000920E-02 0.  1.
    10030    2    1    2    0    0  0.00000000000E+00  0.00000000000E+00 -0.25115045520E+03  0.74616349170E+03  0.70262607779E+03 0.  0.
        5    1    3    3  502    0  0.13317458023E+03  0.22309237924E+02  0.21881162526E+03  0.25716490480E+03  0.46999998093E+01 0. -1.
       -5    1    3    3    0  502 -0.13317458023E+03 -0.22309237924E+02 -0.46996208046E+03  0.48899858689E+03  0.46999998093E+01 0.  1.
</event>
<event>
 5   0  0.4420645E-02  0.6974558E+03  0.7818609E-02  0.9721593E-01
        2   -1    0    0  501    0  0.00000000000E+00  0.00000000000E+00  0.19456513700E+03  0.19456513701E+03  0.25500000920E-02 0. -1.
       -2   -1    0    0    0  501  0.00000000000E+00  0.00000000000E+00 -0.62504078357E+03  0.62504078357E+03  0.25500000920E-02 0.  1.
    10030    2    1    2    0    0  0.00000000000E+00  0.00000000000E+00 -0.43047564657E+03  0.81960592059E+03  0.69745579270E+03 0.  0.
        5    1    3    3  502    0  0.95527442142E+02  0.30596887130E+03 -0.37656408153E+03  0.49453517560E+03  0.46999998093E+01 0.  1.
       -5    1    3    3    0  502 -0.95527442142E+02 -0.30596887130E+03 -0.53911565041E+02  0.32507074499E+03  0.46999998093E+01 0. -1.
</event>
<event>
 5   0  0.4365492E-02  0.7175656E+03  0.7818609E-02  0.9687655E-01
       -2   -1    0    0    0  501  0.00000000000E+00  0.00000000000E+00  0.11308045488E+04  0.11308045488E+04  0.25500000920E-02 0.  1.
        2   -1    0    0  501    0  0.00000000000E+00  0.00000000000E+00 -0.11383497902E+03  0.11383497905E+03  0.25500000920E-02 0. -1.
    10030    2    1    2    0    0  0.00000000000E+00  0.00000000000E+00  0.10169695698E+04  0.12446395279E+04  0.71756564050E+03 0.  0.
        4    1    3    3  502    0  0.29051999772E+03 -0.92904201675E+02  0.83617079618E+03  0.89006531954E+03  0.12699999809E+01 0.  1.
       -4    1    3    3    0  502 -0.29051999772E+03  0.92904201675E+02  0.18079877361E+03  0.35457420832E+03  0.12699999809E+01 0. -1.
</event>
<event>
 5   0  0.4365492E-02  0.6971922E+03  0.7818609E-02  0.9722046E-01
       -2   -1    0    0    0  501  0.00000000000E+00  0.00000000000E+00  0.18634763140E+03  0.18634763142E+03  0.25500000920E-02 0.  1.
        2   -1    0    0  501    0  0.00000000000E+00  0.00000000000E+00 -0.65211054125E+03  0.65211054126E+03  0.25500000920E-02 0. -1.
    10030    2    1    2    0    0  0.00000000000E+00  0.00000000000E+00 -0.46576290985E+03  0.83845817268E+03  0.69719223973E+03 0.  0.
        4    1    3    3  502    0 -0.17235839884E+03 -0.28300724514E+03 -0.10270292576E+03  0.34691500733E+03  0.12699999809E+01 0.  1.
       -4    1    3    3    0  502  0.17235839884E+03  0.28300724514E+03 -0.36305998409E+03  0.49154316535E+03  0.12699999809E+01 0. -1.
</event>
<event>
 5   0  0.2750139E-02  0.7063300E+03  0.7818609E-02  0.9706468E-01
       -1   -1    0    0    0  501  0.00000000000E+00  0.00000000000E+00  0.43535707419E+03  0.43535707422E+03  0.50400001928E-02 0. -1.
        1   -1    0    0  501    0  0.00000000000E+00  0.00000000000E+00 -0.28649013471E+03  0.28649013475E+03  0.50400001928E-02 0.  1.
    10030    2    1    2    0    0  0.00000000000E+00  0.00000000000E+00  0.14886693949E+03  0.72184720897E+03  0.70632997064E+03 0.  0.
        2    1    3    3  502    0  0.11868268194E+02  0.34141879122E+03 -0.17076177926E+02  0.34205152046E+03  0.25500000920E-02 0.  1.
       -2    1    3    3    0  502 -0.11868268194E+02 -0.34141879122E+03  0.16594311741E+03  0.37979568851E+03  0.25500000920E-02 0. -1.
</event>
<event>
 5   0  0.4299912E-02  0.7102807E+03  0.7818609E-02  0.9699811E-01
        2   -1    0    0  501    0  0.00000000000E+00  0.00000000000E+00  0.15993399993E+04  0.15993399993E+04  0.25500000920E-02 0.  1.
       -2   -1    0    0    0  501  0.00000000000E+00  0.00000000000E+00 -0.78860444766E+02  0.78860444807E+02  0.25500000920E-02 0. -1.
    10030    2    1    2    0    0  0.00000000000E+00  0.00000000000E+00  0.15204795545E+04  0.16782004441E+04  0.71028068736E+03 0.  0.
        3    1    3    3  502    0  0.42767791277E+02  0.31803451237E+02  0.15898371683E+04  0.15907302648E+04  0.10100000352E+00 0.  1.
       -3    1    3    3    0  502 -0.42767791277E+02 -0.31803451237E+02 -0.69357613755E+02  0.87470179307E+02  0.10100000352E+00 0. -1.
</event>
<event>
 5   0  0.2684924E-02  0.6795808E+03  0.7818609E-02  0.9752803E-01
       -1   -1    0    0    0  501  0.00000000000E+00  0.00000000000E+00  0.15418533558E+03  0.15418533566E+03  0.50400001928E-02 0.  1.
        1   -1    0    0  501    0  0.00000000000E+00  0.00000000000E+00 -0.74882302840E+03  0.74882302841E+03  0.50400001928E-02 0. -1.
    10030    2    1    2    0    0  0.00000000000E+00  0.00000000000E+00 -0.59463769282E+03  0.90300836407E+03  0.67958084130E+03 0.  0.
        4    1    3    3  502    0  0.83223511744E+02 -0.87757702435E+02  0.12461267921E+03  0.17365914881E+03  0.12699999809E+01 0.  1.
       -4    1    3    3    0  502 -0.83223511744E+02  0.87757702435E+02 -0.71925037203E+03  0.72934921527E+03  0.12699999809E+01 0. -1.
</event>
<event>
 5   0  0.4526837E-02  0.7006182E+03  0.7818609E-02  0.9716176E-01
        2   -1    0    0  501    0  0.00000000000E+00  0.00000000000E+00  0.10836168675E+04  0.10836168675E+04  0.25500000920E-02 0. -1.
       -2   -1    0    0    0  501  0.00000000000E+00  0.00000000000E+00 -0.11324708249E+03  0.11324708252E+03  0.25500000920E-02 0.  1.
    10030    2    1    2    0    0  0.00000000000E+00  0.00000000000E+00  0.97036978502E+03  0.11968639500E+04  0.70061815222E+03 0.  0.
        1    1    3    3  502    0  0.13521862114E+03  0.23692796794E+03  0.86061212949E+03  0.90281347739E+03  0.50400001928E-02 0. -1.
       -1    1    3    3    0  502 -0.13521862114E+03 -0.23692796794E+03  0.10975765553E+03  0.29405047265E+03  0.50400001928E-02 0.  1.
</event>
<event>
 5   0  0.4503289E-02  0.7011594E+03  0.7818609E-02  0.9715252E-01
       -2   -1    0    0    0  501  0.00000000000E+00  0.00000000000E+00  0.15623167979E+03  0.15623167981E+03  0.25500000920E-02 0.  1.
        2   -1    0    0  501    0  0.00000000000E+00  0.00000000000E+00 -0.78669136563E+03  0.78669136563E+03  0.25500000920E-02 0. -1.
    10030    2    1    2    0    0  0.00000000000E+00  0.00000000000E+00 -0.63045968584E+03  0.94292304545E+03  0.70115936432E+03 0.  0.
        2    1    3    3  502    0  0.12456480524E+03  0.12046652692E+03 -0.72507033148E+03  0.74549014776E+03  0.25500000920E-02 0. -1.
       -2    1    3    3    0  502 -0.12456480524E+03 -0.12046652692E+03  0.94610645642E+02  0.19743289768E+03  0.25500000920E-02 0.  1.
</event>
<event>
 5   0  0.2684924E-02  0.7054550E+03  0.7818609E-02  0.9707949E-01
        1   -1    0    0  501    0  0.00000000000E+00  0.00000000000E+00  0.19584082909E+04  0.19584082909E+04  0.50400001928E-02 0.  1.
       -1   -1    0    0    0  501  0.00000000000E+00  0.00000000000E+00 -0.63529498539E+02  0.63529498738E+02  0.50400001928E-02 0. -1.
    10030    2    1    2    0    0  0.00000000000E+00  0.00000000000E+00  0.18948787924E+04  0.20219377896E+04  0.70545502157E+03 0.  0.
        4    1    3    3  502    0 -0.11402364884E+03 -0.32850676959E+03  0.11169301032E+04  0.11698087700E+04  0.12699999809E+01 0.  1.
       -4    1    3    3    0  502  0.11402364884E+03  0.32850676959E+03  0.77794868918E+03  0.85212901961E+03  0.12699999809E+01 0. -1.
</event>
<event>
 5   0  0.2750139E-02  0.7030050E+03  0.7818609E-02  0.9712107E-01
       -1   -1    0    0    0  501  0.00000000000E+00  0.00000000000E+00  0.55846377149E+02  0.55846377376E+02  0.50400001928E-02 0. -1.
        1   -1    0    0  501    0  0.00000000000E+00  0.00000000000E+00 -0.22123905439E+04  0.22123905439E+04  0.50400001928E-02 0.  1.
    10030    2    1    2    0    0  0.00000000000E+00  0.00000000000E+00 -0.21565441667E+04  0.22682369212E+04  0.70300497004E+03 0.  0.
        2    1    3    3  502    0 -0.63623265237E+02  0.10529465513E+03 -0.15884602451E+02  0.12404517274E+03  0.25500000920E-02 0. -1.
       -2    1    3    3    0  502  0.63623265237E+02 -0.10529465513E+03 -0.21406595643E+04  0.21441917485E+04  0.25500000920E-02 0.  1.
</event>
<event>
 5   0  0.4365492E-02  0.7047141E+03  0.7818609E-02  0.9709204E-01
       -2   -1    0    0    0  501  0.00000000000E+00  0.00000000000E+00  0.15207180699E+03  0.15207180702E+03  0.25500000920E-02 0. -1.
        2   -1    0    0  501    0  0.00000000000E+00  0.00000000000E+00 -0.81642676708E+03  0.81642676709E+03  0.25500000920E-02 0.  1.
    10030    2    1    2    0    0  0.00000000000E+00  0.00000000000E+00 -0.66435496009E+03  0.96849857410E+03  0.70471410873E+03 0.  0.
        4    1    3    3  502    0  0.37990318893E+01  0.32829580330E+02  0.14993393662E+03  0.15353830870E+03  0.12699999809E+01 0. -1.
       -4    1    3    3    0  502 -0.37990318893E+01 -0.32829580330E+02 -0.81428889671E+03  0.81496026541E+03  0.12699999809E+01 0.  1.
</event>
<event>
 5   0  0.4365492E-02  0.6978724E+03  0.7818609E-02  0.9720878E-01
       -2   -1    0    0    0  501  0.00000000000E+00  0.00000000000E+00  0.26029207468E+03  0.26029207469E+03  0.25500000920E-02 0.  1.
        2   -1    0    0  501    0  0.00000000000E+00  0.00000000000E+00 -0.46776866416E+03  0.46776866417E+03  0.25500000920E-02 0. -1.
    10030    2    1    2    0    0  0.00000000000E+00  0.00000000000E+00 -0.20747658948E+03  0.72806073886E+03  0.69787241261E+03 0.  0.
        4    1    3    3  502    0  0.19446756065E+03 -0.18544904219E+03 -0.33595602249E+03  0.43020581277E+03  0.12699999809E+01 0. -1.
       -4    1    3    3    0  502 -0.19446756065E+03  0.18544904219E+03  0.12847943301E+03  0.29785492609E+03  0.12699999809E+01 0.  1.
</event>
<event>
 5   0  0.2684924E-02  0.6978474E+03  0.7818609E-02  0.9720921E-01
       -1   -1    0    0    0  501  0.00000000000E+00  0.00000000000E+00  0.43910625665E+03  0.43910625668E+03  0.50400001928E-02 0. -1.
        1   -1    0    0  501    0  0.00000000000E+00  0.00000000000E+00 -0.27726260319E+03  0.27726260323E+03  0.50400001928E-02 0.  1.
    10030    2    1    2    0    0  0.00000000000E+00  0.00000000000E+00  0.16184365347E+03  0.71636885992E+03  0.69784738682E+03 0.  0.
        4    1    3    3  502    0  0.21068917924E+03  0.13898042182E+03 -0.16638855636E+03  0.30231151563E+03  0.12699999809E+01 0.  1.
       -4    1    3    3    0  502 -0.21068917924E+03 -0.13898042182E+03  0.32823220982E+03  0.41405734429E+03  0.12699999809E+01 0. -1.
</event>
<event>
 5   0  0.2750139E-02  0.7350877E+03  0.7818609E-02  0.9659040E-01
        1   -1    0    0  501    0  0.00000000000E+00  0.00000000000E+00  0.24933361914E+03  0.24933361919E+03  0.50400001928E-02 0. -1.
       -1   -1    0    0    0  501  0.00000000000E+00  0.00000000000E+00 -0.54179809113E+03  0.54179809115E+03  0.50400001928E-02 0.  1.
    10030    2    1    2    0    0  0.00000000000E+00  0.00000000000E+00 -0.29246447199E+03  0.79113171034E+03  0.73508769255E+03 0.  0.
        2    1    3    3  502    0 -0.29594411196E+03  0.74438228195E+02 -0.36670285828E+03  0.47706912864E+03  0.25500000920E-02 0.  1.
       -2    1    3    3    0  502  0.29594411196E+03 -0.74438228195E+02  0.74238386288E+02  0.31406258171E+03  0.25500000920E-02 0. -1.
</event>
<event>
 5   0  0.4420645E-02  0.6911106E+03  0.7818609E-02  0.9732556E-01
       -2   -1    0    0    0  501  0.00000000000E+00  0.00000000000E+00  0.40198835579E+03  0.40198835579E+03  0.25500000920E-02 0. -1.
        2   -1    0    0  501    0  0.00000000000E+00  0.00000000000E+00 -0.29704460883E+03  0.29704460884E+03  0.25500000920E-02 0.  1.
    10030    2    1    2    0    0  0.00000000000E+00  0.00000000000E+00  0.10494374696E+03  0.69903296463E+03  0.69111062473E+03 0.  0.
        5    1    3    3  502    0  0.98603409200E+02 -0.17342590637E+01 -0.28247480911E+03  0.29923192968E+03  0.46999998093E+01 0.  1.
       -5    1    3    3    0  502 -0.98603409200E+02  0.17342590637E+01  0.38741855607E+03  0.39980103495E+03  0.46999998093E+01 0. -1.
</event>
<event>
 5   0  0.4420645E-02  0.7032561E+03  0.7818609E-02  0.9711680E-01
       -2   -1    0    0    0  501  0.00000000000E+00  0.00000000000E+00  0.49441086397E+03  0.49441086398E+03  0.25500000920E-02 0.  1.
        2   -1    0    0  501    0  0.00000000000E+00  0.00000000000E+00 -0.25008002437E+03  0.25008002439E+03  0.25500000920E-02 0. -1.
    10030    2    1    2    0    0  0.00000000000E+00  0.00000000000E+00  0.24433083960E+03  0.74449088836E+03  0.70325608684E+03 0.  0.
        5    1    3    3  502    0  0.83215417566E+02 -0.29427568571E+02  0.48245798210E+03  0.49048810588E+03  0.46999998093E+01 0.  1.
       -5    1    3    3    0  502 -0.83215417566E+02  0.29427568571E+02 -0.23812714251E+03  0.25400278248E+03  0.46999998093E+01 0. -1.
</event>
<event>
 5   0  0.2758681E-02  0.5293445E+03  0.7818609E-02  0.1006391E+00
        1   -1    0    0  501    0  0.00000000000E+00  0.00000000000E+00  0.76791654246E+03  0.76791654248E+03  0.50400001928E-02 0.  1.
       -1   -1    0    0    0  501  0.00000000000E+00  0.00000000000E+00 -0.91222667710E+02  0.91222667849E+02  0.50400001928E-02 0. -1.
    10030    2    1    2    0    0  0.00000000000E+00  0.00000000000E+00  0.67669387475E+03  0.85913921032E+03  0.52934448386E+03 0.  0.
        3    1    3    3  502    0 -0.12158335647E+03  0.17308426870E+03  0.80134413781E+02  0.22619065214E+03  0.10100000352E+00 0. -1.
       -3    1    3    3    0  502  0.12158335647E+03 -0.17308426870E+03  0.59655946097E+03  0.63294855819E+03  0.10100000352E+00 0.  1.
</event>
<event>
 5   0  0.4503289E-02  0.6747714E+03  0.7818609E-02  0.9761377E-01
       -2   -1    0    0    0  501  0.00000000000E+00  0.00000000000E+00  0.86500914044E+03  0.86500914044E+03  0.25500000920E-02 0. -1.
        2   -1    0    0  501    0  0.00000000000E+00  0.00000000000E+00 -0.13159294488E+03  0.13159294490E+03  0.25500000920E-02 0.  1.
    10030    2    1    2    0    0  0.00000000000E+00  0.00000000000E+00  0.73341619556E+03  0.99660208534E+03  0.67477136913E+03 0.  0.
        2    1    3    3  502    0  0.48114222323E+02 -0.24936860325E+03  0.69474156597E+03  0.73970637565E+03  0.25500000920E-02 0. -1.
       -2    1    3    3    0  502 -0.48114222323E+02  0.24936860325E+03  0.38674629584E+02  0.25689570969E+03  0.25500000920E-02 0.  1.
</event>
<event>
 5   0  0.2684924E-02  0.7003938E+03  0.7818609E-02  0.9716559E-01
       -1   -1    0    0    0  501  0.00000000000E+00  0.00000000000E+00  0.85875118222E+02  0.85875118370E+02  0.50400001928E-02 0.  1.
        1   -1    0    0  501    0  0.00000000000E+00  0.00000000000E+00 -0.14280954647E+04  0.14280954647E+04  0.50400001928E-02 0. -1.
    10030    2    1    2    0    0  0.00000000000E+00  0.00000000000E+00 -0.13422203465E+04  0.15139705831E+04  0.70039379490E+03 0.  0.
        4    1    3    3  502    0 -0.25496651432E+03 -0.23084067989E+03 -0.81352840724E+03  0.88324709182E+03  0.12699999809E+01 0. -1.
       -4    1    3    3    0  502  0.25496651432E+03  0.23084067989E+03 -0.52869193923E+03  0.63072349126E+03  0.12699999809E+01 0.  1.
</event>
<event>
 5   0  0.4299912E-02  0.6883555E+03  0.7818609E-02  0.9737356E-01
       -2   -1    0    0    0  501  0.00000000000E+00  0.00000000000E+00  0.20536535120E+03  0.20536535121E+03  0.25500000920E-02 0.  1.
        2   -1    0    0  501    0  0.00000000000E+00  0.00000000000E+00 -0.57681743443E+03  0.57681743444E+03  0.25500000920E-02 0. -1.
    10030    2    1    2    0    0  0.00000000000E+00  0.00000000000E+00 -0.37145208323E+03  0.78218278565E+03  0.68835547505E+03 0.  0.
        3    1    3    3  502    0 -0.18104654848E+03  0.12610611409E+03  0.11443464353E+03  0.24854758613E+03  0.10100000352E+00 0.  1.
       -3    1    3    3    0  502  0.18104654848E+03 -0.12610611409E+03 -0.48588672676E+03  0.53363519953E+03  0.10100000352E+00 0. -1.
</event>
<event>
 5   0  0.4420645E-02  0.6848103E+03  0.7818609E-02  0.9743567E-01
        2   -1    0    0  501    0  0.00000000000E+00  0.00000000000E+00  0.28448822538E+03  0.28448822539E+03  0.25500000920E-02 0.  1.
       -2   -1    0    0    0  501  0.00000000000E+00  0.00000000000E+00 -0.41211292468E+03  0.41211292468E+03  0.25500000920E-02 0. -1.
    10030    2    1    2    0    0  0.00000000000E+00  0.00000000000E+00 -0.12762469930E+03  0.69660115008E+03  0.68481026454E+03 0.  0.
        5    1    3    3  502    0 -0.53594554639E+02  0.53861686933E+01 -0.40774297560E+03  0.41131230379E+03  0.46999998093E+01 0. -1.
       -5    1    3    3    0  502  0.53594554639E+02 -0.53861686933E+01  0.28011827630E+03  0.28528884629E+03  0.46999998093E+01 0.  1.
</event>
<event>
 5   0  0.4503289E-02  0.6975107E+03  0.7818609E-02  0.9721499E-01
       -2   -1    0    0    0  501  0.00000000000E+00  0.00000000000E+00  0.12135235760E+03  0.12135235763E+03  0.25500000920E-02 0.  1.
        2   -1    0    0  501    0  0.00000000000E+00  0.00000000000E+00 -0.10022903846E+04  0.10022903846E+04  0.25500000920E-02 0. -1.
    10030    2    1    2    0    0  0.00000000000E+00  0.00000000000E+00 -0.88093802703E+03  0.11236427423E+04  0.69751072019E+03 0.  0.
        2    1    3    3  502    0  0.25331573848E+03 -0.11117668446E+03 -0.78258339367E+03  0.83003968976E+03  0.25500000920E-02 0. -1.
       -2    1    3    3    0  502 -0.25331573848E+03  0.11117668446E+03 -0.98354633356E+02  0.29360305250E+03  0.25500000920E-02 0.  1.
</event>
<event>
 5   0  0.2751729E-02  0.7097843E+03  0.7818609E-02  0.9700645E-01
       -1   -1    0    0    0  501  0.00000000000E+00  0.00000000000E+00  0.19856172787E+03  0.19856172794E+03  0.50400001928E-02 0. -1.
        1   -1    0    0  501    0  0.00000000000E+00  0.00000000000E+00 -0.63430364112E+03  0.63430364114E+03  0.50400001928E-02 0.  1.
    10030    2    1    2    0    0  0.00000000000E+00  0.00000000000E+00 -0.43574191325E+03  0.83286536908E+03  0.70978426867E+03 0.  0.
        1    1    3    3  502    0 -0.40737743060E+02 -0.25010638944E+02 -0.63050865778E+03  0.63231816622E+03  0.50400001928E-02 0.  1.
       -1    1    3    3    0  502  0.40737743060E+02  0.25010638944E+02  0.19476674454E+03  0.20054720285E+03  0.50400001928E-02 0. -1.
</event>
<event>
 5   0  0.4503289E-02  0.7380926E+03  0.7818609E-02  0.9654219E-01
       -2   -1    0    0    0  501  0.00000000000E+00  0.00000000000E+00  0.29994496815E+03  0.29994496816E+03  0.25500000920E-02 0.  1.
        2   -1    0    0  501    0  0.00000000000E+00  0.00000000000E+00 -0.45406722472E+03  0.45406722473E+03  0.25500000920E-02 0. -1.
    10030    2    1    2    0    0  0.00000000000E+00  0.00000000000E+00 -0.15412225657E+03  0.75401219289E+03  0.73809262092E+03 0.  0.
        2    1    3    3  502    0  0.25992783952E+03  0.20846511701E+02 -0.34384139849E+03  0.43153674945E+03  0.25500000920E-02 0. -1.
       -2    1    3    3    0  502 -0.25992783952E+03 -0.20846511701E+02  0.18971914191E+03  0.32247544344E+03  0.25500000920E-02 0.  1.
</event>
<event>
 5   0  0.2758681E-02  0.6998431E+03  0.7818609E-02  0.9717501E-01
       -1   -1    0    0    0  501  0.00000000000E+00  0.00000000000E+00  0.10685392788E+03  0.10685392799E+03  0.50400001928E-02 0. -1.
        1   -1    0    0  501    0  0.00000000000E+00  0.00000000000E+00 -0.11459110700E+04  0.11459110700E+04  0.50400001928E-02 0.  1.
    10030    2    1    2    0    0  0.00000000000E+00  0.00000000000E+00 -0.10390571421E+04  0.12527649980E+04  0.69984312215E+03 0.  0.
        3    1    3    3  502    0 -0.96126267470E+02  0.10509507896E+03 -0.10916774394E+04  0.11009290971E+04  0.10100000352E+00 0.  1.
       -3    1    3    3    0  502  0.96126267470E+02 -0.10509507896E+03  0.52620297281E+02  0.15183590091E+03  0.10100000352E+00 0. -1.
</event>
<event>
 5   0  0.2684924E-02  0.7536397E+03  0.7818609E-02  0.9629657E-01
        1   -1    0    0  501    0  0.00000000000E+00  0.00000000000E+00  0.37689452005E+03  0.37689452008E+03  0.50400001928E-02 0.  1.
       -1   -1    0    0    0  501  0.00000000000E+00  0.00000000000E+00 -0.37674520025E+03  0.37674520028E+03  0.50400001928E-02 0. -1.
    10030    2    1    2    0    0  0.00000000000E+00  0.00000000000E+00  0.14931979642E+00  0.75363972036E+03  0.75363970557E+03 0.  0.
        4    1    3    3  502    0  0.29794133295E+02  0.35872756936E+03  0.11151266796E+03  0.37684193957E+03  0.12699999809E+01 0.  1.
       -4    1    3    3    0  502 -0.29794133295E+02 -0.35872756936E+03 -0.11136334816E+03  0.37679778080E+03  0.12699999809E+01 0. -1.
</event>
<event>
 5   0  0.4299912E-02  0.6961497E+03  0.7818609E-02  0.9723839E-01
        2   -1    0    0  501    0  0.00000000000E+00  0.00000000000E+00  0.12445684603E+04  0.12445684603E+04  0.25500000920E-02 0. -1.
       -2   -1    0    0    0  501  0.00000000000E+00  0.00000000000E+00 -0.97347891357E+02  0.97347891390E+02  0.25500000920E-02 0.  1.
    10030    2    1    2    0    0  0.00000000000E+00  0.00000000000E+00  0.11472205690E+04  0.13419163517E+04  0.69614974046E+03 0.  0.
        3    1    3    3  502    0 -0.99356036303E+01 -0.25433176751E+03  0.11593511084E+03  0.27968611748E+03  0.10100000352E+00 0.  1.
       -3    1    3    3    0  502  0.99356036303E+01  0.25433176751E+03  0.10312854581E+04  0.10622302342E+04  0.10100000352E+00 0. -1.
</event>
<event>
 5   0  0.2751729E-02  0.7045253E+03  0.7818609E-02  0.9709524E-01
        1   -1    0    0  501    0  0.00000000000E+00  0.00000000000E+00  0.30646038365E+03  0.30646038369E+03  0.50400001928E-02 0.  1.
       -1   -1    0    0    0  501  0.00000000000E+00  0.00000000000E+00 -0.40491037646E+03  0.40491037649E+03  0.50400001928E-02 0. -1.
    10030    2    1    2    0    0  0.00000000000E+00  0.00000000000E+00 -0.98449992806E+02  0.71137076018E+03  0.70452534189E+03 0.  0.
        1    1    3    3  502    0  0.11290009346E+03 -0.32686071727E+03  0.18543670048E+02  0.34630655108E+03  0.50400001928E-02 0. -1.
       -1    1    3    3    0  502 -0.11290009346E+03  0.32686071727E+03 -0.11699366285E+03  0.36506420910E+03  0.50400001928E-02 0.  1.
</event>
<event>
 5   0  0.2750139E-02  0.7052076E+03  0.7818609E-02  0.9708368E-01
       -1   -1    0    0    0  501  0.00000000000E+00  0.00000000000E+00  0.57455011950E+03  0.57455011953E+03  0.50400001928E-02 0.  1.
        1   -1    0    0  501    0  0.00000000000E+00  0.00000000000E+00 -0.21639439776E+03  0.21639439782E+03  0.50400001928E-02 0. -1.
    10030    2    1    2    0    0  0.00000000000E+00  0.00000000000E+00  0.35815572175E+03  0.79094451734E+03  0.70520756412E+03 0.  0.
        2    1    3    3  502    0 -0.13345403830E+03 -0.20235093372E+03 -0.10812806349E+03  0.26541959015E+03  0.25500000920E-02 0. -1.
       -2    1    3    3    0  502  0.13345403830E+03  0.20235093372E+03  0.46628378524E+03  0.52552492719E+03  0.25500000920E-02 0.  1.
</event>
<event>
 5   0  0.2750139E-02  0.6999588E+03  0.7818609E-02  0.9717303E-01
        1   -1    0    0  501    0  0.00000000000E+00  0.00000000000E+00  0.13788907921E+04  0.13788907921E+04  0.50400001928E-02 0. -1.
       -1   -1    0    0    0  501  0.00000000000E+00  0.00000000000E+00 -0.88829057395E+02  0.88829057538E+02  0.50400001928E-02 0.  1.
    10030    2    1    2    0    0  0.00000000000E+00  0.00000000000E+00  0.12900617347E+04  0.14677198497E+04  0.69995876858E+03 0.  0.
        2    1    3    3  502    0 -0.62482370878E+02 -0.33757852781E+03  0.50247079434E+03  0.60855583827E+03  0.25500000920E-02 0. -1.
       -2    1    3    3    0  502  0.62482370878E+02  0.33757852781E+03  0.78759094039E+03  0.85916401141E+03  0.25500000920E-02 0.  1.
</event>
<event>
 5   0  0.4365492E-02  0.6961071E+03  0.7818609E-02  0.9723913E-01
        2   -1    0    0  501    0  0.00000000000E+00  0.00000000000E+00  0.12906973483E+04  0.12906973484E+04  0.25500000920E-02 0. -1.
       -2   -1    0    0    0  501  0.00000000000E+00  0.00000000000E+00 -0.93857215601E+02  0.93857215636E+02  0.25500000920E-02 0.  1.
    10030    2    1    2    0    0  0.00000000000E+00  0.00000000000E+00  0.11968401327E+04  0.13845545640E+04  0.69610705879E+03 0.  0.
        4    1    3    3  502    0 -0.11844131184E+03 -0.18009863555E+02  0.12483897835E+04  0.12541257369E+04  0.12699999809E+01 0. -1.
       -4    1    3    3    0  502  0.11844131184E+03  0.18009863555E+02 -0.51549650762E+02  0.13042882707E+03  0.12699999809E+01 0.  1.
</event>
<event>
 5   0  0.2684924E-02  0.6876073E+03  0.7818609E-02  0.9738663E-01
       -1   -1    0    0    0  501  0.00000000000E+00  0.00000000000E+00  0.16637228227E+03  0.16637228235E+03  0.50400001928E-02 0.  1.
        1   -1    0    0  501    0  0.00000000000E+00  0.00000000000E+00 -0.71046063817E+03  0.71046063819E+03  0.50400001928E-02 0. -1.
    10030    2    1    2    0    0  0.00000000000E+00  0.00000000000E+00 -0.54408835590E+03  0.87683292053E+03  0.68760732363E+03 0.  0.
        4    1    3    3  502    0  0.10909440774E+03  0.84900108807E+02 -0.67345647117E+03  0.68749898162E+03  0.12699999809E+01 0. -1.
       -4    1    3    3    0  502 -0.10909440774E+03 -0.84900108807E+02  0.12936811527E+03  0.18933393891E+03  0.12699999809E+01 0.  1.
</event>
<event>
 5   0  0.2684924E-02  0.7008861E+03  0.7818609E-02  0.9715718E-01
       -1   -1    0    0    0  501  0.00000000000E+00  0.00000000000E+00  0.18677574242E+03  0.18677574249E+03  0.50400001928E-02 0. -1.
        1   -1    0    0  501    0  0.00000000000E+00  0.00000000000E+00 -0.65752826374E+03  0.65752826376E+03  0.50400001928E-02 0.  1.
    10030    2    1    2    0    0  0.00000000000E+00  0.00000000000E+00 -0.47075252132E+03  0.84430400625E+03  0.70088609534E+03 0.  0.
        4    1    3    3  502    0  0.29464739713E+03 -0.17422987837E+03 -0.14494457563E+03  0.37173065795E+03  0.12699999809E+01 0. -1.
       -4    1    3    3    0  502 -0.29464739713E+03  0.17422987837E+03 -0.32580794569E+03  0.47257334830E+03  0.12699999809E+01 0.  1.
</event>
<event>
 5   0  0.4420645E-02  0.6959595E+03  0.7818609E-02  0.9724167E-01
        2   -1    0    0  501    0  0.00000000000E+00  0.00000000000E+00  0.11589973394E+03  0.11589973397E+03  0.25500000920E-02 0.  1.
       -2   -1    0    0    0  501  0.00000000000E+00  0.00000000000E+00 -0.10447815261E+04  0.10447815261E+04  0.25500000920E-02 0. -1.
    10030    2    1    2    0    0  0.00000000000E+00  0.00000000000E+00 -0.92888179220E+03  0.11606812601E+04  0.69595948424E+03 0.  0.
        5    1    3    3  502    0  0.97499897224E+02 -0.29713154129E+03 -0.71887101709E+03  0.78395855247E+03  0.46999998093E+01 0. -1.
       -5    1    3    3    0  502 -0.97499897224E+02  0.29713154129E+03 -0.21001077511E+03  0.37672270764E+03  0.46999998093E+01 0.  1.
</event>
<event>
 5   0  0.4526837E-02  0.7077864E+03  0.7818609E-02  0.9704008E-01
       -2   -1    0    0    0  501  0.00000000000E+00  0.00000000000E+00  0.10542367752E+03  0.10542367755E+03  0.25500000920E-02 0.  1.
        2   -1    0    0  501    0  0.00000000000E+00  0.00000000000E+00 -0.11879722771E+04  0.11879722771E+04  0.25500000920E-02 0. -1.
    10030    2    1    2    0    0  0.00000000000E+00  0.00000000000E+00 -0.10825485996E+04  0.12933959547E+04  0.70778642616E+03 0.  0.
        1    1    3    3  502    0 -0.10375888959E+03  0.30126722869E+03 -0.25987795402E+03  0.41117441708E+03  0.50400001928E-02 0.  1.
       -1    1    3    3    0  502  0.10375888959E+03 -0.30126722869E+03 -0.82267064560E+03  0.88222153760E+03  0.50400001928E-02 0. -1.
</event>
<event>
 5   0  0.4526837E-02  0.7056273E+03  0.7818609E-02  0.9707657E-01
        2   -1    0    0  501    0  0.00000000000E+00  0.00000000000E+00  0.20185329049E+04  0.20185329049E+04  0.25500000920E-02 0.  1.
       -2   -1    0    0    0  501  0.00000000000E+00  0.00000000000E+00 -0.61667292398E+02  0.61667292450E+02  0.25500000920E-02 0. -1.
    10030    2    1    2    0    0  0.00000000000E+00  0.00000000000E+00  0.19568656125E+04  0.20802001974E+04  0.70562726398E+03 0.  0.
        1    1    3    3  502    0  0.12708556944E+03  0.68644350768E+02  0.29489198383E+02  0.14741913614E+03  0.50400001928E-02 0. -1.
       -1    1    3    3    0  502 -0.12708556944E+03 -0.68644350768E+02  0.19273764141E+04  0.19327810612E+04  0.50400001928E-02 0.  1.
</event>
<event>
 5   0  0.1784625E-02  0.7057622E+03  0.7818609E-02  0.9707428E-01
        3   -1    0    0  501    0  0.00000000000E+00  0.00000000000E+00  0.44547157148E+03  0.44547158293E+03  0.10100000352E+00 0.  1.
       -3   -1    0    0    0  501  0.00000000000E+00  0.00000000000E+00 -0.27953539416E+03  0.27953541241E+03  0.10100000352E+00 0. -1.
    10030    2    1    2    0    0  0.00000000000E+00  0.00000000000E+00  0.16593617732E+03  0.72500699534E+03  0.70576223216E+03 0.  0.
        3    1    3    3  502    0 -0.21789697372E+03 -0.67907627422E+02 -0.19350739137E+03  0.29922509543E+03  0.10100000352E+00 0. -1.
       -3    1    3    3    0  502  0.21789697372E+03  0.67907627422E+02  0.35944356869E+03  0.42578189991E+03  0.10100000352E+00 0.  1.
</event>
<event>
 5   0  0.2758681E-02  0.6755560E+03  0.7818609E-02  0.9759973E-01
        1   -1    0    0  501    0  0.00000000000E+00  0.00000000000E+00  0.21085435326E+03  0.21085435332E+03  0.50400001928E-02 0.  1.
       -1   -1    0    0    0  501  0.00000000000E+00  0.00000000000E+00 -0.54110323966E+03  0.54110323969E+03  0.50400001928E-02 0. -1.
    10030    2    1    2    0    0  0.00000000000E+00  0.00000000000E+00 -0.33024888641E+03  0.75195759300E+03  0.67555598932E+03 0.  0.
        3    1    3    3  502    0  0.10137975636E+03 -0.26019507704E+03  0.46406344886E+02  0.28307753736E+03  0.10100000352E+00 0.  1.
       -3    1    3    3    0  502 -0.10137975636E+03  0.26019507704E+03 -0.37665523129E+03  0.46888005564E+03  0.10100000352E+00 0. -1.
</event>
<event>
 5   0  0.4420645E-02  0.6996449E+03  0.7818609E-02  0.9717840E-01
        2   -1    0    0  501    0  0.00000000000E+00  0.00000000000E+00  0.80892912382E+03  0.80892912383E+03  0.25500000920E-02 0. -1.
       -2   -1    0    0    0  501  0.00000000000E+00  0.00000000000E+00 -0.15128115232E+03  0.15128115234E+03  0.25500000920E-02 0.  1.
    10030    2    1    2    0    0  0.00000000000E+00  0.00000000000E+00  0.65764797150E+03  0.96021027617E+03  0.69964485279E+03 0.  0.
        5    1    3    3  502    0 -0.78796202003E+02  0.12455389316E+03  0.76419034965E+03  0.77828753957E+03  0.46999998093E+01 0. -1.
       -5    1    3    3    0  502  0.78796202003E+02 -0.12455389316E+03 -0.10654237815E+03  0.18192273660E+03  0.46999998093E+01 0.  1.
</event>
<event>
 5   0  0.4503289E-02  0.6985442E+03  0.7818609E-02  0.9719725E-01
        2   -1    0    0  501    0  0.00000000000E+00  0.00000000000E+00  0.65621986081E+03  0.65621986082E+03  0.25500000920E-02 0.  1.
       -2   -1    0    0    0  501  0.00000000000E+00  0.00000000000E+00 -0.18589958377E+03  0.18589958379E+03  0.25500000920E-02 0. -1.
    10030    2    1    2    0    0  0.00000000000E+00  0.00000000000E+00  0.47032027704E+03  0.84211944461E+03  0.69854419760E+03 0.  0.
        2    1    3    3  502    0 -0.16111478622E+03 -0.14658989971E+03 -0.93984960758E+02  0.23723352607E+03  0.25500000920E-02 0. -1.
       -2    1    3    3    0  502  0.16111478622E+03  0.14658989971E+03  0.56430523780E+03  0.60488591854E+03  0.25500000920E-02 0.  1.
</event>
<event>
 5   0  0.2777999E-02  0.6684650E+03  0.7818609E-02  0.9772735E-01
        1   -1    0    0  501    0  0.00000000000E+00  0.00000000000E+00  0.12824306123E+04  0.12824306123E+04  0.50400001928E-02 0.  1.
       -1   -1    0    0    0  501  0.00000000000E+00  0.00000000000E+00 -0.87109093503E+02  0.87109093649E+02  0.50400001928E-02 0. -1.
    10030    2    1    2    0    0  0.00000000000E+00  0.00000000000E+00  0.11953215188E+04  0.13695397059E+04  0.66846501247E+03 0.  0.
        5    1    3    3  502    0  0.16386239864E+03  0.27004627602E+03  0.37403911684E+03  0.48959496301E+03  0.46999998093E+01 0. -1.
       -5    1    3    3    0  502 -0.16386239864E+03 -0.27004627602E+03  0.82128240192E+03  0.87994474292E+03  0.46999998093E+01 0.  1.
</event>
<event>
 5   0  0.4526837E-02  0.7027810E+03  0.7818609E-02  0.9712488E-01
       -2   -1    0    0    0  501  0.00000000000E+00  0.00000000000E+00  0.94438770938E+02  0.94438770972E+02  0.25500000920E-02 0.  1.
        2   -1    0    0  501    0  0.00000000000E+00  0.00000000000E+00 -0.13074640011E+04  0.13074640011E+04  0.25500000920E-02 0. -1.
    10030    2    1    2    0    0  0.00000000000E+00  0.00000000000E+00 -0.12130252301E+04  0.14019027720E+04  0.70278102801E+03 0.  0.
        1    1    3    3  502    0 -0.16051238529E+03 -0.22003102098E+03 -0.10494169684E+04  0.10841834944E+04  0.50400001928E-02 0. -1.
       -1    1    3    3    0  502  0.16051238529E+03  0.22003102098E+03 -0.16360826173E+03  0.31771927760E+03  0.50400001928E-02 0.  1.
</event>
<event>
 5   0  0.4365492E-02  0.6635235E+03  0.7818609E-02  0.9781729E-01
       -2   -1    0    0    0  501  0.00000000000E+00  0.00000000000E+00  0.67081963026E+02  0.67081963075E+02  0.25500000920E-02 0.  1.
        2   -1    0    0  501    0  0.00000000000E+00  0.00000000000E+00 -0.16407666376E+04  0.16407666376E+04  0.25500000920E-02 0. -1.
    10030    2    1    2    0    0  0.00000000000E+00  0.00000000000E+00 -0.15736846745E+04  0.17078486006E+04  0.66352346442E+03 0.  0.
        4    1    3    3  502    0  0.17335124705E+03  0.15908819068E+03 -0.18483093716E+03  0.29920527318E+03  0.12699999809E+01 0.  1.
       -4    1    3    3    0  502 -0.17335124705E+03 -0.15908819068E+03 -0.13888537374E+04  0.14086433275E+04  0.12699999809E+01 0. -1.
</event>
<event>
 5   0  0.4526837E-02  0.7134020E+03  0.7818609E-02  0.9694584E-01
        2   -1    0    0  501    0  0.00000000000E+00  0.00000000000E+00  0.45186772443E+03  0.45186772444E+03  0.25500000920E-02 0. -1.
       -2   -1    0    0    0  501  0.00000000000E+00  0.00000000000E+00 -0.28157708481E+03  0.28157708482E+03  0.25500000920E-02 0.  1.
    10030    2    1    2    0    0  0.00000000000E+00  0.00000000000E+00  0.17029063963E+03  0.73344480926E+03  0.71340198086E+03 0.  0.
        1    1    3    3  502    0  0.10691206278E+03 -0.12437884701E+03 -0.24051138673E+03  0.29111168634E+03  0.50400001928E-02 0.  1.
       -1    1    3    3    0  502 -0.10691206278E+03  0.12437884701E+03  0.41080202635E+03  0.44233312292E+03  0.50400001928E-02 0. -1.
</event>
<event>
 5   0  0.4503289E-02  0.6966266E+03  0.7818609E-02  0.9723019E-01
        2   -1    0    0  501    0  0.00000000000E+00  0.00000000000E+00  0.11737784512E+03  0.11737784515E+03  0.25500000920E-02 0. -1.
       -2   -1    0    0    0  501  0.00000000000E+00  0.00000000000E+00 -0.10336034478E+04  0.10336034478E+04  0.25500000920E-02 0.  1.
    10030    2    1    2    0    0  0.00000000000E+00  0.00000000000E+00 -0.91622560268E+03  0.11509812930E+04  0.69662657265E+03 0.  0.
        2    1    3    3  502    0 -0.53492914153E+02  0.30021096855E+03 -0.73622650414E+03  0.79687990495E+03  0.25500000920E-02 0.  1.
       -2    1    3    3    0  502  0.53492914153E+02 -0.30021096855E+03 -0.17999909854E+03  0.35410138800E+03  0.25500000920E-02 0. -1.
</event>
<event>
 5   0  0.2750139E-02  0.7037503E+03  0.7818609E-02  0.9710840E-01
        1   -1    0    0  501    0  0.00000000000E+00  0.00000000000E+00  0.11958070136E+04  0.11958070136E+04  0.50400001928E-02 0.  1.
       -1   -1    0    0    0  501  0.00000000000E+00  0.00000000000E+00 -0.10354189616E+03  0.10354189628E+03  0.50400001928E-02 0. -1.
    10030    2    1    2    0    0  0.00000000000E+00  0.00000000000E+00  0.10922651174E+04  0.12993489099E+04  0.70375031288E+03 0.  0.
        2    1    3    3  502    0 -0.25306041319E+03  0.54049238202E+02  0.98637550541E+03  0.10197536617E+04  0.25500000920E-02 0. -1.
       -2    1    3    3    0  502  0.25306041319E+03 -0.54049238202E+02  0.10588961204E+03  0.27959524821E+03  0.25500000920E-02 0.  1.
</event>
<event>
 5   0  0.2750139E-02  0.7058461E+03  0.7818609E-02  0.9707286E-01
       -1   -1    0    0    0  501  0.00000000000E+00  0.00000000000E+00  0.23025125596E+03  0.23025125602E+03  0.50400001928E-02 0.  1.
        1   -1    0    0  501    0  0.00000000000E+00  0.00000000000E+00 -0.54095118896E+03  0.54095118899E+03  0.50400001928E-02 0. -1.
    10030    2    1    2    0    0  0.00000000000E+00  0.00000000000E+00 -0.31069993300E+03  0.77120244501E+03  0.70584613254E+03 0.  0.
        2    1    3    3  502    0 -0.18024395162E+03 -0.10908598367E+03  0.15400445524E+03  0.26096935868E+03  0.25500000920E-02 0.  1.
       -2    1    3    3    0  502  0.18024395162E+03  0.10908598367E+03 -0.46470438824E+03  0.51023308633E+03  0.25500000920E-02 0. -1.
</event>
<event>
 5   0  0.4526837E-02  0.7056222E+03  0.7818609E-02  0.9707666E-01
        2   -1    0    0  501    0  0.00000000000E+00  0.00000000000E+00  0.17118273384E+04  0.17118273384E+04  0.25500000920E-02 0.  1.
       -2   -1    0    0    0  501  0.00000000000E+00  0.00000000000E+00 -0.72715083819E+02  0.72715083863E+02  0.25500000920E-02 0. -1.
    10030    2    1    2    0    0  0.00000000000E+00  0.00000000000E+00  0.16391122546E+04  0.17845424223E+04  0.70562218910E+03 0.  0.
        1    1    3    3  502    0 -0.25084865140E+03 -0.13690526120E+03  0.29629925013E+03  0.41165682565E+03  0.50400001928E-02 0. -1.
       -1    1    3    3    0  502  0.25084865140E+03  0.13690526120E+03  0.13428130045E+04  0.13728855966E+04  0.50400001928E-02 0.  1.
</event>
<event>
 5   0  0.2751729E-02  0.7026908E+03  0.7818609E-02  0.9712642E-01
       -1   -1    0    0    0  501  0.00000000000E+00  0.00000000000E+00  0.13060360842E+03  0.13060360851E+03  0.50400001928E-02 0.  1.
        1   -1    0    0  501    0  0.00000000000E+00  0.00000000000E+00 -0.94517737621E+03  0.94517737622E+03  0.50400001928E-02 0. -1.
    10030    2    1    2    0    0  0.00000000000E+00  0.00000000000E+00 -0.81457376779E+03  0.10757809847E+04  0.70269075983E+03 0.  0.
        1    1    3    3  502    0 -0.34806988143E+03  0.37363712881E+02 -0.36148918950E+03  0.50321280145E+03  0.50400001928E-02 0.  1.
       -1    1    3    3    0  502  0.34806988143E+03 -0.37363712881E+02 -0.45308457829E+03  0.57256818328E+03  0.50400001928E-02 0. -1.
</event>
<event>
 5   0  0.2777999E-02  0.6914158E+03  0.7818609E-02  0.9732026E-01
        1   -1    0    0  501    0  0.00000000000E+00  0.00000000000E+00  0.25653005512E+03  0.25653005517E+03  0.50400001928E-02 0.  1.
       -1   -1    0    0    0  501  0.00000000000E+00  0.00000000000E+00 -0.46588669347E+03  0.46588669349E+03  0.50400001928E-02 0. -1.
    10030    2    1    2    0    0  0.00000000000E+00  0.00000000000E+00 -0.20935663835E+03  0.72241674866E+03  0.69141576256E+03 0.  0.
        5    1    3    3  502    0  0.21499150719E+03 -0.18624742987E+03  0.10055275890E+03  0.30173233274E+03  0.46999998093E+01 0.  1.
       -5    1    3    3    0  502 -0.21499150719E+03  0.18624742987E+03 -0.30990939725E+03  0.42068441592E+03  0.46999998093E+01 0. -1.
</event>
<event>
 5   0  0.4526837E-02  0.7037382E+03  0.7818609E-02  0.9710861E-01
       -2   -1    0    0    0  501  0.00000000000E+00  0.00000000000E+00  0.36530435908E+03  0.36530435909E+03  0.25500000920E-02 0.  1.
        2   -1    0    0  501    0  0.00000000000E+00  0.00000000000E+00 -0.33892795247E+03  0.33892795248E+03  0.25500000920E-02 0. -1.
    10030    2    1    2    0    0  0.00000000000E+00  0.00000000000E+00  0.26376406607E+02  0.70423231157E+03  0.70373818557E+03 0.  0.
        1    1    3    3  502    0 -0.26589093861E+03 -0.23635129777E+01  0.24380235416E+03  0.36075360754E+03  0.50400001928E-02 0.  1.
       -1    1    3    3    0  502  0.26589093861E+03  0.23635129777E+01 -0.21742594755E+03  0.34347870403E+03  0.50400001928E-02 0. -1.
</event>
<event>
 5   0  0.2684924E-02  0.6973426E+03  0.7818609E-02  0.9721788E-01
       -1   -1    0    0    0  501  0.00000000000E+00  0.00000000000E+00  0.85626752101E+03  0.85626752102E+03  0.50400001928E-02 0.  1.
        1   -1    0    0  501    0  0.00000000000E+00  0.00000000000E+00 -0.14197859588E+03  0.14197859597E+03  0.50400001928E-02 0. -1.
    10030    2    1    2    0    0  0.00000000000E+00  0.00000000000E+00  0.71428892513E+03  0.99824611699E+03  0.69734255680E+03 0.  0.
        4    1    3    3  502    0 -0.35114858439E+02  0.14399169020E+03  0.80892603635E+03  0.82239261020E+03  0.12699999809E+01 0.  1.
       -4    1    3    3    0  502  0.35114858439E+02 -0.14399169020E+03 -0.94637111222E+02  0.17585350679E+03  0.12699999809E+01 0. -1.
</event>
<event>
 5   0  0.4503289E-02  0.6969153E+03  0.7818609E-02  0.9722522E-01
       -2   -1    0    0    0  501  0.00000000000E+00  0.00000000000E+00  0.53716119630E+03  0.53716119630E+03  0.25500000920E-02 0. -1.
        2   -1    0    0  501    0  0.00000000000E+00  0.00000000000E+00 -0.22604525199E+03  0.22604525201E+03  0.25500000920E-02 0.  1.
    10030    2    1    2    0    0  0.00000000000E+00  0.00000000000E+00  0.31111594430E+03  0.76320644831E+03  0.69691531189E+03 0.  0.
        2    1    3    3  502    0  0.23305441281E+03 -0.14335658471E+03  0.39185364555E+03  0.47792755649E+03  0.25500000920E-02 0. -1.
       -2    1    3    3    0  502 -0.23305441281E+03  0.14335658471E+03 -0.80737701250E+02  0.28527889182E+03  0.25500000920E-02 0.  1.
</event>
<event>
 5   0  0.2684924E-02  0.7040100E+03  0.7818609E-02  0.9710399E-01
       -1   -1    0    0    0  501  0.00000000000E+00  0.00000000000E+00  0.29499132057E+03  0.29499132062E+03  0.50400001928E-02 0.  1.
        1   -1    0    0  501    0  0.00000000000E+00  0.00000000000E+00 -0.42003790267E+03  0.42003790270E+03  0.50400001928E-02 0. -1.
    10030    2    1    2    0    0  0.00000000000E+00  0.00000000000E+00 -0.12504658210E+03  0.71502922332E+03  0.70401004432E+03 0.  0.
        4    1    3    3  502    0  0.21787305638E+03 -0.18725259530E+03  0.14406572146E+03  0.32138566885E+03  0.12699999809E+01 0.  1.
       -4    1    3    3    0  502 -0.21787305638E+03  0.18725259530E+03 -0.26911230356E+03  0.39364355446E+03  0.12699999809E+01 0. -1.
</event>
<event>
 5   0  0.2751729E-02  0.7265991E+03  0.7818609E-02  0.9672795E-01
       -1   -1    0    0    0  501  0.00000000000E+00  0.00000000000E+00  0.67523184039E+03  0.67523184041E+03  0.50400001928E-02 0. -1.
        1   -1    0    0  501    0  0.00000000000E+00  0.00000000000E+00 -0.19546852277E+03  0.19546852284E+03  0.50400001928E-02 0.  1.
    10030    2    1    2    0    0  0.00000000000E+00  0.00000000000E+00  0.47976331762E+03  0.87070036325E+03  0.72659912030E+03 0.  0.
        1    1    3    3  502    0  0.24059793894E+03 -0.16844245687E+03  0.49612765169E+03  0.57654390665E+03  0.50400001928E-02 0.  1.
       -1    1    3    3    0  502 -0.24059793894E+03  0.16844245687E+03 -0.16364334070E+02  0.29415645660E+03  0.50400001928E-02 0. -1.
</event>
<event>
 5   0  0.4420645E-02  0.6778158E+03  0.7818609E-02  0.9755941E-01
        2   -1    0    0  501    0  0.00000000000E+00  0.00000000000E+00  0.85142298607E+03  0.85142298608E+03  0.25500000920E-02 0.  1.
       -2   -1    0    0    0  501  0.00000000000E+00  0.00000000000E+00 -0.13490187461E+03  0.13490187464E+03  0.25500000920E-02 0. -1.
    10030    2    1    2    0    0  0.00000000000E+00  0.00000000000E+00  0.71652111146E+03  0.98632486071E+03  0.67781577711E+03 0.  0.
        5    1    3    3  502    0  0.74013839962E+02 -0.29919169014E+02  0.83749677869E+03  0.84130621625E+03  0.46999998093E+01 0.  1.
       -5    1    3    3    0  502 -0.74013839962E+02  0.29919169014E+02 -0.12097566724E+03  0.14501864446E+03  0.46999998093E+01 0. -1.
</event>
<event>
 5   0  0.2758681E-02  0.7055930E+03  0.7818609E-02  0.9707715E-01
       -1   -1    0    0    0  501  0.00000000000E+00  0.00000000000E+00  0.22687480774E+03  0.22687480780E+03  0.50400001928E-02 0. -1.
        1   -1    0    0  501    0  0.00000000000E+00  0.00000000000E+00 -0.54860812637E+03  0.54860812639E+03  0.50400001928E-02 0.  1.
    10030    2    1    2    0    0  0.00000000000E+00  0.00000000000E+00 -0.32173331863E+03  0.77548293419E+03  0.70559297963E+03 0.  0.
        3    1    3    3  502    0 -0.25452170283E+03  0.24164302568E+03 -0.20038216389E+03  0.40413570850E+03  0.10100000352E+00 0. -1.
       -3    1    3    3    0  502  0.25452170283E+03 -0.24164302568E+03 -0.12135115474E+03  0.37134722569E+03  0.10100000352E+00 0.  1.
</event>
<event>
 5   0  0.1784625E-02  0.6992107E+03  0.7818609E-02  0.9718583E-01
       -3   -1    0    0    0  501  0.00000000000E+00  0.00000000000E+00  0.20912356701E+03  0.20912359140E+03  0.10100000352E+00 0.  1.
        3   -1    0    0  501    0  0.00000000000E+00  0.00000000000E+00 -0.58445775428E+03  0.58445776301E+03  0.10100000352E+00 0. -1.
    10030    2    1    2    0    0  0.00000000000E+00  0.00000000000E+00 -0.37533418728E+03  0.79358135440E+03  0.69921070781E+03 0.  0.
        5    1    3    3  502    0  0.15500974622E+03 -0.13900012933E+03 -0.50637425602E+03  0.54752719982E+03  0.46999998093E+01 0. -1.
       -5    1    3    3    0  502 -0.15500974622E+03  0.13900012933E+03  0.13104006875E+03  0.24605415459E+03  0.46999998093E+01 0.  1.
</event>
<event>
 5   0  0.2758681E-02  0.7057897E+03  0.7818609E-02  0.9707382E-01
       -1   -1    0    0    0  501  0.00000000000E+00  0.00000000000E+00  0.28937302419E+03  0.28937302423E+03  0.50400001928E-02 0. -1.
        1   -1    0    0  501    0  0.00000000000E+00  0.00000000000E+00 -0.43036068391E+03  0.43036068394E+03  0.50400001928E-02 0.  1.
    10030    2    1    2    0    0  0.00000000000E+00  0.00000000000E+00 -0.14098765972E+03  0.71973370818E+03  0.70578969282E+03 0.  0.
        3    1    3    3  502    0  0.67390134421E+02 -0.17467059064E+03 -0.37554173977E+03  0.41962227534E+03  0.10100000352E+00 0.  1.
       -3    1    3    3    0  502 -0.67390134421E+02  0.17467059064E+03  0.23455408005E+03  0.30011143284E+03  0.10100000352E+00 0. -1.
</event>
<event>
 5   0  0.4503289E-02  0.6996748E+03  0.7818609E-02  0.9717788E-01
       -2   -1    0    0    0  501  0.00000000000E+00  0.00000000000E+00  0.11963270853E+03  0.11963270856E+03  0.25500000920E-02 0.  1.
        2   -1    0    0  501    0  0.00000000000E+00  0.00000000000E+00 -0.10230162951E+04  0.10230162951E+04  0.25500000920E-02 0. -1.
    10030    2    1    2    0    0  0.00000000000E+00  0.00000000000E+00 -0.90338358656E+03  0.11426490036E+04  0.69967481095E+03 0.  0.
        2    1    3    3  502    0 -0.20700327035E+03  0.89797575447E+02 -0.15090177467E+02  0.22614524526E+03  0.25500000920E-02 0.  1.
       -2    1    3    3    0  502  0.20700327035E+03 -0.89797575447E+02 -0.88829340909E+03  0.91650375838E+03  0.25500000920E-02 0. -1.
</event>
<event>
 5   0  0.4365492E-02  0.7040433E+03  0.7818609E-02  0.9710343E-01
        2   -1    0    0  501    0  0.00000000000E+00  0.00000000000E+00  0.89961599520E+03  0.89961599520E+03  0.25500000920E-02 0.  1.
       -2   -1    0    0    0  501  0.00000000000E+00  0.00000000000E+00 -0.13774680448E+03  0.13774680450E+03  0.25500000920E-02 0. -1.
    10030    2    1    2    0    0  0.00000000000E+00  0.00000000000E+00  0.76186919072E+03  0.10373627997E+04  0.70404326178E+03 0.  0.
        4    1    3    3  502    0 -0.16042640145E+02 -0.18521223089E+03  0.82138278905E+03  0.84215926987E+03  0.12699999809E+01 0.  1.
       -4    1    3    3    0  502  0.16042640145E+02  0.18521223089E+03 -0.59513598334E+02  0.19520352984E+03  0.12699999809E+01 0. -1.
</event>
<event>
 5   0  0.2758681E-02  0.6965933E+03  0.7818609E-02  0.9723076E-01
        1   -1    0    0  501    0  0.00000000000E+00  0.00000000000E+00  0.28395296225E+03  0.28395296230E+03  0.50400001928E-02 0.  1.
       -1   -1    0    0    0  501  0.00000000000E+00  0.00000000000E+00 -0.42722057430E+03  0.42722057433E+03  0.50400001928E-02 0. -1.
    10030    2    1    2    0    0  0.00000000000E+00  0.00000000000E+00 -0.14326761205E+03  0.71117353663E+03  0.69659327483E+03 0.  0.
        3    1    3    3  502    0  0.27696287763E+03  0.20971731663E+03 -0.97070127662E+02  0.36071097622E+03  0.10100000352E+00 0.  1.
       -3    1    3    3    0  502 -0.27696287763E+03 -0.20971731663E+03 -0.46197484386E+02  0.35046256041E+03  0.10100000352E+00 0. -1.
</event>
<event>
 5   0  0.4503289E-02  0.6617198E+03  0.7818609E-02  0.9785033E-01
       -2   -1    0    0    0  501  0.00000000000E+00  0.00000000000E+00  0.59348570933E+02  0.59348570987E+02  0.25500000920E-02 0. -1.
        2   -1    0    0  501    0  0.00000000000E+00  0.00000000000E+00 -0.18444972567E+04  0.18444972567E+04  0.25500000920E-02 0.  1.
    10030    2    1    2    0    0  0.00000000000E+00  0.00000000000E+00 -0.17851486857E+04  0.19038458276E+04  0.66171980876E+03 0.  0.
        2    1    3    3  502    0  0.28333920535E+03  0.58644655169E+02 -0.43090696874E+03  0.51903864652E+03  0.25500000920E-02 0. -1.
       -2    1    3    3    0  502 -0.28333920535E+03 -0.58644655169E+02 -0.13542417170E+04  0.13848071811E+04  0.25500000920E-02 0.  1.
</event>
<event>
 5   0  0.4365492E-02  0.6699107E+03  0.7818609E-02  0.9770119E-01
       -2   -1    0    0    0  501  0.00000000000E+00  0.00000000000E+00  0.13164052401E+03  0.13164052403E+03  0.25500000920E-02 0.  1.
        2   -1    0    0  501    0  0.00000000000E+00  0.00000000000E+00 -0.85228376653E+03  0.85228376654E+03  0.25500000920E-02 0. -1.
    10030    2    1    2    0    0  0.00000000000E+00  0.00000000000E+00 -0.72064324252E+03  0.98392429057E+03  0.66991068552E+03 0.  0.
        4    1    3    3  502    0  0.57400256929E+02  0.10527995045E+03 -0.81967518269E+03  0.82840067328E+03  0.12699999809E+01 0. -1.
       -4    1    3    3    0  502 -0.57400256929E+02 -0.10527995045E+03  0.99031940170E+02  0.15552361729E+03  0.12699999809E+01 0.  1.
</event>
<event>
 5   0  0.4299912E-02  0.6887429E+03  0.7818609E-02  0.9736679E-01
        2   -1    0    0  501    0  0.00000000000E+00  0.00000000000E+00  0.78759821314E+03  0.78759821314E+03  0.25500000920E-02 0. -1.
       -2   -1    0    0    0  501  0.00000000000E+00  0.00000000000E+00 -0.15057385267E+03  0.15057385269E+03  0.25500000920E-02 0.  1.
    10030    2    1    2    0    0  0.00000000000E+00  0.00000000000E+00  0.63702436047E+03  0.93817206583E+03  0.68874290507E+03 0.  0.
        3    1    3    3  502    0  0.23142036866E+03  0.25144100681E+03  0.37652320036E+03  0.50847585739E+03  0.10100000352E+00 0.  1.
       -3    1    3    3    0  502 -0.23142036866E+03 -0.25144100681E+03  0.26050116011E+03  0.42969620845E+03  0.10100000352E+00 0. -1.
</event>
<event>
 5   0  0.2758681E-02  0.6849120E+03  0.7818609E-02  0.9743388E-01
       -1   -1    0    0    0  501  0.00000000000E+00  0.00000000000E+00  0.19069321984E+03  0.19069321991E+03  0.50400001928E-02 0.  1.
        1   -1    0    0  501    0  0.00000000000E+00  0.00000000000E+00 -0.61499887256E+03  0.61499887258E+03  0.50400001928E-02 0. -1.
    10030    2    1    2    0    0  0.00000000000E+00  0.00000000000E+00 -0.42430565272E+03  0.80569209249E+03  0.68491200965E+03 0.  0.
        3    1    3    3  502    0  0.67565079279E+02  0.30553445961E+03 -0.37582855923E+03  0.48904341533E+03  0.10100000352E+00 0. -1.
       -3    1    3    3    0  502 -0.67565079279E+02 -0.30553445961E+03 -0.48477093494E+02  0.31664867716E+03  0.10100000352E+00 0.  1.
</event>
<event>
 5   0  0.4503289E-02  0.6897285E+03  0.7818609E-02  0.9734961E-01
        2   -1    0    0  501    0  0.00000000000E+00  0.00000000000E+00  0.15400454029E+04  0.15400454029E+04  0.25500000920E-02 0. -1.
       -2   -1    0    0    0  501  0.00000000000E+00  0.00000000000E+00 -0.77225872193E+02  0.77225872235E+02  0.25500000920E-02 0.  1.
    10030    2    1    2    0    0  0.00000000000E+00  0.00000000000E+00  0.14628195307E+04  0.16172712751E+04  0.68972849583E+03 0.  0.
        2    1    3    3  502    0  0.13431167478E+03 -0.23928463294E+03  0.12212113022E+04  0.12516604197E+04  0.25500000920E-02 0. -1.
       -2    1    3    3    0  502 -0.13431167478E+03  0.23928463294E+03  0.24160822851E+03  0.36561085547E+03  0.25500000920E-02 0.  1.
</event>
<event>
 5   0  0.2777999E-02  0.6997180E+03  0.7818609E-02  0.9717715E-01
       -1   -1    0    0    0  501  0.00000000000E+00  0.00000000000E+00  0.33485844943E+03  0.33485844946E+03  0.50400001928E-02 0. -1.
        1   -1    0    0  501    0  0.00000000000E+00  0.00000000000E+00 -0.36553149114E+03  0.36553149118E+03  0.50400001928E-02 0.  1.
    10030    2    1    2    0    0  0.00000000000E+00  0.00000000000E+00 -0.30673041719E+02  0.70038994064E+03  0.69971796709E+03 0.  0.
        5    1    3    3  502    0  0.31172939934E+03 -0.10531633541E+03  0.10357347983E+03  0.34498739780E+03  0.46999998093E+01 0. -1.
       -5    1    3    3    0  502 -0.31172939934E+03  0.10531633541E+03 -0.13424652155E+03  0.35540254285E+03  0.46999998093E+01 0.  1.
</event>
<event>
 5   0  0.2750139E-02  0.6304936E+03  0.7818609E-02  0.9844086E-01
       -1   -1    0    0    0  501  0.00000000000E+00  0.00000000000E+00  0.10363176198E+03  0.10363176210E+03  0.50400001928E-02 0. -1.
        1   -1    0    0  501    0  0.00000000000E+00  0.00000000000E+00 -0.95897764394E+03  0.95897764395E+03  0.50400001928E-02 0.  1.
    10030    2    1    2    0    0  0.00000000000E+00  0.00000000000E+00 -0.85534588196E+03  0.10626094061E+04  0.63049359399E+03 0.  0.
        2    1    3    3  502    0 -0.31389554396E+03  0.27903124103E+02 -0.44192856178E+03  0.54277974407E+03  0.25500000920E-02 0. -1.
       -2    1    3    3    0  502  0.31389554396E+03 -0.27903124103E+02 -0.41341732018E+03  0.51982966199E+03  0.25500000920E-02 0.  1.
</event>
<event>
 5   0  0.4503289E-02  0.6989597E+03  0.7818609E-02  0.9719013E-01
       -2   -1    0    0    0  501  0.00000000000E+00  0.00000000000E+00  0.49186992431E+03  0.49186992431E+03  0.25500000920E-02 0. -1.
        2   -1    0    0  501    0  0.00000000000E+00  0.00000000000E+00 -0.24830988897E+03  0.24830988899E+03  0.25500000920E-02 0.  1.
    10030    2    1    2    0    0  0.00000000000E+00  0.00000000000E+00  0.24356003533E+03  0.74017981330E+03  0.69895970213E+03 0.  0.
        2    1    3    3  502    0 -0.34073989000E+03 -0.10528775671E+02  0.40289693363E+02  0.34327508961E+03  0.25500000920E-02 0.  1.
       -2    1    3    3    0  502  0.34073989000E+03  0.10528775671E+02  0.20327034197E+03  0.39690472368E+03  0.25500000920E-02 0. -1.
</event>
<event>
 5   0  0.2758681E-02  0.6972773E+03  0.7818609E-02  0.9721900E-01
        1   -1    0    0  501    0  0.00000000000E+00  0.00000000000E+00  0.12068434955E+03  0.12068434965E+03  0.50400001928E-02 0.  1.
       -1   -1    0    0    0  501  0.00000000000E+00  0.00000000000E+00 -0.10071637486E+04  0.10071637486E+04  0.50400001928E-02 0. -1.
    10030    2    1    2    0    0  0.00000000000E+00  0.00000000000E+00 -0.88647939908E+03  0.11278480983E+04  0.69727728188E+03 0.  0.
        3    1    3    3  502    0  0.72386164870E+02 -0.33849107679E+03 -0.37590559602E+03  0.51099999340E+03  0.10100000352E+00 0.  1.
       -3    1    3    3    0  502 -0.72386164870E+02  0.33849107679E+03 -0.51057380306E+03  0.61684810489E+03  0.10100000352E+00 0. -1.
</event>
<event>
 5   0  0.2758681E-02  0.6830932E+03  0.7818609E-02  0.9746590E-01
       -1   -1    0    0    0  501  0.00000000000E+00  0.00000000000E+00  0.18077467185E+04  0.18077467185E+04  0.50400001928E-02 0.  1.
        1   -1    0    0  501    0  0.00000000000E+00  0.00000000000E+00 -0.64530094352E+02  0.64530094549E+02  0.50400001928E-02 0. -1.
    10030    2    1    2    0    0  0.00000000000E+00  0.00000000000E+00  0.17432166242E+04  0.18722768131E+04  0.68309316056E+03 0.  0.
        3    1    3    3  502    0  0.60679260446E+02 -0.31572699406E+03  0.55565064325E+03  0.64196039984E+03  0.10100000352E+00 0. -1.
       -3    1    3    3    0  502 -0.60679260446E+02  0.31572699406E+03  0.11875659809E+04  0.12303164132E+04  0.10100000352E+00 0.  1.
</event>
<event>
 5   0  0.2758681E-02  0.6908216E+03  0.7818609E-02  0.9733058E-01
        1   -1    0    0  501    0  0.00000000000E+00  0.00000000000E+00  0.32510209602E+03  0.32510209606E+03  0.50400001928E-02 0.  1.
       -1   -1    0    0    0  501  0.00000000000E+00  0.00000000000E+00 -0.36698817518E+03  0.36698817522E+03  0.50400001928E-02 0. -1.
    10030    2    1    2    0    0  0.00000000000E+00  0.00000000000E+00 -0.41886079162E+02  0.69209027128E+03  0.69082161226E+03 0.  0.
        3    1    3    3  502    0  0.25163936275E+03 -0.23053500389E+03 -0.74331221563E+02  0.34927624827E+03  0.10100000352E+00 0.  1.
       -3    1    3    3    0  502 -0.25163936275E+03  0.23053500389E+03  0.32445142401E+02  0.34281402301E+03  0.10100000352E+00 0. -1.
</event>
<event>
 5   0  0.1784625E-02  0.6974341E+03  0.7818609E-02  0.9721630E-01
        4   -1    0    0  501    0  0.00000000000E+00  0.00000000000E+00  0.14345708004E+03  0.14346270147E+03  0.12699999809E+01 0. -1.
       -4   -1    0    0    0  501  0.00000000000E+00  0.00000000000E+00 -0.84764254108E+03  0.84764349249E+03  0.12699999809E+01 0.  1.
    10030    2    1    2    0    0  0.00000000000E+00  0.00000000000E+00 -0.70418546105E+03  0.99110619396E+03  0.69743410022E+03 0.  0.
        5    1    3    3  502    0 -0.29972676973E+03 -0.17481768951E+03 -0.30319184763E+03  0.46080879715E+03  0.46999998093E+01 0.  1.
       -5    1    3    3    0  502  0.29972676973E+03  0.17481768951E+03 -0.40099361342E+03  0.53029739681E+03  0.46999998093E+01 0. -1.
</event>
<event>
 5   0  0.4420645E-02  0.7078154E+03  0.7818609E-02  0.9703959E-01
        2   -1    0    0  501    0  0.00000000000E+00  0.00000000000E+00  0.37140767449E+03  0.37140767450E+03  0.25500000920E-02 0.  1.
       -2   -1    0    0    0  501  0.00000000000E+00  0.00000000000E+00 -0.33723227480E+03  0.33723227481E+03  0.25500000920E-02 0. -1.
    10030    2    1    2    0    0  0.00000000000E+00  0.00000000000E+00  0.34175399693E+02  0.70863994931E+03  0.70781538541E+03 0.  0.
        5    1    3    3  502    0 -0.21083296281E+02 -0.22472914109E+02 -0.33585528718E+03  0.33729868244E+03  0.46999998093E+01 0. -1.
       -5    1    3    3    0  502  0.21083296281E+02  0.22472914109E+02  0.37003068688E+03  0.37134126687E+03  0.46999998093E+01 0.  1.
</event>
<event>
 5   0  0.2684924E-02  0.6885840E+03  0.7818609E-02  0.9736957E-01
       -1   -1    0    0    0  501  0.00000000000E+00  0.00000000000E+00  0.43937415104E+03  0.43937415107E+03  0.50400001928E-02 0. -1.
        1   -1    0    0  501    0  0.00000000000E+00  0.00000000000E+00 -0.26978599597E+03  0.26978599602E+03  0.50400001928E-02 0.  1.
    10030    2    1    2    0    0  0.00000000000E+00  0.00000000000E+00  0.16958815507E+03  0.70916014709E+03  0.68858403400E+03 0.  0.
        4    1    3    3  502    0 -0.24229387792E+03 -0.14905154246E+03  0.28452927164E+03  0.40234463450E+03  0.12699999809E+01 0. -1.
       -4    1    3    3    0  502  0.24229387792E+03  0.14905154246E+03 -0.11494111658E+03  0.30681551259E+03  0.12699999809E+01 0.  1.
</event>
<event>
 5   0  0.2758681E-02  0.6916179E+03  0.7818609E-02  0.9731675E-01
        1   -1    0    0  501    0  0.00000000000E+00  0.00000000000E+00  0.20134967349E+03  0.20134967356E+03  0.50400001928E-02 0.  1.
       -1   -1    0    0    0  501  0.00000000000E+00  0.00000000000E+00 -0.59391122764E+03  0.59391122767E+03  0.50400001928E-02 0. -1.
    10030    2    1    2    0    0  0.00000000000E+00  0.00000000000E+00 -0.39256155415E+03  0.79526090122E+03  0.69161790551E+03 0.  0.
        3    1    3    3  502    0 -0.24076914436E+03 -0.44361698792E+02  0.84543311151E+02  0.25900834515E+03  0.10100000352E+00 0.  1.
       -3    1    3    3    0  502  0.24076914436E+03  0.44361698792E+02 -0.47710486530E+03  0.53625255607E+03  0.10100000352E+00 0. -1.
</event>
<event>
 5   0  0.4503289E-02  0.7024491E+03  0.7818609E-02  0.9713053E-01
        2   -1    0    0  501    0  0.00000000000E+00  0.00000000000E+00  0.89986805481E+02  0.89986805517E+02  0.25500000920E-02 0. -1.
       -2   -1    0    0    0  501  0.00000000000E+00  0.00000000000E+00 -0.13708529977E+04  0.13708529977E+04  0.25500000920E-02 0.  1.
    10030    2    1    2    0    0  0.00000000000E+00  0.00000000000E+00 -0.12808661922E+04  0.14608398032E+04  0.70244909303E+03 0.  0.
        2    1    3    3  502    0 -0.26482509153E+03 -0.17480241329E+03 -0.32730791644E+03  0.45587134695E+03  0.25500000920E-02 0. -1.
       -2    1    3    3    0  502  0.26482509153E+03  0.17480241329E+03 -0.95355827578E+03  0.10049684563E+04  0.25500000920E-02 0.  1.
</event>
<event>
 5   0  0.1784625E-02  0.6979534E+03  0.7818609E-02  0.9720739E-01
       -4   -1    0    0    0  501  0.00000000000E+00  0.00000000000E+00  0.14639581170E+03  0.14640132029E+03  0.12699999809E+01 0.  1.
        4   -1    0    0  501    0  0.00000000000E+00  0.00000000000E+00 -0.83186499589E+03  0.83186596534E+03  0.12699999809E+01 0. -1.
    10030    2    1    2    0    0  0.00000000000E+00  0.00000000000E+00 -0.68546918419E+03  0.97826728563E+03  0.69795335063E+03 0.  0.
        4    1    3    3  502    0 -0.16353999841E+03  0.20914932678E+03 -0.66017765150E+03  0.71156511748E+03  0.12699999809E+01 0. -1.
       -4    1    3    3    0  502  0.16353999841E+03 -0.20914932678E+03 -0.25291532695E+02  0.26670216815E+03  0.12699999809E+01 0.  1.
</event>
<event>
 5   0  0.4420645E-02  0.6868247E+03  0.7818609E-02  0.9740033E-01
       -2   -1    0    0    0  501  0.00000000000E+00  0.00000000000E+00  0.22280180882E+03  0.22280180884E+03  0.25500000920E-02 0.  1.
        2   -1    0    0  501    0  0.00000000000E+00  0.00000000000E+00 -0.52931369885E+03  0.52931369886E+03  0.25500000920E-02 0. -1.
    10030    2    1    2    0    0  0.00000000000E+00  0.00000000000E+00 -0.30651189003E+03  0.75211550769E+03  0.68682472159E+03 0.  0.
        5    1    3    3  502    0  0.33429755826E+03 -0.44773729842E+02 -0.22380389482E+03  0.40480837155E+03  0.46999998093E+01 0. -1.
       -5    1    3    3    0  502 -0.33429755826E+03  0.44773729842E+02 -0.82707995206E+02  0.34730713614E+03  0.46999998093E+01 0.  1.
</event>
<event>
 5   0  0.2751729E-02  0.7658186E+03  0.7818609E-02  0.9610855E-01
       -1   -1    0    0    0  501  0.00000000000E+00  0.00000000000E+00  0.34699621022E+03  0.34699621026E+03  0.50400001928E-02 0.  1.
        1   -1    0    0  501    0  0.00000000000E+00  0.00000000000E+00 -0.42253925613E+03  0.42253925616E+03  0.50400001928E-02 0. -1.
    10030    2    1    2    0    0  0.00000000000E+00  0.00000000000E+00 -0.75543045910E+02  0.76953546642E+03  0.76581857009E+03 0.  0.
        1    1    3    3  502    0  0.17739446141E+03 -0.29067910372E+03  0.13816792009E+03  0.36749627270E+03  0.50400001928E-02 0.  1.
       -1    1    3    3    0  502 -0.17739446141E+03  0.29067910372E+03 -0.21371096600E+03  0.40203919373E+03  0.50400001928E-02 0. -1.
</event>
<event>
 5   0  0.4299912E-02  0.7115285E+03  0.7818609E-02  0.9697718E-01
        2   -1    0    0  501    0  0.00000000000E+00  0.00000000000E+00  0.33331834321E+03  0.33331834322E+03  0.25500000920E-02 0.  1.
       -2   -1    0    0    0  501  0.00000000000E+00  0.00000000000E+00 -0.37972164048E+03  0.37972164049E+03  0.25500000920E-02 0. -1.
    10030    2    1    2    0    0  0.00000000000E+00  0.00000000000E+00 -0.46403297277E+02  0.71303998371E+03  0.71152846209E+03 0.  0.
        3    1    3    3  502    0 -0.59851718992E+02 -0.11967577948E+03  0.30714033000E+03  0.33502195894E+03  0.10100000352E+00 0.  1.
       -3    1    3    3    0  502  0.59851718992E+02  0.11967577948E+03 -0.35354362728E+03  0.37801802477E+03  0.10100000352E+00 0. -1.
</event>
<event>
 5   0  0.4420645E-02  0.6962573E+03  0.7818609E-02  0.9723654E-01
        2   -1    0    0  501    0  0.00000000000E+00  0.00000000000E+00  0.11779484441E+04  0.11779484441E+04  0.25500000920E-02 0.  1.
       -2   -1    0    0    0  501  0.00000000000E+00  0.00000000000E+00 -0.10288527928E+03  0.10288527931E+03  0.25500000920E-02 0. -1.
    10030    2    1    2    0    0  0.00000000000E+00  0.00000000000E+00  0.10750631649E+04  0.12808337235E+04  0.69625729345E+03 0.  0.
        5    1    3    3  502    0  0.28624232719E+03  0.17410193788E+03  0.71132553141E+03  0.78629018579E+03  0.46999998093E+01 0.  1.
       -5    1    3    3    0  502 -0.28624232719E+03 -0.17410193788E+03  0.36373763346E+03  0.49454353766E+03  0.46999998093E+01 0. -1.
</event>
<event>
 5   0  0.2751729E-02  0.7075273E+03  0.7818609E-02  0.9704445E-01
       -1   -1    0    0    0  501  0.00000000000E+00  0.00000000000E+00  0.16742070588E+03  0.16742070596E+03  0.50400001928E-02 0.  1.
        1   -1    0    0  501    0  0.00000000000E+00  0.00000000000E+00 -0.74751048445E+03  0.74751048447E+03  0.50400001928E-02 0. -1.
    10030    2    1    2    0    0  0.00000000000E+00  0.00000000000E+00 -0.58008977857E+03  0.91493119043E+03  0.70752733658E+03 0.  0.
        1    1    3    3  502    0  0.11749195567E+03  0.15968029202E+03 -0.66892926998E+03  0.69768798440E+03  0.50400001928E-02 0. -1.
       -1    1    3    3    0  502 -0.11749195567E+03 -0.15968029202E+03  0.88839491413E+02  0.21724320603E+03  0.50400001928E-02 0.  1.
</event>
<event>
 5   0  0.4503289E-02  0.7005839E+03  0.7818609E-02  0.9716234E-01
       -2   -1    0    0    0  501  0.00000000000E+00  0.00000000000E+00  0.28681868015E+03  0.28681868016E+03  0.25500000920E-02 0. -1.
        2   -1    0    0  501    0  0.00000000000E+00  0.00000000000E+00 -0.42781197121E+03  0.42781197122E+03  0.25500000920E-02 0.  1.
    10030    2    1    2    0    0  0.00000000000E+00  0.00000000000E+00 -0.14099329106E+03  0.71463065138E+03  0.70058394199E+03 0.  0.
        2    1    3    3  502    0  0.25803655683E+03 -0.55213537521E+01 -0.31208082884E+03  0.40497875715E+03  0.25500000920E-02 0.  1.
       -2    1    3    3    0  502 -0.25803655683E+03  0.55213537521E+01  0.17108753778E+03  0.30965189423E+03  0.25500000920E-02 0. -1.
</event>
<event>
 5   0  0.4420645E-02  0.6980705E+03  0.7818609E-02  0.9720538E-01
        2   -1    0    0  501    0  0.00000000000E+00  0.00000000000E+00  0.84083322187E+03  0.84083322187E+03  0.25500000920E-02 0. -1.
       -2   -1    0    0    0  501  0.00000000000E+00  0.00000000000E+00 -0.14488677149E+03  0.14488677151E+03  0.25500000920E-02 0.  1.
    10030    2    1    2    0    0  0.00000000000E+00  0.00000000000E+00  0.69594645038E+03  0.98571999339E+03  0.69807051476E+03 0.  0.
        5    1    3    3  502    0 -0.94912637948E+02 -0.19779075783E+03 -0.35302385277E+02  0.22225647601E+03  0.46999998093E+01 0.  1.
       -5    1    3    3    0  502  0.94912637948E+02  0.19779075783E+03  0.73124883566E+03  0.76346351738E+03  0.46999998093E+01 0. -1.
</event>
<event>
 5   0  0.2750139E-02  0.7065919E+03  0.7818609E-02  0.9706025E-01
        1   -1    0    0  501    0  0.00000000000E+00  0.00000000000E+00  0.10286789283E+04  0.10286789283E+04  0.50400001928E-02 0.  1.
       -1   -1    0    0    0  501  0.00000000000E+00  0.00000000000E+00 -0.12133818694E+03  0.12133818704E+03  0.50400001928E-02 0. -1.
    10030    2    1    2    0    0  0.00000000000E+00  0.00000000000E+00  0.90734074131E+03  0.11500171153E+04  0.70659192229E+03 0.  0.
        2    1    3    3  502    0  0.11014779216E+03 -0.72114000179E+02  0.98726286177E+03  0.99600247157E+03  0.25500000920E-02 0.  1.
       -2    1    3    3    0  502 -0.11014779216E+03  0.72114000179E+02 -0.79922120458E+02  0.15401464373E+03  0.25500000920E-02 0. -1.
</event>
<event>
 5   0  0.4420645E-02  0.6940857E+03  0.7818609E-02  0.9727400E-01
        2   -1    0    0  501    0  0.00000000000E+00  0.00000000000E+00  0.29717733580E+03  0.29717733581E+03  0.25500000920E-02 0.  1.
       -2   -1    0    0    0  501  0.00000000000E+00  0.00000000000E+00 -0.40527568551E+03  0.40527568552E+03  0.25500000920E-02 0. -1.
    10030    2    1    2    0    0  0.00000000000E+00  0.00000000000E+00 -0.10809834971E+03  0.70245302133E+03  0.69408572523E+03 0.  0.
        5    1    3    3  502    0  0.62056402335E+02 -0.24518782369E+03  0.18640411924E+03  0.31422388774E+03  0.46999998093E+01 0.  1.
       -5    1    3    3    0  502 -0.62056402335E+02  0.24518782369E+03 -0.29450246895E+03  0.38822913359E+03  0.46999998093E+01 0. -1.
</event>
<event>
 5   0  0.2684924E-02  0.7001447E+03  0.7818609E-02  0.9716985E-01
        1   -1    0    0  501    0  0.00000000000E+00  0.00000000000E+00  0.18615605119E+04  0.18615605119E+04  0.50400001928E-02 0.  1.
       -1   -1    0    0    0  501  0.00000000000E+00  0.00000000000E+00 -0.65832215301E+02  0.65832215494E+02  0.50400001928E-02 0. -1.
    10030    2    1    2    0    0  0.00000000000E+00  0.00000000000E+00  0.17957282966E+04  0.19273927274E+04  0.70014470677E+03 0.  0.
        4    1    3    3  502    0  0.15821658796E+03 -0.67764621688E+02  0.17370294905E+04  0.17455364781E+04  0.12699999809E+01 0.  1.
       -4    1    3    3    0  502 -0.15821658796E+03  0.67764621688E+02  0.58698806059E+02  0.18185624925E+03  0.12699999809E+01 0. -1.
</event>
<event>
 5   0  0.2777999E-02  0.7164001E+03  0.7818609E-02  0.9689590E-01
       -1   -1    0    0    0  501  0.00000000000E+00  0.00000000000E+00  0.11711107516E+03  0.11711107527E+03  0.50400001928E-02 0.  1.
        1   -1    0    0  501    0  0.00000000000E+00  0.00000000000E+00 -0.10956032234E+04  0.10956032234E+04  0.50400001928E-02 0. -1.
    10030    2    1    2    0    0  0.00000000000E+00  0.00000000000E+00 -0.97849214820E+03  0.12127142986E+04  0.71640008798E+03 0.  0.
        5    1    3    3  502    0 -0.24106917141E+03 -0.21706272645E+03 -0.74627484961E+03  0.81374370276E+03  0.46999998093E+01 0. -1.
       -5    1    3    3    0  502  0.24106917141E+03  0.21706272645E+03 -0.23221729859E+03  0.39897059589E+03  0.46999998093E+01 0.  1.
</event>
<event>
 5   0  0.2777999E-02  0.7025718E+03  0.7818609E-02  0.9712844E-01
       -1   -1    0    0    0  501  0.00000000000E+00  0.00000000000E+00  0.12769274453E+03  0.12769274463E+03  0.50400001928E-02 0.  1.
        1   -1    0    0  501    0  0.00000000000E+00  0.00000000000E+00 -0.96639619425E+03  0.96639619426E+03  0.50400001928E-02 0. -1.
    10030    2    1    2    0    0  0.00000000000E+00  0.00000000000E+00 -0.83870344972E+03  0.10940889389E+04  0.70257179679E+03 0.  0.
        5    1    3    3  502    0  0.14288003003E+03 -0.11257497560E+03 -0.88728747400E+03  0.90575326642E+03  0.46999998093E+01 0. -1.
       -5    1    3    3    0  502 -0.14288003003E+03  0.11257497560E+03  0.48584024287E+02  0.18833567247E+03  0.46999998093E+01 0.  1.
</event>
<event>
 5   0  0.2777999E-02  0.7002095E+03  0.7818609E-02  0.9716874E-01
        1   -1    0    0  501    0  0.00000000000E+00  0.00000000000E+00  0.32801774323E+03  0.32801774327E+03  0.50400001928E-02 0. -1.
       -1   -1    0    0    0  501  0.00000000000E+00  0.00000000000E+00 -0.37367897720E+03  0.37367897723E+03  0.50400001928E-02 0.  1.
    10030    2    1    2    0    0  0.00000000000E+00  0.00000000000E+00 -0.45661233964E+02  0.70169672050E+03  0.70020949671E+03 0.  0.
        5    1    3    3  502    0  0.18857078204E+03 -0.20057126641E+02 -0.31771743669E+03  0.37003741398E+03  0.46999998093E+01 0.  1.
       -5    1    3    3    0  502 -0.18857078204E+03  0.20057126641E+02  0.27205620272E+03  0.33165930653E+03  0.46999998093E+01 0. -1.
</event>
<event>
 5   0  0.4299912E-02  0.7047344E+03  0.7818609E-02  0.9709170E-01
       -2   -1    0    0    0  501  0.00000000000E+00  0.00000000000E+00  0.17217839805E+03  0.17217839807E+03  0.25500000920E-02 0.  1.
        2   -1    0    0  501    0  0.00000000000E+00  0.00000000000E+00 -0.72112793932E+03  0.72112793933E+03  0.25500000920E-02 0. -1.
    10030    2    1    2    0    0  0.00000000000E+00  0.00000000000E+00 -0.54894954127E+03  0.89330633740E+03  0.70473442769E+03 0.  0.
        3    1    3    3  502    0 -0.41693749769E+02  0.26949417007E+03 -0.55733848744E+03  0.62047697480E+03  0.10100000352E+00 0. -1.
       -3    1    3    3    0  502  0.41693749769E+02 -0.26949417007E+03  0.83889461689E+01  0.27282936259E+03  0.10100000352E+00 0.  1.
</event>
<event>
 5   0  0.2777999E-02  0.7040209E+03  0.7818609E-02  0.9710381E-01
       -1   -1    0    0    0  501  0.00000000000E+00  0.00000000000E+00  0.73653288946E+02  0.73653289118E+02  0.50400001928E-02 0.  1.
        1   -1    0    0  501    0  0.00000000000E+00  0.00000000000E+00 -0.16823601106E+04  0.16823601106E+04  0.50400001928E-02 0. -1.
    10030    2    1    2    0    0  0.00000000000E+00  0.00000000000E+00 -0.16087068216E+04  0.17560133997E+04  0.70402089597E+03 0.  0.
        5    1    3    3  502    0  0.17098607997E+03  0.50796893728E+02 -0.47507063894E+02  0.18464987158E+03  0.46999998093E+01 0.  1.
       -5    1    3    3    0  502 -0.17098607997E+03 -0.50796893728E+02 -0.15611997577E+04  0.15713635281E+04  0.46999998093E+01 0. -1.
</event>
<event>
 5   0  0.2777999E-02  0.6893674E+03  0.7818609E-02  0.9735590E-01
        1   -1    0    0  501    0  0.00000000000E+00  0.00000000000E+00  0.11516613105E+04  0.11516613105E+04  0.50400001928E-02 0. -1.
       -1   -1    0    0    0  501  0.00000000000E+00  0.00000000000E+00 -0.10316128023E+03  0.10316128035E+03  0.50400001928E-02 0.  1.
    10030    2    1    2    0    0  0.00000000000E+00  0.00000000000E+00  0.10485000303E+04  0.12548225909E+04  0.68936740645E+03 0.  0.
        5    1    3    3  502    0  0.19079255464E+02 -0.26754791736E+03  0.13030579109E+03  0.29824083433E+03  0.46999998093E+01 0.  1.
       -5    1    3    3    0  502 -0.19079255464E+02  0.26754791736E+03  0.91819423918E+03  0.95658175654E+03  0.46999998093E+01 0. -1.
</event>
<event>
 5   0  0.4299912E-02  0.6996144E+03  0.7818609E-02  0.9717892E-01
       -2   -1    0    0    0  501  0.00000000000E+00  0.00000000000E+00  0.70533789176E+02  0.70533789222E+02  0.25500000920E-02 0.  1.
        2   -1    0    0  501    0  0.00000000000E+00  0.00000000000E+00 -0.17348435479E+04  0.17348435479E+04  0.25500000920E-02 0. -1.
    10030    2    1    2    0    0  0.00000000000E+00  0.00000000000E+00 -0.16643097588E+04  0.18053773372E+04  0.69961443412E+03 0.  0.
        3    1    3    3  502    0  0.23041133497E+03  0.23800371163E+03 -0.11221626788E+04  0.11700359985E+04  0.10100000352E+00 0. -1.
       -3    1    3    3    0  502 -0.23041133497E+03 -0.23800371163E+03 -0.54214708001E+03  0.63534133865E+03  0.10100000352E+00 0.  1.
</event>
<event>
 5   0  0.4526837E-02  0.6717663E+03  0.7818609E-02  0.9766772E-01
        2   -1    0    0  501    0  0.00000000000E+00  0.00000000000E+00  0.29954047509E+03  0.29954047510E+03  0.25500000920E-02 0.  1.
       -2   -1    0    0    0  501  0.00000000000E+00  0.00000000000E+00 -0.37663522515E+03  0.37663522516E+03  0.25500000920E-02 0. -1.
    10030    2    1    2    0    0  0.00000000000E+00  0.00000000000E+00 -0.77094750065E+02  0.67617570026E+03  0.67176631140E+03 0.  0.
        1    1    3    3  502    0  0.31525028636E+01 -0.14588707589E+03 -0.34306333684E+03  0.37280749764E+03  0.50400001928E-02 0. -1.
       -1    1    3    3    0  502 -0.31525028636E+01  0.14588707589E+03  0.26596858677E+03  0.30336820262E+03  0.50400001928E-02 0.  1.
</event>
<event>
 5   0  0.4365492E-02  0.7113751E+03  0.7818609E-02  0.9697975E-01
        2   -1    0    0  501    0  0.00000000000E+00  0.00000000000E+00  0.70563119116E+03  0.70563119117E+03  0.25500000920E-02 0. -1.
       -2   -1    0    0    0  501  0.00000000000E+00  0.00000000000E+00 -0.17929143499E+03  0.17929143501E+03  0.25500000920E-02 0.  1.
    10030    2    1    2    0    0  0.00000000000E+00  0.00000000000E+00  0.52633975617E+03  0.88492262618E+03  0.71137508769E+03 0.  0.
        4    1    3    3  502    0  0.52372031676E+02 -0.26446897813E+03 -0.25432604018E+02  0.27080454269E+03  0.12699999809E+01 0.  1.
       -4    1    3    3    0  502 -0.52372031676E+02  0.26446897813E+03  0.55177236019E+03  0.61411808348E+03  0.12699999809E+01 0. -1.
</event>
<event>
 5   0  0.2750139E-02  0.6976504E+03  0.7818609E-02  0.9721259E-01
        1   -1    0    0  501    0  0.00000000000E+00  0.00000000000E+00  0.75697570980E+03  0.75697570982E+03  0.50400001928E-02 0. -1.
       -1   -1    0    0    0  501  0.00000000000E+00  0.00000000000E+00 -0.16074362695E+03  0.16074362703E+03  0.50400001928E-02 0.  1.
    10030    2    1    2    0    0  0.00000000000E+00  0.00000000000E+00  0.59623208286E+03  0.91771933685E+03  0.69765040285E+03 0.  0.
        2    1    3    3  502    0  0.50709060768E+02 -0.23731039380E+03  0.62774251126E+03  0.67301433290E+03  0.25500000920E-02 0. -1.
       -2    1    3    3    0  502 -0.50709060768E+02  0.23731039380E+03 -0.31510428402E+02  0.24470500394E+03  0.25500000920E-02 0.  1.
</event>
<event>
 5   0  0.4420645E-02  0.6970026E+03  0.7818609E-02  0.9722372E-01
        2   -1    0    0  501    0  0.00000000000E+00  0.00000000000E+00  0.89013053579E+03  0.89013053579E+03  0.25500000920E-02 0. -1.
       -2   -1    0    0    0  501  0.00000000000E+00  0.00000000000E+00 -0.13644420671E+03  0.13644420673E+03  0.25500000920E-02 0.  1.
    10030    2    1    2    0    0  0.00000000000E+00  0.00000000000E+00  0.75368632908E+03  0.10265747425E+04  0.69700259637E+03 0.  0.
        5    1    3    3  502    0 -0.16546093945E+03 -0.14321410032E+03  0.77626170410E+03  0.80653079561E+03  0.46999998093E+01 0. -1.
       -5    1    3    3    0  502  0.16546093945E+03  0.14321410032E+03 -0.22575375026E+02  0.22004394691E+03  0.46999998093E+01 0.  1.
</event>
<event>
 5   0  0.2684924E-02  0.6880534E+03  0.7818609E-02  0.9737883E-01
        1   -1    0    0  501    0  0.00000000000E+00  0.00000000000E+00  0.99998931360E+03  0.99998931362E+03  0.50400001928E-02 0. -1.
       -1   -1    0    0    0  501  0.00000000000E+00  0.00000000000E+00 -0.11835562963E+03  0.11835562974E+03  0.50400001928E-02 0.  1.
    10030    2    1    2    0    0  0.00000000000E+00  0.00000000000E+00  0.88163368397E+03  0.11183449434E+04  0.68805338427E+03 0.  0.
        4    1    3    3  502    0  0.27606347159E+03 -0.19727239204E+03  0.53312492052E+03  0.63194242680E+03  0.12699999809E+01 0.  1.
       -4    1    3    3    0  502 -0.27606347159E+03  0.19727239204E+03  0.34850876345E+03  0.48640251655E+03  0.12699999809E+01 0. -1.
</event>
<event>
 5   0  0.4526837E-02  0.7015281E+03  0.7818609E-02  0.9714622E-01
       -2   -1    0    0    0  501  0.00000000000E+00  0.00000000000E+00  0.22828919885E+03  0.22828919887E+03  0.25500000920E-02 0. -1.
        2   -1    0    0  501    0  0.00000000000E+00  0.00000000000E+00 -0.53894545406E+03  0.53894545407E+03  0.25500000920E-02 0.  1.
    10030    2    1    2    0    0  0.00000000000E+00  0.00000000000E+00 -0.31065625521E+03  0.76723465294E+03  0.70152812044E+03 0.  0.
        1    1    3    3  502    0  0.14142804631E+03 -0.20727318854E+03  0.11272251586E+03  0.27508259229E+03  0.50400001928E-02 0. -1.
       -1    1    3    3    0  502 -0.14142804631E+03  0.20727318854E+03 -0.42337877108E+03  0.49215206065E+03  0.50400001928E-02 0.  1.
</event>
<event>
 5   0  0.4420645E-02  0.7015344E+03  0.7818609E-02  0.9714612E-01
       -2   -1    0    0    0  501  0.00000000000E+00  0.00000000000E+00  0.12927492197E+03  0.12927492200E+03  0.25500000920E-02 0.  1.
        2   -1    0    0  501    0  0.00000000000E+00  0.00000000000E+00 -0.95175160726E+03  0.95175160726E+03  0.25500000920E-02 0. -1.
    10030    2    1    2    0    0  0.00000000000E+00  0.00000000000E+00 -0.82247668528E+03  0.10810265293E+04  0.70153436062E+03 0.  0.
        5    1    3    3  502    0 -0.30813294526E+03 -0.16751146329E+03 -0.40648320875E+03  0.53689541931E+03  0.46999998093E+01 0. -1.
       -5    1    3    3    0  502  0.30813294526E+03  0.16751146329E+03 -0.41599347654E+03  0.54413110995E+03  0.46999998093E+01 0.  1.
</event>
<event>
 5   0  0.4503289E-02  0.6645544E+03  0.7818609E-02  0.9779846E-01
        2   -1    0    0  501    0  0.00000000000E+00  0.00000000000E+00  0.17567805242E+04  0.17567805242E+04  0.25500000920E-02 0. -1.
       -2   -1    0    0    0  501  0.00000000000E+00  0.00000000000E+00 -0.62846860148E+02  0.62846860200E+02  0.25500000920E-02 0.  1.
    10030    2    1    2    0    0  0.00000000000E+00  0.00000000000E+00  0.16939336641E+04  0.18196273844E+04  0.66455440699E+03 0.  0.
        2    1    3    3  502    0  0.13320963556E+03 -0.10549302217E+03  0.16288156339E+04  0.16376550167E+04  0.25500000920E-02 0. -1.
       -2    1    3    3    0  502 -0.13320963556E+03  0.10549302217E+03  0.65118030202E+02  0.18197236767E+03  0.25500000920E-02 0.  1.
</event>
<event>
 5   0  0.2751729E-02  0.7063154E+03  0.7818609E-02  0.9706493E-01
        1   -1    0    0  501    0  0.00000000000E+00  0.00000000000E+00  0.48269144317E+03  0.48269144320E+03  0.50400001928E-02 0. -1.
       -1   -1    0    0    0  501  0.00000000000E+00  0.00000000000E+00 -0.25838527531E+03  0.25838527536E+03  0.50400001928E-02 0.  1.
    10030    2    1    2    0    0  0.00000000000E+00  0.00000000000E+00  0.22430616786E+03  0.74107671856E+03  0.70631540111E+03 0.  0.
        1    1    3    3  502    0  0.92681862434E+02 -0.16601764873E+03 -0.20009826285E+03  0.27602735758E+03  0.50400001928E-02 0.  1.
       -1    1    3    3    0  502 -0.92681862434E+02  0.16601764873E+03  0.42440443071E+03  0.46504936098E+03  0.50400001928E-02 0. -1.
</event>
<event>
 5   0  0.2684924E-02  0.6704343E+03  0.7818609E-02  0.9769173E-01
        1   -1    0    0  501    0  0.00000000000E+00  0.00000000000E+00  0.37955219201E+03  0.37955219205E+03  0.50400001928E-02 0.  1.
       -1   -1    0    0    0  501  0.00000000000E+00  0.00000000000E+00 -0.29606086651E+03  0.29606086655E+03  0.50400001928E-02 0. -1.
    10030    2    1    2    0    0  0.00000000000E+00  0.00000000000E+00  0.83491325505E+02  0.67561305860E+03  0.67043433945E+03 0.  0.
        4    1    3    3  502    0 -0.12710905609E+03  0.29803829905E+03 -0.44856500576E+02  0.32710435397E+03  0.12699999809E+01 0. -1.
       -4    1    3    3    0  502  0.12710905609E+03 -0.29803829905E+03  0.12834782608E+03  0.34850870463E+03  0.12699999809E+01 0.  1.
</event>
<event>
 5   0  0.4503289E-02  0.5873603E+03  0.7818609E-02  0.9931982E-01
        2   -1    0    0  501    0  0.00000000000E+00  0.00000000000E+00  0.10665833746E+04  0.10665833746E+04  0.25500000920E-02 0.  1.
       -2   -1    0    0    0  501  0.00000000000E+00  0.00000000000E+00 -0.80863840609E+02  0.80863840649E+02  0.25500000920E-02 0. -1.
    10030    2    1    2    0    0  0.00000000000E+00  0.00000000000E+00  0.98571953398E+03  0.11474472152E+04  0.58736029155E+03 0.  0.
        2    1    3    3  502    0  0.25741404584E+03 -0.14044687119E+03  0.52440326146E+03  0.60082118410E+03  0.25500000920E-02 0.  1.
       -2    1    3    3    0  502 -0.25741404584E+03  0.14044687119E+03  0.46131627252E+03  0.54662603114E+03  0.25500000920E-02 0. -1.
</event>
<event>
 5   0  0.4420645E-02  0.7029238E+03  0.7818609E-02  0.9712245E-01
       -2   -1    0    0    0  501  0.00000000000E+00  0.00000000000E+00  0.11502842600E+03  0.11502842603E+03  0.25500000920E-02 0. -1.
        2   -1    0    0  501    0  0.00000000000E+00  0.00000000000E+00 -0.10738689478E+04  0.10738689478E+04  0.25500000920E-02 0.  1.
    10030    2    1    2    0    0  0.00000000000E+00  0.00000000000E+00 -0.95884052179E+03  0.11888973738E+04  0.70292376490E+03 0.  0.
        5    1    3    3  502    0 -0.26124745234E+03 -0.10579252973E+03 -0.83444914002E+03  0.88077792205E+03  0.46999998093E+01 0.  1.
       -5    1    3    3    0  502  0.26124745234E+03  0.10579252973E+03 -0.12439138177E+03  0.30811945177E+03  0.46999998093E+01 0. -1.
</event>
<event>
 5   0  0.2684924E-02  0.6574579E+03  0.7818609E-02  0.9792885E-01
        1   -1    0    0  501    0  0.00000000000E+00  0.00000000000E+00  0.14478123293E+04  0.14478123293E+04  0.50400001928E-02 0.  1.
       -1   -1    0    0    0  501  0.00000000000E+00  0.00000000000E+00 -0.74638632409E+02  0.74638632579E+02  0.50400001928E-02 0. -1.
    10030    2    1    2    0    0  0.00000000000E+00  0.00000000000E+00  0.13731736969E+04  0.15224509619E+04  0.65745792985E+03 0.  0.
        4    1    3    3  502    0  0.26450763412E+03  0.13718918311E+03  0.10080885990E+04  0.10512037847E+04  0.12699999809E+01 0.  1.
       -4    1    3    3    0  502 -0.26450763412E+03 -0.13718918311E+03  0.36508509785E+03  0.47124717723E+03  0.12699999809E+01 0. -1.
</event>
<event>
 5   0  0.2750139E-02  0.6967620E+03  0.7818609E-02  0.9722786E-01
        1   -1    0    0  501    0  0.00000000000E+00  0.00000000000E+00  0.89687154007E+02  0.89687154148E+02  0.50400001928E-02 0. -1.
       -1   -1    0    0    0  501  0.00000000000E+00  0.00000000000E+00 -0.13532521623E+04  0.13532521623E+04  0.50400001928E-02 0.  1.
    10030    2    1    2    0    0  0.00000000000E+00  0.00000000000E+00 -0.12635650083E+04  0.14429393164E+04  0.69676204029E+03 0.  0.
        2    1    3    3  502    0 -0.13175120106E+03 -0.12098222759E+03 -0.12508953376E+04  0.12636194934E+04  0.25500000920E-02 0.  1.
       -2    1    3    3    0  502  0.13175120106E+03  0.12098222759E+03 -0.12669670633E+02  0.17931982303E+03  0.25500000920E-02 0. -1.
</event>
<event>
 5   0  0.1784625E-02  0.7121137E+03  0.7818609E-02  0.9696738E-01
        3   -1    0    0  501    0  0.00000000000E+00  0.00000000000E+00  0.71914431693E+02  0.71914502618E+02  0.10100000352E+00 0. -1.
       -3   -1    0    0    0  501  0.00000000000E+00  0.00000000000E+00 -0.17628786077E+04  0.17628786106E+04  0.10100000352E+00 0.  1.
    10030    2    1    2    0    0  0.00000000000E+00  0.00000000000E+00 -0.16909641760E+04  0.18347931132E+04  0.71211370143E+03 0.  0.
        1    1    3    3  502    0  0.21873643305E+03  0.43234209900E+02 -0.15607305468E+04  0.15765768816E+04  0.50400001928E-02 0.  1.
       -1    1    3    3    0  502 -0.21873643305E+03 -0.43234209900E+02 -0.13023362927E+03  0.25821623161E+03  0.50400001928E-02 0. -1.
</event>
<event>
 5   0  0.4365492E-02  0.7016864E+03  0.7818609E-02  0.9714353E-01
        2   -1    0    0  501    0  0.00000000000E+00  0.00000000000E+00  0.12740760462E+03  0.12740760465E+03  0.25500000920E-02 0.  1.
       -2   -1    0    0    0  501  0.00000000000E+00  0.00000000000E+00 -0.96611931802E+03  0.96611931803E+03  0.25500000920E-02 0. -1.
    10030    2    1    2    0    0  0.00000000000E+00  0.00000000000E+00 -0.83871171340E+03  0.10935269227E+04  0.70168639179E+03 0.  0.
        4    1    3    3  502    0  0.32920823828E+03  0.10660274172E+03 -0.32919407408E+03  0.47761130640E+03  0.12699999809E+01 0. -1.
       -4    1    3    3    0  502 -0.32920823828E+03 -0.10660274172E+03 -0.50951763933E+03  0.61591561628E+03  0.12699999809E+01 0.  1.
</event>
<event>
 5   0  0.2777999E-02  0.6903731E+03  0.7818609E-02  0.9733838E-01
       -1   -1    0    0    0  501  0.00000000000E+00  0.00000000000E+00  0.39254108840E+03  0.39254108843E+03  0.50400001928E-02 0. -1.
        1   -1    0    0  501    0  0.00000000000E+00  0.00000000000E+00 -0.30354471037E+03  0.30354471041E+03  0.50400001928E-02 0.  1.
    10030    2    1    2    0    0  0.00000000000E+00  0.00000000000E+00  0.88996378033E+02  0.69608579885E+03  0.69037314841E+03 0.  0.
        5    1    3    3  502    0  0.34350063013E+02 -0.34343965328E+03  0.43510934332E+02  0.34791667635E+03  0.46999998093E+01 0. -1.
       -5    1    3    3    0  502 -0.34350063013E+02  0.34343965328E+03  0.45485443701E+02  0.34816912250E+03  0.46999998093E+01 0.  1.
</event>
<event>
 5   0  0.4365492E-02  0.7025840E+03  0.7818609E-02  0.9712823E-01
       -2   -1    0    0    0  501  0.00000000000E+00  0.00000000000E+00  0.26271957278E+03  0.26271957280E+03  0.25500000920E-02 0.  1.
        2   -1    0    0  501    0  0.00000000000E+00  0.00000000000E+00 -0.46972544314E+03  0.46972544315E+03  0.25500000920E-02 0. -1.
    10030    2    1    2    0    0  0.00000000000E+00  0.00000000000E+00 -0.20700587036E+03  0.73244501595E+03  0.70258399571E+03 0.  0.
        4    1    3    3  502    0  0.28224912002E+03 -0.20140697593E+03 -0.44759844961E+02  0.34962035456E+03  0.12699999809E+01 0.  1.
       -4    1    3    3    0  502 -0.28224912002E+03  0.20140697593E+03 -0.16224602540E+03  0.38282466138E+03  0.12699999809E+01 0. -1.
</event>
<event>
 5   0  0.4365492E-02  0.6990699E+03  0.7818609E-02  0.9718824E-01
       -2   -1    0    0    0  501  0.00000000000E+00  0.00000000000E+00  0.16600735382E+03  0.16600735384E+03  0.25500000920E-02 0. -1.
        2   -1    0    0  501    0  0.00000000000E+00  0.00000000000E+00 -0.73595942577E+03  0.73595942577E+03  0.25500000920E-02 0.  1.
    10030    2    1    2    0    0  0.00000000000E+00  0.00000000000E+00 -0.56995207194E+03  0.90196677961E+03  0.69906988721E+03 0.  0.
        4    1    3    3  502    0 -0.25988508569E+03 -0.14419058932E+03 -0.52233038211E+03  0.60096740743E+03  0.12699999809E+01 0.  1.
       -4    1    3    3    0  502  0.25988508569E+03  0.14419058932E+03 -0.47621689835E+02  0.30099937219E+03  0.12699999809E+01 0. -1.
</event>
<event>
 5   0  0.4299912E-02  0.7042160E+03  0.7818609E-02  0.9710049E-01
       -2   -1    0    0    0  501  0.00000000000E+00  0.00000000000E+00  0.68341976204E+02  0.68341976251E+02  0.25500000920E-02 0. -1.
        2   -1    0    0  501    0  0.00000000000E+00  0.00000000000E+00 -0.18141127564E+04  0.18141127564E+04  0.25500000920E-02 0.  1.
    10030    2    1    2    0    0  0.00000000000E+00  0.00000000000E+00 -0.17457707802E+04  0.18824547327E+04  0.70421602048E+03 0.  0.
        3    1    3    3  502    0 -0.12135107075E+03 -0.30468829489E+03 -0.12154101802E+04  0.12588816289E+04  0.10100000352E+00 0.  1.
       -3    1    3    3    0  502  0.12135107075E+03  0.30468829489E+03 -0.53036060005E+03  0.62357310373E+03  0.10100000352E+00 0. -1.
</event>
<event>
 5   0  0.2750139E-02  0.6959738E+03  0.7818609E-02  0.9724142E-01
       -1   -1    0    0    0  501  0.00000000000E+00  0.00000000000E+00  0.40210850066E+03  0.40210850069E+03  0.50400001928E-02 0.  1.
        1   -1    0    0  501    0  0.00000000000E+00  0.00000000000E+00 -0.30114979374E+03  0.30114979378E+03  0.50400001928E-02 0. -1.
    10030    2    1    2    0    0  0.00000000000E+00  0.00000000000E+00  0.10095870691E+03  0.70325829447E+03  0.69597382727E+03 0.  0.
        2    1    3    3  502    0 -0.34495775872E+03  0.38908992199E+02  0.74921933967E+02  0.35513808747E+03  0.25500000920E-02 0. -1.
       -2    1    3    3    0  502  0.34495775872E+03 -0.38908992199E+02  0.26036772947E+02  0.34812020701E+03  0.25500000920E-02 0.  1.
</event>
<event>
 5   0  0.2684924E-02  0.7020138E+03  0.7818609E-02  0.9713794E-01
       -1   -1    0    0    0  501  0.00000000000E+00  0.00000000000E+00  0.19715322503E+03  0.19715322510E+03  0.50400001928E-02 0.  1.
        1   -1    0    0  501    0  0.00000000000E+00  0.00000000000E+00 -0.62492436039E+03  0.62492436041E+03  0.50400001928E-02 0. -1.
    10030    2    1    2    0    0  0.00000000000E+00  0.00000000000E+00 -0.42777113536E+03  0.82207758551E+03  0.70201382633E+03 0.  0.
        4    1    3    3  502    0 -0.30807567172E+03 -0.58099452212E+02 -0.29033471461E+02  0.31485031558E+03  0.12699999809E+01 0.  1.
       -4    1    3    3    0  502  0.30807567172E+03  0.58099452212E+02 -0.39873766390E+03  0.50722726993E+03  0.12699999809E+01 0. -1.
</event>
<event>
 5   0  0.2777999E-02  0.6889452E+03  0.7818609E-02  0.9736326E-01
        1   -1    0    0  501    0  0.00000000000E+00  0.00000000000E+00  0.40723119672E+03  0.40723119675E+03  0.50400001928E-02 0.  1.
       -1   -1    0    0    0  501  0.00000000000E+00  0.00000000000E+00 -0.29138573437E+03  0.29138573441E+03  0.50400001928E-02 0. -1.
    10030    2    1    2    0    0  0.00000000000E+00  0.00000000000E+00  0.11584546235E+03  0.69861693116E+03  0.68894516861E+03 0.  0.
        5    1    3    3  502    0  0.11736344149E+03  0.16441188056E+03 -0.22498097793E+03  0.30239704743E+03  0.46999998093E+01 0. -1.
       -5    1    3    3    0  502 -0.11736344149E+03 -0.16441188056E+03  0.34082644028E+03  0.39621988372E+03  0.46999998093E+01 0.  1.
</event>
<event>
 5   0  0.4526837E-02  0.6957641E+03  0.7818609E-02  0.9724504E-01
        2   -1    0    0  501    0  0.00000000000E+00  0.00000000000E+00  0.21287624308E+04  0.21287624308E+04  0.25500000920E-02 0.  1.
       -2   -1    0    0    0  501  0.00000000000E+00  0.00000000000E+00 -0.56850837048E+02  0.56850837105E+02  0.25500000920E-02 0. -1.
    10030    2    1    2    0    0  0.00000000000E+00  0.00000000000E+00  0.20719115938E+04  0.21856132679E+04  0.69576411558E+03 0.  0.
        1    1    3    3  502    0  0.31790092103E+03 -0.76819153641E+01  0.14791139729E+04  0.15129104905E+04  0.50400001928E-02 0.  1.
       -1    1    3    3    0  502 -0.31790092103E+03  0.76819153641E+01  0.59279762082E+03  0.67270277737E+03  0.50400001928E-02 0. -1.
</event>
<event>
 5   0  0.4420645E-02  0.6979900E+03  0.7818609E-02  0.9720676E-01
       -2   -1    0    0    0  501  0.00000000000E+00  0.00000000000E+00  0.62969200352E+02  0.62969200404E+02  0.25500000920E-02 0. -1.
        2   -1    0    0  501    0  0.00000000000E+00  0.00000000000E+00 -0.19342394516E+04  0.19342394516E+04  0.25500000920E-02 0.  1.
    10030    2    1    2    0    0  0.00000000000E+00  0.00000000000E+00 -0.18712702513E+04  0.19972086520E+04  0.69799000455E+03 0.  0.
        5    1    3    3  502    0  0.17921737446E+03 -0.21158982710E+03 -0.32941390286E+03  0.43060972079E+03  0.46999998093E+01 0. -1.
       -5    1    3    3    0  502 -0.17921737446E+03  0.21158982710E+03 -0.15418563484E+04  0.15665989312E+04  0.46999998093E+01 0.  1.
</event>
<event>
 5   0  0.4365492E-02  0.6969254E+03  0.7818609E-02  0.9722505E-01
        2   -1    0    0  501    0  0.00000000000E+00  0.00000000000E+00  0.12548042152E+04  0.12548042152E+04  0.25500000920E-02 0. -1.
       -2   -1    0    0    0  501  0.00000000000E+00  0.00000000000E+00 -0.96769081285E+02  0.96769081318E+02  0.25500000920E-02 0.  1.
    10030    2    1    2    0    0  0.00000000000E+00  0.00000000000E+00  0.11580351339E+04  0.13515732965E+04  0.69692539377E+03 0.  0.
        4    1    3    3  502    0 -0.23262745336E+03  0.21344720622E+03  0.29301039933E+03  0.43073419752E+03  0.12699999809E+01 0.  1.
       -4    1    3    3    0  502  0.23262745336E+03 -0.21344720622E+03  0.86502473456E+03  0.92083909897E+03  0.12699999809E+01 0. -1.
</event>
<event>
 5   0  0.2777999E-02  0.7055197E+03  0.7818609E-02  0.9707839E-01
       -1   -1    0    0    0  501  0.00000000000E+00  0.00000000000E+00  0.12136165146E+03  0.12136165156E+03  0.50400001928E-02 0. -1.
        1   -1    0    0  501    0  0.00000000000E+00  0.00000000000E+00 -0.10253611054E+04  0.10253611054E+04  0.50400001928E-02 0.  1.
    10030    2    1    2    0    0  0.00000000000E+00  0.00000000000E+00 -0.90399945391E+03  0.11467227569E+04  0.70551971525E+03 0.  0.
        5    1    3    3  502    0  0.27957305545E+03 -0.21482752571E+03 -0.43530767715E+03  0.56020248386E+03  0.46999998093E+01 0. -1.
       -5    1    3    3    0  502 -0.27957305545E+03  0.21482752571E+03 -0.46869177676E+03  0.58652027308E+03  0.46999998093E+01 0.  1.
</event>
<event>
 5   0  0.2751729E-02  0.6960386E+03  0.7818609E-02  0.9724031E-01
        1   -1    0    0  501    0  0.00000000000E+00  0.00000000000E+00  0.20301229825E+04  0.20301229826E+04  0.50400001928E-02 0. -1.
       -1   -1    0    0    0  501  0.00000000000E+00  0.00000000000E+00 -0.59660143231E+02  0.59660143444E+02  0.50400001928E-02 0.  1.
    10030    2    1    2    0    0  0.00000000000E+00  0.00000000000E+00  0.19704628393E+04  0.20897831260E+04  0.69603858555E+03 0.  0.
        1    1    3    3  502    0  0.52137298673E+02 -0.32666085589E+03  0.13098765388E+04  0.13510004291E+04  0.50400001928E-02 0.  1.
       -1    1    3    3    0  502 -0.52137298673E+02  0.32666085589E+03  0.66058630054E+03  0.73878269685E+03  0.50400001928E-02 0. -1.
</event>
<event>
 5   0  0.1784625E-02  0.7053726E+03  0.7818609E-02  0.9708088E-01
        4   -1    0    0  501    0  0.00000000000E+00  0.00000000000E+00  0.15881050701E+03  0.15881558499E+03  0.12699999809E+01 0.  1.
       -4   -1    0    0    0  501  0.00000000000E+00  0.00000000000E+00 -0.78322739578E+03  0.78322842543E+03  0.12699999809E+01 0. -1.
    10030    2    1    2    0    0  0.00000000000E+00  0.00000000000E+00 -0.62441688877E+03  0.94204401042E+03  0.70537257289E+03 0.  0.
        1    1    3    3  502    0 -0.33058946835E+03  0.71414180763E+01 -0.14838322367E+03  0.36243341116E+03  0.50400001928E-02 0.  1.
       -1    1    3    3    0  502  0.33058946835E+03 -0.71414180763E+01 -0.47603366511E+03  0.57961059926E+03  0.50400001928E-02 0. -1.
</event>
<event>
 5   0  0.2750139E-02  0.7050984E+03  0.7818609E-02  0.9708553E-01
       -1   -1    0    0    0  501  0.00000000000E+00  0.00000000000E+00  0.12637388957E+03  0.12637388967E+03  0.50400001928E-02 0. -1.
        1   -1    0    0  501    0  0.00000000000E+00  0.00000000000E+00 -0.98351767216E+03  0.98351767218E+03  0.50400001928E-02 0.  1.
    10030    2    1    2    0    0  0.00000000000E+00  0.00000000000E+00 -0.85714378259E+03  0.11098915619E+04  0.70509844351E+03 0.  0.
        2    1    3    3  502    0  0.24543124288E+03  0.37145204691E+02 -0.34498692037E+02  0.25061209263E+03  0.25500000920E-02 0.  1.
       -2    1    3    3    0  502 -0.24543124288E+03 -0.37145204691E+02 -0.82264509055E+03  0.85927946922E+03  0.25500000920E-02 0. -1.
</event>
<event>
 5   0  0.2758681E-02  0.6969489E+03  0.7818609E-02  0.9722464E-01
        1   -1    0    0  501    0  0.00000000000E+00  0.00000000000E+00  0.50173330173E+03  0.50173330175E+03  0.50400001928E-02 0. -1.
       -1   -1    0    0    0  501  0.00000000000E+00  0.00000000000E+00 -0.24202984149E+03  0.24202984155E+03  0.50400001928E-02 0.  1.
    10030    2    1    2    0    0  0.00000000000E+00  0.00000000000E+00  0.25970346023E+03  0.74376314330E+03  0.69694886905E+03 0.  0.
        3    1    3    3  502    0  0.16738474506E+03 -0.13353758266E+03 -0.16354147907E+03  0.26943601177E+03  0.10100000352E+00 0.  1.
       -3    1    3    3    0  502 -0.16738474506E+03  0.13353758266E+03  0.42324493930E+03  0.47432713153E+03  0.10100000352E+00 0. -1.
</event>
<event>
 5   0  0.4526837E-02  0.7166174E+03  0.7818609E-02  0.9689229E-01
        2   -1    0    0  501    0  0.00000000000E+00  0.00000000000E+00  0.57700404035E+03  0.57700404036E+03  0.25500000920E-02 0.  1.
       -2   -1    0    0    0  501  0.00000000000E+00  0.00000000000E+00 -0.22250299381E+03  0.22250299382E+03  0.25500000920E-02 0. -1.
    10030    2    1    2    0    0  0.00000000000E+00  0.00000000000E+00  0.35450104654E+03  0.79950703418E+03  0.71661740539E+03 0.  0.
        1    1    3    3  502    0 -0.19222245108E+03 -0.29499365624E+03  0.25137654689E+03  0.43262096143E+03  0.50400001928E-02 0.  1.
       -1    1    3    3    0  502  0.19222245108E+03  0.29499365624E+03  0.10312449965E+03  0.36688607275E+03  0.50400001928E-02 0. -1.
</event>
<event>
 5   0  0.2750139E-02  0.6851500E+03  0.7818609E-02  0.9742970E-01
        1   -1    0    0  501    0  0.00000000000E+00  0.00000000000E+00  0.88087172235E+03  0.88087172236E+03  0.50400001928E-02 0. -1.
       -1   -1    0    0    0  501  0.00000000000E+00  0.00000000000E+00 -0.13322896252E+03  0.13322896262E+03  0.50400001928E-02 0.  1.
    10030    2    1    2    0    0  0.00000000000E+00  0.00000000000E+00  0.74764275982E+03  0.10141006850E+04  0.68514998574E+03 0.  0.
        2    1    3    3  502    0 -0.10246027864E+03 -0.31734319392E+03  0.48992140863E+03  0.59264474862E+03  0.25500000920E-02 0. -1.
       -2    1    3    3    0  502  0.10246027864E+03  0.31734319392E+03  0.25772135120E+03  0.42145593636E+03  0.25500000920E-02 0.  1.
</event>
<event>
 5   0  0.2684924E-02  0.7107247E+03  0.7818609E-02  0.9699065E-01
       -1   -1    0    0    0  501  0.00000000000E+00  0.00000000000E+00  0.43250822745E+02  0.43250823038E+02  0.50400001928E-02 0.  1.
        1   -1    0    0  501    0  0.00000000000E+00  0.00000000000E+00 -0.29197684392E+04  0.29197684392E+04  0.50400001928E-02 0. -1.
    10030    2    1    2    0    0  0.00000000000E+00  0.00000000000E+00 -0.28765176165E+04  0.29630192623E+04  0.71072466585E+03 0.  0.
        4    1    3    3  502    0 -0.31940627522E+03  0.90809965502E+01 -0.79000847448E+03  0.85218415604E+03  0.12699999809E+01 0.  1.
       -4    1    3    3    0  502  0.31940627522E+03 -0.90809965502E+01 -0.20865091420E+04  0.21108351062E+04  0.12699999809E+01 0. -1.
</event>
<event>
 5   0  0.4365492E-02  0.6967544E+03  0.7818609E-02  0.9722799E-01
       -2   -1    0    0    0  501  0.00000000000E+00  0.00000000000E+00  0.58302083762E+02  0.58302083818E+02  0.25500000920E-02 0.  1.
        2   -1    0    0  501    0  0.00000000000E+00  0.00000000000E+00 -0.20816868080E+04  0.20816868080E+04  0.25500000920E-02 0. -1.
    10030    2    1    2    0    0  0.00000000000E+00  0.00000000000E+00 -0.20233847243E+04  0.21399888918E+04  0.69675441501E+03 0.  0.
        4    1    3    3  502    0  0.70987553306E+02 -0.23676059828E+03 -0.17657131062E+04  0.17829299482E+04  0.12699999809E+01 0. -1.
       -4    1    3    3    0  502 -0.70987553306E+02  0.23676059828E+03 -0.25767161801E+03  0.35705894367E+03  0.12699999809E+01 0.  1.
</event>
<event>
 5   0  0.2777999E-02  0.7022836E+03  0.7818609E-02  0.9713335E-01
       -1   -1    0    0    0  501  0.00000000000E+00  0.00000000000E+00  0.15469446448E+03  0.15469446456E+03  0.50400001928E-02 0.  1.
        1   -1    0    0  501    0  0.00000000000E+00  0.00000000000E+00 -0.79705869247E+03  0.79705869249E+03  0.50400001928E-02 0. -1.
    10030    2    1    2    0    0  0.00000000000E+00  0.00000000000E+00 -0.64236422800E+03  0.95175315705E+03  0.70228361119E+03 0.  0.
        5    1    3    3  502    0  0.73007645346E+02  0.26128521703E+03 -0.19120472541E+02  0.27200691790E+03  0.46999998093E+01 0.  1.
       -5    1    3    3    0  502 -0.73007645346E+02 -0.26128521703E+03 -0.62324375545E+03  0.67974623914E+03  0.46999998093E+01 0. -1.
</event>
<event>
 5   0  0.2777999E-02  0.7149613E+03  0.7818609E-02  0.9691983E-01
        1   -1    0    0  501    0  0.00000000000E+00  0.00000000000E+00  0.10177798785E+04  0.10177798785E+04  0.50400001928E-02 0.  1.
       -1   -1    0    0    0  501  0.00000000000E+00  0.00000000000E+00 -0.12555996385E+03  0.12555996395E+03  0.50400001928E-02 0. -1.
    10030    2    1    2    0    0  0.00000000000E+00  0.00000000000E+00  0.89221991464E+03  0.11433398424E+04  0.71496127115E+03 0.  0.
        5    1    3    3  502    0  0.33081666504E+03 -0.44480469030E+02  0.65060372510E+03  0.73124925649E+03  0.46999998093E+01 0.  1.
       -5    1    3    3    0  502 -0.33081666504E+03  0.44480469030E+02  0.24161618953E+03  0.41209058596E+03  0.46999998093E+01 0. -1.
</event>
<event>
 5   0  0.1784625E-02  0.7092110E+03  0.7818609E-02  0.9701608E-01
        3   -1    0    0  501    0  0.00000000000E+00  0.00000000000E+00  0.60141880995E+03  0.60141881843E+03  0.10100000352E+00 0.  1.
       -3   -1    0    0    0  501  0.00000000000E+00  0.00000000000E+00 -0.20908069754E+03  0.20908072194E+03  0.10100000352E+00 0. -1.
    10030    2    1    2    0    0  0.00000000000E+00  0.00000000000E+00  0.39233811241E+03  0.81049954037E+03  0.70921104792E+03 0.  0.
        3    1    3    3  502    0 -0.10107558996E+03  0.33356316916E+03  0.27079786130E+03  0.44137529903E+03  0.10100000352E+00 0.  1.
       -3    1    3    3    0  502  0.10107558996E+03 -0.33356316916E+03  0.12154025111E+03  0.36912424134E+03  0.10100000352E+00 0. -1.
</event>
<event>
 5   0  0.2750139E-02  0.6991485E+03  0.7818609E-02  0.9718690E-01
        1   -1    0    0  501    0  0.00000000000E+00  0.00000000000E+00  0.64948529770E+03  0.64948529772E+03  0.50400001928E-02 0. -1.
       -1   -1    0    0    0  501  0.00000000000E+00  0.00000000000E+00 -0.18815229602E+03  0.18815229609E+03  0.50400001928E-02 0.  1.
    10030    2    1    2    0    0  0.00000000000E+00  0.00000000000E+00  0.46133300168E+03  0.83763759380E+03  0.69914848216E+03 0.  0.
        2    1    3    3  502    0 -0.25395875597E+03  0.50634184243E+02 -0.50674506185E+02  0.26386886124E+03  0.25500000920E-02 0.  1.
       -2    1    3    3    0  502  0.25395875597E+03 -0.50634184243E+02  0.51200750786E+03  0.57376873256E+03  0.25500000920E-02 0. -1.
</event>
<event>
 5   0  0.4526837E-02  0.7019201E+03  0.7818609E-02  0.9713954E-01
       -2   -1    0    0    0  501  0.00000000000E+00  0.00000000000E+00  0.17462961165E+03  0.17462961167E+03  0.25500000920E-02 0.  1.
        2   -1    0    0  501    0  0.00000000000E+00  0.00000000000E+00 -0.70533827629E+03  0.70533827630E+03  0.25500000920E-02 0. -1.
    10030    2    1    2    0    0  0.00000000000E+00  0.00000000000E+00 -0.53070866464E+03  0.87996788797E+03  0.70192007888E+03 0.  0.
        1    1    3    3  502    0  0.14223262043E+03 -0.29337425141E+03 -0.10250234420E+03  0.34176790414E+03  0.50400001928E-02 0.  1.
       -1    1    3    3    0  502 -0.14223262043E+03  0.29337425141E+03 -0.42820632044E+03  0.53819998383E+03  0.50400001928E-02 0. -1.
</event>
<event>
 5   0  0.2750139E-02  0.6763749E+03  0.7818609E-02  0.9758510E-01
        1   -1    0    0  501    0  0.00000000000E+00  0.00000000000E+00  0.96110584431E+03  0.96110584432E+03  0.50400001928E-02 0. -1.
       -1   -1    0    0    0  501  0.00000000000E+00  0.00000000000E+00 -0.11899912309E+03  0.11899912320E+03  0.50400001928E-02 0.  1.
    10030    2    1    2    0    0  0.00000000000E+00  0.00000000000E+00  0.84210672122E+03  0.10801049675E+04  0.67637490413E+03 0.  0.
        2    1    3    3  502    0  0.31971239073E+03  0.49326802888E+02  0.57850511219E+03  0.66281016219E+03  0.25500000920E-02 0. -1.
       -2    1    3    3    0  502 -0.31971239073E+03 -0.49326802888E+02  0.26360160903E+03  0.41729480533E+03  0.25500000920E-02 0.  1.
</event>
<event>
 5   0  0.4526837E-02  0.7049474E+03  0.7818609E-02  0.9708809E-01
       -2   -1    0    0    0  501  0.00000000000E+00  0.00000000000E+00  0.87669627279E+02  0.87669627316E+02  0.25500000920E-02 0.  1.
        2   -1    0    0  501    0  0.00000000000E+00  0.00000000000E+00 -0.14171125044E+04  0.14171125044E+04  0.25500000920E-02 0. -1.
    10030    2    1    2    0    0  0.00000000000E+00  0.00000000000E+00 -0.13294428772E+04  0.15047821318E+04  0.70494744515E+03 0.  0.
        1    1    3    3  502    0  0.28332957484E+03 -0.19008912830E+03 -0.47585801748E+03  0.58553426672E+03  0.50400001928E-02 0. -1.
       -1    1    3    3    0  502 -0.28332957484E+03  0.19008912830E+03 -0.85358485967E+03  0.91924786503E+03  0.50400001928E-02 0.  1.
</event>
<event>
 5   0  0.4299912E-02  0.6862107E+03  0.7818609E-02  0.9741109E-01
        2   -1    0    0  501    0  0.00000000000E+00  0.00000000000E+00  0.29371738149E+03  0.29371738150E+03  0.25500000920E-02 0.  1.
       -2   -1    0    0    0  501  0.00000000000E+00  0.00000000000E+00 -0.40079775904E+03  0.40079775905E+03  0.25500000920E-02 0. -1.
    10030    2    1    2    0    0  0.00000000000E+00  0.00000000000E+00 -0.10708037755E+03  0.69451514055E+03  0.68621066240E+03 0.  0.
        3    1    3    3  502    0  0.93530075971E+02 -0.32226891467E+03 -0.12593293063E+03  0.35841908667E+03  0.10100000352E+00 0.  1.
       -3    1    3    3    0  502 -0.93530075971E+02  0.32226891467E+03  0.18852553078E+02  0.33609605388E+03  0.10100000352E+00 0. -1.
</event>
<event>
 5   0  0.4299912E-02  0.6998501E+03  0.7818609E-02  0.9717488E-01
        2   -1    0    0  501    0  0.00000000000E+00  0.00000000000E+00  0.51697579300E+03  0.51697579300E+03  0.25500000920E-02 0. -1.
       -2   -1    0    0    0  501  0.00000000000E+00  0.00000000000E+00 -0.23685355902E+03  0.23685355904E+03  0.25500000920E-02 0.  1.
    10030    2    1    2    0    0  0.00000000000E+00  0.00000000000E+00  0.28012223397E+03  0.75382935204E+03  0.69985014541E+03 0.  0.
        3    1    3    3  502    0  0.19362631234E+03 -0.38036021263E+02 -0.17120821993E+03  0.26124730145E+03  0.10100000352E+00 0.  1.
       -3    1    3    3    0  502 -0.19362631234E+03  0.38036021263E+02  0.45133045390E+03  0.49258205059E+03  0.10100000352E+00 0. -1.
</event>
<event>
 5   0  0.2751729E-02  0.7173367E+03  0.7818609E-02  0.9688035E-01
        1   -1    0    0  501    0  0.00000000000E+00  0.00000000000E+00  0.80812168170E+03  0.80812168171E+03  0.50400001928E-02 0.  1.
       -1   -1    0    0    0  501  0.00000000000E+00  0.00000000000E+00 -0.15918763214E+03  0.15918763222E+03  0.50400001928E-02 0. -1.
    10030    2    1    2    0    0  0.00000000000E+00  0.00000000000E+00  0.64893404955E+03  0.96730931394E+03  0.71733667699E+03 0.  0.
        1    1    3    3  502    0  0.25599318922E+03 -0.25001015239E+03  0.35764570923E+03  0.50591307809E+03  0.50400001928E-02 0.  1.
       -1    1    3    3    0  502 -0.25599318922E+03  0.25001015239E+03  0.29128834032E+03  0.46139623585E+03  0.50400001928E-02 0. -1.
</event>
<event>
 5   0  0.2758681E-02  0.7046410E+03  0.7818609E-02  0.9709328E-01
        1   -1    0    0  501    0  0.00000000000E+00  0.00000000000E+00  0.74168561988E+03  0.74168561989E+03  0.50400001928E-02 0.  1.
       -1   -1    0    0    0  501  0.00000000000E+00  0.00000000000E+00 -0.16736166978E+03  0.16736166985E+03  0.50400001928E-02 0. -1.
    10030    2    1    2    0    0  0.00000000000E+00  0.00000000000E+00  0.57432395010E+03  0.90904728975E+03  0.70464102587E+03 0.  0.
        3    1    3    3  502    0 -0.12582626088E+03 -0.23600926067E+03 -0.87070571124E+01  0.26759753753E+03  0.10100000352E+00 0. -1.
       -3    1    3    3    0  502  0.12582626088E+03  0.23600926067E+03  0.58303100721E+03  0.64144975222E+03  0.10100000352E+00 0.  1.
</event>
<event>
 5   0  0.4299912E-02  0.7180012E+03  0.7818609E-02  0.9686933E-01
        2   -1    0    0  501    0  0.00000000000E+00  0.00000000000E+00  0.39942784046E+03  0.39942784047E+03  0.25500000920E-02 0.  1.
       -2   -1    0    0    0  501  0.00000000000E+00  0.00000000000E+00 -0.32266514609E+03  0.32266514610E+03  0.25500000920E-02 0. -1.
    10030    2    1    2    0    0  0.00000000000E+00  0.00000000000E+00  0.76762694366E+02  0.72209298657E+03  0.71800123260E+03 0.  0.
        3    1    3    3  502    0  0.20142871166E+03  0.12817464572E+03  0.30801211823E+03  0.38970981623E+03  0.10100000352E+00 0.  1.
       -3    1    3    3    0  502 -0.20142871166E+03 -0.12817464572E+03 -0.23124942387E+03  0.33238317034E+03  0.10100000352E+00 0. -1.
</event>
<event>
 5   0  0.2777999E-02  0.6999255E+03  0.7818609E-02  0.9717360E-01
        1   -1    0    0  501    0  0.00000000000E+00  0.00000000000E+00  0.69705554582E+03  0.69705554584E+03  0.50400001928E-02 0. -1.
       -1   -1    0    0    0  501  0.00000000000E+00  0.00000000000E+00 -0.17570182292E+03  0.17570182299E+03  0.50400001928E-02 0.  1.
    10030    2    1    2    0    0  0.00000000000E+00  0.00000000000E+00  0.52135372290E+03  0.87275736883E+03  0.69992551065E+03 0.  0.
        5    1    3    3  502    0  0.30887917493E+03 -0.10216802775E+03  0.42136720244E+03  0.53236928902E+03  0.46999998093E+01 0.  1.
       -5    1    3    3    0  502 -0.30887917493E+03  0.10216802775E+03  0.99986520457E+02  0.34038807980E+03  0.46999998093E+01 0. -1.
</event>
<event>
 5   0  0.4503289E-02  0.7063292E+03  0.7818609E-02  0.9706469E-01
       -2   -1    0    0    0  501  0.00000000000E+00  0.00000000000E+00  0.26101620305E+03  0.26101620306E+03  0.25500000920E-02 0.  1.
        2   -1    0    0  501    0  0.00000000000E+00  0.00000000000E+00 -0.47784480425E+03  0.47784480426E+03  0.25500000920E-02 0. -1.
    10030    2    1    2    0    0  0.00000000000E+00  0.00000000000E+00 -0.21682860120E+03  0.73886100732E+03  0.70632920501E+03 0.  0.
        2    1    3    3  502    0 -0.10221027494E+03 -0.33078429151E+03 -0.18133920895E+03  0.39083128908E+03  0.25500000920E-02 0.  1.
       -2    1    3    3    0  502  0.10221027494E+03  0.33078429151E+03 -0.35489392244E+02  0.34802971824E+03  0.25500000920E-02 0. -1.
</event>
<event>
 5   0  0.2751729E-02  0.7102767E+03  0.7818609E-02  0.9699817E-01
        1   -1    0    0  501    0  0.00000000000E+00  0.00000000000E+00  0.72584032302E+03  0.72584032304E+03  0.50400001928E-02 0.  1.
       -1   -1    0    0    0  501  0.00000000000E+00  0.00000000000E+00 -0.17376168569E+03  0.17376168576E+03  0.50400001928E-02 0. -1.
    10030    2    1    2    0    0  0.00000000000E+00  0.00000000000E+00  0.55207863733E+03  0.89960200880E+03  0.71027667317E+03 0.  0.
        1    1    3    3  502    0  0.14821546824E+03 -0.25742604819E+03  0.29509551748E+02  0.29850763639E+03  0.50400001928E-02 0. -1.
       -1    1    3    3    0  502 -0.14821546824E+03  0.25742604819E+03  0.52256908559E+03  0.60109437241E+03  0.50400001928E-02 0.  1.
</event>
<event>
 5   0  0.2751729E-02  0.6963035E+03  0.7818609E-02  0.9723575E-01
        1   -1    0    0  501    0  0.00000000000E+00  0.00000000000E+00  0.48709943221E+03  0.48709943224E+03  0.50400001928E-02 0. -1.
       -1   -1    0    0    0  501  0.00000000000E+00  0.00000000000E+00 -0.24883963571E+03  0.24883963577E+03  0.50400001928E-02 0.  1.
    10030    2    1    2    0    0  0.00000000000E+00  0.00000000000E+00  0.23825979650E+03  0.73593906800E+03  0.69630351226E+03 0.  0.
        1    1    3    3  502    0 -0.74162176520E+02 -0.33571320062E+03  0.17708034851E+03  0.38673095473E+03  0.50400001928E-02 0. -1.
       -1    1    3    3    0  502  0.74162176520E+02  0.33571320062E+03  0.61179447991E+02  0.34920811327E+03  0.50400001928E-02 0.  1.
</event>
<event>
 5   0  0.2750139E-02  0.6980618E+03  0.7818609E-02  0.9720553E-01
        1   -1    0    0  501    0  0.00000000000E+00  0.00000000000E+00  0.54876821448E+03  0.54876821450E+03  0.50400001928E-02 0.  1.
       -1   -1    0    0    0  501  0.00000000000E+00  0.00000000000E+00 -0.22199274815E+03  0.22199274821E+03  0.50400001928E-02 0. -1.
    10030    2    1    2    0    0  0.00000000000E+00  0.00000000000E+00  0.32677546633E+03  0.77076096271E+03  0.69806178540E+03 0.  0.
        2    1    3    3  502    0  0.58716340702E+02  0.25733896681E+03  0.41553816334E+03  0.49228337134E+03  0.25500000920E-02 0.  1.
       -2    1    3    3    0  502 -0.58716340702E+02 -0.25733896681E+03 -0.88762697007E+02  0.27847759136E+03  0.25500000920E-02 0. -1.
</event>
<event>
 5   0  0.4365492E-02  0.6904048E+03  0.7818609E-02  0.9733783E-01
       -2   -1    0    0    0  501  0.00000000000E+00  0.00000000000E+00  0.12575096113E+04  0.12575096113E+04  0.25500000920E-02 0. -1.
        2   -1    0    0  501    0  0.00000000000E+00  0.00000000000E+00 -0.94762443560E+02  0.94762443594E+02  0.25500000920E-02 0.  1.
    10030    2    1    2    0    0  0.00000000000E+00  0.00000000000E+00  0.11627471677E+04  0.13522720549E+04  0.69040476126E+03 0.  0.
        4    1    3    3  502    0 -0.32698180915E+02  0.20607799776E+03  0.11200093246E+04  0.11392803923E+04  0.12699999809E+01 0. -1.
       -4    1    3    3    0  502  0.32698180915E+02 -0.20607799776E+03  0.42737843138E+02  0.21299166259E+03  0.12699999809E+01 0.  1.
</event>
<event>
 5   0  0.2758681E-02  0.5633428E+03  0.7818609E-02  0.9984519E-01
       -1   -1    0    0    0  501  0.00000000000E+00  0.00000000000E+00  0.21867728892E+03  0.21867728898E+03  0.50400001928E-02 0.  1.
        1   -1    0    0  501    0  0.00000000000E+00  0.00000000000E+00 -0.36281210268E+03  0.36281210272E+03  0.50400001928E-02 0. -1.
    10030    2    1    2    0    0  0.00000000000E+00  0.00000000000E+00 -0.14413481376E+03  0.58148939170E+03  0.56334276255E+03 0.  0.
        3    1    3    3  502    0  0.96061827446E+02  0.20545124203E+03 -0.24448293932E+03  0.33348164172E+03  0.10100000352E+00 0. -1.
       -3    1    3    3    0  502 -0.96061827446E+02 -0.20545124203E+03  0.10034812555E+03  0.24800774998E+03  0.10100000352E+00 0.  1.
</event>
<event>
 5   0  0.2777999E-02  0.7022382E+03  0.7818609E-02  0.9713412E-01
        1   -1    0    0  501    0  0.00000000000E+00  0.00000000000E+00  0.37661978667E+03  0.37661978670E+03  0.50400001928E-02 0. -1.
       -1   -1    0    0    0  501  0.00000000000E+00  0.00000000000E+00 -0.32734508648E+03  0.32734508652E+03  0.50400001928E-02 0.  1.
    10030    2    1    2    0    0  0.00000000000E+00  0.00000000000E+00  0.49274700194E+02  0.70396487322E+03  0.70223824066E+03 0.  0.
        5    1    3    3  502    0 -0.49731704581E+02 -0.16578884135E+03 -0.28156968575E+03  0.33054917983E+03  0.46999998093E+01 0.  1.
       -5    1    3    3    0  502  0.49731704581E+02  0.16578884135E+03  0.33084438594E+03  0.37341569338E+03  0.46999998093E+01 0. -1.
</event>
<event>
 5   0  0.2750139E-02  0.6862155E+03  0.7818609E-02  0.9741100E-01
        1   -1    0    0  501    0  0.00000000000E+00  0.00000000000E+00  0.88741301830E+03  0.88741301831E+03  0.50400001928E-02 0.  1.
       -1   -1    0    0    0  501  0.00000000000E+00  0.00000000000E+00 -0.13265856194E+03  0.13265856204E+03  0.50400001928E-02 0. -1.
    10030    2    1    2    0    0  0.00000000000E+00  0.00000000000E+00  0.75475445636E+03  0.10200715804E+04  0.68621551983E+03 0.  0.
        2    1    3    3  502    0 -0.18239667771E+03 -0.45061204092E+02  0.80414992324E+03  0.82580636908E+03  0.25500000920E-02 0.  1.
       -2    1    3    3    0  502  0.18239667771E+03  0.45061204092E+02 -0.49395466888E+02  0.19426521127E+03  0.25500000920E-02 0. -1.
</event>
<event>
 5   0  0.4503289E-02  0.6873794E+03  0.7818609E-02  0.9739062E-01
        2   -1    0    0  501    0  0.00000000000E+00  0.00000000000E+00  0.46962196699E+03  0.46962196699E+03  0.25500000920E-02 0.  1.
       -2   -1    0    0    0  501  0.00000000000E+00  0.00000000000E+00 -0.25152700718E+03  0.25152700719E+03  0.25500000920E-02 0. -1.
    10030    2    1    2    0    0  0.00000000000E+00  0.00000000000E+00  0.21809495981E+03  0.72114897419E+03  0.68737939413E+03 0.  0.
        2    1    3    3  502    0 -0.18105340284E+03 -0.27224203503E+03  0.22020826135E+03  0.39419251475E+03  0.25500000920E-02 0.  1.
       -2    1    3    3    0  502  0.18105340284E+03  0.27224203503E+03 -0.21133015406E+01  0.32695645943E+03  0.25500000920E-02 0. -1.
</event>
<event>
 5   0  0.1784625E-02  0.8137531E+03  0.7818609E-02  0.9540321E-01
        3   -1    0    0  501    0  0.00000000000E+00  0.00000000000E+00  0.14275610834E+03  0.14275614407E+03  0.10100000352E+00 0. -1.
       -3   -1    0    0    0  501  0.00000000000E+00  0.00000000000E+00 -0.11596597846E+04  0.11596597890E+04  0.10100000352E+00 0.  1.
    10030    2    1    2    0    0  0.00000000000E+00  0.00000000000E+00 -0.10169036763E+04  0.13024159331E+04  0.81375314189E+03 0.  0.
        4    1    3    3  502    0 -0.18352082290E+02 -0.20676241216E+03  0.51632142778E+02  0.21390414926E+03  0.12699999809E+01 0. -1.
       -4    1    3    3    0  502  0.18352082290E+02  0.20676241216E+03 -0.10685358191E+04  0.10885117839E+04  0.12699999809E+01 0.  1.
</event>
<event>
 5   0  0.4365492E-02  0.6812160E+03  0.7818609E-02  0.9749906E-01
       -2   -1    0    0    0  501  0.00000000000E+00  0.00000000000E+00  0.16716620247E+03  0.16716620249E+03  0.25500000920E-02 0. -1.
        2   -1    0    0  501    0  0.00000000000E+00  0.00000000000E+00 -0.69400279871E+03  0.69400279871E+03  0.25500000920E-02 0.  1.
    10030    2    1    2    0    0  0.00000000000E+00  0.00000000000E+00 -0.52683659624E+03  0.86116900120E+03  0.68121600795E+03 0.  0.
        4    1    3    3  502    0  0.11845586760E+03 -0.30343235030E+03 -0.38925959475E+03  0.50757031905E+03  0.12699999809E+01 0.  1.
       -4    1    3    3    0  502 -0.11845586760E+03  0.30343235030E+03 -0.13757700148E+03  0.35359868214E+03  0.12699999809E+01 0. -1.
</event>
<event>
 5   0  0.4365492E-02  0.6973994E+03  0.7818609E-02  0.9721690E-01
       -2   -1    0    0    0  501  0.00000000000E+00  0.00000000000E+00  0.16984135261E+03  0.16984135263E+03  0.25500000920E-02 0. -1.
        2   -1    0    0  501    0  0.00000000000E+00  0.00000000000E+00 -0.71591205824E+03  0.71591205824E+03  0.25500000920E-02 0.  1.
    10030    2    1    2    0    0  0.00000000000E+00  0.00000000000E+00 -0.54607070563E+03  0.88575341087E+03  0.69739937576E+03 0.  0.
        4    1    3    3  502    0 -0.20800145855E+03  0.27074033318E+03 -0.18300352725E+03  0.38737170606E+03  0.12699999809E+01 0.  1.
       -4    1    3    3    0  502  0.20800145855E+03 -0.27074033318E+03 -0.36306717838E+03  0.49838170481E+03  0.12699999809E+01 0. -1.
</event>
<event>
 5   0  0.2684924E-02  0.6253211E+03  0.7818609E-02  0.9854222E-01
        1   -1    0    0  501    0  0.00000000000E+00  0.00000000000E+00  0.81655857808E+03  0.81655857809E+03  0.50400001928E-02 0.  1.
       -1   -1    0    0    0  501  0.00000000000E+00  0.00000000000E+00 -0.11971784294E+03  0.11971784305E+03  0.50400001928E-02 0. -1.
    10030    2    1    2    0    0  0.00000000000E+00  0.00000000000E+00  0.69684073514E+03  0.93627642114E+03  0.62532113880E+03 0.  0.
        4    1    3    3  502    0  0.10672307393E+03  0.24117231457E+03  0.96980495915E+02  0.28099951835E+03  0.12699999809E+01 0. -1.
       -4    1    3    3    0  502 -0.10672307393E+03 -0.24117231457E+03  0.59986023922E+03  0.65527690279E+03  0.12699999809E+01 0.  1.
</event>
<event>
 5   0  0.4503289E-02  0.6909823E+03  0.7818609E-02  0.9732779E-01
       -2   -1    0    0    0  501  0.00000000000E+00  0.00000000000E+00  0.86382436667E+02  0.86382436704E+02  0.25500000920E-02 0.  1.
        2   -1    0    0  501    0  0.00000000000E+00  0.00000000000E+00 -0.13818101340E+04  0.13818101340E+04  0.25500000920E-02 0. -1.
    10030    2    1    2    0    0  0.00000000000E+00  0.00000000000E+00 -0.12954276974E+04  0.14681925708E+04  0.69098227595E+03 0.  0.
        2    1    3    3  502    0  0.24421762421E+03  0.20145059962E+03 -0.94166948939E+03  0.99346163455E+03  0.25500000920E-02 0. -1.
       -2    1    3    3    0  502 -0.24421762421E+03 -0.20145059962E+03 -0.35375820799E+03  0.47473093620E+03  0.25500000920E-02 0.  1.
</event>
<event>
 5   0  0.1784625E-02  0.7003204E+03  0.7818609E-02  0.9716684E-01
        3   -1    0    0  501    0  0.00000000000E+00  0.00000000000E+00  0.22179831631E+03  0.22179833930E+03  0.10100000352E+00 0.  1.
       -3   -1    0    0    0  501  0.00000000000E+00  0.00000000000E+00 -0.55280918163E+03  0.55280919085E+03  0.10100000352E+00 0. -1.
    10030    2    1    2    0    0  0.00000000000E+00  0.00000000000E+00 -0.33101086532E+03  0.77460753016E+03  0.70032037870E+03 0.  0.
        1    1    3    3  502    0  0.15275870321E+03 -0.30195433023E+03 -0.65955406363E+02  0.34476333129E+03  0.50400001928E-02 0.  1.
       -1    1    3    3    0  502 -0.15275870321E+03  0.30195433023E+03 -0.26505545896E+03  0.42984419887E+03  0.50400001928E-02 0. -1.
</event>
<event>
 5   0  0.4365492E-02  0.6918564E+03  0.7818609E-02  0.9731261E-01
       -2   -1    0    0    0  501  0.00000000000E+00  0.00000000000E+00  0.23972567866E+03  0.23972567867E+03  0.25500000920E-02 0.  1.
        2   -1    0    0  501    0  0.00000000000E+00  0.00000000000E+00 -0.49918024941E+03  0.49918024941E+03  0.25500000920E-02 0. -1.
    10030    2    1    2    0    0  0.00000000000E+00  0.00000000000E+00 -0.25945457075E+03  0.73890592809E+03  0.69185641305E+03 0.  0.
        4    1    3    3  502    0  0.30707592873E+03 -0.26981068328E+02  0.37922610582E+02  0.31058548154E+03  0.12699999809E+01 0.  1.
       -4    1    3    3    0  502 -0.30707592873E+03  0.26981068328E+02 -0.29737718133E+03  0.42832044654E+03  0.12699999809E+01 0. -1.
</event>
<event>
 5   0  0.4420645E-02  0.7012605E+03  0.7818609E-02  0.9715079E-01
       -2   -1    0    0    0  501  0.00000000000E+00  0.00000000000E+00  0.96597598204E+03  0.96597598205E+03  0.25500000920E-02 0.  1.
        2   -1    0    0  501    0  0.00000000000E+00  0.00000000000E+00 -0.12727185955E+03  0.12727185957E+03  0.25500000920E-02 0. -1.
    10030    2    1    2    0    0  0.00000000000E+00  0.00000000000E+00  0.83870412250E+03  0.10932478416E+04  0.70126046381E+03 0.  0.
        5    1    3    3  502    0 -0.24121359034E+03  0.23775412926E+03  0.56059598810E+03  0.65498165930E+03  0.46999998093E+01 0.  1.
       -5    1    3    3    0  502  0.24121359034E+03 -0.23775412926E+03  0.27810813440E+03  0.43826618232E+03  0.46999998093E+01 0. -1.
</event>
<event>
 5   0  0.1784625E-02  0.6894144E+03  0.7818609E-02  0.9735508E-01
        4   -1    0    0  501    0  0.00000000000E+00  0.00000000000E+00  0.19164584665E+03  0.19165005462E+03  0.12699999809E+01 0. -1.
       -4   -1    0    0    0  501  0.00000000000E+00  0.00000000000E+00 -0.62000199261E+03  0.62000329333E+03  0.12699999809E+01 0.  1.
    10030    2    1    2    0    0  0.00000000000E+00  0.00000000000E+00 -0.42835614596E+03  0.81165334795E+03  0.68941436702E+03 0.  0.
        2    1    3    3  502    0  0.21520226790E+03 -0.26856526982E+03 -0.23724016276E+03  0.41799786494E+03  0.25500000920E-02 0. -1.
       -2    1    3    3    0  502 -0.21520226790E+03  0.26856526982E+03 -0.19111598321E+03  0.39365548301E+03  0.25500000920E-02 0.  1.
</event>
<event>
 5   0  0.4299912E-02  0.7177027E+03  0.7818609E-02  0.9687428E-01
        2   -1    0    0  501    0  0.00000000000E+00  0.00000000000E+00  0.61822079463E+03  0.61822079464E+03  0.25500000920E-02 0.  1.
       -2   -1    0    0    0  501  0.00000000000E+00  0.00000000000E+00 -0.20829820218E+03  0.20829820220E+03  0.25500000920E-02 0. -1.
    10030    2    1    2    0    0  0.00000000000E+00  0.00000000000E+00  0.40992259245E+03  0.82651899684E+03  0.71770266847E+03 0.  0.
        3    1    3    3  502    0 -0.20975554862E+03 -0.11618516040E+03 -0.10249662818E+03  0.26077183640E+03  0.10100000352E+00 0. -1.
       -3    1    3    3    0  502  0.20975554862E+03  0.11618516040E+03  0.51241922062E+03  0.56574716043E+03  0.10100000352E+00 0.  1.
</event>
<event>
 5   0  0.2777999E-02  0.6966362E+03  0.7818609E-02  0.9723002E-01
        1   -1    0    0  501    0  0.00000000000E+00  0.00000000000E+00  0.83426502385E+03  0.83426502386E+03  0.50400001928E-02 0.  1.
       -1   -1    0    0    0  501  0.00000000000E+00  0.00000000000E+00 -0.14542802142E+03  0.14542802150E+03  0.50400001928E-02 0. -1.
    10030    2    1    2    0    0  0.00000000000E+00  0.00000000000E+00  0.68883700243E+03  0.97969304537E+03  0.69663623737E+03 0.  0.
        5    1    3    3  502    0 -0.78620832843E+02  0.13879113690E+03  0.77983098725E+03  0.79599162918E+03  0.46999998093E+01 0.  1.
       -5    1    3    3    0  502  0.78620832843E+02 -0.13879113690E+03 -0.90993984822E+02  0.18370141619E+03  0.46999998093E+01 0. -1.
</event>
<event>
 5   0  0.2750139E-02  0.6911785E+03  0.7818609E-02  0.9732438E-01
        1   -1    0    0  501    0  0.00000000000E+00  0.00000000000E+00  0.15359149536E+03  0.15359149544E+03  0.50400001928E-02 0. -1.
       -1   -1    0    0    0  501  0.00000000000E+00  0.00000000000E+00 -0.77759467137E+03  0.77759467138E+03  0.50400001928E-02 0.  1.
    10030    2    1    2    0    0  0.00000000000E+00  0.00000000000E+00 -0.62400317601E+03  0.93118616682E+03  0.69117849620E+03 0.  0.
        2    1    3    3  502    0 -0.28205124026E+03  0.24607561712E+02 -0.57899224795E+03  0.64450791882E+03  0.25500000920E-02 0.  1.
       -2    1    3    3    0  502  0.28205124026E+03 -0.24607561712E+02 -0.45010928065E+02  0.28667824801E+03  0.25500000920E-02 0. -1.
</event>
<event>
 5   0  0.4526837E-02  0.7024939E+03  0.7818609E-02  0.9712977E-01
       -2   -1    0    0    0  501  0.00000000000E+00  0.00000000000E+00  0.10409040097E+04  0.10409040097E+04  0.25500000920E-02 0.  1.
        2   -1    0    0  501    0  0.00000000000E+00  0.00000000000E+00 -0.11852622077E+03  0.11852622079E+03  0.25500000920E-02 0. -1.
    10030    2    1    2    0    0  0.00000000000E+00  0.00000000000E+00  0.92237778890E+03  0.11594302305E+04  0.70249389596E+03 0.  0.
        1    1    3    3  502    0 -0.70668467552E+02  0.17573805661E+03 -0.27010750069E+02  0.19133080644E+03  0.50400001928E-02 0. -1.
       -1    1    3    3    0  502  0.70668467552E+02 -0.17573805661E+03  0.94938853897E+03  0.96809942402E+03  0.50400001928E-02 0.  1.
</event>
<event>
 5   0  0.2684924E-02  0.6974733E+03  0.7818609E-02  0.9721563E-01
        1   -1    0    0  501    0  0.00000000000E+00  0.00000000000E+00  0.61336438916E+03  0.61336438919E+03  0.50400001928E-02 0.  1.
       -1   -1    0    0    0  501  0.00000000000E+00  0.00000000000E+00 -0.19827895484E+03  0.19827895491E+03  0.50400001928E-02 0. -1.
    10030    2    1    2    0    0  0.00000000000E+00  0.00000000000E+00  0.41508543432E+03  0.81164334409E+03  0.69747329714E+03 0.  0.
        4    1    3    3  502    0  0.28183949101E+03 -0.13843625803E+03  0.38409246772E+03  0.49611161334E+03  0.12699999809E+01 0.  1.
       -4    1    3    3    0  502 -0.28183949101E+03  0.13843625803E+03  0.30992966606E+02  0.31553173075E+03  0.12699999809E+01 0. -1.
</event>
<event>
 5   0  0.4299912E-02  0.6985834E+03  0.7818609E-02  0.9719658E-01
        2   -1    0    0  501    0  0.00000000000E+00  0.00000000000E+00  0.57676482258E+03  0.57676482259E+03  0.25500000920E-02 0.  1.
       -2   -1    0    0    0  501  0.00000000000E+00  0.00000000000E+00 -0.21153281051E+03  0.21153281052E+03  0.25500000920E-02 0. -1.
    10030    2    1    2    0    0  0.00000000000E+00  0.00000000000E+00  0.36523201208E+03  0.78829763311E+03  0.69858337779E+03 0.  0.
        3    1    3    3  502    0 -0.66635815923E+02 -0.95573736173E+02  0.55419119658E+03  0.56630606882E+03  0.10100000352E+00 0.  1.
       -3    1    3    3    0  502  0.66635815923E+02  0.95573736173E+02 -0.18895918450E+03  0.22199156430E+03  0.10100000352E+00 0. -1.
</event>
<event>
 5   0  0.2758681E-02  0.7040973E+03  0.7818609E-02  0.9710251E-01
        1   -1    0    0  501    0  0.00000000000E+00  0.00000000000E+00  0.16773673880E+04  0.16773673880E+04  0.50400001928E-02 0.  1.
       -1   -1    0    0    0  501  0.00000000000E+00  0.00000000000E+00 -0.73888554623E+02  0.73888554795E+02  0.50400001928E-02 0. -1.
    10030    2    1    2    0    0  0.00000000000E+00  0.00000000000E+00  0.16034788334E+04  0.17512559428E+04  0.70409730018E+03 0.  0.
        3    1    3    3  502    0 -0.19760883424E+03 -0.93692518343E+02  0.14879221858E+04  0.15039082354E+04  0.10100000352E+00 0.  1.
       -3    1    3    3    0  502  0.19760883424E+03  0.93692518343E+02  0.11555664764E+03  0.24734770745E+03  0.10100000352E+00 0. -1.
</event>
<event>
 5   0  0.2758681E-02  0.7013399E+03  0.7818609E-02  0.9714944E-01
       -1   -1    0    0    0  501  0.00000000000E+00  0.00000000000E+00  0.14720475800E+03  0.14720475809E+03  0.50400001928E-02 0.  1.
        1   -1    0    0  501    0  0.00000000000E+00  0.00000000000E+00 -0.83536300057E+03  0.83536300058E+03  0.50400001928E-02 0. -1.
    10030    2    1    2    0    0  0.00000000000E+00  0.00000000000E+00 -0.68815824257E+03  0.98256775867E+03  0.70133988448E+03 0.  0.
        3    1    3    3  502    0  0.13347210549E+03 -0.24777962737E+03 -0.63714947717E+03  0.69654074765E+03  0.10100000352E+00 0. -1.
       -3    1    3    3    0  502 -0.13347210549E+03  0.24777962737E+03 -0.51008765400E+02  0.28602701102E+03  0.10100000352E+00 0.  1.
</event>
<event>
 5   0  0.2777999E-02  0.6183563E+03  0.7818609E-02  0.9868038E-01
       -1   -1    0    0    0  501  0.00000000000E+00  0.00000000000E+00  0.80677032444E+02  0.80677032601E+02  0.50400001928E-02 0. -1.
        1   -1    0    0  501    0  0.00000000000E+00  0.00000000000E+00 -0.11848619227E+04  0.11848619227E+04  0.50400001928E-02 0.  1.
    10030    2    1    2    0    0  0.00000000000E+00  0.00000000000E+00 -0.11041848902E+04  0.12655389553E+04  0.61835634996E+03 0.  0.
        5    1    3    3  502    0 -0.19949172710E+03  0.12665312365E+03 -0.14414714103E+03  0.27683650622E+03  0.46999998093E+01 0. -1.
       -5    1    3    3    0  502  0.19949172710E+03 -0.12665312365E+03 -0.96003774920E+03  0.98870244907E+03  0.46999998093E+01 0.  1.
</event>
<event>
 5   0  0.4503289E-02  0.6916443E+03  0.7818609E-02  0.9731629E-01
       -2   -1    0    0    0  501  0.00000000000E+00  0.00000000000E+00  0.66707998831E+02  0.66707998880E+02  0.25500000920E-02 0.  1.
        2   -1    0    0  501    0  0.00000000000E+00  0.00000000000E+00 -0.17927827161E+04  0.17927827161E+04  0.25500000920E-02 0. -1.
    10030    2    1    2    0    0  0.00000000000E+00  0.00000000000E+00 -0.17260747173E+04  0.18594907150E+04  0.69164426515E+03 0.  0.
        2    1    3    3  502    0 -0.21358423455E+03  0.26513419973E+03 -0.69997593356E+03  0.77838337385E+03  0.25500000920E-02 0.  1.
       -2    1    3    3    0  502  0.21358423455E+03 -0.26513419973E+03 -0.10260987837E+04  0.10811073411E+04  0.25500000920E-02 0. -1.
</event>
<event>
 5   0  0.4420645E-02  0.6968442E+03  0.7818609E-02  0.9722644E-01
       -2   -1    0    0    0  501  0.00000000000E+00  0.00000000000E+00  0.21641485123E+03  0.21641485125E+03  0.25500000920E-02 0. -1.
        2   -1    0    0  501    0  0.00000000000E+00  0.00000000000E+00 -0.56095025205E+03  0.56095025206E+03  0.25500000920E-02 0.  1.
    10030    2    1    2    0    0  0.00000000000E+00  0.00000000000E+00 -0.34453540082E+03  0.77736510330E+03  0.69684421603E+03 0.  0.
        5    1    3    3  502    0  0.14253278862E+03 -0.24188928569E+03 -0.40237922675E+03  0.49067010760E+03  0.46999998093E+01 0.  1.
       -5    1    3    3    0  502 -0.14253278862E+03  0.24188928569E+03  0.57843825935E+02  0.28669499571E+03  0.46999998093E+01 0. -1.
</event>
<event>
 5   0  0.2684924E-02  0.6439821E+03  0.7818609E-02  0.9818137E-01
       -1   -1    0    0    0  501  0.00000000000E+00  0.00000000000E+00  0.11672899923E+03  0.11672899934E+03  0.50400001928E-02 0.  1.
        1   -1    0    0  501    0  0.00000000000E+00  0.00000000000E+00 -0.88819595571E+03  0.88819595573E+03  0.50400001928E-02 0. -1.
    10030    2    1    2    0    0  0.00000000000E+00  0.00000000000E+00 -0.77146695648E+03  0.10049249551E+04  0.64398206525E+03 0.  0.
        4    1    3    3  502    0 -0.12507201411E+03 -0.28740653786E+03 -0.27073206497E+03  0.41417748685E+03  0.12699999809E+01 0.  1.
       -4    1    3    3    0  502  0.12507201411E+03  0.28740653786E+03 -0.50073489152E+03  0.59074746821E+03  0.12699999809E+01 0. -1.
</event>
<event>
 5   0  0.4365492E-02  0.6935432E+03  0.7818609E-02  0.9728338E-01
       -2   -1    0    0    0  501  0.00000000000E+00  0.00000000000E+00  0.21847137606E+03  0.21847137608E+03  0.25500000920E-02 0.  1.
        2   -1    0    0  501    0  0.00000000000E+00  0.00000000000E+00 -0.55041790664E+03  0.55041790665E+03  0.25500000920E-02 0. -1.
    10030    2    1    2    0    0  0.00000000000E+00  0.00000000000E+00 -0.33194653058E+03  0.76888928272E+03  0.69354324301E+03 0.  0.
        4    1    3    3  502    0 -0.32473553868E+03  0.49326393645E+02 -0.42706329298E+02  0.33122757532E+03  0.12699999809E+01 0.  1.
       -4    1    3    3    0  502  0.32473553868E+03 -0.49326393645E+02 -0.28924020128E+03  0.43766170740E+03  0.12699999809E+01 0. -1.
</event>
<event>
 5   0  0.2777999E-02  0.6884257E+03  0.7818609E-02  0.9737233E-01
        1   -1    0    0  501    0  0.00000000000E+00  0.00000000000E+00  0.18160466718E+04  0.18160466718E+04  0.50400001928E-02 0.  1.
       -1   -1    0    0    0  501  0.00000000000E+00  0.00000000000E+00 -0.65241989772E+02  0.65241989967E+02  0.50400001928E-02 0. -1.
    10030    2    1    2    0    0  0.00000000000E+00  0.00000000000E+00  0.17508046820E+04  0.18812886618E+04  0.68842573623E+03 0.  0.
        5    1    3    3  502    0 -0.72792388901E+02 -0.25846654952E+03  0.28702669558E+03  0.39307773159E+03  0.46999998093E+01 0. -1.
       -5    1    3    3    0  502  0.72792388901E+02  0.25846654952E+03  0.14637779865E+04  0.14882109302E+04  0.46999998093E+01 0.  1.
</event>
<event>
 5   0  0.4503289E-02  0.7041347E+03  0.7818609E-02  0.9710187E-01
       -2   -1    0    0    0  501  0.00000000000E+00  0.00000000000E+00  0.65853215586E+02  0.65853215635E+02  0.25500000920E-02 0.  1.
        2   -1    0    0  501    0  0.00000000000E+00  0.00000000000E+00 -0.18822379290E+04  0.18822379291E+04  0.25500000920E-02 0. -1.
    10030    2    1    2    0    0  0.00000000000E+00  0.00000000000E+00 -0.18163847135E+04  0.19480911447E+04  0.70413470352E+03 0.  0.
        2    1    3    3  502    0 -0.24540332492E+03  0.21927582425E+03 -0.56212114589E+03  0.65137152352E+03  0.25500000920E-02 0.  1.
       -2    1    3    3    0  502  0.24540332492E+03 -0.21927582425E+03 -0.12542635676E+04  0.12967196212E+04  0.25500000920E-02 0. -1.
</event>
<event>
 5   0  0.4299912E-02  0.7019311E+03  0.7818609E-02  0.9713935E-01
       -2   -1    0    0    0  501  0.00000000000E+00  0.00000000000E+00  0.78534735991E+02  0.78534736032E+02  0.25500000920E-02 0. -1.
        2   -1    0    0  501    0  0.00000000000E+00  0.00000000000E+00 -0.15684372802E+04  0.15684372802E+04  0.25500000920E-02 0.  1.
    10030    2    1    2    0    0  0.00000000000E+00  0.00000000000E+00 -0.14899025443E+04  0.16469720163E+04  0.70193107285E+03 0.  0.
        3    1    3    3  502    0  0.21086798642E+03  0.58734874202E+02 -0.13886442580E+04  0.14057908730E+04  0.10100000352E+00 0.  1.
       -3    1    3    3    0  502 -0.21086798642E+03 -0.58734874202E+02 -0.10125828628E+03  0.24118114330E+03  0.10100000352E+00 0. -1.
</event>
<event>
 5   0  0.2750139E-02  0.7026356E+03  0.7818609E-02  0.9712736E-01
        1   -1    0    0  501    0  0.00000000000E+00  0.00000000000E+00  0.43807953092E+03  0.43807953095E+03  0.50400001928E-02 0. -1.
       -1   -1    0    0    0  501  0.00000000000E+00  0.00000000000E+00 -0.28173921991E+03  0.28173921996E+03  0.50400001928E-02 0.  1.
    10030    2    1    2    0    0  0.00000000000E+00  0.00000000000E+00  0.15634031101E+03  0.71981875091E+03  0.70263556793E+03 0.  0.
        2    1    3    3  502    0 -0.84616339341E+02 -0.78416107217E+02  0.41812138100E+03  0.43374474061E+03  0.25500000920E-02 0. -1.
       -2    1    3    3    0  502  0.84616339341E+02  0.78416107217E+02 -0.26178106999E+03  0.28607401030E+03  0.25500000920E-02 0.  1.
</event>
<event>
 5   0  0.2777999E-02  0.6993768E+03  0.7818609E-02  0.9718299E-01
       -1   -1    0    0    0  501  0.00000000000E+00  0.00000000000E+00  0.25910929195E+03  0.25910929199E+03  0.50400001928E-02 0.  1.
        1   -1    0    0  501    0  0.00000000000E+00  0.00000000000E+00 -0.47193203687E+03  0.47193203689E+03  0.50400001928E-02 0. -1.
    10030    2    1    2    0    0  0.00000000000E+00  0.00000000000E+00 -0.21282274492E+03  0.73104132889E+03  0.69937679672E+03 0.  0.
        5    1    3    3  502    0 -0.33624041736E+03 -0.77209274566E+02 -0.16591862944E+03  0.38284457935E+03  0.46999998093E+01 0. -1.
       -5    1    3    3    0  502  0.33624041736E+03  0.77209274566E+02 -0.46904115479E+02  0.34819674954E+03  0.46999998093E+01 0.  1.
</event>
<event>
 5   0  0.4299912E-02  0.6405084E+03  0.7818609E-02  0.9824754E-01
        2   -1    0    0  501    0  0.00000000000E+00  0.00000000000E+00  0.73510213420E+03  0.73510213421E+03  0.25500000920E-02 0.  1.
       -2   -1    0    0    0  501  0.00000000000E+00  0.00000000000E+00 -0.13952177730E+03  0.13952177732E+03  0.25500000920E-02 0. -1.
    10030    2    1    2    0    0  0.00000000000E+00  0.00000000000E+00  0.59558035690E+03  0.87462391153E+03  0.64050841142E+03 0.  0.
        3    1    3    3  502    0 -0.25598491571E+03 -0.18497156253E+03  0.37030391718E+03  0.48669061764E+03  0.10100000352E+00 0.  1.
       -3    1    3    3    0  502  0.25598491571E+03  0.18497156253E+03  0.22527643972E+03  0.38793329389E+03  0.10100000352E+00 0. -1.
</event>
<event>
 5   0  0.4299912E-02  0.6929982E+03  0.7818609E-02  0.9729282E-01
       -2   -1    0    0    0  501  0.00000000000E+00  0.00000000000E+00  0.72701944170E+02  0.72701944215E+02  0.25500000920E-02 0.  1.
        2   -1    0    0  501    0  0.00000000000E+00  0.00000000000E+00 -0.16514226325E+04  0.16514226325E+04  0.25500000920E-02 0. -1.
    10030    2    1    2    0    0  0.00000000000E+00  0.00000000000E+00 -0.15787206883E+04  0.17241245767E+04  0.69299822819E+03 0.  0.
        3    1    3    3  502    0 -0.12037520637E+03  0.27557401687E+03 -0.36110257342E+03  0.46992159752E+03  0.10100000352E+00 0. -1.
       -3    1    3    3    0  502  0.12037520637E+03 -0.27557401687E+03 -0.12176181149E+04  0.12542029792E+04  0.10100000352E+00 0.  1.
</event>
<event>
 5   0  0.4503289E-02  0.6905402E+03  0.7818609E-02  0.9733548E-01
       -2   -1    0    0    0  501  0.00000000000E+00  0.00000000000E+00  0.30733791625E+03  0.30733791626E+03  0.25500000920E-02 0. -1.
        2   -1    0    0  501    0  0.00000000000E+00  0.00000000000E+00 -0.38788397550E+03  0.38788397551E+03  0.25500000920E-02 0.  1.
    10030    2    1    2    0    0  0.00000000000E+00  0.00000000000E+00 -0.80546059255E+02  0.69522189177E+03  0.69054023137E+03 0.  0.
        2    1    3    3  502    0 -0.11751797676E+03 -0.31934978907E+03 -0.99121780663E+02  0.35442896333E+03  0.25500000920E-02 0.  1.
       -2    1    3    3    0  502  0.11751797676E+03  0.31934978907E+03  0.18575721408E+02  0.34079292844E+03  0.25500000920E-02 0. -1.
</event>
<event>
 5   0  0.2751729E-02  0.6588113E+03  0.7818609E-02  0.9790384E-01
        1   -1    0    0  501    0  0.00000000000E+00  0.00000000000E+00  0.17787133452E+04  0.17787133452E+04  0.50400001928E-02 0.  1.
       -1   -1    0    0    0  501  0.00000000000E+00  0.00000000000E+00 -0.61003687960E+02  0.61003688169E+02  0.50400001928E-02 0. -1.
    10030    2    1    2    0    0  0.00000000000E+00  0.00000000000E+00  0.17177096572E+04  0.18397170333E+04  0.65881127518E+03 0.  0.
        1    1    3    3  502    0 -0.12350254283E+03 -0.24278993700E+03  0.13760914204E+04  0.14027927249E+04  0.50400001928E-02 0.  1.
       -1    1    3    3    0  502  0.12350254283E+03  0.24278993700E+03  0.34161823676E+03  0.43692430844E+03  0.50400001928E-02 0. -1.
</event>
<event>
 5   0  0.4365492E-02  0.6407895E+03  0.7818609E-02  0.9824217E-01
       -2   -1    0    0    0  501  0.00000000000E+00  0.00000000000E+00  0.98841838489E+03  0.98841838489E+03  0.25500000920E-02 0.  1.
        2   -1    0    0  501    0  0.00000000000E+00  0.00000000000E+00 -0.10385560302E+03  0.10385560305E+03  0.25500000920E-02 0. -1.
    10030    2    1    2    0    0  0.00000000000E+00  0.00000000000E+00  0.88456278187E+03  0.10922739879E+04  0.64078947375E+03 0.  0.
        4    1    3    3  502    0  0.13406208250E+02  0.51633997335E+02 -0.96227893132E+02  0.11003279701E+03  0.12699999809E+01 0. -1.
       -4    1    3    3    0  502 -0.13406208250E+02 -0.51633997335E+02  0.98079067500E+03  0.98224119094E+03  0.12699999809E+01 0.  1.
</event>
<event>
 5   0  0.4299912E-02  0.7105063E+03  0.7818609E-02  0.9699432E-01
        2   -1    0    0  501    0  0.00000000000E+00  0.00000000000E+00  0.92655934079E+03  0.92655934080E+03  0.25500000920E-02 0.  1.
       -2   -1    0    0    0  501  0.00000000000E+00  0.00000000000E+00 -0.13620800551E+03  0.13620800554E+03  0.25500000920E-02 0. -1.
    10030    2    1    2    0    0  0.00000000000E+00  0.00000000000E+00  0.79035133528E+03  0.10627673463E+04  0.71050629783E+03 0.  0.
        3    1    3    3  502    0 -0.20983063935E+03  0.21679208928E+03  0.11463218848E+03  0.32275107439E+03  0.10100000352E+00 0. -1.
       -3    1    3    3    0  502  0.20983063935E+03 -0.21679208928E+03  0.67571914680E+03  0.74001627194E+03  0.10100000352E+00 0.  1.
</event>
<event>
 5   0  0.1784625E-02  0.7212989E+03  0.7818609E-02  0.9681486E-01
        4   -1    0    0  501    0  0.00000000000E+00  0.00000000000E+00  0.61392915661E+03  0.61393047020E+03  0.12699999809E+01 0.  1.
       -4   -1    0    0    0  501  0.00000000000E+00  0.00000000000E+00 -0.21185815814E+03  0.21186196467E+03  0.12699999809E+01 0. -1.
    10030    2    1    2    0    0  0.00000000000E+00  0.00000000000E+00  0.40207099847E+03  0.82579243486E+03  0.72129886848E+03 0.  0.
        1    1    3    3  502    0 -0.20219436092E+03 -0.20794996430E+03  0.44642832433E+03  0.53237580339E+03  0.50400001928E-02 0.  1.
       -1    1    3    3    0  502  0.20219436092E+03  0.20794996430E+03 -0.44357325864E+02  0.29341663147E+03  0.50400001928E-02 0. -1.
</event>
<event>
 5   0  0.2684924E-02  0.7017957E+03  0.7818609E-02  0.9714166E-01
        1   -1    0    0  501    0  0.00000000000E+00  0.00000000000E+00  0.48642638963E+03  0.48642638965E+03  0.50400001928E-02 0. -1.
       -1   -1    0    0    0  501  0.00000000000E+00  0.00000000000E+00 -0.25313036610E+03  0.25313036615E+03  0.50400001928E-02 0.  1.
    10030    2    1    2    0    0  0.00000000000E+00  0.00000000000E+00  0.23329602353E+03  0.73955675580E+03  0.70179566859E+03 0.  0.
        4    1    3    3  502    0 -0.26019972108E+03 -0.23455564153E+03  0.13791907183E+03  0.37648841562E+03  0.12699999809E+01 0.  1.
       -4    1    3    3    0  502  0.26019972108E+03  0.23455564153E+03  0.95376951702E+02  0.36306834018E+03  0.12699999809E+01 0. -1.
</event>
<event>
 5   0  0.4526837E-02  0.7094101E+03  0.7818609E-02  0.9701274E-01
        2   -1    0    0  501    0  0.00000000000E+00  0.00000000000E+00  0.72921950061E+03  0.72921950062E+03  0.25500000920E-02 0.  1.
       -2   -1    0    0    0  501  0.00000000000E+00  0.00000000000E+00 -0.17253472597E+03  0.17253472599E+03  0.25500000920E-02 0. -1.
    10030    2    1    2    0    0  0.00000000000E+00  0.00000000000E+00  0.55668477464E+03  0.90175422661E+03  0.70941014011E+03 0.  0.
        1    1    3    3  502    0 -0.76783935376E+02 -0.18738225825E+03 -0.91833990659E+02  0.22235414389E+03  0.50400001928E-02 0. -1.
       -1    1    3    3    0  502  0.76783935376E+02  0.18738225825E+03  0.64851876530E+03  0.67940008273E+03  0.50400001928E-02 0.  1.
</event>
<event>
 5   0  0.2777999E-02  0.6864856E+03  0.7818609E-02  0.9740627E-01
        1   -1    0    0  501    0  0.00000000000E+00  0.00000000000E+00  0.46277019600E+03  0.46277019603E+03  0.50400001928E-02 0.  1.
       -1   -1    0    0    0  501  0.00000000000E+00  0.00000000000E+00 -0.25458776036E+03  0.25458776041E+03  0.50400001928E-02 0. -1.
    10030    2    1    2    0    0  0.00000000000E+00  0.00000000000E+00  0.20818243564E+03  0.71735795644E+03  0.68648562342E+03 0.  0.
        5    1    3    3  502    0  0.18434172098E+03 -0.28907920489E+03  0.12044363707E+03  0.36342456783E+03  0.46999998093E+01 0. -1.
       -5    1    3    3    0  502 -0.18434172098E+03  0.28907920489E+03  0.87738798574E+02  0.35393338861E+03  0.46999998093E+01 0.  1.
</event>
<event>
 5   0  0.2684924E-02  0.6672415E+03  0.7818609E-02  0.9774954E-01
       -1   -1    0    0    0  501  0.00000000000E+00  0.00000000000E+00  0.24289862773E+03  0.24289862778E+03  0.50400001928E-02 0. -1.
        1   -1    0    0  501    0  0.00000000000E+00  0.00000000000E+00 -0.45822744944E+03  0.45822744947E+03  0.50400001928E-02 0.  1.
    10030    2    1    2    0    0  0.00000000000E+00  0.00000000000E+00 -0.21532882171E+03  0.70112607725E+03  0.66724154153E+03 0.  0.
        4    1    3    3  502    0  0.24651622708E+03  0.22471845238E+03 -0.10166732679E+03  0.34872122288E+03  0.12699999809E+01 0. -1.
       -4    1    3    3    0  502 -0.24651622708E+03 -0.22471845238E+03 -0.11366149492E+03  0.35240485437E+03  0.12699999809E+01 0.  1.
</event>
<event>
 5   0  0.4299912E-02  0.6824410E+03  0.7818609E-02  0.9747741E-01
        2   -1    0    0  501    0  0.00000000000E+00  0.00000000000E+00  0.17005581726E+03  0.17005581728E+03  0.25500000920E-02 0.  1.
       -2   -1    0    0    0  501  0.00000000000E+00  0.00000000000E+00 -0.68466601160E+03  0.68466601160E+03  0.25500000920E-02 0. -1.
    10030    2    1    2    0    0  0.00000000000E+00  0.00000000000E+00 -0.51461019434E+03  0.85472182888E+03  0.68244102503E+03 0.  0.
        3    1    3    3  502    0  0.23039866100E+03  0.15676157213E+03 -0.50392507872E+03  0.57584566392E+03  0.10100000352E+00 0. -1.
       -3    1    3    3    0  502 -0.23039866100E+03 -0.15676157213E+03 -0.10685115622E+02  0.27887616496E+03  0.10100000352E+00 0.  1.
</event>
<event>
 5   0  0.2684924E-02  0.6992582E+03  0.7818609E-02  0.9718502E-01
        1   -1    0    0  501    0  0.00000000000E+00  0.00000000000E+00  0.12669638150E+03  0.12669638160E+03  0.50400001928E-02 0. -1.
       -1   -1    0    0    0  501  0.00000000000E+00  0.00000000000E+00 -0.96483038957E+03  0.96483038959E+03  0.50400001928E-02 0.  1.
    10030    2    1    2    0    0  0.00000000000E+00  0.00000000000E+00 -0.83813400808E+03  0.10915267712E+04  0.69925823321E+03 0.  0.
        4    1    3    3  502    0 -0.23927877222E+03 -0.19181712798E+03 -0.68115687248E+03  0.74701033410E+03  0.12699999809E+01 0.  1.
       -4    1    3    3    0  502  0.23927877222E+03  0.19181712798E+03 -0.15697713560E+03  0.34451643708E+03  0.12699999809E+01 0. -1.
</event>
<event>
 5   0  0.2751729E-02  0.7272330E+03  0.7818609E-02  0.9671761E-01
       -1   -1    0    0    0  501  0.00000000000E+00  0.00000000000E+00  0.49572869147E+03  0.49572869150E+03  0.50400001928E-02 0. -1.
        1   -1    0    0  501    0  0.00000000000E+00  0.00000000000E+00 -0.26671236965E+03  0.26671236970E+03  0.50400001928E-02 0.  1.
    10030    2    1    2    0    0  0.00000000000E+00  0.00000000000E+00  0.22901632182E+03  0.76244106120E+03  0.72723304115E+03 0.  0.
        1    1    3    3  502    0 -0.18986588161E+03 -0.12821157388E+03 -0.18152664524E+03  0.29229981805E+03  0.50400001928E-02 0.  1.
       -1    1    3    3    0  502  0.18986588161E+03  0.12821157388E+03  0.41054296706E+03  0.47014124315E+03  0.50400001928E-02 0. -1.
</event>
<event>
 5   0  0.2750139E-02  0.7046973E+03  0.7818609E-02  0.9709233E-01
       -1   -1    0    0    0  501  0.00000000000E+00  0.00000000000E+00  0.31580758983E+03  0.31580758987E+03  0.50400001928E-02 0.  1.
        1   -1    0    0  501    0  0.00000000000E+00  0.00000000000E+00 -0.39311774187E+03  0.39311774190E+03  0.50400001928E-02 0. -1.
    10030    2    1    2    0    0  0.00000000000E+00  0.00000000000E+00 -0.77310152043E+02  0.70892533177E+03  0.70469728708E+03 0.  0.
        2    1    3    3  502    0 -0.61889408595E+02  0.27777978420E+03  0.17033556407E+03  0.33167169279E+03  0.25500000920E-02 0.  1.
       -2    1    3    3    0  502  0.61889408595E+02 -0.27777978420E+03 -0.24764571611E+03  0.37725363898E+03  0.25500000920E-02 0. -1.
</event>
<event>
 5   0  0.4526837E-02  0.6957147E+03  0.7818609E-02  0.9724589E-01
       -2   -1    0    0    0  501  0.00000000000E+00  0.00000000000E+00  0.36958830352E+03  0.36958830353E+03  0.25500000920E-02 0. -1.
        2   -1    0    0  501    0  0.00000000000E+00  0.00000000000E+00 -0.32740414271E+03  0.32740414272E+03  0.25500000920E-02 0.  1.
    10030    2    1    2    0    0  0.00000000000E+00  0.00000000000E+00  0.42184160805E+02  0.69699244625E+03  0.69571471647E+03 0.  0.
        1    1    3    3  502    0  0.28087096000E+03 -0.20520767646E+03  0.18626868981E+02  0.34834702083E+03  0.50400001928E-02 0.  1.
       -1    1    3    3    0  502 -0.28087096000E+03  0.20520767646E+03  0.23557291824E+02  0.34864542542E+03  0.50400001928E-02 0. -1.
</event>
<event>
 5   0  0.2777999E-02  0.7088876E+03  0.7818609E-02  0.9702153E-01
        1   -1    0    0  501    0  0.00000000000E+00  0.00000000000E+00  0.15243670979E+03  0.15243670987E+03  0.50400001928E-02 0.  1.
       -1   -1    0    0    0  501  0.00000000000E+00  0.00000000000E+00 -0.82414790004E+03  0.82414790006E+03  0.50400001928E-02 0. -1.
    10030    2    1    2    0    0  0.00000000000E+00  0.00000000000E+00 -0.67171119026E+03  0.97658460993E+03  0.70888756318E+03 0.  0.
        5    1    3    3  502    0 -0.34545399057E+03  0.70957620216E+02 -0.28744487661E+03  0.45499460498E+03  0.46999998093E+01 0.  1.
       -5    1    3    3    0  502  0.34545399057E+03 -0.70957620216E+02 -0.38426631364E+03  0.52159000495E+03  0.46999998093E+01 0. -1.
</event>
<event>
 5   0  0.4299912E-02  0.6727752E+03  0.7818609E-02  0.9764957E-01
        2   -1    0    0  501    0  0.00000000000E+00  0.00000000000E+00  0.28918478657E+03  0.28918478658E+03  0.25500000920E-02 0.  1.
       -2   -1    0    0    0  501  0.00000000000E+00  0.00000000000E+00 -0.39129516012E+03  0.39129516013E+03  0.25500000920E-02 0. -1.
    10030    2    1    2    0    0  0.00000000000E+00  0.00000000000E+00 -0.10211037355E+03  0.68047994670E+03  0.67277517008E+03 0.  0.
        3    1    3    3  502    0  0.80789701250E+01 -0.78054080318E+02  0.27979776122E+03  0.29059336984E+03  0.10100000352E+00 0.  1.
       -3    1    3    3    0  502 -0.80789701250E+01  0.78054080318E+02 -0.38190813477E+03  0.38988657686E+03  0.10100000352E+00 0. -1.
</event>
<event>
 5   0  0.4503289E-02  0.7000768E+03  0.7818609E-02  0.9717101E-01
       -2   -1    0    0    0  501  0.00000000000E+00  0.00000000000E+00  0.31894575602E+03  0.31894575603E+03  0.25500000920E-02 0. -1.
        2   -1    0    0  501    0  0.00000000000E+00  0.00000000000E+00 -0.38416212335E+03  0.38416212336E+03  0.25500000920E-02 0.  1.
    10030    2    1    2    0    0  0.00000000000E+00  0.00000000000E+00 -0.65216367331E+02  0.70310787938E+03  0.70007679256E+03 0.  0.
        2    1    3    3  502    0 -0.14277403952E+03  0.76598663385E+02 -0.34423388350E+03  0.38045860241E+03  0.25500000920E-02 0.  1.
       -2    1    3    3    0  502  0.14277403952E+03 -0.76598663385E+02  0.27901751617E+03  0.32264927697E+03  0.25500000920E-02 0. -1.
</event>
<event>
 5   0  0.4365492E-02  0.6970846E+03  0.7818609E-02  0.9722231E-01
        2   -1    0    0  501    0  0.00000000000E+00  0.00000000000E+00  0.71975080897E+03  0.71975080897E+03  0.25500000920E-02 0.  1.
       -2   -1    0    0    0  501  0.00000000000E+00  0.00000000000E+00 -0.16878305961E+03  0.16878305963E+03  0.25500000920E-02 0. -1.
    10030    2    1    2    0    0  0.00000000000E+00  0.00000000000E+00  0.55096774936E+03  0.88853386860E+03  0.69708462529E+03 0.  0.
        4    1    3    3  502    0 -0.42693708110E+02 -0.30429239865E+03  0.65792495024E+02  0.31424016594E+03  0.12699999809E+01 0. -1.
       -4    1    3    3    0  502  0.42693708110E+02  0.30429239865E+03  0.48517525434E+03  0.57429370266E+03  0.12699999809E+01 0.  1.
</event>
<event>
 5   0  0.4299912E-02  0.7034115E+03  0.7818609E-02  0.9711416E-01
       -2   -1    0    0    0  501  0.00000000000E+00  0.00000000000E+00  0.55915828424E+02  0.55915828482E+02  0.25500000920E-02 0.  1.
        2   -1    0    0  501    0  0.00000000000E+00  0.00000000000E+00 -0.22121989938E+04  0.22121989938E+04  0.25500000920E-02 0. -1.
    10030    2    1    2    0    0  0.00000000000E+00  0.00000000000E+00 -0.21562831654E+04  0.22681148223E+04  0.70341151383E+03 0.  0.
        3    1    3    3  502    0 -0.21163771662E+03  0.14322448328E+03 -0.18573193085E+04  0.18748170043E+04  0.10100000352E+00 0. -1.
       -3    1    3    3    0  502  0.21163771662E+03 -0.14322448328E+03 -0.29896385689E+03  0.39329781799E+03  0.10100000352E+00 0.  1.
</event>
<event>
 5   0  0.2751729E-02  0.7096161E+03  0.7818609E-02  0.9700927E-01
        1   -1    0    0  501    0  0.00000000000E+00  0.00000000000E+00  0.93243778246E+03  0.93243778247E+03  0.50400001928E-02 0.  1.
       -1   -1    0    0    0  501  0.00000000000E+00  0.00000000000E+00 -0.13501033442E+03  0.13501033451E+03  0.50400001928E-02 0. -1.
    10030    2    1    2    0    0  0.00000000000E+00  0.00000000000E+00  0.79742744804E+03  0.10674481170E+04  0.70961605645E+03 0.  0.
        1    1    3    3  502    0 -0.69949854417E+02 -0.31482805588E+03  0.62121759543E+03  0.69994356044E+03  0.50400001928E-02 0. -1.
       -1    1    3    3    0  502  0.69949854417E+02  0.31482805588E+03  0.17620985261E+03  0.36750455655E+03  0.50400001928E-02 0.  1.
</event>
<event>
 5   0  0.2777999E-02  0.6951093E+03  0.7818609E-02  0.9725633E-01
        1   -1    0    0  501    0  0.00000000000E+00  0.00000000000E+00  0.94812932835E+03  0.94812932836E+03  0.50400001928E-02 0. -1.
       -1   -1    0    0    0  501  0.00000000000E+00  0.00000000000E+00 -0.12740269539E+03  0.12740269549E+03  0.50400001928E-02 0.  1.
    10030    2    1    2    0    0  0.00000000000E+00  0.00000000000E+00  0.82072663296E+03  0.10755320238E+04  0.69510929232E+03 0.  0.
        5    1    3    3  502    0 -0.31941937876E+03  0.94698063737E+02  0.25738012249E+03  0.42102622276E+03  0.46999998093E+01 0.  1.
       -5    1    3    3    0  502  0.31941937876E+03 -0.94698063737E+02  0.56334651047E+03  0.65450580109E+03  0.46999998093E+01 0. -1.
</event>
<event>
 5   0  0.1784625E-02  0.6957964E+03  0.7818609E-02  0.9724448E-01
       -3   -1    0    0    0  501  0.00000000000E+00  0.00000000000E+00  0.26526959656E+03  0.26526961579E+03  0.10100000352E+00 0. -1.
        3   -1    0    0  501    0  0.00000000000E+00  0.00000000000E+00 -0.45626471487E+03  0.45626472605E+03  0.10100000352E+00 0.  1.
    10030    2    1    2    0    0  0.00000000000E+00  0.00000000000E+00 -0.19099511831E+03  0.72153434184E+03  0.69579642945E+03 0.  0.
        2    1    3    3  502    0  0.12905510671E+03 -0.28113754720E+03 -0.26057013101E+03  0.40446301956E+03  0.25500000920E-02 0. -1.
       -2    1    3    3    0  502 -0.12905510671E+03  0.28113754720E+03  0.69575012704E+02  0.31707132228E+03  0.25500000920E-02 0.  1.
</event>
<event>
 5   0  0.4365492E-02  0.7102300E+03  0.7818609E-02  0.9699896E-01
        2   -1    0    0  501    0  0.00000000000E+00  0.00000000000E+00  0.74305613136E+03  0.74305613137E+03  0.25500000920E-02 0. -1.
       -2   -1    0    0    0  501  0.00000000000E+00  0.00000000000E+00 -0.16971349422E+03  0.16971349424E+03  0.25500000920E-02 0.  1.
    10030    2    1    2    0    0  0.00000000000E+00  0.00000000000E+00  0.57334263715E+03  0.91276962560E+03  0.71022996970E+03 0.  0.
        4    1    3    3  502    0 -0.15820759310E+03 -0.11249406383E+03 -0.95482871596E+02  0.21634035356E+03  0.12699999809E+01 0.  1.
       -4    1    3    3    0  502  0.15820759310E+03  0.11249406383E+03  0.66882550874E+03  0.69642927204E+03  0.12699999809E+01 0. -1.
</event>
<event>
 5   0  0.4503289E-02  0.7015227E+03  0.7818609E-02  0.9714632E-01
       -2   -1    0    0    0  501  0.00000000000E+00  0.00000000000E+00  0.69640839837E+02  0.69640839884E+02  0.25500000920E-02 0. -1.
        2   -1    0    0  501    0  0.00000000000E+00  0.00000000000E+00 -0.17666866067E+04  0.17666866067E+04  0.25500000920E-02 0.  1.
    10030    2    1    2    0    0  0.00000000000E+00  0.00000000000E+00 -0.16970457669E+04  0.18363274466E+04  0.70152274109E+03 0.  0.
        2    1    3    3  502    0  0.13712782325E+02  0.34529611074E+03 -0.69111435411E+03  0.77269430887E+03  0.25500000920E-02 0. -1.
       -2    1    3    3    0  502 -0.13712782325E+02 -0.34529611074E+03 -0.10059314128E+04  0.10636331377E+04  0.25500000920E-02 0.  1.
</event>
<event>
 5   0  0.2750139E-02  0.6987683E+03  0.7818609E-02  0.9719341E-01
       -1   -1    0    0    0  501  0.00000000000E+00  0.00000000000E+00  0.30580189354E+03  0.30580189358E+03  0.50400001928E-02 0.  1.
        1   -1    0    0  501    0  0.00000000000E+00  0.00000000000E+00 -0.39917768644E+03  0.39917768647E+03  0.50400001928E-02 0. -1.
    10030    2    1    2    0    0  0.00000000000E+00  0.00000000000E+00 -0.93375792899E+02  0.70497958005E+03  0.69876832326E+03 0.  0.
        2    1    3    3  502    0 -0.29386196493E+01 -0.34884341813E+03 -0.27309703604E+02  0.34992311409E+03  0.25500000920E-02 0. -1.
       -2    1    3    3    0  502  0.29386196493E+01  0.34884341813E+03 -0.66066089295E+02  0.35505646596E+03  0.25500000920E-02 0.  1.
</event>
<event>
 5   0  0.1784625E-02  0.6928490E+03  0.7818609E-02  0.9729540E-01
        4   -1    0    0  501    0  0.00000000000E+00  0.00000000000E+00  0.25807591630E+03  0.25807904114E+03  0.12699999809E+01 0.  1.
       -4   -1    0    0    0  501  0.00000000000E+00  0.00000000000E+00 -0.46501108342E+03  0.46501281767E+03  0.12699999809E+01 0. -1.
    10030    2    1    2    0    0  0.00000000000E+00  0.00000000000E+00 -0.20693516711E+03  0.72309185881E+03  0.69284895388E+03 0.  0.
        2    1    3    3  502    0 -0.28012142321E+03 -0.14847658792E+03 -0.24919271338E+03  0.40324969598E+03  0.25500000920E-02 0. -1.
       -2    1    3    3    0  502  0.28012142321E+03  0.14847658792E+03  0.42257546261E+02  0.31984216283E+03  0.25500000920E-02 0.  1.
</event>
<event>
 5   0  0.4526837E-02  0.7238207E+03  0.7818609E-02  0.9677341E-01
       -2   -1    0    0    0  501  0.00000000000E+00  0.00000000000E+00  0.86826085018E+02  0.86826085055E+02  0.25500000920E-02 0.  1.
        2   -1    0    0  501    0  0.00000000000E+00  0.00000000000E+00 -0.15085223917E+04  0.15085223917E+04  0.25500000920E-02 0. -1.
    10030    2    1    2    0    0  0.00000000000E+00  0.00000000000E+00 -0.14216963066E+04  0.15953484767E+04  0.72382067796E+03 0.  0.
        1    1    3    3  502    0 -0.35156689046E+03  0.20644188501E+02 -0.89464177757E+03  0.96146210075E+03  0.50400001928E-02 0. -1.
       -1    1    3    3    0  502  0.35156689046E+03 -0.20644188501E+02 -0.52705452907E+03  0.63388637596E+03  0.50400001928E-02 0.  1.
</event>
<event>
 5   0  0.2684924E-02  0.7126038E+03  0.7818609E-02  0.9695918E-01
       -1   -1    0    0    0  501  0.00000000000E+00  0.00000000000E+00  0.19342145171E+03  0.19342145177E+03  0.50400001928E-02 0.  1.
        1   -1    0    0  501    0  0.00000000000E+00  0.00000000000E+00 -0.65634415868E+03  0.65634415869E+03  0.50400001928E-02 0. -1.
    10030    2    1    2    0    0  0.00000000000E+00  0.00000000000E+00 -0.46292270697E+03  0.84976561047E+03  0.71260378901E+03 0.  0.
        4    1    3    3  502    0  0.95925392560E+02 -0.95090910379E+02  0.16170533373E+03  0.21069928816E+03  0.12699999809E+01 0.  1.
       -4    1    3    3    0  502 -0.95925392560E+02  0.95090910379E+02 -0.62462804070E+03  0.63906632231E+03  0.12699999809E+01 0. -1.
</event>
<event>
 5   0  0.2777999E-02  0.7024876E+03  0.7818609E-02  0.9712988E-01
       -1   -1    0    0    0  501  0.00000000000E+00  0.00000000000E+00  0.82042166923E+02  0.82042167078E+02  0.50400001928E-02 0. -1.
        1   -1    0    0  501    0  0.00000000000E+00  0.00000000000E+00 -0.15037657275E+04  0.15037657275E+04  0.50400001928E-02 0.  1.
    10030    2    1    2    0    0  0.00000000000E+00  0.00000000000E+00 -0.14217235606E+04  0.15858078946E+04  0.70248757700E+03 0.  0.
        5    1    3    3  502    0  0.10707507392E+03  0.22610782146E+03 -0.15441728789E+03  0.29403504413E+03  0.46999998093E+01 0. -1.
       -5    1    3    3    0  502 -0.10707507392E+03 -0.22610782146E+03 -0.12673062727E+04  0.12917728505E+04  0.46999998093E+01 0.  1.
</event>
<event>
 5   0  0.2751729E-02  0.6996698E+03  0.7818609E-02  0.9717797E-01
        1   -1    0    0  501    0  0.00000000000E+00  0.00000000000E+00  0.36802858531E+03  0.36802858534E+03  0.50400001928E-02 0. -1.
       -1   -1    0    0    0  501  0.00000000000E+00  0.00000000000E+00 -0.33254059925E+03  0.33254059929E+03  0.50400001928E-02 0.  1.
    10030    2    1    2    0    0  0.00000000000E+00  0.00000000000E+00  0.35487986053E+02  0.70056918463E+03  0.69966976875E+03 0.  0.
        1    1    3    3  502    0  0.19913195731E+03 -0.21090026368E+03 -0.17808858007E+03  0.34036451051E+03  0.50400001928E-02 0.  1.
       -1    1    3    3    0  502 -0.19913195731E+03  0.21090026368E+03  0.21357656612E+03  0.36020467412E+03  0.50400001928E-02 0. -1.
</event>
<event>
 5   0  0.2758681E-02  0.7049998E+03  0.7818609E-02  0.9708720E-01
       -1   -1    0    0    0  501  0.00000000000E+00  0.00000000000E+00  0.41002344795E+03  0.41002344798E+03  0.50400001928E-02 0.  1.
        1   -1    0    0  501    0  0.00000000000E+00  0.00000000000E+00 -0.30304649460E+03  0.30304649464E+03  0.50400001928E-02 0. -1.
    10030    2    1    2    0    0  0.00000000000E+00  0.00000000000E+00  0.10697695335E+03  0.71306994263E+03  0.70499976917E+03 0.  0.
        3    1    3    3  502    0 -0.15127384133E+03 -0.44453947681E+02  0.37236908626E+03  0.40437442444E+03  0.10100000352E+00 0.  1.
       -3    1    3    3    0  502  0.15127384133E+03  0.44453947681E+02 -0.26539213291E+03  0.30869551819E+03  0.10100000352E+00 0. -1.
</event>
<event>
 5   0  0.4299912E-02  0.7369961E+03  0.7818609E-02  0.9655975E-01
        2   -1    0    0  501    0  0.00000000000E+00  0.00000000000E+00  0.83692235851E+03  0.83692235851E+03  0.25500000920E-02 0.  1.
       -2   -1    0    0    0  501  0.00000000000E+00  0.00000000000E+00 -0.16225020937E+03  0.16225020939E+03  0.25500000920E-02 0. -1.
    10030    2    1    2    0    0  0.00000000000E+00  0.00000000000E+00  0.67467214913E+03  0.99917256791E+03  0.73699614086E+03 0.  0.
        3    1    3    3  502    0  0.12453362221E+03  0.15412839295E+03  0.75854626283E+03  0.78400040027E+03  0.10100000352E+00 0.  1.
       -3    1    3    3    0  502 -0.12453362221E+03 -0.15412839295E+03 -0.83874113697E+02  0.21517216763E+03  0.10100000352E+00 0. -1.
</event>
<event>
 5   0  0.4526837E-02  0.7216880E+03  0.7818609E-02  0.9680845E-01
       -2   -1    0    0    0  501  0.00000000000E+00  0.00000000000E+00  0.46296093183E+03  0.46296093184E+03  0.25500000920E-02 0. -1.
        2   -1    0    0  501    0  0.00000000000E+00  0.00000000000E+00 -0.28125135724E+03  0.28125135725E+03  0.25500000920E-02 0.  1.
    10030    2    1    2    0    0  0.00000000000E+00  0.00000000000E+00  0.18170957460E+03  0.74421228909E+03  0.72168799472E+03 0.  0.
        1    1    3    3  502    0 -0.45087420207E+01  0.49081209545E+02 -0.27776382756E+03  0.28210288516E+03  0.50400001928E-02 0.  1.
       -1    1    3    3    0  502  0.45087420207E+01 -0.49081209545E+02  0.45947340216E+03  0.46210940393E+03  0.50400001928E-02 0. -1.
</event>
<event>
 5   0  0.2777999E-02  0.6577790E+03  0.7818609E-02  0.9792291E-01
        1   -1    0    0  501    0  0.00000000000E+00  0.00000000000E+00  0.44817788358E+03  0.44817788361E+03  0.50400001928E-02 0. -1.
       -1   -1    0    0    0  501  0.00000000000E+00  0.00000000000E+00 -0.24135128593E+03  0.24135128598E+03  0.50400001928E-02 0.  1.
    10030    2    1    2    0    0  0.00000000000E+00  0.00000000000E+00  0.20682659765E+03  0.68952916959E+03  0.65777901625E+03 0.  0.
        5    1    3    3  502    0 -0.18462527112E+03  0.84295097079E+01  0.38855139264E+03  0.43029271675E+03  0.46999998093E+01 0. -1.
       -5    1    3    3    0  502  0.18462527112E+03 -0.84295097079E+01 -0.18172479498E+03  0.25923645284E+03  0.46999998093E+01 0.  1.
</event>
<event>
 5   0  0.4365492E-02  0.7030292E+03  0.7818609E-02  0.9712066E-01
       -2   -1    0    0    0  501  0.00000000000E+00  0.00000000000E+00  0.18937794117E+03  0.18937794119E+03  0.25500000920E-02 0. -1.
        2   -1    0    0  501    0  0.00000000000E+00  0.00000000000E+00 -0.65246518730E+03  0.65246518731E+03  0.25500000920E-02 0.  1.
    10030    2    1    2    0    0  0.00000000000E+00  0.00000000000E+00 -0.46308724613E+03  0.84184312850E+03  0.70302919958E+03 0.  0.
        4    1    3    3  502    0 -0.85004358492E+02 -0.25646373235E+03  0.37713897853E+02  0.27280641115E+03  0.12699999809E+01 0. -1.
       -4    1    3    3    0  502  0.85004358492E+02  0.25646373235E+03 -0.50080114399E+03  0.56903671735E+03  0.12699999809E+01 0.  1.
</event>
<event>
 5   0  0.2750139E-02  0.8765477E+03  0.7818609E-02  0.9455382E-01
       -1   -1    0    0    0  501  0.00000000000E+00  0.00000000000E+00  0.15177171317E+03  0.15177171326E+03  0.50400001928E-02 0.  1.
        1   -1    0    0  501    0  0.00000000000E+00  0.00000000000E+00 -0.12656112137E+04  0.12656112138E+04  0.50400001928E-02 0. -1.
    10030    2    1    2    0    0  0.00000000000E+00  0.00000000000E+00 -0.11138395006E+04  0.14173829270E+04  0.87654773330E+03 0.  0.
        2    1    3    3  502    0 -0.31172952402E+03  0.29681822631E+02 -0.10527573722E+04  0.10983416551E+04  0.25500000920E-02 0. -1.
       -2    1    3    3    0  502  0.31172952402E+03 -0.29681822631E+02 -0.61082128393E+02  0.31904127187E+03  0.25500000920E-02 0.  1.
</event>
<event>
 5   0  0.4420645E-02  0.6955699E+03  0.7818609E-02  0.9724838E-01
       -2   -1    0    0    0  501  0.00000000000E+00  0.00000000000E+00  0.10018089698E+03  0.10018089701E+03  0.25500000920E-02 0.  1.
        2   -1    0    0  501    0  0.00000000000E+00  0.00000000000E+00 -0.12073595493E+04  0.12073595493E+04  0.25500000920E-02 0. -1.
    10030    2    1    2    0    0  0.00000000000E+00  0.00000000000E+00 -0.11071786523E+04  0.13075404463E+04  0.69556987470E+03 0.  0.
        5    1    3    3  502    0  0.23713727576E+03 -0.95597259556E+02 -0.11049831278E+03  0.27857654373E+03  0.46999998093E+01 0.  1.
       -5    1    3    3    0  502 -0.23713727576E+03  0.95597259556E+02 -0.99668033956E+03  0.10289639026E+04  0.46999998093E+01 0. -1.
</event>
<event>
 5   0  0.4420645E-02  0.6917962E+03  0.7818609E-02  0.9731365E-01
       -2   -1    0    0    0  501  0.00000000000E+00  0.00000000000E+00  0.18501289377E+03  0.18501289379E+03  0.25500000920E-02 0.  1.
        2   -1    0    0  501    0  0.00000000000E+00  0.00000000000E+00 -0.64668741897E+03  0.64668741898E+03  0.25500000920E-02 0. -1.
    10030    2    1    2    0    0  0.00000000000E+00  0.00000000000E+00 -0.46167452520E+03  0.83170031277E+03  0.69179624388E+03 0.  0.
        5    1    3    3  502    0  0.12367239826E+02 -0.16986112853E+03  0.13106817527E+03  0.21495745666E+03  0.46999998093E+01 0.  1.
       -5    1    3    3    0  502 -0.12367239826E+02  0.16986112853E+03 -0.59274270047E+03  0.61674285611E+03  0.46999998093E+01 0. -1.
</event>
<event>
 5   0  0.4299912E-02  0.7102435E+03  0.7818609E-02  0.9699873E-01
        2   -1    0    0  501    0  0.00000000000E+00  0.00000000000E+00  0.42947786164E+03  0.42947786165E+03  0.25500000920E-02 0. -1.
       -2   -1    0    0    0  501  0.00000000000E+00  0.00000000000E+00 -0.29363903620E+03  0.29363903621E+03  0.25500000920E-02 0.  1.
    10030    2    1    2    0    0  0.00000000000E+00  0.00000000000E+00  0.13583882544E+03  0.72311689786E+03  0.71024352265E+03 0.  0.
        3    1    3    3  502    0  0.83338130415E+02 -0.23601643077E+03 -0.18856422510E+03  0.31337753073E+03  0.10100000352E+00 0.  1.
       -3    1    3    3    0  502 -0.83338130415E+02  0.23601643077E+03  0.32440305054E+03  0.40973936713E+03  0.10100000352E+00 0. -1.
</event>
<event>
 5   0  0.4420645E-02  0.6930436E+03  0.7818609E-02  0.9729203E-01
       -2   -1    0    0    0  501  0.00000000000E+00  0.00000000000E+00  0.27006209802E+03  0.27006209803E+03  0.25500000920E-02 0.  1.
        2   -1    0    0  501    0  0.00000000000E+00  0.00000000000E+00 -0.44462864392E+03  0.44462864393E+03  0.25500000920E-02 0. -1.
    10030    2    1    2    0    0  0.00000000000E+00  0.00000000000E+00 -0.17456654590E+03  0.71469074196E+03  0.69304356118E+03 0.  0.
        5    1    3    3  502    0  0.35308067369E+02 -0.15886984977E+03 -0.40272819280E+03  0.43439426338E+03  0.46999998093E+01 0. -1.
       -5    1    3    3    0  502 -0.35308067369E+02  0.15886984977E+03  0.22816164690E+03  0.28029647858E+03  0.46999998093E+01 0.  1.
</event>
<event>
 5   0  0.4503289E-02  0.6966075E+03  0.7818609E-02  0.9723052E-01
       -2   -1    0    0    0  501  0.00000000000E+00  0.00000000000E+00  0.42806276922E+03  0.42806276923E+03  0.25500000920E-02 0.  1.
        2   -1    0    0  501    0  0.00000000000E+00  0.00000000000E+00 -0.28340585185E+03  0.28340585186E+03  0.25500000920E-02 0. -1.
    10030    2    1    2    0    0  0.00000000000E+00  0.00000000000E+00  0.14465691737E+03  0.71146862109E+03  0.69660747559E+03 0.  0.
        2    1    3    3  502    0  0.21035907453E+03 -0.18288249233E+03 -0.14097761395E+03  0.31236458487E+03  0.25500000920E-02 0. -1.
       -2    1    3    3    0  502 -0.21035907453E+03  0.18288249233E+03  0.28563453132E+03  0.39910403622E+03  0.25500000920E-02 0.  1.
</event>
<event>
 5   0  0.4420645E-02  0.6954887E+03  0.7818609E-02  0.9724978E-01
        2   -1    0    0  501    0  0.00000000000E+00  0.00000000000E+00  0.17305465750E+04  0.17305465750E+04  0.25500000920E-02 0.  1.
       -2   -1    0    0    0  501  0.00000000000E+00  0.00000000000E+00 -0.69877419863E+02  0.69877419910E+02  0.25500000920E-02 0. -1.
    10030    2    1    2    0    0  0.00000000000E+00  0.00000000000E+00  0.16606691551E+04  0.18004239949E+04  0.69548869051E+03 0.  0.
        5    1    3    3  502    0 -0.29464982515E+03 -0.53654685043E+02  0.12876423767E+04  0.13220220591E+04  0.46999998093E+01 0.  1.
       -5    1    3    3    0  502  0.29464982515E+03  0.53654685043E+02  0.37302677848E+03  0.47840193578E+03  0.46999998093E+01 0. -1.
</event>
<event>
 5   0  0.4503289E-02  0.6283255E+03  0.7818609E-02  0.9848322E-01
        2   -1    0    0  501    0  0.00000000000E+00  0.00000000000E+00  0.21775542468E+04  0.21775542468E+04  0.25500000920E-02 0.  1.
       -2   -1    0    0    0  501  0.00000000000E+00  0.00000000000E+00 -0.45325276329E+02  0.45325276401E+02  0.25500000920E-02 0. -1.
    10030    2    1    2    0    0  0.00000000000E+00  0.00000000000E+00  0.21322289704E+04  0.22228795232E+04  0.62832554632E+03 0.  0.
        2    1    3    3  502    0  0.20786151272E+03 -0.22140440795E+02  0.18958105477E+04  0.19073002491E+04  0.25500000920E-02 0.  1.
       -2    1    3    3    0  502 -0.20786151272E+03  0.22140440795E+02  0.23641842277E+03  0.31557927407E+03  0.25500000920E-02 0. -1.
</event>
<event>
 5   0  0.4365492E-02  0.6992678E+03  0.7818609E-02  0.9718485E-01
        2   -1    0    0  501    0  0.00000000000E+00  0.00000000000E+00  0.10525877959E+04  0.10525877959E+04  0.25500000920E-02 0. -1.
       -2   -1    0    0    0  501  0.00000000000E+00  0.00000000000E+00 -0.11613651165E+03  0.11613651168E+03  0.25500000920E-02 0.  1.
    10030    2    1    2    0    0  0.00000000000E+00  0.00000000000E+00  0.93645128430E+03  0.11687243076E+04  0.69926783093E+03 0.  0.
        4    1    3    3  502    0 -0.29152770527E+02 -0.14939542342E+03 -0.57848588776E+02  0.16284025513E+03  0.12699999809E+01 0.  1.
       -4    1    3    3    0  502  0.29152770527E+02  0.14939542342E+03  0.99429987307E+03  0.10058840525E+04  0.12699999809E+01 0. -1.
</event>
<event>
 5   0  0.4526837E-02  0.7191849E+03  0.7818609E-02  0.9684975E-01
        2   -1    0    0  501    0  0.00000000000E+00  0.00000000000E+00  0.44397065467E+03  0.44397065468E+03  0.25500000920E-02 0.  1.
       -2   -1    0    0    0  501  0.00000000000E+00  0.00000000000E+00 -0.29125060523E+03  0.29125060524E+03  0.25500000920E-02 0. -1.
    10030    2    1    2    0    0  0.00000000000E+00  0.00000000000E+00  0.15272004944E+03  0.73522125992E+03  0.71918487716E+03 0.  0.
        1    1    3    3  502    0 -0.76339875936E+02 -0.32336300018E+03 -0.64239645750E+02  0.33840528757E+03  0.50400001928E-02 0. -1.
       -1    1    3    3    0  502  0.76339875936E+02  0.32336300018E+03  0.21695969519E+03  0.39681597235E+03  0.50400001928E-02 0.  1.
</event>
<event>
 5   0  0.2751729E-02  0.7290885E+03  0.7818609E-02  0.9668741E-01
        1   -1    0    0  501    0  0.00000000000E+00  0.00000000000E+00  0.13613669816E+04  0.13613669816E+04  0.50400001928E-02 0.  1.
       -1   -1    0    0    0  501  0.00000000000E+00  0.00000000000E+00 -0.97616967173E+02  0.97616967303E+02  0.50400001928E-02 0. -1.
    10030    2    1    2    0    0  0.00000000000E+00  0.00000000000E+00  0.12637500145E+04  0.14589839490E+04  0.72908851605E+03 0.  0.
        1    1    3    3  502    0 -0.74033316863E+02 -0.30644740929E+03  0.99814625863E+03  0.10467506390E+04  0.50400001928E-02 0.  1.
       -1    1    3    3    0  502  0.74033316863E+02  0.30644740929E+03  0.26560375583E+03  0.41223330992E+03  0.50400001928E-02 0. -1.
</event>
<event>
 5   0  0.2777999E-02  0.7036179E+03  0.7818609E-02  0.9711065E-01
        1   -1    0    0  501    0  0.00000000000E+00  0.00000000000E+00  0.36137051629E+03  0.36137051633E+03  0.50400001928E-02 0. -1.
       -1   -1    0    0    0  501  0.00000000000E+00  0.00000000000E+00 -0.34250035914E+03  0.34250035918E+03  0.50400001928E-02 0.  1.
    10030    2    1    2    0    0  0.00000000000E+00  0.00000000000E+00  0.18870157153E+02  0.70387087551E+03  0.70361788391E+03 0.  0.
        5    1    3    3  502    0 -0.24339813095E+02  0.35020884638E+03  0.31999320010E+02  0.35254036516E+03  0.46999998093E+01 0.  1.
       -5    1    3    3    0  502  0.24339813095E+02 -0.35020884638E+03 -0.13129162856E+02  0.35133051035E+03  0.46999998093E+01 0. -1.
</event>
<event>
 5   0  0.2750139E-02  0.7024193E+03  0.7818609E-02  0.9713104E-01
       -1   -1    0    0    0  501  0.00000000000E+00  0.00000000000E+00  0.10969219114E+03  0.10969219125E+03  0.50400001928E-02 0. -1.
        1   -1    0    0  501    0  0.00000000000E+00  0.00000000000E+00 -0.11244940132E+04  0.11244940132E+04  0.50400001928E-02 0.  1.
    10030    2    1    2    0    0  0.00000000000E+00  0.00000000000E+00 -0.10148018220E+04  0.12341862044E+04  0.70241928306E+03 0.  0.
        2    1    3    3  502    0  0.25571069902E+03 -0.92213949512E+02 -0.89814951613E+03  0.93838367815E+03  0.25500000920E-02 0.  1.
       -2    1    3    3    0  502 -0.25571069902E+03  0.92213949512E+02 -0.11665230589E+03  0.29580252628E+03  0.25500000920E-02 0. -1.
</event>
<event>
 5   0  0.2777999E-02  0.7074009E+03  0.7818609E-02  0.9704659E-01
       -1   -1    0    0    0  501  0.00000000000E+00  0.00000000000E+00  0.11684073360E+03  0.11684073370E+03  0.50400001928E-02 0.  1.
        1   -1    0    0  501    0  0.00000000000E+00  0.00000000000E+00 -0.10707224761E+04  0.10707224761E+04  0.50400001928E-02 0. -1.
    10030    2    1    2    0    0  0.00000000000E+00  0.00000000000E+00 -0.95388174250E+03  0.11875632098E+04  0.70740087548E+03 0.  0.
        5    1    3    3  502    0 -0.23113520410E+03  0.16950818748E+03 -0.12912585755E+03  0.31440751468E+03  0.46999998093E+01 0.  1.
       -5    1    3    3    0  502  0.23113520410E+03 -0.16950818748E+03 -0.82475588494E+03  0.87315569513E+03  0.46999998093E+01 0. -1.
</event>
<event>
 5   0  0.4526837E-02  0.6940459E+03  0.7818609E-02  0.9727469E-01
        2   -1    0    0  501    0  0.00000000000E+00  0.00000000000E+00  0.59233976567E+03  0.59233976568E+03  0.25500000920E-02 0. -1.
       -2   -1    0    0    0  501  0.00000000000E+00  0.00000000000E+00 -0.20330377654E+03  0.20330377656E+03  0.25500000920E-02 0.  1.
    10030    2    1    2    0    0  0.00000000000E+00  0.00000000000E+00  0.38903598913E+03  0.79564354224E+03  0.69404585257E+03 0.  0.
        1    1    3    3  502    0  0.29623719772E+03  0.16345823611E+03  0.10609138194E+03  0.35458490325E+03  0.50400001928E-02 0. -1.
       -1    1    3    3    0  502 -0.29623719772E+03 -0.16345823611E+03  0.28294460719E+03  0.44105863899E+03  0.50400001928E-02 0.  1.
</event>
<event>
 5   0  0.4365492E-02  0.7008729E+03  0.7818609E-02  0.9715740E-01
        2   -1    0    0  501    0  0.00000000000E+00  0.00000000000E+00  0.47226869013E+03  0.47226869013E+03  0.25500000920E-02 0.  1.
       -2   -1    0    0    0  501  0.00000000000E+00  0.00000000000E+00 -0.26003358989E+03  0.26003358990E+03  0.25500000920E-02 0. -1.
    10030    2    1    2    0    0  0.00000000000E+00  0.00000000000E+00  0.21223510024E+03  0.73230228004E+03  0.70087294967E+03 0.  0.
        4    1    3    3  502    0 -0.13521084063E+03  0.16480974913E+03 -0.18449140696E+03  0.28192714835E+03  0.12699999809E+01 0. -1.
       -4    1    3    3    0  502  0.13521084063E+03 -0.16480974913E+03  0.39672650720E+03  0.45037513169E+03  0.12699999809E+01 0.  1.
</event>
<event>
 5   0  0.2684924E-02  0.7105766E+03  0.7818609E-02  0.9699314E-01
       -1   -1    0    0    0  501  0.00000000000E+00  0.00000000000E+00  0.11125929435E+03  0.11125929446E+03  0.50400001928E-02 0.  1.
        1   -1    0    0  501    0  0.00000000000E+00  0.00000000000E+00 -0.11345549071E+04  0.11345549071E+04  0.50400001928E-02 0. -1.
    10030    2    1    2    0    0  0.00000000000E+00  0.00000000000E+00 -0.10232956128E+04  0.12458142016E+04  0.71057660656E+03 0.  0.
        4    1    3    3  502    0  0.28515346029E+03 -0.97184932048E+02 -0.84184821782E+03  0.89412943228E+03  0.12699999809E+01 0. -1.
       -4    1    3    3    0  502 -0.28515346029E+03  0.97184932048E+02 -0.18144739497E+03  0.35168476933E+03  0.12699999809E+01 0.  1.
</event>
<event>
 5   0  0.2750139E-02  0.6966412E+03  0.7818609E-02  0.9722993E-01
        1   -1    0    0  501    0  0.00000000000E+00  0.00000000000E+00  0.33479582532E+03  0.33479582536E+03  0.50400001928E-02 0. -1.
       -1   -1    0    0    0  501  0.00000000000E+00  0.00000000000E+00 -0.36239176561E+03  0.36239176565E+03  0.50400001928E-02 0.  1.
    10030    2    1    2    0    0  0.00000000000E+00  0.00000000000E+00 -0.27595940293E+02  0.69718759101E+03  0.69664122842E+03 0.  0.
        2    1    3    3  502    0  0.43575376048E+02  0.27955645415E+03  0.18952786730E+03  0.34054579272E+03  0.25500000920E-02 0. -1.
       -2    1    3    3    0  502 -0.43575376048E+02 -0.27955645415E+03 -0.21712380759E+03  0.35664179828E+03  0.25500000920E-02 0.  1.
</event>
<event>
 5   0  0.2750139E-02  0.7049713E+03  0.7818609E-02  0.9708768E-01
       -1   -1    0    0    0  501  0.00000000000E+00  0.00000000000E+00  0.24535090938E+03  0.24535090943E+03  0.50400001928E-02 0. -1.
        1   -1    0    0  501    0  0.00000000000E+00  0.00000000000E+00 -0.50640169560E+03  0.50640169563E+03  0.50400001928E-02 0.  1.
    10030    2    1    2    0    0  0.00000000000E+00  0.00000000000E+00 -0.26105078622E+03  0.75175260506E+03  0.70497125206E+03 0.  0.
        2    1    3    3  502    0  0.69855357506E+02 -0.61401666215E+02  0.23203075783E+03  0.24997641523E+03  0.25500000920E-02 0. -1.
       -2    1    3    3    0  502 -0.69855357506E+02  0.61401666215E+02 -0.49308154405E+03  0.50177618983E+03  0.25500000920E-02 0.  1.
</event>
<event>
 5   0  0.4503289E-02  0.6876168E+03  0.7818609E-02  0.9738647E-01
       -2   -1    0    0    0  501  0.00000000000E+00  0.00000000000E+00  0.21635884221E+03  0.21635884223E+03  0.25500000920E-02 0.  1.
        2   -1    0    0  501    0  0.00000000000E+00  0.00000000000E+00 -0.54633418881E+03  0.54633418882E+03  0.25500000920E-02 0. -1.
    10030    2    1    2    0    0  0.00000000000E+00  0.00000000000E+00 -0.32997534660E+03  0.76269303104E+03  0.68761684842E+03 0.  0.
        2    1    3    3  502    0 -0.25509559384E+03  0.14578913527E+03 -0.36301957961E+03  0.46702403487E+03  0.25500000920E-02 0. -1.
       -2    1    3    3    0  502  0.25509559384E+03 -0.14578913527E+03  0.33044233011E+02  0.29566899617E+03  0.25500000920E-02 0.  1.
</event>
<event>
 5   0  0.2684924E-02  0.7045160E+03  0.7818609E-02  0.9709540E-01
       -1   -1    0    0    0  501  0.00000000000E+00  0.00000000000E+00  0.41322492713E+03  0.41322492716E+03  0.50400001928E-02 0.  1.
        1   -1    0    0  501    0  0.00000000000E+00  0.00000000000E+00 -0.30028609527E+03  0.30028609531E+03  0.50400001928E-02 0. -1.
    10030    2    1    2    0    0  0.00000000000E+00  0.00000000000E+00  0.11293883186E+03  0.71351102248E+03  0.70451600369E+03 0.  0.
        4    1    3    3  502    0 -0.21780825467E+03  0.27652861433E+03  0.43049704859E+02  0.35463135836E+03  0.12699999809E+01 0.  1.
       -4    1    3    3    0  502  0.21780825467E+03 -0.27652861433E+03  0.69889127002E+02  0.35887966412E+03  0.12699999809E+01 0. -1.
</event>
<event>
 5   0  0.2750139E-02  0.7039576E+03  0.7818609E-02  0.9710488E-01
        1   -1    0    0  501    0  0.00000000000E+00  0.00000000000E+00  0.13306654140E+04  0.13306654140E+04  0.50400001928E-02 0.  1.
       -1   -1    0    0    0  501  0.00000000000E+00  0.00000000000E+00 -0.93103096793E+02  0.93103096930E+02  0.50400001928E-02 0. -1.
    10030    2    1    2    0    0  0.00000000000E+00  0.00000000000E+00  0.12375623172E+04  0.14237685109E+04  0.70395758662E+03 0.  0.
        2    1    3    3  502    0  0.86154078778E+02 -0.17044726721E+03  0.12167575928E+04  0.12316549175E+04  0.25500000920E-02 0.  1.
       -2    1    3    3    0  502 -0.86154078778E+02  0.17044726721E+03  0.20804724332E+02  0.19211359335E+03  0.25500000920E-02 0. -1.
</event>
<event>
 5   0  0.2758681E-02  0.7214377E+03  0.7818609E-02  0.9681257E-01
       -1   -1    0    0    0  501  0.00000000000E+00  0.00000000000E+00  0.46187750497E+03  0.46187750500E+03  0.50400001928E-02 0. -1.
        1   -1    0    0  501    0  0.00000000000E+00  0.00000000000E+00 -0.28171560598E+03  0.28171560603E+03  0.50400001928E-02 0.  1.
    10030    2    1    2    0    0  0.00000000000E+00  0.00000000000E+00  0.18016189899E+03  0.74359311103E+03  0.72143773461E+03 0.  0.
        3    1    3    3  502    0 -0.28951971874E+03  0.20229960691E+03  0.14541136340E+02  0.35349434697E+03  0.10100000352E+00 0.  1.
       -3    1    3    3    0  502  0.28951971874E+03 -0.20229960691E+03  0.16562076265E+03  0.39009876405E+03  0.10100000352E+00 0. -1.
</event>
<event>
 5   0  0.2684924E-02  0.7003720E+03  0.7818609E-02  0.9716596E-01
       -1   -1    0    0    0  501  0.00000000000E+00  0.00000000000E+00  0.12868501356E+03  0.12868501366E+03  0.50400001928E-02 0.  1.
        1   -1    0    0  501    0  0.00000000000E+00  0.00000000000E+00 -0.95294872186E+03  0.95294872187E+03  0.50400001928E-02 0. -1.
    10030    2    1    2    0    0  0.00000000000E+00  0.00000000000E+00 -0.82426370830E+03  0.10816337355E+04  0.70037195619E+03 0.  0.
        4    1    3    3  502    0 -0.20388558593E+03 -0.26147076619E+03 -0.23814282825E+03  0.40822777131E+03  0.12699999809E+01 0.  1.
       -4    1    3    3    0  502  0.20388558593E+03  0.26147076619E+03 -0.58612088005E+03  0.67340596422E+03  0.12699999809E+01 0. -1.
</event>
<event>
 5   0  0.4365492E-02  0.7045581E+03  0.7818609E-02  0.9709469E-01
       -2   -1    0    0    0  501  0.00000000000E+00  0.00000000000E+00  0.74904016921E+02  0.74904016965E+02  0.25500000920E-02 0. -1.
        2   -1    0    0  501    0  0.00000000000E+00  0.00000000000E+00 -0.16567939934E+04  0.16567939934E+04  0.25500000920E-02 0.  1.
    10030    2    1    2    0    0  0.00000000000E+00  0.00000000000E+00 -0.15818899765E+04  0.17316980104E+04  0.70455808946E+03 0.  0.
        4    1    3    3  502    0  0.21483548836E+03  0.13632760936E+03 -0.19211969755E+03  0.31882768891E+03  0.12699999809E+01 0. -1.
       -4    1    3    3    0  502 -0.21483548836E+03 -0.13632760936E+03 -0.13897702789E+04  0.14128703214E+04  0.12699999809E+01 0.  1.
</event>
<event>
 5   0  0.4503289E-02  0.6889067E+03  0.7818609E-02  0.9736393E-01
       -2   -1    0    0    0  501  0.00000000000E+00  0.00000000000E+00  0.10960889576E+03  0.10960889579E+03  0.25500000920E-02 0. -1.
        2   -1    0    0  501    0  0.00000000000E+00  0.00000000000E+00 -0.10824680092E+04  0.10824680092E+04  0.25500000920E-02 0.  1.
    10030    2    1    2    0    0  0.00000000000E+00  0.00000000000E+00 -0.97285911346E+03  0.11920769050E+04  0.68890673740E+03 0.  0.
        2    1    3    3  502    0  0.17159589303E+03 -0.23491451095E+03 -0.16727639031E+03  0.33557617425E+03  0.25500000920E-02 0. -1.
       -2    1    3    3    0  502 -0.17159589303E+03  0.23491451095E+03 -0.80558272315E+03  0.85650073076E+03  0.25500000920E-02 0.  1.
</event>
<event>
 5   0  0.4420645E-02  0.5906576E+03  0.7818609E-02  0.9924980E-01
        2   -1    0    0  501    0  0.00000000000E+00  0.00000000000E+00  0.74686830552E+03  0.74686830552E+03  0.25500000920E-02 0. -1.
       -2   -1    0    0    0  501  0.00000000000E+00  0.00000000000E+00 -0.11677975573E+03  0.11677975576E+03  0.25500000920E-02 0.  1.
    10030    2    1    2    0    0  0.00000000000E+00  0.00000000000E+00  0.63008854979E+03  0.86364806128E+03  0.59065759385E+03 0.  0.
        5    1    3    3  502    0 -0.21330370057E+02 -0.27707496179E+03  0.16903480599E+03  0.32530043771E+03  0.46999998093E+01 0.  1.
       -5    1    3    3    0  502  0.21330370057E+02  0.27707496179E+03  0.46105374380E+03  0.53834762357E+03  0.46999998093E+01 0. -1.
</event>
<event>
 5   0  0.4299912E-02  0.7034477E+03  0.7818609E-02  0.9711354E-01
        2   -1    0    0  501    0  0.00000000000E+00  0.00000000000E+00  0.78831553948E+03  0.78831553949E+03  0.25500000920E-02 0.  1.
       -2   -1    0    0    0  501  0.00000000000E+00  0.00000000000E+00 -0.15692912429E+03  0.15692912431E+03  0.25500000920E-02 0. -1.
    10030    2    1    2    0    0  0.00000000000E+00  0.00000000000E+00  0.63138641519E+03  0.94524466380E+03  0.70344770179E+03 0.  0.
        3    1    3    3  502    0  0.25368910062E+03 -0.23061530014E+03  0.42122600282E+03  0.54311410595E+03  0.10100000352E+00 0.  1.
       -3    1    3    3    0  502 -0.25368910062E+03  0.23061530014E+03  0.21016041237E+03  0.40213055785E+03  0.10100000352E+00 0. -1.
</event>
<event>
 5   0  0.4526837E-02  0.5430717E+03  0.7818609E-02  0.1003110E+00
        2   -1    0    0  501    0  0.00000000000E+00  0.00000000000E+00  0.54445986720E+03  0.54445986720E+03  0.25500000920E-02 0. -1.
       -2   -1    0    0    0  501  0.00000000000E+00  0.00000000000E+00 -0.13542179228E+03  0.13542179230E+03  0.25500000920E-02 0.  1.
    10030    2    1    2    0    0  0.00000000000E+00  0.00000000000E+00  0.40903807492E+03  0.67988165950E+03  0.54307174866E+03 0.  0.
        1    1    3    3  502    0 -0.87800653137E+02  0.22935869053E+03  0.59505091186E+02  0.25269590324E+03  0.50400001928E-02 0.  1.
       -1    1    3    3    0  502  0.87800653137E+02 -0.22935869053E+03  0.34953298373E+03  0.42718575626E+03  0.50400001928E-02 0. -1.
</event>
<event>
 5   0  0.2758681E-02  0.6942295E+03  0.7818609E-02  0.9727152E-01
       -1   -1    0    0    0  501  0.00000000000E+00  0.00000000000E+00  0.33001852629E+03  0.33001852633E+03  0.50400001928E-02 0. -1.
        1   -1    0    0  501    0  0.00000000000E+00  0.00000000000E+00 -0.36509657396E+03  0.36509657400E+03  0.50400001928E-02 0.  1.
    10030    2    1    2    0    0  0.00000000000E+00  0.00000000000E+00 -0.35078047670E+02  0.69511510032E+03  0.69422945290E+03 0.  0.
        3    1    3    3  502    0  0.32827802022E+03 -0.87076107773E+02 -0.89323692404E+02  0.35118006681E+03  0.10100000352E+00 0.  1.
       -3    1    3    3    0  502 -0.32827802022E+03  0.87076107773E+02  0.54245644733E+02  0.34393503351E+03  0.10100000352E+00 0. -1.
</event>
<event>
 5   0  0.2751729E-02  0.6976001E+03  0.7818609E-02  0.9721345E-01
        1   -1    0    0  501    0  0.00000000000E+00  0.00000000000E+00  0.75649603805E+03  0.75649603807E+03  0.50400001928E-02 0. -1.
       -1   -1    0    0    0  501  0.00000000000E+00  0.00000000000E+00 -0.16082234968E+03  0.16082234976E+03  0.50400001928E-02 0.  1.
    10030    2    1    2    0    0  0.00000000000E+00  0.00000000000E+00  0.59567368837E+03  0.91731838783E+03  0.69760008718E+03 0.  0.
        1    1    3    3  502    0  0.14488201630E+03 -0.25553738587E+03  0.54514542371E+03  0.61925252300E+03  0.50400001928E-02 0. -1.
       -1    1    3    3    0  502 -0.14488201630E+03  0.25553738587E+03  0.50528264660E+02  0.29806586483E+03  0.50400001928E-02 0.  1.
</event>
<event>
 5   0  0.4420645E-02  0.7044419E+03  0.7818609E-02  0.9709666E-01
       -2   -1    0    0    0  501  0.00000000000E+00  0.00000000000E+00  0.85308823472E+02  0.85308823510E+02  0.25500000920E-02 0.  1.
        2   -1    0    0  501    0  0.00000000000E+00  0.00000000000E+00 -0.14542410346E+04  0.14542410346E+04  0.25500000920E-02 0. -1.
    10030    2    1    2    0    0  0.00000000000E+00  0.00000000000E+00 -0.13689322111E+04  0.15395498581E+04  0.70444188330E+03 0.  0.
        5    1    3    3  502    0 -0.76126327581E+01 -0.23284977475E+03 -0.12617022010E+04  0.12830399463E+04  0.46999998093E+01 0. -1.
       -5    1    3    3    0  502  0.76126327581E+01  0.23284977475E+03 -0.10723001009E+03  0.25650991178E+03  0.46999998093E+01 0.  1.
</event>
<event>
 5   0  0.2750139E-02  0.6963016E+03  0.7818609E-02  0.9723578E-01
        1   -1    0    0  501    0  0.00000000000E+00  0.00000000000E+00  0.28281976812E+03  0.28281976816E+03  0.50400001928E-02 0. -1.
       -1   -1    0    0    0  501  0.00000000000E+00  0.00000000000E+00 -0.42857316398E+03  0.42857316401E+03  0.50400001928E-02 0.  1.
    10030    2    1    2    0    0  0.00000000000E+00  0.00000000000E+00 -0.14575339586E+03  0.71139293217E+03  0.69630155216E+03 0.  0.
        2    1    3    3  502    0  0.26007969815E+03 -0.19722970309E+03 -0.19661296426E+03  0.38104811100E+03  0.25500000920E-02 0. -1.
       -2    1    3    3    0  502 -0.26007969815E+03  0.19722970309E+03  0.50859568399E+02  0.33034482118E+03  0.25500000920E-02 0.  1.
</event>
<event>
 5   0  0.4526837E-02  0.6988387E+03  0.7818609E-02  0.9719220E-01
        2   -1    0    0  501    0  0.00000000000E+00  0.00000000000E+00  0.70326619055E+03  0.70326619056E+03  0.25500000920E-02 0. -1.
       -2   -1    0    0    0  501  0.00000000000E+00  0.00000000000E+00 -0.17360977631E+03  0.17360977633E+03  0.25500000920E-02 0.  1.
    10030    2    1    2    0    0  0.00000000000E+00  0.00000000000E+00  0.52965641424E+03  0.87687596689E+03  0.69883871111E+03 0.  0.
        1    1    3    3  502    0  0.13559735084E+03  0.68407802780E+02  0.65968478501E+03  0.67694186208E+03  0.50400001928E-02 0. -1.
       -1    1    3    3    0  502 -0.13559735084E+03 -0.68407802780E+02 -0.13002837077E+03  0.19993410481E+03  0.50400001928E-02 0.  1.
</event>
<event>
 5   0  0.1784625E-02  0.6856694E+03  0.7818609E-02  0.9742058E-01
        3   -1    0    0  501    0  0.00000000000E+00  0.00000000000E+00  0.54477621177E+03  0.54477622113E+03  0.10100000352E+00 0.  1.
       -3   -1    0    0    0  501  0.00000000000E+00  0.00000000000E+00 -0.21575030363E+03  0.21575032727E+03  0.10100000352E+00 0. -1.
    10030    2    1    2    0    0  0.00000000000E+00  0.00000000000E+00  0.32902590814E+03  0.76052654841E+03  0.68566944120E+03 0.  0.
        5    1    3    3  502    0  0.20890297219E+03 -0.45109326250E+02  0.46180101236E+03  0.50887873617E+03  0.46999998093E+01 0.  1.
       -5    1    3    3    0  502 -0.20890297219E+03  0.45109326250E+02 -0.13277510422E+03  0.25164781224E+03  0.46999998093E+01 0. -1.
</event>
<event>
 5   0  0.4299912E-02  0.6957446E+03  0.7818609E-02  0.9724537E-01
       -2   -1    0    0    0  501  0.00000000000E+00  0.00000000000E+00  0.60625475782E+02  0.60625475836E+02  0.25500000920E-02 0.  1.
        2   -1    0    0  501    0  0.00000000000E+00  0.00000000000E+00 -0.19961100350E+04  0.19961100350E+04  0.25500000920E-02 0. -1.
    10030    2    1    2    0    0  0.00000000000E+00  0.00000000000E+00 -0.19354845592E+04  0.20567355108E+04  0.69574455266E+03 0.  0.
        3    1    3    3  502    0  0.26551037001E+03 -0.15940302842E+03 -0.14361804042E+04  0.14691899964E+04  0.10100000352E+00 0. -1.
       -3    1    3    3    0  502 -0.26551037001E+03  0.15940302842E+03 -0.49930415497E+03  0.58754551434E+03  0.10100000352E+00 0.  1.
</event>
<event>
 5   0  0.1784625E-02  0.6881471E+03  0.7818609E-02  0.9737720E-01
       -3   -1    0    0    0  501  0.00000000000E+00  0.00000000000E+00  0.26431585414E+03  0.26431587344E+03  0.10100000352E+00 0.  1.
        3   -1    0    0  501    0  0.00000000000E+00  0.00000000000E+00 -0.44789816905E+03  0.44789818044E+03  0.10100000352E+00 0. -1.
    10030    2    1    2    0    0  0.00000000000E+00  0.00000000000E+00 -0.18358231491E+03  0.71221405388E+03  0.68814707163E+03 0.  0.
        1    1    3    3  502    0 -0.12854451520E+03  0.27123694876E+03  0.82298119442E+02  0.31123328108E+03  0.50400001928E-02 0.  1.
       -1    1    3    3    0  502  0.12854451520E+03 -0.27123694876E+03 -0.26588043435E+03  0.40098077280E+03  0.50400001928E-02 0. -1.
</event>
<event>
 5   0  0.2751729E-02  0.6989365E+03  0.7818609E-02  0.9719053E-01
       -1   -1    0    0    0  501  0.00000000000E+00  0.00000000000E+00  0.39708062847E+03  0.39708062850E+03  0.50400001928E-02 0.  1.
        1   -1    0    0  501    0  0.00000000000E+00  0.00000000000E+00 -0.30756490805E+03  0.30756490809E+03  0.50400001928E-02 0. -1.
    10030    2    1    2    0    0  0.00000000000E+00  0.00000000000E+00  0.89515720417E+02  0.70464553660E+03  0.69893652648E+03 0.  0.
        1    1    3    3  502    0 -0.84588317064E+02  0.18322767383E+03 -0.24288030690E+03  0.31578221505E+03  0.50400001928E-02 0. -1.
       -1    1    3    3    0  502  0.84588317064E+02 -0.18322767383E+03  0.33239602732E+03  0.38886332154E+03  0.50400001928E-02 0.  1.
</event>
<event>
 5   0  0.4299912E-02  0.7041707E+03  0.7818609E-02  0.9710126E-01
       -2   -1    0    0    0  501  0.00000000000E+00  0.00000000000E+00  0.12340169874E+03  0.12340169876E+03  0.25500000920E-02 0.  1.
        2   -1    0    0  501    0  0.00000000000E+00  0.00000000000E+00 -0.10045575627E+04  0.10045575627E+04  0.25500000920E-02 0. -1.
    10030    2    1    2    0    0  0.00000000000E+00  0.00000000000E+00 -0.88115586393E+03  0.11279592614E+04  0.70417074557E+03 0.  0.
        3    1    3    3  502    0 -0.15867779392E+03 -0.24663314071E+03 -0.75265691991E+03  0.80777410064E+03  0.10100000352E+00 0. -1.
       -3    1    3    3    0  502  0.15867779392E+03  0.24663314071E+03 -0.12849894402E+03  0.32018516079E+03  0.10100000352E+00 0.  1.
</event>
<event>
 5   0  0.4526837E-02  0.7016755E+03  0.7818609E-02  0.9714371E-01
       -2   -1    0    0    0  501  0.00000000000E+00  0.00000000000E+00  0.13850129648E+03  0.13850129651E+03  0.25500000920E-02 0.  1.
        2   -1    0    0  501    0  0.00000000000E+00  0.00000000000E+00 -0.88870727495E+03  0.88870727495E+03  0.25500000920E-02 0. -1.
    10030    2    1    2    0    0  0.00000000000E+00  0.00000000000E+00 -0.75020597847E+03  0.10272085715E+04  0.70167545144E+03 0.  0.
        1    1    3    3  502    0 -0.34499786702E+03  0.40379903126E+02 -0.44731300123E+03  0.56634175718E+03  0.50400001928E-02 0.  1.
       -1    1    3    3    0  502  0.34499786702E+03 -0.40379903126E+02 -0.30289297723E+03  0.46086681428E+03  0.50400001928E-02 0. -1.
</event>
<event>
 5   0  0.2750139E-02  0.7005041E+03  0.7818609E-02  0.9716370E-01
       -1   -1    0    0    0  501  0.00000000000E+00  0.00000000000E+00  0.45466375348E+03  0.45466375350E+03  0.50400001928E-02 0.  1.
        1   -1    0    0  501    0  0.00000000000E+00  0.00000000000E+00 -0.26981808429E+03  0.26981808434E+03  0.50400001928E-02 0. -1.
    10030    2    1    2    0    0  0.00000000000E+00  0.00000000000E+00  0.18484566918E+03  0.72448183784E+03  0.70050411273E+03 0.  0.
        2    1    3    3  502    0  0.20982172928E+03 -0.14221220873E+03 -0.15756779369E+03  0.29845783623E+03  0.25500000920E-02 0. -1.
       -2    1    3    3    0  502 -0.20982172928E+03  0.14221220873E+03  0.34241346287E+03  0.42602400162E+03  0.25500000920E-02 0.  1.
</event>
<event>
 5   0  0.4365492E-02  0.6896608E+03  0.7818609E-02  0.9735079E-01
        2   -1    0    0  501    0  0.00000000000E+00  0.00000000000E+00  0.19414469175E+03  0.19414469176E+03  0.25500000920E-02 0. -1.
       -2   -1    0    0    0  501  0.00000000000E+00  0.00000000000E+00 -0.61247099476E+03  0.61247099477E+03  0.25500000920E-02 0.  1.
    10030    2    1    2    0    0  0.00000000000E+00  0.00000000000E+00 -0.41832630302E+03  0.80661568653E+03  0.68966076441E+03 0.  0.
        4    1    3    3  502    0 -0.79487575347E+02  0.20014738055E+03  0.10582004175E+03  0.23995154243E+03  0.12699999809E+01 0. -1.
       -4    1    3    3    0  502  0.79487575347E+02 -0.20014738055E+03 -0.52414634477E+03  0.56666414410E+03  0.12699999809E+01 0.  1.
</event>
<event>
 5   0  0.4503289E-02  0.7048376E+03  0.7818609E-02  0.9708995E-01
       -2   -1    0    0    0  501  0.00000000000E+00  0.00000000000E+00  0.16876429133E+03  0.16876429135E+03  0.25500000920E-02 0. -1.
        2   -1    0    0  501    0  0.00000000000E+00  0.00000000000E+00 -0.73593177595E+03  0.73593177596E+03  0.25500000920E-02 0.  1.
    10030    2    1    2    0    0  0.00000000000E+00  0.00000000000E+00 -0.56716748463E+03  0.90469606730E+03  0.70483758312E+03 0.  0.
        2    1    3    3  502    0  0.23011538066E+03 -0.17152891247E+03 -0.21086269980E+02  0.28778444541E+03  0.25500000920E-02 0. -1.
       -2    1    3    3    0  502 -0.23011538066E+03  0.17152891247E+03 -0.54608121465E+03  0.61691162189E+03  0.25500000920E-02 0.  1.
</event>
<event>
 5   0  0.2758681E-02  0.6997454E+03  0.7818609E-02  0.9717668E-01
        1   -1    0    0  501    0  0.00000000000E+00  0.00000000000E+00  0.54019604054E+03  0.54019604056E+03  0.50400001928E-02 0. -1.
       -1   -1    0    0    0  501  0.00000000000E+00  0.00000000000E+00 -0.22660459380E+03  0.22660459385E+03  0.50400001928E-02 0.  1.
    10030    2    1    2    0    0  0.00000000000E+00  0.00000000000E+00  0.31359144674E+03  0.76680063442E+03  0.69974539475E+03 0.  0.
        3    1    3    3  502    0  0.31564203860E+03 -0.14840048216E+03  0.18697170294E+03  0.39574111176E+03  0.10100000352E+00 0.  1.
       -3    1    3    3    0  502 -0.31564203860E+03  0.14840048216E+03  0.12661974380E+03  0.37105952266E+03  0.10100000352E+00 0. -1.
</event>
<event>
 5   0  0.2684924E-02  0.6955181E+03  0.7818609E-02  0.9724928E-01
        1   -1    0    0  501    0  0.00000000000E+00  0.00000000000E+00  0.91198001849E+03  0.91198001851E+03  0.50400001928E-02 0. -1.
       -1   -1    0    0    0  501  0.00000000000E+00  0.00000000000E+00 -0.13260856859E+03  0.13260856869E+03  0.50400001928E-02 0.  1.
    10030    2    1    2    0    0  0.00000000000E+00  0.00000000000E+00  0.77937144990E+03  0.10445885872E+04  0.69551812312E+03 0.  0.
        4    1    3    3  502    0  0.32017306502E+03  0.20415147696E+02  0.18814644397E+03  0.37192508265E+03  0.12699999809E+01 0.  1.
       -4    1    3    3    0  502 -0.32017306502E+03 -0.20415147696E+02  0.59122500593E+03  0.67266350455E+03  0.12699999809E+01 0. -1.
</event>
<event>
 5   0  0.2777999E-02  0.6915264E+03  0.7818609E-02  0.9731834E-01
        1   -1    0    0  501    0  0.00000000000E+00  0.00000000000E+00  0.11847664358E+04  0.11847664359E+04  0.50400001928E-02 0.  1.
       -1   -1    0    0    0  501  0.00000000000E+00  0.00000000000E+00 -0.10090781726E+03  0.10090781738E+03  0.50400001928E-02 0. -1.
    10030    2    1    2    0    0  0.00000000000E+00  0.00000000000E+00  0.10838586186E+04  0.12856742532E+04  0.69152641335E+03 0.  0.
        5    1    3    3  502    0  0.28289093438E+02  0.34043083438E+03  0.44290831273E+03  0.55935971368E+03  0.46999998093E+01 0.  1.
       -5    1    3    3    0  502 -0.28289093438E+02 -0.34043083438E+03  0.64095030586E+03  0.72631453956E+03  0.46999998093E+01 0. -1.
</event>
<event>
 5   0  0.2684924E-02  0.6863982E+03  0.7818609E-02  0.9740780E-01
       -1   -1    0    0    0  501  0.00000000000E+00  0.00000000000E+00  0.11863827679E+03  0.11863827690E+03  0.50400001928E-02 0.  1.
        1   -1    0    0  501    0  0.00000000000E+00  0.00000000000E+00 -0.99281292966E+03  0.99281292967E+03  0.50400001928E-02 0. -1.
    10030    2    1    2    0    0  0.00000000000E+00  0.00000000000E+00 -0.87417465287E+03  0.11114512066E+04  0.68639817954E+03 0.  0.
        4    1    3    3  502    0  0.54534526615E+02  0.15276592540E+03  0.52646040669E+02  0.17054225592E+03  0.12699999809E+01 0.  1.
       -4    1    3    3    0  502 -0.54534526615E+02 -0.15276592540E+03 -0.92682069354E+03  0.94090895065E+03  0.12699999809E+01 0. -1.
</event>
<event>
 5   0  0.2751729E-02  0.6908690E+03  0.7818609E-02  0.9732976E-01
       -1   -1    0    0    0  501  0.00000000000E+00  0.00000000000E+00  0.12774211073E+03  0.12774211083E+03  0.50400001928E-02 0.  1.
        1   -1    0    0  501    0  0.00000000000E+00  0.00000000000E+00 -0.93410842265E+03  0.93410842266E+03  0.50400001928E-02 0. -1.
    10030    2    1    2    0    0  0.00000000000E+00  0.00000000000E+00 -0.80636631192E+03  0.10618505335E+04  0.69086896477E+03 0.  0.
        1    1    3    3  502    0 -0.29458819807E+03  0.16474384165E+03 -0.29021534456E+03  0.44513782815E+03  0.50400001928E-02 0.  1.
       -1    1    3    3    0  502  0.29458819807E+03 -0.16474384165E+03 -0.51615096735E+03  0.61671270534E+03  0.50400001928E-02 0. -1.
</event>
<event>
 5   0  0.4420645E-02  0.7102856E+03  0.7818609E-02  0.9699802E-01
        2   -1    0    0  501    0  0.00000000000E+00  0.00000000000E+00  0.97730756470E+03  0.97730756471E+03  0.25500000920E-02 0.  1.
       -2   -1    0    0    0  501  0.00000000000E+00  0.00000000000E+00 -0.12905498760E+03  0.12905498763E+03  0.25500000920E-02 0. -1.
    10030    2    1    2    0    0  0.00000000000E+00  0.00000000000E+00  0.84825257710E+03  0.11063625523E+04  0.71028562047E+03 0.  0.
        5    1    3    3  502    0  0.15480608159E+03  0.83681680437E+02 -0.56313168013E+02  0.18482643054E+03  0.46999998093E+01 0. -1.
       -5    1    3    3    0  502 -0.15480608159E+03 -0.83681680437E+02  0.90456574511E+03  0.92153612179E+03  0.46999998093E+01 0.  1.
</event>
<event>
 5   0  0.2684924E-02  0.7043441E+03  0.7818609E-02  0.9709832E-01
       -1   -1    0    0    0  501  0.00000000000E+00  0.00000000000E+00  0.14693060160E+03  0.14693060169E+03  0.50400001928E-02 0.  1.
        1   -1    0    0  501    0  0.00000000000E+00  0.00000000000E+00 -0.84410690779E+03  0.84410690780E+03  0.50400001928E-02 0. -1.
    10030    2    1    2    0    0  0.00000000000E+00  0.00000000000E+00 -0.69717630618E+03  0.99103750949E+03  0.70434405181E+03 0.  0.
        4    1    3    3  502    0  0.31591372680E+03 -0.15129676905E+03 -0.39992719332E+03  0.53163480695E+03  0.12699999809E+01 0. -1.
       -4    1    3    3    0  502 -0.31591372680E+03  0.15129676905E+03 -0.29724911286E+03  0.45940270254E+03  0.12699999809E+01 0.  1.
</event>
<event>
 5   0  0.4420645E-02  0.7001149E+03  0.7818609E-02  0.9717036E-01
       -2   -1    0    0    0  501  0.00000000000E+00  0.00000000000E+00  0.49567304920E+02  0.49567304986E+02  0.25500000920E-02 0. -1.
        2   -1    0    0  501    0  0.00000000000E+00  0.00000000000E+00 -0.24721982742E+04  0.24721982742E+04  0.25500000920E-02 0.  1.
    10030    2    1    2    0    0  0.00000000000E+00  0.00000000000E+00 -0.24226309692E+04  0.25217655791E+04  0.70011486418E+03 0.  0.
        5    1    3    3  502    0 -0.80963174467E+02  0.36045949517E+02 -0.24310028414E+04  0.24326222993E+04  0.46999998093E+01 0.  1.
       -5    1    3    3    0  502  0.80963174467E+02 -0.36045949517E+02  0.83718721917E+01  0.89143279828E+02  0.46999998093E+01 0. -1.
</event>
<event>
 5   0  0.4299912E-02  0.7003350E+03  0.7818609E-02  0.9716660E-01
        2   -1    0    0  501    0  0.00000000000E+00  0.00000000000E+00  0.17255075648E+04  0.17255075648E+04  0.25500000920E-02 0.  1.
       -2   -1    0    0    0  501  0.00000000000E+00  0.00000000000E+00 -0.71061565513E+02  0.71061565559E+02  0.25500000920E-02 0. -1.
    10030    2    1    2    0    0  0.00000000000E+00  0.00000000000E+00  0.16544459993E+04  0.17965691303E+04  0.70033497385E+03 0.  0.
        3    1    3    3  502    0  0.99139518148E+02  0.40415474333E+02 -0.28046566280E+02  0.11067373087E+03  0.10100000352E+00 0. -1.
       -3    1    3    3    0  502 -0.99139518148E+02 -0.40415474333E+02  0.16824925656E+04  0.16858953995E+04  0.10100000352E+00 0.  1.
</event>
<event>
 5   0  0.4299912E-02  0.7042376E+03  0.7818609E-02  0.9710013E-01
       -2   -1    0    0    0  501  0.00000000000E+00  0.00000000000E+00  0.24668269414E+03  0.24668269415E+03  0.25500000920E-02 0. -1.
        2   -1    0    0  501    0  0.00000000000E+00  0.00000000000E+00 -0.50261998431E+03  0.50261998431E+03  0.25500000920E-02 0.  1.
    10030    2    1    2    0    0  0.00000000000E+00  0.00000000000E+00 -0.25593729017E+03  0.74930267847E+03  0.70423760724E+03 0.  0.
        3    1    3    3  502    0 -0.21447966944E+03  0.27868265284E+03 -0.14706401545E+03  0.38117369327E+03  0.10100000352E+00 0.  1.
       -3    1    3    3    0  502  0.21447966944E+03 -0.27868265284E+03 -0.10887327471E+03  0.36812898520E+03  0.10100000352E+00 0. -1.
</event>
<event>
 5   0  0.2777999E-02  0.7125073E+03  0.7818609E-02  0.9696079E-01
        1   -1    0    0  501    0  0.00000000000E+00  0.00000000000E+00  0.61129727917E+03  0.61129727919E+03  0.50400001928E-02 0. -1.
       -1   -1    0    0    0  501  0.00000000000E+00  0.00000000000E+00 -0.20761856394E+03  0.20761856400E+03  0.50400001928E-02 0.  1.
    10030    2    1    2    0    0  0.00000000000E+00  0.00000000000E+00  0.40367871523E+03  0.81891584318E+03  0.71250730038E+03 0.  0.
        5    1    3    3  502    0  0.16706011283E+03  0.15049883359E+02  0.56303148955E+03  0.58750500297E+03  0.46999998093E+01 0. -1.
       -5    1    3    3    0  502 -0.16706011283E+03 -0.15049883359E+02 -0.15935277432E+03  0.23141084022E+03  0.46999998093E+01 0.  1.
</event>
<event>
 5   0  0.4420645E-02  0.6953992E+03  0.7818609E-02  0.9725133E-01
        2   -1    0    0  501    0  0.00000000000E+00  0.00000000000E+00  0.39510956054E+03  0.39510956055E+03  0.25500000920E-02 0.  1.
       -2   -1    0    0    0  501  0.00000000000E+00  0.00000000000E+00 -0.30597844175E+03  0.30597844176E+03  0.25500000920E-02 0. -1.
    10030    2    1    2    0    0  0.00000000000E+00  0.00000000000E+00  0.89131118796E+02  0.70108800231E+03  0.69539918798E+03 0.  0.
        5    1    3    3  502    0 -0.20233348921E+03 -0.25215518401E+03  0.17348596706E+03  0.36693398377E+03  0.46999998093E+01 0.  1.
       -5    1    3    3    0  502  0.20233348921E+03  0.25215518401E+03 -0.84354848261E+02  0.33415401854E+03  0.46999998093E+01 0. -1.
</event>
<event>
 5   0  0.4299912E-02  0.6986332E+03  0.7818609E-02  0.9719572E-01
        2   -1    0    0  501    0  0.00000000000E+00  0.00000000000E+00  0.56956707273E+03  0.56956707273E+03  0.25500000920E-02 0. -1.
       -2   -1    0    0    0  501  0.00000000000E+00  0.00000000000E+00 -0.21423655582E+03  0.21423655583E+03  0.25500000920E-02 0.  1.
    10030    2    1    2    0    0  0.00000000000E+00  0.00000000000E+00  0.35533051691E+03  0.78380362857E+03  0.69863320270E+03 0.  0.
        3    1    3    3  502    0 -0.30311723756E+03  0.93233566229E+02  0.34197633418E+03  0.46639080278E+03  0.10100000352E+00 0. -1.
       -3    1    3    3    0  502  0.30311723756E+03 -0.93233566229E+02  0.13354182728E+02  0.31741282579E+03  0.10100000352E+00 0.  1.
</event>
<event>
 5   0  0.2751729E-02  0.7007225E+03  0.7818609E-02  0.9715997E-01
       -1   -1    0    0    0  501  0.00000000000E+00  0.00000000000E+00  0.10257419833E+03  0.10257419845E+03  0.50400001928E-02 0. -1.
        1   -1    0    0  501    0  0.00000000000E+00  0.00000000000E+00 -0.11967238837E+04  0.11967238837E+04  0.50400001928E-02 0.  1.
    10030    2    1    2    0    0  0.00000000000E+00  0.00000000000E+00 -0.10941496854E+04  0.12992980822E+04  0.70072246455E+03 0.  0.
        1    1    3    3  502    0  0.13671632819E+03  0.32095284602E+03 -0.60718465507E+03  0.70026801236E+03  0.50400001928E-02 0.  1.
       -1    1    3    3    0  502 -0.13671632819E+03 -0.32095284602E+03 -0.48696503030E+03  0.59903006980E+03  0.50400001928E-02 0. -1.
</event>
<event>
 5   0  0.2758681E-02  0.6869645E+03  0.7818609E-02  0.9739788E-01
        1   -1    0    0  501    0  0.00000000000E+00  0.00000000000E+00  0.65227883947E+03  0.65227883949E+03  0.50400001928E-02 0.  1.
       -1   -1    0    0    0  501  0.00000000000E+00  0.00000000000E+00 -0.18087367265E+03  0.18087367272E+03  0.50400001928E-02 0. -1.
    10030    2    1    2    0    0  0.00000000000E+00  0.00000000000E+00  0.47140516682E+03  0.83315251221E+03  0.68696453860E+03 0.  0.
        3    1    3    3  502    0 -0.29556468683E+03 -0.11044205370E+03  0.71082181467E+02  0.32343255564E+03  0.10100000352E+00 0. -1.
       -3    1    3    3    0  502  0.29556468683E+03  0.11044205370E+03  0.40032298535E+03  0.50971995657E+03  0.10100000352E+00 0.  1.
</event>
<event>
 5   0  0.2750139E-02  0.6582450E+03  0.7818609E-02  0.9791430E-01
       -1   -1    0    0    0  501  0.00000000000E+00  0.00000000000E+00  0.10223264862E+04  0.10223264862E+04  0.50400001928E-02 0.  1.
        1   -1    0    0  501    0  0.00000000000E+00  0.00000000000E+00 -0.10595598834E+03  0.10595598846E+03  0.50400001928E-02 0. -1.
    10030    2    1    2    0    0  0.00000000000E+00  0.00000000000E+00  0.91637049789E+03  0.11282824747E+04  0.65824497972E+03 0.  0.
        2    1    3    3  502    0 -0.25778706021E+03  0.61947437645E+02  0.79245203104E+03  0.83562663609E+03  0.25500000920E-02 0.  1.
       -2    1    3    3    0  502  0.25778706021E+03 -0.61947437645E+02  0.12391846684E+03  0.29265583861E+03  0.25500000920E-02 0. -1.
</event>
<event>
 5   0  0.1784625E-02  0.6942243E+03  0.7818609E-02  0.9727161E-01
        3   -1    0    0  501    0  0.00000000000E+00  0.00000000000E+00  0.23222043078E+03  0.23222045274E+03  0.10100000352E+00 0. -1.
       -3   -1    0    0    0  501  0.00000000000E+00  0.00000000000E+00 -0.51884683652E+03  0.51884684635E+03  0.10100000352E+00 0.  1.
    10030    2    1    2    0    0  0.00000000000E+00  0.00000000000E+00 -0.28662640574E+03  0.75106729909E+03  0.69422430906E+03 0.  0.
        1    1    3    3  502    0 -0.78698695963E+02  0.14644012458E+03 -0.47297364772E+03  0.50134046943E+03  0.50400001928E-02 0.  1.
       -1    1    3    3    0  502  0.78698695963E+02 -0.14644012458E+03  0.18634724197E+03  0.24972682965E+03  0.50400001928E-02 0. -1.
</event>
<event>
 5   0  0.4526837E-02  0.7019239E+03  0.7818609E-02  0.9713948E-01
       -2   -1    0    0    0  501  0.00000000000E+00  0.00000000000E+00  0.99769747624E+02  0.99769747656E+02  0.25500000920E-02 0.  1.
        2   -1    0    0  501    0  0.00000000000E+00  0.00000000000E+00 -0.12345855444E+04  0.12345855444E+04  0.25500000920E-02 0. -1.
    10030    2    1    2    0    0  0.00000000000E+00  0.00000000000E+00 -0.11348157968E+04  0.13343552921E+04  0.70192389390E+03 0.  0.
        1    1    3    3  502    0  0.18217070872E+03  0.25383337400E+03 -0.87131033180E+03  0.92563450843E+03  0.50400001928E-02 0. -1.
       -1    1    3    3    0  502 -0.18217070872E+03 -0.25383337400E+03 -0.26350546498E+03  0.40872078363E+03  0.50400001928E-02 0.  1.
</event>
<event>
 5   0  0.4420645E-02  0.7050777E+03  0.7818609E-02  0.9708588E-01
       -2   -1    0    0    0  501  0.00000000000E+00  0.00000000000E+00  0.27632722414E+03  0.27632722415E+03  0.25500000920E-02 0. -1.
        2   -1    0    0  501    0  0.00000000000E+00  0.00000000000E+00 -0.44976980225E+03  0.44976980225E+03  0.25500000920E-02 0.  1.
    10030    2    1    2    0    0  0.00000000000E+00  0.00000000000E+00 -0.17344257811E+03  0.72609702641E+03  0.70507770058E+03 0.  0.
        5    1    3    3  502    0  0.29891776056E+03  0.18144256854E+03 -0.40801427572E+02  0.35207964972E+03  0.46999998093E+01 0. -1.
       -5    1    3    3    0  502 -0.29891776056E+03 -0.18144256854E+03 -0.13264115053E+03  0.37401737669E+03  0.46999998093E+01 0.  1.
</event>
<event>
 5   0  0.4503289E-02  0.7033472E+03  0.7818609E-02  0.9711525E-01
       -2   -1    0    0    0  501  0.00000000000E+00  0.00000000000E+00  0.24152363798E+03  0.24152363799E+03  0.25500000920E-02 0. -1.
        2   -1    0    0  501    0  0.00000000000E+00  0.00000000000E+00 -0.51205889683E+03  0.51205889684E+03  0.25500000920E-02 0.  1.
    10030    2    1    2    0    0  0.00000000000E+00  0.00000000000E+00 -0.27053525885E+03  0.75358253482E+03  0.70334721902E+03 0.  0.
        2    1    3    3  502    0  0.22588246532E+03  0.22761707351E+03  0.19410809456E+02  0.32126188666E+03  0.25500000920E-02 0. -1.
       -2    1    3    3    0  502 -0.22588246532E+03 -0.22761707351E+03 -0.28994606831E+03  0.43232064816E+03  0.25500000920E-02 0.  1.
</event>
<event>
 5   0  0.4299912E-02  0.7167774E+03  0.7818609E-02  0.9688963E-01
       -2   -1    0    0    0  501  0.00000000000E+00  0.00000000000E+00  0.15902755918E+03  0.15902755920E+03  0.25500000920E-02 0. -1.
        2   -1    0    0  501    0  0.00000000000E+00  0.00000000000E+00 -0.80767417945E+03  0.80767417946E+03  0.25500000920E-02 0.  1.
    10030    2    1    2    0    0  0.00000000000E+00  0.00000000000E+00 -0.64864662027E+03  0.96670173866E+03  0.71677738073E+03 0.  0.
        3    1    3    3  502    0 -0.23579550807E+03 -0.26131874170E+03 -0.23329568334E+03  0.42227229658E+03  0.10100000352E+00 0. -1.
       -3    1    3    3    0  502  0.23579550807E+03  0.26131874170E+03 -0.41535093693E+03  0.54442944208E+03  0.10100000352E+00 0.  1.
</event>
<event>
 5   0  0.2750139E-02  0.7072003E+03  0.7818609E-02  0.9704997E-01
        1   -1    0    0  501    0  0.00000000000E+00  0.00000000000E+00  0.97007607530E+03  0.97007607532E+03  0.50400001928E-02 0.  1.
       -1   -1    0    0    0  501  0.00000000000E+00  0.00000000000E+00 -0.12888996213E+03  0.12888996223E+03  0.50400001928E-02 0. -1.
    10030    2    1    2    0    0  0.00000000000E+00  0.00000000000E+00  0.84118611317E+03  0.10989660375E+04  0.70720030734E+03 0.  0.
        2    1    3    3  502    0  0.13152825051E+03  0.31347286952E+03  0.57180091097E+03  0.66522267129E+03  0.25500000920E-02 0.  1.
       -2    1    3    3    0  502 -0.13152825051E+03 -0.31347286952E+03  0.26938520220E+03  0.43374336626E+03  0.25500000920E-02 0. -1.
</event>
<event>
 5   0  0.2751729E-02  0.6545384E+03  0.7818609E-02  0.9798300E-01
       -1   -1    0    0    0  501  0.00000000000E+00  0.00000000000E+00  0.75320382048E+03  0.75320382050E+03  0.50400001928E-02 0.  1.
        1   -1    0    0  501    0  0.00000000000E+00  0.00000000000E+00 -0.14219938080E+03  0.14219938089E+03  0.50400001928E-02 0. -1.
    10030    2    1    2    0    0  0.00000000000E+00  0.00000000000E+00  0.61100443968E+03  0.89540320138E+03  0.65453836231E+03 0.  0.
        1    1    3    3  502    0 -0.44939453120E+02  0.17523776199E+03 -0.67579276780E+02  0.19311858106E+03  0.50400001928E-02 0. -1.
       -1    1    3    3    0  502  0.44939453120E+02 -0.17523776199E+03  0.67858371646E+03  0.70228462033E+03  0.50400001928E-02 0.  1.
</event>
<event>
 5   0  0.4299912E-02  0.6959540E+03  0.7818609E-02  0.9724176E-01
       -2   -1    0    0    0  501  0.00000000000E+00  0.00000000000E+00  0.18391421641E+03  0.18391421642E+03  0.25500000920E-02 0. -1.
        2   -1    0    0  501    0  0.00000000000E+00  0.00000000000E+00 -0.65839392015E+03  0.65839392015E+03  0.25500000920E-02 0.  1.
    10030    2    1    2    0    0  0.00000000000E+00  0.00000000000E+00 -0.47447970374E+03  0.84230813658E+03  0.69595402699E+03 0.  0.
        3    1    3    3  502    0  0.37736324027E+02  0.32282480798E+03 -0.38766763283E+03  0.50589138216E+03  0.10100000352E+00 0.  1.
       -3    1    3    3    0  502 -0.37736324027E+02 -0.32282480798E+03 -0.86812070915E+02  0.33641675442E+03  0.10100000352E+00 0. -1.
</event>
<event>
 5   0  0.4420645E-02  0.6972352E+03  0.7818609E-02  0.9721972E-01
        2   -1    0    0  501    0  0.00000000000E+00  0.00000000000E+00  0.10497487390E+04  0.10497487390E+04  0.25500000920E-02 0. -1.
       -2   -1    0    0    0  501  0.00000000000E+00  0.00000000000E+00 -0.11577458722E+03  0.11577458725E+03  0.25500000920E-02 0.  1.
    10030    2    1    2    0    0  0.00000000000E+00  0.00000000000E+00  0.93397415176E+03  0.11655233262E+04  0.69723518834E+03 0.  0.
        5    1    3    3  502    0 -0.21450063027E+03 -0.17138971005E+03  0.10796583541E+03  0.29506552613E+03  0.46999998093E+01 0.  1.
       -5    1    3    3    0  502  0.21450063027E+03  0.17138971005E+03  0.82600831635E+03  0.87045780011E+03  0.46999998093E+01 0. -1.
</event>
<event>
 5   0  0.2758681E-02  0.7062999E+03  0.7818609E-02  0.9706519E-01
       -1   -1    0    0    0  501  0.00000000000E+00  0.00000000000E+00  0.44875213689E+03  0.44875213692E+03  0.50400001928E-02 0.  1.
        1   -1    0    0  501    0  0.00000000000E+00  0.00000000000E+00 -0.27791482413E+03  0.27791482417E+03  0.50400001928E-02 0. -1.
    10030    2    1    2    0    0  0.00000000000E+00  0.00000000000E+00  0.17083731277E+03  0.72666696110E+03  0.70629985482E+03 0.  0.
        3    1    3    3  502    0  0.26430170479E+02  0.90946299601E+02 -0.26460513387E+03  0.28104389407E+03  0.10100000352E+00 0. -1.
       -3    1    3    3    0  502 -0.26430170479E+02 -0.90946299601E+02  0.43544244664E+03  0.44562306702E+03  0.10100000352E+00 0.  1.
</event>
<event>
 5   0  0.2750139E-02  0.7080563E+03  0.7818609E-02  0.9703553E-01
       -1   -1    0    0    0  501  0.00000000000E+00  0.00000000000E+00  0.22878592281E+03  0.22878592287E+03  0.50400001928E-02 0. -1.
        1   -1    0    0  501    0  0.00000000000E+00  0.00000000000E+00 -0.54783062687E+03  0.54783062689E+03  0.50400001928E-02 0.  1.
    10030    2    1    2    0    0  0.00000000000E+00  0.00000000000E+00 -0.31904470405E+03  0.77661654976E+03  0.70805631285E+03 0.  0.
        2    1    3    3  502    0  0.18700843051E+03 -0.72600723888E+02 -0.47947488200E+03  0.51974915168E+03  0.25500000920E-02 0.  1.
       -2    1    3    3    0  502 -0.18700843051E+03  0.72600723888E+02  0.16043017795E+03  0.25686739808E+03  0.25500000920E-02 0. -1.
</event>
<event>
 5   0  0.2750139E-02  0.6953070E+03  0.7818609E-02  0.9725292E-01
       -1   -1    0    0    0  501  0.00000000000E+00  0.00000000000E+00  0.18904804133E+04  0.18904804133E+04  0.50400001928E-02 0.  1.
        1   -1    0    0  501    0  0.00000000000E+00  0.00000000000E+00 -0.63932408832E+02  0.63932409031E+02  0.50400001928E-02 0. -1.
    10030    2    1    2    0    0  0.00000000000E+00  0.00000000000E+00  0.18265480045E+04  0.19544128224E+04  0.69530703110E+03 0.  0.
        2    1    3    3  502    0 -0.67593322148E+02  0.20544027419E+03  0.16783680093E+04  0.16922451767E+04  0.25500000920E-02 0.  1.
       -2    1    3    3    0  502  0.67593322148E+02 -0.20544027419E+03  0.14817999525E+03  0.26216764571E+03  0.25500000920E-02 0. -1.
</event>
<event>
 5   0  0.4365492E-02  0.6982277E+03  0.7818609E-02  0.9720268E-01
       -2   -1    0    0    0  501  0.00000000000E+00  0.00000000000E+00  0.14818097703E+03  0.14818097705E+03  0.25500000920E-02 0.  1.
        2   -1    0    0  501    0  0.00000000000E+00  0.00000000000E+00 -0.82251091303E+03  0.82251091303E+03  0.25500000920E-02 0. -1.
    10030    2    1    2    0    0  0.00000000000E+00  0.00000000000E+00 -0.67432993600E+03  0.97069189008E+03  0.69822767267E+03 0.  0.
        4    1    3    3  502    0  0.34939181244E+02  0.28953530643E+03 -0.60395523295E+03  0.67068247059E+03  0.12699999809E+01 0. -1.
       -4    1    3    3    0  502 -0.34939181244E+02 -0.28953530643E+03 -0.70374703054E+02  0.30000941949E+03  0.12699999809E+01 0.  1.
</event>
<event>
 5   0  0.1784625E-02  0.6994120E+03  0.7818609E-02  0.9718238E-01
       -3   -1    0    0    0  501  0.00000000000E+00  0.00000000000E+00  0.14807674421E+03  0.14807677865E+03  0.10100000352E+00 0. -1.
        3   -1    0    0  501    0  0.00000000000E+00  0.00000000000E+00 -0.82588431731E+03  0.82588432349E+03  0.10100000352E+00 0.  1.
    10030    2    1    2    0    0  0.00000000000E+00  0.00000000000E+00 -0.67780757311E+03  0.97396110214E+03  0.69941198326E+03 0.  0.
        5    1    3    3  502    0  0.34041536186E+03 -0.70572841715E+02 -0.28663154432E+03  0.45060279269E+03  0.46999998093E+01 0. -1.
       -5    1    3    3    0  502 -0.34041536186E+03  0.70572841715E+02 -0.39117602879E+03  0.52335830945E+03  0.46999998093E+01 0.  1.
</event>
<event>
 5   0  0.2777999E-02  0.6928377E+03  0.7818609E-02  0.9729560E-01
       -1   -1    0    0    0  501  0.00000000000E+00  0.00000000000E+00  0.28178262019E+03  0.28178262023E+03  0.50400001928E-02 0. -1.
        1   -1    0    0  501    0  0.00000000000E+00  0.00000000000E+00 -0.42588155698E+03  0.42588155701E+03  0.50400001928E-02 0.  1.
    10030    2    1    2    0    0  0.00000000000E+00  0.00000000000E+00 -0.14409893679E+03  0.70766417724E+03  0.69283770406E+03 0.  0.
        5    1    3    3  502    0  0.18113665177E+03 -0.24144667136E+03 -0.24561814540E+03  0.38917521128E+03  0.46999998093E+01 0.  1.
       -5    1    3    3    0  502 -0.18113665177E+03  0.24144667136E+03  0.10151920861E+03  0.31848896596E+03  0.46999998093E+01 0. -1.
</event>
<event>
 5   0  0.4420645E-02  0.7190496E+03  0.7818609E-02  0.9685198E-01
       -2   -1    0    0    0  501  0.00000000000E+00  0.00000000000E+00  0.15747588603E+03  0.15747588605E+03  0.25500000920E-02 0. -1.
        2   -1    0    0  501    0  0.00000000000E+00  0.00000000000E+00 -0.82081195250E+03  0.82081195250E+03  0.25500000920E-02 0.  1.
    10030    2    1    2    0    0  0.00000000000E+00  0.00000000000E+00 -0.66333606647E+03  0.97828783855E+03  0.71904962136E+03 0.  0.
        5    1    3    3  502    0 -0.29416752295E+03 -0.20524134569E+03 -0.29897403926E+03  0.46697548938E+03  0.46999998093E+01 0. -1.
       -5    1    3    3    0  502  0.29416752295E+03  0.20524134569E+03 -0.36436202721E+03  0.51131234917E+03  0.46999998093E+01 0.  1.
</event>
<event>
 5   0  0.2750139E-02  0.7104805E+03  0.7818609E-02  0.9699475E-01
       -1   -1    0    0    0  501  0.00000000000E+00  0.00000000000E+00  0.10415432003E+03  0.10415432016E+03  0.50400001928E-02 0. -1.
        1   -1    0    0  501    0  0.00000000000E+00  0.00000000000E+00 -0.12116216419E+04  0.12116216419E+04  0.50400001928E-02 0.  1.
    10030    2    1    2    0    0  0.00000000000E+00  0.00000000000E+00 -0.11074673219E+04  0.13157759621E+04  0.71048048063E+03 0.  0.
        2    1    3    3  502    0  0.50540552865E+02 -0.33017751413E+03 -0.32977687672E+03  0.46938718213E+03  0.25500000920E-02 0. -1.
       -2    1    3    3    0  502 -0.50540552865E+02  0.33017751413E+03 -0.77769044517E+03  0.84638877996E+03  0.25500000920E-02 0.  1.
</event>
<event>
 5   0  0.1784625E-02  0.7071257E+03  0.7818609E-02  0.9705123E-01
       -3   -1    0    0    0  501  0.00000000000E+00  0.00000000000E+00  0.31672979896E+03  0.31672981506E+03  0.10100000352E+00 0.  1.
        3   -1    0    0  501    0  0.00000000000E+00  0.00000000000E+00 -0.39467929645E+03  0.39467930937E+03  0.10100000352E+00 0. -1.
    10030    2    1    2    0    0  0.00000000000E+00  0.00000000000E+00 -0.77949497495E+02  0.71140912443E+03  0.70712574424E+03 0.  0.
        3    1    3    3  502    0  0.22047286881E+03 -0.13693658507E+03  0.20257706877E+03  0.32923759385E+03  0.10100000352E+00 0.  1.
       -3    1    3    3    0  502 -0.22047286881E+03  0.13693658507E+03 -0.28052656626E+03  0.38217153059E+03  0.10100000352E+00 0. -1.
</event>
<event>
 5   0  0.4526837E-02  0.7028260E+03  0.7818609E-02  0.9712412E-01
        2   -1    0    0  501    0  0.00000000000E+00  0.00000000000E+00  0.19467439141E+04  0.19467439141E+04  0.25500000920E-02 0. -1.
       -2   -1    0    0    0  501  0.00000000000E+00  0.00000000000E+00 -0.63434689139E+02  0.63434689190E+02  0.25500000920E-02 0.  1.
    10030    2    1    2    0    0  0.00000000000E+00  0.00000000000E+00  0.18833092250E+04  0.20101786033E+04  0.70282599575E+03 0.  0.
        1    1    3    3  502    0 -0.34906839297E+03 -0.38703378867E+02  0.90728526859E+03  0.97288912685E+03  0.50400001928E-02 0. -1.
       -1    1    3    3    0  502  0.34906839297E+03  0.38703378867E+02  0.97602395637E+03  0.10372894764E+04  0.50400001928E-02 0.  1.
</event>
<event>
 5   0  0.2758681E-02  0.7006535E+03  0.7818609E-02  0.9716115E-01
        1   -1    0    0  501    0  0.00000000000E+00  0.00000000000E+00  0.60038864017E+03  0.60038864019E+03  0.50400001928E-02 0.  1.
       -1   -1    0    0    0  501  0.00000000000E+00  0.00000000000E+00 -0.20441563515E+03  0.20441563522E+03  0.50400001928E-02 0. -1.
    10030    2    1    2    0    0  0.00000000000E+00  0.00000000000E+00  0.39597300501E+03  0.80480427540E+03  0.70065348141E+03 0.  0.
        3    1    3    3  502    0  0.98866396641E+02 -0.33467465479E+03  0.16263638229E+03  0.38500947000E+03  0.10100000352E+00 0. -1.
       -3    1    3    3    0  502 -0.98866396641E+02  0.33467465479E+03  0.23333662272E+03  0.41979480541E+03  0.10100000352E+00 0.  1.
</event>
<event>
 5   0  0.1784625E-02  0.6977865E+03  0.7818609E-02  0.9721025E-01
       -4   -1    0    0    0  501  0.00000000000E+00  0.00000000000E+00  0.59052896812E+03  0.59053033376E+03  0.12699999809E+01 0.  1.
        4   -1    0    0  501    0  0.00000000000E+00  0.00000000000E+00 -0.20612770652E+03  0.20613161886E+03  0.12699999809E+01 0. -1.
    10030    2    1    2    0    0  0.00000000000E+00  0.00000000000E+00  0.38440126160E+03  0.79666195262E+03  0.69778645504E+03 0.  0.
        4    1    3    3  502    0 -0.10888876646E+03  0.30399441791E+03  0.34304104268E+03  0.47111372241E+03  0.12699999809E+01 0. -1.
       -4    1    3    3    0  502  0.10888876646E+03 -0.30399441791E+03  0.41360218916E+02  0.32554823021E+03  0.12699999809E+01 0.  1.
</event>
<event>
 5   0  0.4503289E-02  0.6976746E+03  0.7818609E-02  0.9721217E-01
       -2   -1    0    0    0  501  0.00000000000E+00  0.00000000000E+00  0.26154714346E+03  0.26154714348E+03  0.25500000920E-02 0.  1.
        2   -1    0    0  501    0  0.00000000000E+00  0.00000000000E+00 -0.46526020006E+03  0.46526020007E+03  0.25500000920E-02 0. -1.
    10030    2    1    2    0    0  0.00000000000E+00  0.00000000000E+00 -0.20371305660E+03  0.72680734354E+03  0.69767464136E+03 0.  0.
        2    1    3    3  502    0 -0.14429703349E+03 -0.27119950684E+03  0.70322497507E+02  0.31514450661E+03  0.25500000920E-02 0.  1.
       -2    1    3    3    0  502  0.14429703349E+03  0.27119950684E+03 -0.27403555410E+03  0.41166283693E+03  0.25500000920E-02 0. -1.
</event>
<event>
 5   0  0.4503289E-02  0.7083188E+03  0.7818609E-02  0.9703111E-01
       -2   -1    0    0    0  501  0.00000000000E+00  0.00000000000E+00  0.51578704606E+03  0.51578704607E+03  0.25500000920E-02 0.  1.
        2   -1    0    0  501    0  0.00000000000E+00  0.00000000000E+00 -0.24317961082E+03  0.24317961084E+03  0.25500000920E-02 0. -1.
    10030    2    1    2    0    0  0.00000000000E+00  0.00000000000E+00  0.27260743524E+03  0.75896665690E+03  0.70831883537E+03 0.  0.
        2    1    3    3  502    0  0.21701325167E+03  0.10914205365E+03 -0.13984967521E+03  0.28029390100E+03  0.25500000920E-02 0. -1.
       -2    1    3    3    0  502 -0.21701325167E+03 -0.10914205365E+03  0.41245711045E+03  0.47867275590E+03  0.25500000920E-02 0.  1.
</event>
<event>
 5   0  0.4365492E-02  0.6645625E+03  0.7818609E-02  0.9779831E-01
        2   -1    0    0  501    0  0.00000000000E+00  0.00000000000E+00  0.85270595905E+03  0.85270595905E+03  0.25500000920E-02 0.  1.
       -2   -1    0    0    0  501  0.00000000000E+00  0.00000000000E+00 -0.12948287188E+03  0.12948287191E+03  0.25500000920E-02 0. -1.
    10030    2    1    2    0    0  0.00000000000E+00  0.00000000000E+00  0.72322308717E+03  0.98218883096E+03  0.66456246196E+03 0.  0.
        4    1    3    3  502    0  0.11365137768E+03  0.21663008558E+03  0.69394937697E+03  0.73580743427E+03  0.12699999809E+01 0.  1.
       -4    1    3    3    0  502 -0.11365137768E+03 -0.21663008558E+03  0.29273710195E+02  0.24638139669E+03  0.12699999809E+01 0. -1.
</event>
<event>
 5   0  0.4503289E-02  0.7338011E+03  0.7818609E-02  0.9661112E-01
        2   -1    0    0  501    0  0.00000000000E+00  0.00000000000E+00  0.15758787496E+04  0.15758787496E+04  0.25500000920E-02 0.  1.
       -2   -1    0    0    0  501  0.00000000000E+00  0.00000000000E+00 -0.85422829571E+02  0.85422829609E+02  0.25500000920E-02 0. -1.
    10030    2    1    2    0    0  0.00000000000E+00  0.00000000000E+00  0.14904559200E+04  0.16613015792E+04  0.73380112261E+03 0.  0.
        2    1    3    3  502    0  0.27053229702E+03  0.17740754856E+03  0.11370634347E+04  0.11821905162E+04  0.25500000920E-02 0.  1.
       -2    1    3    3    0  502 -0.27053229702E+03 -0.17740754856E+03  0.35339248529E+03  0.47911106299E+03  0.25500000920E-02 0. -1.
</event>
<event>
 5   0  0.4503289E-02  0.6870669E+03  0.7818609E-02  0.9739609E-01
        2   -1    0    0  501    0  0.00000000000E+00  0.00000000000E+00  0.13623442611E+04  0.13623442611E+04  0.25500000920E-02 0. -1.
       -2   -1    0    0    0  501  0.00000000000E+00  0.00000000000E+00 -0.86626578552E+02  0.86626578589E+02  0.25500000920E-02 0.  1.
    10030    2    1    2    0    0  0.00000000000E+00  0.00000000000E+00  0.12757176825E+04  0.14489708397E+04  0.68706687353E+03 0.  0.
        2    1    3    3  502    0 -0.13199880020E+03  0.56555673185E+02  0.12960082504E+04  0.13039400341E+04  0.25500000920E-02 0. -1.
       -2    1    3    3    0  502  0.13199880020E+03 -0.56555673185E+02 -0.20290567837E+02  0.14503080560E+03  0.25500000920E-02 0.  1.
</event>
<event>
 5   0  0.4299912E-02  0.6215248E+03  0.7818609E-02  0.9861728E-01
        2   -1    0    0  501    0  0.00000000000E+00  0.00000000000E+00  0.49922654322E+03  0.49922654323E+03  0.25500000920E-02 0.  1.
       -2   -1    0    0    0  501  0.00000000000E+00  0.00000000000E+00 -0.19344580376E+03  0.19344580378E+03  0.25500000920E-02 0. -1.
    10030    2    1    2    0    0  0.00000000000E+00  0.00000000000E+00  0.30578073946E+03  0.69267234701E+03  0.62152483432E+03 0.  0.
        3    1    3    3  502    0 -0.29113771978E+02 -0.15614561586E+03  0.45056972330E+03  0.47774695271E+03  0.10100000352E+00 0.  1.
       -3    1    3    3    0  502  0.29113771978E+02  0.15614561586E+03 -0.14478898384E+03  0.21492539429E+03  0.10100000352E+00 0. -1.
</event>
<event>
 5   0  0.2750139E-02  0.7146393E+03  0.7818609E-02  0.9692519E-01
       -1   -1    0    0    0  501  0.00000000000E+00  0.00000000000E+00  0.21686048054E+03  0.21686048060E+03  0.50400001928E-02 0.  1.
        1   -1    0    0  501    0  0.00000000000E+00  0.00000000000E+00 -0.58875334558E+03  0.58875334560E+03  0.50400001928E-02 0. -1.
    10030    2    1    2    0    0  0.00000000000E+00  0.00000000000E+00 -0.37189286504E+03  0.80561382620E+03  0.71463930335E+03 0.  0.
        2    1    3    3  502    0  0.19536608020E+03  0.28548663377E+03 -0.28681823423E+03  0.44937203167E+03  0.25500000920E-02 0.  1.
       -2    1    3    3    0  502 -0.19536608020E+03 -0.28548663377E+03 -0.85074630814E+02  0.35624179453E+03  0.25500000920E-02 0. -1.
</event>
<event>
 5   0  0.2751729E-02  0.6955805E+03  0.7818609E-02  0.9724820E-01
       -1   -1    0    0    0  501  0.00000000000E+00  0.00000000000E+00  0.33048052721E+03  0.33048052724E+03  0.50400001928E-02 0.  1.
        1   -1    0    0  501    0  0.00000000000E+00  0.00000000000E+00 -0.36600657390E+03  0.36600657394E+03  0.50400001928E-02 0. -1.
    10030    2    1    2    0    0  0.00000000000E+00  0.00000000000E+00 -0.35526046698E+02  0.69648710118E+03  0.69558046416E+03 0.  0.
        1    1    3    3  502    0  0.33012967683E+03  0.99812915060E+02 -0.62652517557E+02  0.35053325024E+03  0.50400001928E-02 0.  1.
       -1    1    3    3    0  502 -0.33012967683E+03 -0.99812915060E+02  0.27126470859E+02  0.34595385095E+03  0.50400001928E-02 0. -1.
</event>
<event>
 5   0  0.2758681E-02  0.6863455E+03  0.7818609E-02  0.9740872E-01
       -1   -1    0    0    0  501  0.00000000000E+00  0.00000000000E+00  0.15779512375E+03  0.15779512383E+03  0.50400001928E-02 0.  1.
        1   -1    0    0  501    0  0.00000000000E+00  0.00000000000E+00 -0.74633201902E+03  0.74633201904E+03  0.50400001928E-02 0. -1.
    10030    2    1    2    0    0  0.00000000000E+00  0.00000000000E+00 -0.58853689527E+03  0.90412714287E+03  0.68634554954E+03 0.  0.
        3    1    3    3  502    0 -0.10543552206E+03 -0.15292719545E+03  0.85847206703E+02  0.20462924893E+03  0.10100000352E+00 0.  1.
       -3    1    3    3    0  502  0.10543552206E+03  0.15292719545E+03 -0.67438410198E+03  0.69949789394E+03  0.10100000352E+00 0. -1.
</event>
<event>
 5   0  0.1784625E-02  0.7070020E+03  0.7818609E-02  0.9705332E-01
       -3   -1    0    0    0  501  0.00000000000E+00  0.00000000000E+00  0.31630624148E+03  0.31630625760E+03  0.10100000352E+00 0. -1.
        3   -1    0    0  501    0  0.00000000000E+00  0.00000000000E+00 -0.39506951639E+03  0.39506952930E+03  0.10100000352E+00 0.  1.
    10030    2    1    2    0    0  0.00000000000E+00  0.00000000000E+00 -0.78763274916E+02  0.71137578690E+03  0.70700202031E+03 0.  0.
        1    1    3    3  502    0 -0.80131136570E+01  0.34848636998E+03  0.19769833473E+02  0.34913866356E+03  0.50400001928E-02 0. -1.
       -1    1    3    3    0  502  0.80131136570E+01 -0.34848636998E+03 -0.98533108390E+02  0.36223712334E+03  0.50400001928E-02 0.  1.
</event>
<event>
 5   0  0.2750139E-02  0.7320552E+03  0.7818609E-02  0.9663931E-01
       -1   -1    0    0    0  501  0.00000000000E+00  0.00000000000E+00  0.90003519788E+02  0.90003519929E+02  0.50400001928E-02 0.  1.
        1   -1    0    0  501    0  0.00000000000E+00  0.00000000000E+00 -0.14885662480E+04  0.14885662480E+04  0.50400001928E-02 0. -1.
    10030    2    1    2    0    0  0.00000000000E+00  0.00000000000E+00 -0.13985627282E+04  0.15785697680E+04  0.73205519431E+03 0.  0.
        2    1    3    3  502    0 -0.93053445347E+02  0.17284325923E+03 -0.13654601219E+04  0.13794981263E+04  0.25500000920E-02 0. -1.
       -2    1    3    3    0  502  0.93053445347E+02 -0.17284325923E+03 -0.33102606310E+02  0.19907164164E+03  0.25500000920E-02 0.  1.
</event>
<event>
 5   0  0.2751729E-02  0.6962970E+03  0.7818609E-02  0.9723586E-01
        1   -1    0    0  501    0  0.00000000000E+00  0.00000000000E+00  0.18237527798E+04  0.18237527798E+04  0.50400001928E-02 0.  1.
       -1   -1    0    0    0  501  0.00000000000E+00  0.00000000000E+00 -0.66460423981E+02  0.66460424172E+02  0.50400001928E-02 0. -1.
    10030    2    1    2    0    0  0.00000000000E+00  0.00000000000E+00  0.17572923558E+04  0.18902132040E+04  0.69629701470E+03 0.  0.
        1    1    3    3  502    0  0.18278579392E+03  0.20399516554E+03  0.29526023253E+03  0.40274468211E+03  0.50400001928E-02 0.  1.
       -1    1    3    3    0  502 -0.18278579392E+03 -0.20399516554E+03  0.14620321233E+04  0.14874685219E+04  0.50400001928E-02 0. -1.
</event>
<event>
 5   0  0.4365492E-02  0.5304005E+03  0.7818609E-02  0.1006135E+00
        2   -1    0    0  501    0  0.00000000000E+00  0.00000000000E+00  0.29085595024E+03  0.29085595025E+03  0.25500000920E-02 0.  1.
       -2   -1    0    0    0  501  0.00000000000E+00  0.00000000000E+00 -0.24180756838E+03  0.24180756839E+03  0.25500000920E-02 0. -1.
    10030    2    1    2    0    0  0.00000000000E+00  0.00000000000E+00  0.49048381858E+02  0.53266351864E+03  0.53040049050E+03 0.  0.
        4    1    3    3  502    0 -0.20495047374E+03  0.15380412783E+03  0.93146919888E+02  0.27265063361E+03  0.12699999809E+01 0.  1.
       -4    1    3    3    0  502  0.20495047374E+03 -0.15380412783E+03 -0.44098538030E+02  0.26001288503E+03  0.12699999809E+01 0. -1.
</event>
<event>
 5   0  0.4365492E-02  0.6947363E+03  0.7818609E-02  0.9726276E-01
        2   -1    0    0  501    0  0.00000000000E+00  0.00000000000E+00  0.67570509789E+03  0.67570509789E+03  0.25500000920E-02 0.  1.
       -2   -1    0    0    0  501  0.00000000000E+00  0.00000000000E+00 -0.17857587161E+03  0.17857587163E+03  0.25500000920E-02 0. -1.
    10030    2    1    2    0    0  0.00000000000E+00  0.00000000000E+00  0.49712922628E+03  0.85428096952E+03  0.69473628613E+03 0.  0.
        4    1    3    3  502    0 -0.27762849259E+03  0.75256557260E+02  0.48802060312E+03  0.56648640873E+03  0.12699999809E+01 0.  1.
       -4    1    3    3    0  502  0.27762849259E+03 -0.75256557260E+02  0.91086231576E+01  0.28779456079E+03  0.12699999809E+01 0. -1.
</event>
<event>
 5   0  0.4503289E-02  0.7077109E+03  0.7818609E-02  0.9704136E-01
       -2   -1    0    0    0  501  0.00000000000E+00  0.00000000000E+00  0.16637671818E+03  0.16637671820E+03  0.25500000920E-02 0. -1.
        2   -1    0    0  501    0  0.00000000000E+00  0.00000000000E+00 -0.75259133955E+03  0.75259133956E+03  0.25500000920E-02 0.  1.
    10030    2    1    2    0    0  0.00000000000E+00  0.00000000000E+00 -0.58621462137E+03  0.91896805776E+03  0.70771089357E+03 0.  0.
        2    1    3    3  502    0 -0.10284652228E+03  0.19365507939E+03 -0.65374192338E+03  0.68953477020E+03  0.25500000920E-02 0.  1.
       -2    1    3    3    0  502  0.10284652228E+03 -0.19365507939E+03  0.67527302010E+02  0.22943328756E+03  0.25500000920E-02 0. -1.
</event>
<event>
 5   0  0.2777999E-02  0.6910691E+03  0.7818609E-02  0.9732628E-01
        1   -1    0    0  501    0  0.00000000000E+00  0.00000000000E+00  0.84815985759E+03  0.84815985761E+03  0.50400001928E-02 0.  1.
       -1   -1    0    0    0  501  0.00000000000E+00  0.00000000000E+00 -0.14076841152E+03  0.14076841161E+03  0.50400001928E-02 0. -1.
    10030    2    1    2    0    0  0.00000000000E+00  0.00000000000E+00  0.70739144607E+03  0.98892826922E+03  0.69106907302E+03 0.  0.
        5    1    3    3  502    0 -0.18509375286E+03 -0.62525196069E+02 -0.54087336282E+02  0.20277235372E+03  0.46999998093E+01 0. -1.
       -5    1    3    3    0  502  0.18509375286E+03  0.62525196069E+02  0.76147878236E+03  0.78615591549E+03  0.46999998093E+01 0.  1.
</event>
<event>
 5   0  0.2684924E-02  0.7025736E+03  0.7818609E-02  0.9712841E-01
        1   -1    0    0  501    0  0.00000000000E+00  0.00000000000E+00  0.53776161970E+03  0.53776161972E+03  0.50400001928E-02 0. -1.
       -1   -1    0    0    0  501  0.00000000000E+00  0.00000000000E+00 -0.22947421862E+03  0.22947421868E+03  0.50400001928E-02 0.  1.
    10030    2    1    2    0    0  0.00000000000E+00  0.00000000000E+00  0.30828740107E+03  0.76723583840E+03  0.70257363320E+03 0.  0.
        4    1    3    3  502    0  0.10522465668E+03  0.30485292205E+03  0.20669963440E+01  0.32251111272E+03  0.12699999809E+01 0.  1.
       -4    1    3    3    0  502 -0.10522465668E+03 -0.30485292205E+03  0.30622040473E+03  0.44472472568E+03  0.12699999809E+01 0. -1.
</event>
<event>
 5   0  0.2758681E-02  0.6881875E+03  0.7818609E-02  0.9737649E-01
       -1   -1    0    0    0  501  0.00000000000E+00  0.00000000000E+00  0.18403188841E+03  0.18403188848E+03  0.50400001928E-02 0.  1.
        1   -1    0    0  501    0  0.00000000000E+00  0.00000000000E+00 -0.64336943823E+03  0.64336943825E+03  0.50400001928E-02 0. -1.
    10030    2    1    2    0    0  0.00000000000E+00  0.00000000000E+00 -0.45933754982E+03  0.82740132673E+03  0.68818745325E+03 0.  0.
        3    1    3    3  502    0 -0.33331993575E+03  0.11061314718E+02 -0.33151599325E+03  0.47024184866E+03  0.10100000352E+00 0.  1.
       -3    1    3    3    0  502  0.33331993575E+03 -0.11061314718E+02 -0.12782155656E+03  0.35715947807E+03  0.10100000352E+00 0. -1.
</event>
<event>
 5   0  0.1784625E-02  0.6994786E+03  0.7818609E-02  0.9718124E-01
       -3   -1    0    0    0  501  0.00000000000E+00  0.00000000000E+00  0.13055795835E+03  0.13055799742E+03  0.10100000352E+00 0. -1.
        3   -1    0    0  501    0  0.00000000000E+00  0.00000000000E+00 -0.93688307428E+03  0.93688307973E+03  0.10100000352E+00 0.  1.
    10030    2    1    2    0    0  0.00000000000E+00  0.00000000000E+00 -0.80632511593E+03  0.10674410771E+04  0.69947856336E+03 0.  0.
        4    1    3    3  502    0 -0.88216207231E+00  0.33992923419E+02  0.12802576109E+03  0.13247077208E+03  0.12699999809E+01 0. -1.
       -4    1    3    3    0  502  0.88216207231E+00 -0.33992923419E+02 -0.93435087703E+03  0.93497030506E+03  0.12699999809E+01 0.  1.
</event>
<event>
 5   0  0.2684924E-02  0.6861570E+03  0.7818609E-02  0.9741203E-01
       -1   -1    0    0    0  501  0.00000000000E+00  0.00000000000E+00  0.11856778896E+03  0.11856778907E+03  0.50400001928E-02 0. -1.
        1   -1    0    0  501    0  0.00000000000E+00  0.00000000000E+00 -0.99270526320E+03  0.99270526321E+03  0.50400001928E-02 0.  1.
    10030    2    1    2    0    0  0.00000000000E+00  0.00000000000E+00 -0.87413747424E+03  0.11112730523E+04  0.68615703221E+03 0.  0.
        4    1    3    3  502    0  0.93612701649E+01 -0.81765574837E+02 -0.97647735506E+03  0.97994024331E+03  0.12699999809E+01 0.  1.
       -4    1    3    3    0  502 -0.93612701649E+01  0.81765574837E+02  0.10233988082E+03  0.13133280897E+03  0.12699999809E+01 0. -1.
</event>
<event>
 5   0  0.2750139E-02  0.7066234E+03  0.7818609E-02  0.9705972E-01
       -1   -1    0    0    0  501  0.00000000000E+00  0.00000000000E+00  0.31543623989E+03  0.31543623993E+03  0.50400001928E-02 0. -1.
        1   -1    0    0  501    0  0.00000000000E+00  0.00000000000E+00 -0.39573498321E+03  0.39573498324E+03  0.50400001928E-02 0.  1.
    10030    2    1    2    0    0  0.00000000000E+00  0.00000000000E+00 -0.80298743316E+02  0.71117122317E+03  0.70662339367E+03 0.  0.
        2    1    3    3  502    0  0.27292982585E+03 -0.60419441226E+02  0.17731524124E+03  0.33103155967E+03  0.25500000920E-02 0. -1.
       -2    1    3    3    0  502 -0.27292982585E+03  0.60419441226E+02 -0.25761398456E+03  0.38013966350E+03  0.25500000920E-02 0.  1.
</event>
<event>
 5   0  0.4526837E-02  0.7148747E+03  0.7818609E-02  0.9692127E-01
       -2   -1    0    0    0  501  0.00000000000E+00  0.00000000000E+00  0.92133003074E+02  0.92133003109E+02  0.25500000920E-02 0. -1.
        2   -1    0    0  501    0  0.00000000000E+00  0.00000000000E+00 -0.13867067934E+04  0.13867067934E+04  0.25500000920E-02 0.  1.
    10030    2    1    2    0    0  0.00000000000E+00  0.00000000000E+00 -0.12945737903E+04  0.14788397965E+04  0.71487470591E+03 0.  0.
        1    1    3    3  502    0 -0.23357005317E+03  0.24508105559E+03 -0.41013964583E+03  0.53182160792E+03  0.50400001928E-02 0. -1.
       -1    1    3    3    0  502  0.23357005317E+03 -0.24508105559E+03 -0.88443414449E+03  0.94701818859E+03  0.50400001928E-02 0.  1.
</event>
<event>
 5   0  0.4503289E-02  0.7160244E+03  0.7818609E-02  0.9690214E-01
       -2   -1    0    0    0  501  0.00000000000E+00  0.00000000000E+00  0.88419457531E+02  0.88419457568E+02  0.25500000920E-02 0. -1.
        2   -1    0    0  501    0  0.00000000000E+00  0.00000000000E+00 -0.14495985826E+04  0.14495985826E+04  0.25500000920E-02 0.  1.
    10030    2    1    2    0    0  0.00000000000E+00  0.00000000000E+00 -0.13611791250E+04  0.15380180401E+04  0.71602435807E+03 0.  0.
        2    1    3    3  502    0 -0.23556023532E+03  0.29103761354E+02 -0.12563050716E+04  0.12785296580E+04  0.25500000920E-02 0.  1.
       -2    1    3    3    0  502  0.23556023532E+03 -0.29103761354E+02 -0.10487405344E+03  0.25948838216E+03  0.25500000920E-02 0. -1.
</event>
<event>
 5   0  0.4299912E-02  0.6954209E+03  0.7818609E-02  0.9725095E-01
        2   -1    0    0  501    0  0.00000000000E+00  0.00000000000E+00  0.29393919116E+03  0.29393919117E+03  0.25500000920E-02 0. -1.
       -2   -1    0    0    0  501  0.00000000000E+00  0.00000000000E+00 -0.41131825368E+03  0.41131825369E+03  0.25500000920E-02 0.  1.
    10030    2    1    2    0    0  0.00000000000E+00  0.00000000000E+00 -0.11737906252E+03  0.70525744486E+03  0.69542089357E+03 0.  0.
        3    1    3    3  502    0 -0.51395378804E+02 -0.21737470630E+03  0.21155539581E+03  0.30765068438E+03  0.10100000352E+00 0. -1.
       -3    1    3    3    0  502  0.51395378804E+02  0.21737470630E+03 -0.32893445833E+03  0.39760676048E+03  0.10100000352E+00 0.  1.
</event>
<event>
 5   0  0.4420645E-02  0.7264154E+03  0.7818609E-02  0.9673095E-01
        2   -1    0    0  501    0  0.00000000000E+00  0.00000000000E+00  0.19350547429E+04  0.19350547429E+04  0.25500000920E-02 0.  1.
       -2   -1    0    0    0  501  0.00000000000E+00  0.00000000000E+00 -0.68173704364E+02  0.68173704411E+02  0.25500000920E-02 0. -1.
    10030    2    1    2    0    0  0.00000000000E+00  0.00000000000E+00  0.18668810385E+04  0.20032284473E+04  0.72641544592E+03 0.  0.
        5    1    3    3  502    0 -0.31311192664E+03  0.18268984476E+03  0.87282765007E+03  0.94512689873E+03  0.46999998093E+01 0.  1.
       -5    1    3    3    0  502  0.31311192664E+03 -0.18268984476E+03  0.99405338844E+03  0.10581015486E+04  0.46999998093E+01 0. -1.
</event>
<event>
 5   0  0.1784625E-02  0.7055261E+03  0.7818609E-02  0.9707828E-01
        3   -1    0    0  501    0  0.00000000000E+00  0.00000000000E+00  0.13687259579E+03  0.13687263306E+03  0.10100000352E+00 0.  1.
       -3   -1    0    0    0  501  0.00000000000E+00  0.00000000000E+00 -0.90917949943E+03  0.90917950504E+03  0.10100000352E+00 0. -1.
    10030    2    1    2    0    0  0.00000000000E+00  0.00000000000E+00 -0.77230690364E+03  0.10460521381E+04  0.70552613149E+03 0.  0.
        3    1    3    3  502    0 -0.23648495913E+03  0.49544769657E+02 -0.76723324680E+03  0.80437968976E+03  0.10100000352E+00 0. -1.
       -3    1    3    3    0  502  0.23648495913E+03 -0.49544769657E+02 -0.50736568336E+01  0.24167244834E+03  0.10100000352E+00 0.  1.
</event>
<event>
 5   0  0.2758681E-02  0.7103092E+03  0.7818609E-02  0.9699763E-01
        1   -1    0    0  501    0  0.00000000000E+00  0.00000000000E+00  0.32723274143E+03  0.32723274147E+03  0.50400001928E-02 0. -1.
       -1   -1    0    0    0  501  0.00000000000E+00  0.00000000000E+00 -0.38545890435E+03  0.38545890438E+03  0.50400001928E-02 0.  1.
    10030    2    1    2    0    0  0.00000000000E+00  0.00000000000E+00 -0.58226162920E+02  0.71269164584E+03  0.71030915523E+03 0.  0.
        3    1    3    3  502    0 -0.71866782899E+02  0.11440433440E+03 -0.35866807757E+03  0.38327012182E+03  0.10100000352E+00 0.  1.
       -3    1    3    3    0  502  0.71866782899E+02 -0.11440433440E+03  0.30044191465E+03  0.32942152403E+03  0.10100000352E+00 0. -1.
</event>
<event>
 5   0  0.2750139E-02  0.6853369E+03  0.7818609E-02  0.9742642E-01
       -1   -1    0    0    0  501  0.00000000000E+00  0.00000000000E+00  0.10415141562E+03  0.10415141574E+03  0.50400001928E-02 0.  1.
        1   -1    0    0  501    0  0.00000000000E+00  0.00000000000E+00 -0.11274129598E+04  0.11274129598E+04  0.50400001928E-02 0. -1.
    10030    2    1    2    0    0  0.00000000000E+00  0.00000000000E+00 -0.10232615442E+04  0.12315643755E+04  0.68533686850E+03 0.  0.
        2    1    3    3  502    0  0.11381282378E+03 -0.20618601532E+03 -0.95892509900E+03  0.98742259305E+03  0.25500000920E-02 0. -1.
       -2    1    3    3    0  502 -0.11381282378E+03  0.20618601532E+03 -0.64336445155E+02  0.24414178248E+03  0.25500000920E-02 0.  1.
</event>
<event>
 5   0  0.2758681E-02  0.6898206E+03  0.7818609E-02  0.9734800E-01
        1   -1    0    0  501    0  0.00000000000E+00  0.00000000000E+00  0.24811023755E+03  0.24811023760E+03  0.50400001928E-02 0. -1.
       -1   -1    0    0    0  501  0.00000000000E+00  0.00000000000E+00 -0.47947691145E+03  0.47947691148E+03  0.50400001928E-02 0.  1.
    10030    2    1    2    0    0  0.00000000000E+00  0.00000000000E+00 -0.23136667391E+03  0.72758714908E+03  0.68982064459E+03 0.  0.
        3    1    3    3  502    0 -0.18855950446E+03 -0.56805536668E+02 -0.41434954992E+03  0.45876695111E+03  0.10100000352E+00 0.  1.
       -3    1    3    3    0  502  0.18855950446E+03  0.56805536668E+02  0.18298287601E+03  0.26882019796E+03  0.10100000352E+00 0. -1.
</event>
<event>
 5   0  0.4503289E-02  0.6851314E+03  0.7818609E-02  0.9743003E-01
       -2   -1    0    0    0  501  0.00000000000E+00  0.00000000000E+00  0.57702542690E+03  0.57702542691E+03  0.25500000920E-02 0. -1.
        2   -1    0    0  501    0  0.00000000000E+00  0.00000000000E+00 -0.20337279204E+03  0.20337279206E+03  0.25500000920E-02 0.  1.
    10030    2    1    2    0    0  0.00000000000E+00  0.00000000000E+00  0.37365263486E+03  0.78039821896E+03  0.68513143894E+03 0.  0.
        2    1    3    3  502    0  0.16977306240E+03  0.34560364079E+02  0.52344169431E+03  0.55136967529E+03  0.25500000920E-02 0. -1.
       -2    1    3    3    0  502 -0.16977306240E+03 -0.34560364079E+02 -0.14978905945E+03  0.22902854368E+03  0.25500000920E-02 0.  1.
</event>
<event>
 5   0  0.4526837E-02  0.5882586E+03  0.7818609E-02  0.9930070E-01
        2   -1    0    0  501    0  0.00000000000E+00  0.00000000000E+00  0.71633441729E+03  0.71633441730E+03  0.25500000920E-02 0. -1.
       -2   -1    0    0    0  501  0.00000000000E+00  0.00000000000E+00 -0.12077047814E+03  0.12077047816E+03  0.25500000920E-02 0.  1.
    10030    2    1    2    0    0  0.00000000000E+00  0.00000000000E+00  0.59556393915E+03  0.83710489546E+03  0.58825861692E+03 0.  0.
        1    1    3    3  502    0  0.21691246247E+03 -0.12796450613E+03  0.81566358263E+02  0.26472438881E+03  0.50400001928E-02 0.  1.
       -1    1    3    3    0  502 -0.21691246247E+03  0.12796450613E+03  0.51399758089E+03  0.57238050665E+03  0.50400001928E-02 0. -1.
</event>
<event>
 5   0  0.4526837E-02  0.6973557E+03  0.7818609E-02  0.9721765E-01
        2   -1    0    0  501    0  0.00000000000E+00  0.00000000000E+00  0.10788975945E+04  0.10788975945E+04  0.25500000920E-02 0.  1.
       -2   -1    0    0    0  501  0.00000000000E+00  0.00000000000E+00 -0.11268560699E+03  0.11268560702E+03  0.25500000920E-02 0. -1.
    10030    2    1    2    0    0  0.00000000000E+00  0.00000000000E+00  0.96621198750E+03  0.11915832015E+04  0.69735566345E+03 0.  0.
        1    1    3    3  502    0  0.22385577376E+03 -0.25814661686E+03  0.60179905126E+03  0.69203553475E+03  0.50400001928E-02 0.  1.
       -1    1    3    3    0  502 -0.22385577376E+03  0.25814661686E+03  0.36441293624E+03  0.49954766676E+03  0.50400001928E-02 0. -1.
</event>
<event>
 5   0  0.4299912E-02  0.6994690E+03  0.7818609E-02  0.9718141E-01
        2   -1    0    0  501    0  0.00000000000E+00  0.00000000000E+00  0.83606880498E+03  0.83606880499E+03  0.25500000920E-02 0.  1.
       -2   -1    0    0    0  501  0.00000000000E+00  0.00000000000E+00 -0.14629684810E+03  0.14629684812E+03  0.25500000920E-02 0. -1.
    10030    2    1    2    0    0  0.00000000000E+00  0.00000000000E+00  0.68977195688E+03  0.98236565310E+03  0.69946902998E+03 0.  0.
        3    1    3    3  502    0  0.22955399705E+03  0.16902021351E+03  0.62944240911E+03  0.69098525797E+03  0.10100000352E+00 0.  1.
       -3    1    3    3    0  502 -0.22955399705E+03 -0.16902021351E+03  0.60329547773E+02  0.29138039514E+03  0.10100000352E+00 0. -1.
</event>
<event>
 5   0  0.2750139E-02  0.6877769E+03  0.7818609E-02  0.9738367E-01
        1   -1    0    0  501    0  0.00000000000E+00  0.00000000000E+00  0.56288520398E+03  0.56288520401E+03  0.50400001928E-02 0.  1.
       -1   -1    0    0    0  501  0.00000000000E+00  0.00000000000E+00 -0.21009483564E+03  0.21009483570E+03  0.50400001928E-02 0. -1.
    10030    2    1    2    0    0  0.00000000000E+00  0.00000000000E+00  0.35279036835E+03  0.77298003970E+03  0.68777692443E+03 0.  0.
        2    1    3    3  502    0 -0.14282212483E+03  0.80964994836E+02 -0.16320649220E+03  0.23149481384E+03  0.25500000920E-02 0. -1.
       -2    1    3    3    0  502  0.14282212483E+03 -0.80964994836E+02  0.51599686055E+03  0.54148522587E+03  0.25500000920E-02 0.  1.
</event>
<event>
 5   0  0.4299912E-02  0.6842906E+03  0.7818609E-02  0.9744481E-01
        2   -1    0    0  501    0  0.00000000000E+00  0.00000000000E+00  0.41266074908E+03  0.41266074908E+03  0.25500000920E-02 0. -1.
       -2   -1    0    0    0  501  0.00000000000E+00  0.00000000000E+00 -0.28367950499E+03  0.28367950501E+03  0.25500000920E-02 0.  1.
    10030    2    1    2    0    0  0.00000000000E+00  0.00000000000E+00  0.12898124408E+03  0.69634025409E+03  0.68429057289E+03 0.  0.
        3    1    3    3  502    0  0.14593970069E+03  0.30545677451E+03  0.14007065590E+02  0.33881919282E+03  0.10100000352E+00 0.  1.
       -3    1    3    3    0  502 -0.14593970069E+03 -0.30545677451E+03  0.11497417849E+03  0.35752106127E+03  0.10100000352E+00 0. -1.
</event>
<event>
 5   0  0.2750139E-02  0.7063475E+03  0.7818609E-02  0.9706438E-01
       -1   -1    0    0    0  501  0.00000000000E+00  0.00000000000E+00  0.22165115971E+03  0.22165115977E+03  0.50400001928E-02 0.  1.
        1   -1    0    0  501    0  0.00000000000E+00  0.00000000000E+00 -0.56273877941E+03  0.56273877943E+03  0.50400001928E-02 0. -1.
    10030    2    1    2    0    0  0.00000000000E+00  0.00000000000E+00 -0.34108761970E+03  0.78438993920E+03  0.70634751533E+03 0.  0.
        2    1    3    3  502    0  0.25003247114E+03  0.18852044543E+03 -0.35191568507E+03  0.47106352478E+03  0.25500000920E-02 0. -1.
       -2    1    3    3    0  502 -0.25003247114E+03 -0.18852044543E+03  0.10828065376E+02  0.31332641443E+03  0.25500000920E-02 0.  1.
</event>
<event>
 5   0  0.4420645E-02  0.6977979E+03  0.7818609E-02  0.9721006E-01
       -2   -1    0    0    0  501  0.00000000000E+00  0.00000000000E+00  0.86621356055E+02  0.86621356092E+02  0.25500000920E-02 0.  1.
        2   -1    0    0  501    0  0.00000000000E+00  0.00000000000E+00 -0.14053170374E+04  0.14053170374E+04  0.25500000920E-02 0. -1.
    10030    2    1    2    0    0  0.00000000000E+00  0.00000000000E+00 -0.13186956813E+04  0.14919383935E+04  0.69779787186E+03 0.  0.
        5    1    3    3  502    0  0.33836294921E+03  0.77791446237E+02 -0.73239913748E+03  0.81053783445E+03  0.46999998093E+01 0. -1.
       -5    1    3    3    0  502 -0.33836294921E+03 -0.77791446237E+02 -0.58629654384E+03  0.68140055901E+03  0.46999998093E+01 0.  1.
</event>
<event>
 5   0  0.4299912E-02  0.7004633E+03  0.7818609E-02  0.9716440E-01
       -2   -1    0    0    0  501  0.00000000000E+00  0.00000000000E+00  0.23373583863E+03  0.23373583865E+03  0.25500000920E-02 0. -1.
        2   -1    0    0  501    0  0.00000000000E+00  0.00000000000E+00 -0.52478994196E+03  0.52478994196E+03  0.25500000920E-02 0.  1.
    10030    2    1    2    0    0  0.00000000000E+00  0.00000000000E+00 -0.29105410332E+03  0.75852578061E+03  0.70046332437E+03 0.  0.
        3    1    3    3  502    0 -0.14006067076E+03 -0.13669206764E+03 -0.46005156759E+03  0.49994916531E+03  0.10100000352E+00 0.  1.
       -3    1    3    3    0  502  0.14006067076E+03  0.13669206764E+03  0.16899746427E+03  0.25857661530E+03  0.10100000352E+00 0. -1.
</event>
<event>
 5   0  0.2750139E-02  0.6947636E+03  0.7818609E-02  0.9726229E-01
        1   -1    0    0  501    0  0.00000000000E+00  0.00000000000E+00  0.17131842375E+04  0.17131842375E+04  0.50400001928E-02 0.  1.
       -1   -1    0    0    0  501  0.00000000000E+00  0.00000000000E+00 -0.70438500924E+02  0.70438501104E+02  0.50400001928E-02 0. -1.
    10030    2    1    2    0    0  0.00000000000E+00  0.00000000000E+00  0.16427457366E+04  0.17836227386E+04  0.69476364230E+03 0.  0.
        2    1    3    3  502    0 -0.20006783205E+03  0.12797509470E+03  0.14722034168E+04  0.14912369573E+04  0.25500000920E-02 0.  1.
       -2    1    3    3    0  502  0.20006783205E+03 -0.12797509470E+03  0.17054231976E+03  0.29238578132E+03  0.25500000920E-02 0. -1.
</event>
<event>
 5   0  0.2750139E-02  0.6960631E+03  0.7818609E-02  0.9723989E-01
        1   -1    0    0  501    0  0.00000000000E+00  0.00000000000E+00  0.15980009214E+03  0.15980009222E+03  0.50400001928E-02 0.  1.
       -1   -1    0    0    0  501  0.00000000000E+00  0.00000000000E+00 -0.75798430852E+03  0.75798430854E+03  0.50400001928E-02 0. -1.
    10030    2    1    2    0    0  0.00000000000E+00  0.00000000000E+00 -0.59818421638E+03  0.91778440076E+03  0.69606310745E+03 0.  0.
        2    1    3    3  502    0 -0.26473729387E+03 -0.18183138419E+03 -0.12230263297E+03  0.34366614771E+03  0.25500000920E-02 0.  1.
       -2    1    3    3    0  502  0.26473729387E+03  0.18183138419E+03 -0.47588158342E+03  0.57411825305E+03  0.25500000920E-02 0. -1.
</event>
<event>
 5   0  0.1784625E-02  0.7008559E+03  0.7818609E-02  0.9715770E-01
        3   -1    0    0  501    0  0.00000000000E+00  0.00000000000E+00  0.63477511872E+03  0.63477512675E+03  0.10100000352E+00 0.  1.
       -3   -1    0    0    0  501  0.00000000000E+00  0.00000000000E+00 -0.19345393431E+03  0.19345396068E+03  0.10100000352E+00 0. -1.
    10030    2    1    2    0    0  0.00000000000E+00  0.00000000000E+00  0.44132118441E+03  0.82822908743E+03  0.70085592918E+03 0.  0.
        1    1    3    3  502    0  0.14342934667E+03  0.14615695916E+03 -0.11538987546E+03  0.23505032989E+03  0.50400001928E-02 0. -1.
       -1    1    3    3    0  502 -0.14342934667E+03 -0.14615695916E+03  0.55671105986E+03  0.59317875754E+03  0.50400001928E-02 0.  1.
</event>
<event>
 5   0  0.2777999E-02  0.6576846E+03  0.7818609E-02  0.9792466E-01
        1   -1    0    0  501    0  0.00000000000E+00  0.00000000000E+00  0.65217275482E+03  0.65217275484E+03  0.50400001928E-02 0. -1.
       -1   -1    0    0    0  501  0.00000000000E+00  0.00000000000E+00 -0.16581074118E+03  0.16581074125E+03  0.50400001928E-02 0.  1.
    10030    2    1    2    0    0  0.00000000000E+00  0.00000000000E+00  0.48636201364E+03  0.81798349609E+03  0.65768456844E+03 0.  0.
        5    1    3    3  502    0 -0.11732528734E+03 -0.19961153700E+03 -0.47184975334E+02  0.23634403028E+03  0.46999998093E+01 0.  1.
       -5    1    3    3    0  502  0.11732528734E+03  0.19961153700E+03  0.53354698898E+03  0.58163946582E+03  0.46999998093E+01 0. -1.
</event>
<event>
 5   0  0.4503289E-02  0.6968609E+03  0.7818609E-02  0.9722616E-01
       -2   -1    0    0    0  501  0.00000000000E+00  0.00000000000E+00  0.33346974732E+03  0.33346974733E+03  0.25500000920E-02 0. -1.
        2   -1    0    0  501    0  0.00000000000E+00  0.00000000000E+00 -0.36406235903E+03  0.36406235904E+03  0.25500000920E-02 0.  1.
    10030    2    1    2    0    0  0.00000000000E+00  0.00000000000E+00 -0.30592611710E+02  0.69753210637E+03  0.69686091261E+03 0.  0.
        2    1    3    3  502    0 -0.20373139130E+03 -0.14602588922E+02  0.26725924549E+03  0.33637363112E+03  0.25500000920E-02 0. -1.
       -2    1    3    3    0  502  0.20373139130E+03  0.14602588922E+02 -0.29785185720E+03  0.36115847525E+03  0.25500000920E-02 0.  1.
</event>
<event>
 5   0  0.4503289E-02  0.6967052E+03  0.7818609E-02  0.9722883E-01
        2   -1    0    0  501    0  0.00000000000E+00  0.00000000000E+00  0.91863783631E+03  0.91863783631E+03  0.25500000920E-02 0. -1.
       -2   -1    0    0    0  501  0.00000000000E+00  0.00000000000E+00 -0.13209724122E+03  0.13209724125E+03  0.25500000920E-02 0.  1.
    10030    2    1    2    0    0  0.00000000000E+00  0.00000000000E+00  0.78654059508E+03  0.10507350776E+04  0.69670517115E+03 0.  0.
        2    1    3    3  502    0  0.92302999229E+02  0.23573519869E+03  0.32388858862E+02  0.25522532349E+03  0.25500000920E-02 0.  1.
       -2    1    3    3    0  502 -0.92302999229E+02 -0.23573519869E+03  0.75415173622E+03  0.79550975407E+03  0.25500000920E-02 0. -1.
</event>
<event>
 5   0  0.2758681E-02  0.7462734E+03  0.7818609E-02  0.9641215E-01
        1   -1    0    0  501    0  0.00000000000E+00  0.00000000000E+00  0.43012101190E+03  0.43012101193E+03  0.50400001928E-02 0.  1.
       -1   -1    0    0    0  501  0.00000000000E+00  0.00000000000E+00 -0.32370187823E+03  0.32370187827E+03  0.50400001928E-02 0. -1.
    10030    2    1    2    0    0  0.00000000000E+00  0.00000000000E+00  0.10641913367E+03  0.75382289020E+03  0.74627335325E+03 0.  0.
        3    1    3    3  502    0 -0.19829808730E+03 -0.28755873231E+03 -0.79338376831E+02  0.35819930791E+03  0.10100000352E+00 0. -1.
       -3    1    3    3    0  502  0.19829808730E+03  0.28755873231E+03  0.18575751051E+03  0.39562358229E+03  0.10100000352E+00 0.  1.
</event>
<event>
 5   0  0.4365492E-02  0.6894225E+03  0.7818609E-02  0.9735494E-01
        2   -1    0    0  501    0  0.00000000000E+00  0.00000000000E+00  0.32346187182E+03  0.32346187183E+03  0.25500000920E-02 0.  1.
       -2   -1    0    0    0  501  0.00000000000E+00  0.00000000000E+00 -0.36735654288E+03  0.36735654288E+03  0.25500000920E-02 0. -1.
    10030    2    1    2    0    0  0.00000000000E+00  0.00000000000E+00 -0.43894671053E+02  0.69081841472E+03  0.68942246842E+03 0.  0.
        4    1    3    3  502    0 -0.97790394982E+02  0.27252761373E+03 -0.20938212329E+03  0.35731883249E+03  0.12699999809E+01 0. -1.
       -4    1    3    3    0  502  0.97790394982E+02 -0.27252761373E+03  0.16548745224E+03  0.33349958223E+03  0.12699999809E+01 0.  1.
</event>
<event>
 5   0  0.2751729E-02  0.6997642E+03  0.7818609E-02  0.9717636E-01
        1   -1    0    0  501    0  0.00000000000E+00  0.00000000000E+00  0.69173295915E+03  0.69173295917E+03  0.50400001928E-02 0.  1.
       -1   -1    0    0    0  501  0.00000000000E+00  0.00000000000E+00 -0.17697215005E+03  0.17697215012E+03  0.50400001928E-02 0. -1.
    10030    2    1    2    0    0  0.00000000000E+00  0.00000000000E+00  0.51476080911E+03  0.86870510929E+03  0.69976415764E+03 0.  0.
        1    1    3    3  502    0 -0.82438975269E+02 -0.32190989962E+02  0.67760804341E+03  0.68336308431E+03  0.50400001928E-02 0.  1.
       -1    1    3    3    0  502  0.82438975269E+02  0.32190989962E+02 -0.16284723430E+03  0.18534202498E+03  0.50400001928E-02 0. -1.
</event>
<event>
 5   0  0.4503289E-02  0.7023410E+03  0.7818609E-02  0.9713237E-01
        2   -1    0    0  501    0  0.00000000000E+00  0.00000000000E+00  0.85699112568E+03  0.85699112568E+03  0.25500000920E-02 0.  1.
       -2   -1    0    0    0  501  0.00000000000E+00  0.00000000000E+00 -0.14389962840E+03  0.14389962843E+03  0.25500000920E-02 0. -1.
    10030    2    1    2    0    0  0.00000000000E+00  0.00000000000E+00  0.71309149728E+03  0.10008907541E+04  0.70234095578E+03 0.  0.
        2    1    3    3  502    0  0.28724546531E+03 -0.17490993128E+03  0.50059333054E+03  0.60307306688E+03  0.25500000920E-02 0.  1.
       -2    1    3    3    0  502 -0.28724546531E+03  0.17490993128E+03  0.21249816673E+03  0.39781768723E+03  0.25500000920E-02 0. -1.
</event>
<event>
 5   0  0.2758681E-02  0.6923618E+03  0.7818609E-02  0.9730384E-01
        1   -1    0    0  501    0  0.00000000000E+00  0.00000000000E+00  0.14659214290E+03  0.14659214299E+03  0.50400001928E-02 0. -1.
       -1   -1    0    0    0  501  0.00000000000E+00  0.00000000000E+00 -0.81751453553E+03  0.81751453554E+03  0.50400001928E-02 0.  1.
    10030    2    1    2    0    0  0.00000000000E+00  0.00000000000E+00 -0.67092239262E+03  0.96410667853E+03  0.69236177730E+03 0.  0.
        3    1    3    3  502    0 -0.28396841510E+03  0.78776039534E+02 -0.82512559300E+02  0.30602623715E+03  0.10100000352E+00 0. -1.
       -3    1    3    3    0  502  0.28396841510E+03 -0.78776039534E+02 -0.58840983332E+03  0.65808044138E+03  0.10100000352E+00 0.  1.
</event>
<event>
 5   0  0.1784625E-02  0.6960948E+03  0.7818609E-02  0.9723934E-01
       -3   -1    0    0    0  501  0.00000000000E+00  0.00000000000E+00  0.13349020530E+04  0.13349020568E+04  0.10100000352E+00 0. -1.
        3   -1    0    0  501    0  0.00000000000E+00  0.00000000000E+00 -0.90745955723E+02  0.90746011930E+02  0.10100000352E+00 0.  1.
    10030    2    1    2    0    0  0.00000000000E+00  0.00000000000E+00  0.12441560973E+04  0.14256480687E+04  0.69609483660E+03 0.  0.
        3    1    3    3  502    0 -0.15161542131E+03  0.31129352496E+03  0.54978101863E+03  0.64973076986E+03  0.10100000352E+00 0.  1.
       -3    1    3    3    0  502  0.15161542131E+03 -0.31129352496E+03  0.69437507863E+03  0.77591729887E+03  0.10100000352E+00 0. -1.
</event>
<event>
 5   0  0.4526837E-02  0.7039988E+03  0.7818609E-02  0.9710418E-01
        2   -1    0    0  501    0  0.00000000000E+00  0.00000000000E+00  0.21663254830E+04  0.21663254830E+04  0.25500000920E-02 0. -1.
       -2   -1    0    0    0  501  0.00000000000E+00  0.00000000000E+00 -0.57195275562E+02  0.57195275618E+02  0.25500000920E-02 0.  1.
    10030    2    1    2    0    0  0.00000000000E+00  0.00000000000E+00  0.21091302075E+04  0.22235207587E+04  0.70399881541E+03 0.  0.
        1    1    3    3  502    0  0.12963168645E+03 -0.30697001498E+03  0.14128555497E+04  0.14516183274E+04  0.50400001928E-02 0.  1.
       -1    1    3    3    0  502 -0.12963168645E+03  0.30697001498E+03  0.69627465781E+03  0.77190243124E+03  0.50400001928E-02 0. -1.
</event>
<event>
 5   0  0.4420645E-02  0.7048821E+03  0.7818609E-02  0.9708919E-01
       -2   -1    0    0    0  501  0.00000000000E+00  0.00000000000E+00  0.68620195069E+02  0.68620195116E+02  0.25500000920E-02 0. -1.
        2   -1    0    0  501    0  0.00000000000E+00  0.00000000000E+00 -0.18101770801E+04  0.18101770801E+04  0.25500000920E-02 0.  1.
    10030    2    1    2    0    0  0.00000000000E+00  0.00000000000E+00 -0.17415568850E+04  0.18787972752E+04  0.70488213026E+03 0.  0.
        5    1    3    3  502    0  0.20851659418E+03 -0.11256655592E+03 -0.17550980124E+03  0.29491724245E+03  0.46999998093E+01 0. -1.
       -5    1    3    3    0  502 -0.20851659418E+03  0.11256655592E+03 -0.15660470838E+04  0.15838800327E+04  0.46999998093E+01 0.  1.
</event>
<event>
 5   0  0.2751729E-02  0.6924839E+03  0.7818609E-02  0.9730173E-01
       -1   -1    0    0    0  501  0.00000000000E+00  0.00000000000E+00  0.33964020713E+03  0.33964020717E+03  0.50400001928E-02 0. -1.
        1   -1    0    0  501    0  0.00000000000E+00  0.00000000000E+00 -0.35297202936E+03  0.35297202939E+03  0.50400001928E-02 0.  1.
    10030    2    1    2    0    0  0.00000000000E+00  0.00000000000E+00 -0.13331822227E+02  0.69261223656E+03  0.69248391516E+03 0.  0.
        1    1    3    3  502    0  0.12575815261E+03  0.64504726435E+02  0.30947416992E+03  0.34022086143E+03  0.50400001928E-02 0. -1.
       -1    1    3    3    0  502 -0.12575815261E+03 -0.64504726435E+02 -0.32280599214E+03  0.35239137513E+03  0.50400001928E-02 0.  1.
</event>
<event>
 5   0  0.2750139E-02  0.6634992E+03  0.7818609E-02  0.9781773E-01
       -1   -1    0    0    0  501  0.00000000000E+00  0.00000000000E+00  0.10324531445E+04  0.10324531445E+04  0.50400001928E-02 0. -1.
        1   -1    0    0  501    0  0.00000000000E+00  0.00000000000E+00 -0.10659834730E+03  0.10659834742E+03  0.50400001928E-02 0.  1.
    10030    2    1    2    0    0  0.00000000000E+00  0.00000000000E+00  0.92585479717E+03  0.11390514919E+04  0.66349920556E+03 0.  0.
        2    1    3    3  502    0  0.15214213200E+03 -0.16565331893E+03  0.44278193626E+02  0.22923526963E+03  0.25500000920E-02 0.  1.
       -2    1    3    3    0  502 -0.15214213200E+03  0.16565331893E+03  0.88157660354E+03  0.90981622228E+03  0.25500000920E-02 0. -1.
</event>
<event>
 5   0  0.2684924E-02  0.6986260E+03  0.7818609E-02  0.9719585E-01
       -1   -1    0    0    0  501  0.00000000000E+00  0.00000000000E+00  0.11448336708E+03  0.11448336720E+03  0.50400001928E-02 0. -1.
        1   -1    0    0  501    0  0.00000000000E+00  0.00000000000E+00 -0.10658279722E+04  0.10658279722E+04  0.50400001928E-02 0.  1.
    10030    2    1    2    0    0  0.00000000000E+00  0.00000000000E+00 -0.95134460508E+03  0.11803113394E+04  0.69862600885E+03 0.  0.
        4    1    3    3  502    0 -0.17720503257E+03 -0.29702398585E+03 -0.55832011896E+03  0.65677076661E+03  0.12699999809E+01 0. -1.
       -4    1    3    3    0  502  0.17720503257E+03  0.29702398585E+03 -0.39302448612E+03  0.52354057276E+03  0.12699999809E+01 0.  1.
</event>
<event>
 5   0  0.4503289E-02  0.6950475E+03  0.7818609E-02  0.9725739E-01
        2   -1    0    0  501    0  0.00000000000E+00  0.00000000000E+00  0.47933164048E+03  0.47933164048E+03  0.25500000920E-02 0.  1.
       -2   -1    0    0    0  501  0.00000000000E+00  0.00000000000E+00 -0.25196071867E+03  0.25196071868E+03  0.25500000920E-02 0. -1.
    10030    2    1    2    0    0  0.00000000000E+00  0.00000000000E+00  0.22737092181E+03  0.73129235917E+03  0.69504746492E+03 0.  0.
        2    1    3    3  502    0 -0.17379043068E+03 -0.27990612269E+03 -0.26336693200E+01  0.32948063303E+03  0.25500000920E-02 0. -1.
       -2    1    3    3    0  502  0.17379043068E+03  0.27990612269E+03  0.23000459113E+03  0.40181172614E+03  0.25500000920E-02 0.  1.
</event>
<event>
 5   0  0.4503289E-02  0.7479122E+03  0.7818609E-02  0.9638632E-01
       -2   -1    0    0    0  501  0.00000000000E+00  0.00000000000E+00  0.19765074122E+03  0.19765074123E+03  0.25500000920E-02 0.  1.
        2   -1    0    0  501    0  0.00000000000E+00  0.00000000000E+00 -0.70752658863E+03  0.70752658863E+03  0.25500000920E-02 0. -1.
    10030    2    1    2    0    0  0.00000000000E+00  0.00000000000E+00 -0.50987584741E+03  0.90517732986E+03  0.74791217314E+03 0.  0.
        2    1    3    3  502    0 -0.12644542007E+02  0.43621986822E+02 -0.70417622399E+03  0.70563936725E+03  0.25500000920E-02 0. -1.
       -2    1    3    3    0  502  0.12644542007E+02 -0.43621986822E+02  0.19430037658E+03  0.19953796261E+03  0.25500000920E-02 0.  1.
</event>
<event>
 5   0  0.4365492E-02  0.6992976E+03  0.7818609E-02  0.9718434E-01
        2   -1    0    0  501    0  0.00000000000E+00  0.00000000000E+00  0.23203004727E+03  0.23203004728E+03  0.25500000920E-02 0. -1.
       -2   -1    0    0    0  501  0.00000000000E+00  0.00000000000E+00 -0.52688987610E+03  0.52688987610E+03  0.25500000920E-02 0.  1.
    10030    2    1    2    0    0  0.00000000000E+00  0.00000000000E+00 -0.29485982883E+03  0.75891992338E+03  0.69929759863E+03 0.  0.
        4    1    3    3  502    0  0.57684828802E+02  0.18218091539E+03  0.17034061155E+03  0.25599797314E+03  0.12699999809E+01 0. -1.
       -4    1    3    3    0  502 -0.57684828802E+02 -0.18218091539E+03 -0.46520044039E+03  0.50292195025E+03  0.12699999809E+01 0.  1.
</event>
<event>
 5   0  0.1784625E-02  0.7327473E+03  0.7818609E-02  0.9662813E-01
       -3   -1    0    0    0  501  0.00000000000E+00  0.00000000000E+00  0.26983711951E+03  0.26983713842E+03  0.10100000352E+00 0.  1.
        3   -1    0    0  501    0  0.00000000000E+00  0.00000000000E+00 -0.49744696298E+03  0.49744697323E+03  0.10100000352E+00 0. -1.
    10030    2    1    2    0    0  0.00000000000E+00  0.00000000000E+00 -0.22760984347E+03  0.76728411165E+03  0.73274734196E+03 0.  0.
        5    1    3    3  502    0  0.28537964519E+02 -0.15000926083E+03  0.23489262776E+03  0.28020319471E+03  0.46999998093E+01 0.  1.
       -5    1    3    3    0  502 -0.28537964519E+02  0.15000926083E+03 -0.46250247123E+03  0.48708091694E+03  0.46999998093E+01 0. -1.
</event>
<event>
 5   0  0.4420645E-02  0.6894668E+03  0.7818609E-02  0.9735417E-01
        2   -1    0    0  501    0  0.00000000000E+00  0.00000000000E+00  0.34731729541E+03  0.34731729542E+03  0.25500000920E-02 0. -1.
       -2   -1    0    0    0  501  0.00000000000E+00  0.00000000000E+00 -0.34216871801E+03  0.34216871802E+03  0.25500000920E-02 0.  1.
    10030    2    1    2    0    0  0.00000000000E+00  0.00000000000E+00  0.51485774002E+01  0.68948601343E+03  0.68946679026E+03 0.  0.
        5    1    3    3  502    0 -0.12647636884E+03  0.49197700058E+02 -0.31429782574E+03  0.34237683746E+03  0.46999998093E+01 0.  1.
       -5    1    3    3    0  502  0.12647636884E+03 -0.49197700058E+02  0.31944640314E+03  0.34710917597E+03  0.46999998093E+01 0. -1.
</event>
<event>
 5   0  0.4503289E-02  0.6950023E+03  0.7818609E-02  0.9725817E-01
       -2   -1    0    0    0  501  0.00000000000E+00  0.00000000000E+00  0.33545316175E+03  0.33545316176E+03  0.25500000920E-02 0. -1.
        2   -1    0    0  501    0  0.00000000000E+00  0.00000000000E+00 -0.35998188333E+03  0.35998188334E+03  0.25500000920E-02 0.  1.
    10030    2    1    2    0    0  0.00000000000E+00  0.00000000000E+00 -0.24528721581E+02  0.69543504509E+03  0.69500233364E+03 0.  0.
        2    1    3    3  502    0  0.26357864436E+02 -0.21564430539E+03  0.25912370702E+03  0.33814538148E+03  0.25500000920E-02 0. -1.
       -2    1    3    3    0  502 -0.26357864436E+02  0.21564430539E+03 -0.28365242861E+03  0.35728966362E+03  0.25500000920E-02 0.  1.
</event>
<event>
 5   0  0.4526837E-02  0.7102115E+03  0.7818609E-02  0.9699927E-01
        2   -1    0    0  501    0  0.00000000000E+00  0.00000000000E+00  0.26102106480E+03  0.26102106482E+03  0.25500000920E-02 0. -1.
       -2   -1    0    0    0  501  0.00000000000E+00  0.00000000000E+00 -0.48310315926E+03  0.48310315926E+03  0.25500000920E-02 0.  1.
    10030    2    1    2    0    0  0.00000000000E+00  0.00000000000E+00 -0.22208209445E+03  0.74412422408E+03  0.71021152073E+03 0.  0.
        1    1    3    3  502    0 -0.75704086010E+02  0.34651396605E+03 -0.12909958307E+03  0.37745163886E+03  0.50400001928E-02 0.  1.
       -1    1    3    3    0  502  0.75704086010E+02 -0.34651396605E+03 -0.92982511385E+02  0.36667258522E+03  0.50400001928E-02 0. -1.
</event>
<event>
 5   0  0.4365492E-02  0.7107117E+03  0.7818609E-02  0.9699087E-01
       -2   -1    0    0    0  501  0.00000000000E+00  0.00000000000E+00  0.16527927314E+03  0.16527927316E+03  0.25500000920E-02 0. -1.
        2   -1    0    0  501    0  0.00000000000E+00  0.00000000000E+00 -0.76402663314E+03  0.76402663314E+03  0.25500000920E-02 0.  1.
    10030    2    1    2    0    0  0.00000000000E+00  0.00000000000E+00 -0.59874736000E+03  0.92930590630E+03  0.71071166192E+03 0.  0.
        4    1    3    3  502    0 -0.25585157389E+03 -0.19449780743E+03 -0.10112795036E+03  0.33692417574E+03  0.12699999809E+01 0. -1.
       -4    1    3    3    0  502  0.25585157389E+03  0.19449780743E+03 -0.49761940964E+03  0.59238173056E+03  0.12699999809E+01 0.  1.
</event>
<event>
 5   0  0.4365492E-02  0.6984375E+03  0.7818609E-02  0.9719908E-01
       -2   -1    0    0    0  501  0.00000000000E+00  0.00000000000E+00  0.98187151036E+02  0.98187151069E+02  0.25500000920E-02 0.  1.
        2   -1    0    0  501    0  0.00000000000E+00  0.00000000000E+00 -0.12420540566E+04  0.12420540566E+04  0.25500000920E-02 0. -1.
    10030    2    1    2    0    0  0.00000000000E+00  0.00000000000E+00 -0.11438669055E+04  0.13402412076E+04  0.69843753986E+03 0.  0.
        4    1    3    3  502    0 -0.13477205327E+03  0.31643644450E+03 -0.45589698139E+03  0.57108598327E+03  0.12699999809E+01 0. -1.
       -4    1    3    3    0  502  0.13477205327E+03 -0.31643644450E+03 -0.68796992414E+03  0.76915522437E+03  0.12699999809E+01 0.  1.
</event>
<event>
 5   0  0.4420645E-02  0.6917827E+03  0.7818609E-02  0.9731389E-01
       -2   -1    0    0    0  501  0.00000000000E+00  0.00000000000E+00  0.59273393135E+03  0.59273393135E+03  0.25500000920E-02 0. -1.
        2   -1    0    0  501    0  0.00000000000E+00  0.00000000000E+00 -0.20184577467E+03  0.20184577468E+03  0.25500000920E-02 0.  1.
    10030    2    1    2    0    0  0.00000000000E+00  0.00000000000E+00  0.39088815668E+03  0.79457970603E+03  0.69178273916E+03 0.  0.
        5    1    3    3  502    0 -0.13441202572E+03 -0.16097109319E+03 -0.12045244005E+03  0.24188667969E+03  0.46999998093E+01 0.  1.
       -5    1    3    3    0  502  0.13441202572E+03  0.16097109319E+03  0.51134059673E+03  0.55269302634E+03  0.46999998093E+01 0. -1.
</event>
<event>
 5   0  0.2750139E-02  0.7040284E+03  0.7818609E-02  0.9710368E-01
        1   -1    0    0  501    0  0.00000000000E+00  0.00000000000E+00  0.25348221230E+03  0.25348221235E+03  0.50400001928E-02 0.  1.
       -1   -1    0    0    0  501  0.00000000000E+00  0.00000000000E+00 -0.48884693931E+03  0.48884693934E+03  0.50400001928E-02 0. -1.
    10030    2    1    2    0    0  0.00000000000E+00  0.00000000000E+00 -0.23536472701E+03  0.74232915169E+03  0.70402841898E+03 0.  0.
        2    1    3    3  502    0 -0.13071745097E+03 -0.30543330112E+03  0.49979175964E+01  0.33226726081E+03  0.25500000920E-02 0.  1.
       -2    1    3    3    0  502  0.13071745097E+03  0.30543330112E+03 -0.24036264461E+03  0.41006189088E+03  0.25500000920E-02 0. -1.
</event>
<event>
 5   0  0.4420645E-02  0.6960635E+03  0.7818609E-02  0.9723988E-01
       -2   -1    0    0    0  501  0.00000000000E+00  0.00000000000E+00  0.11960482996E+03  0.11960482998E+03  0.25500000920E-02 0. -1.
        2   -1    0    0  501    0  0.00000000000E+00  0.00000000000E+00 -0.10127191407E+04  0.10127191407E+04  0.25500000920E-02 0.  1.
    10030    2    1    2    0    0  0.00000000000E+00  0.00000000000E+00 -0.89311431073E+03  0.11323239707E+04  0.69606350467E+03 0.  0.
        5    1    3    3  502    0  0.21505070030E+03 -0.11669062338E+03 -0.84912698168E+03  0.88368672407E+03  0.46999998093E+01 0.  1.
       -5    1    3    3    0  502 -0.21505070030E+03  0.11669062338E+03 -0.43987329049E+02  0.24863724660E+03  0.46999998093E+01 0. -1.
</event>
<event>
 5   0  0.4299912E-02  0.8444076E+03  0.7818609E-02  0.9497874E-01
        2   -1    0    0  501    0  0.00000000000E+00  0.00000000000E+00  0.13172667239E+04  0.13172667239E+04  0.25500000920E-02 0. -1.
       -2   -1    0    0    0  501  0.00000000000E+00  0.00000000000E+00 -0.13532267479E+03  0.13532267481E+03  0.25500000920E-02 0.  1.
    10030    2    1    2    0    0  0.00000000000E+00  0.00000000000E+00  0.11819440491E+04  0.14525893987E+04  0.84440761839E+03 0.  0.
        3    1    3    3  502    0  0.18637141693E+03 -0.15862786114E+03 -0.85019472428E+00  0.24474034488E+03  0.10100000352E+00 0.  1.
       -3    1    3    3    0  502 -0.18637141693E+03  0.15862786114E+03  0.11827942438E+04  0.12078490538E+04  0.10100000352E+00 0. -1.
</event>
<event>
 5   0  0.4420645E-02  0.6606300E+03  0.7818609E-02  0.9787035E-01
       -2   -1    0    0    0  501  0.00000000000E+00  0.00000000000E+00  0.90748083657E+02  0.90748083692E+02  0.25500000920E-02 0.  1.
        2   -1    0    0  501    0  0.00000000000E+00  0.00000000000E+00 -0.12023175222E+04  0.12023175222E+04  0.25500000920E-02 0. -1.
    10030    2    1    2    0    0  0.00000000000E+00  0.00000000000E+00 -0.11115694385E+04  0.12930656059E+04  0.66063003598E+03 0.  0.
        5    1    3    3  502    0 -0.31035298575E+03  0.10344944037E+03 -0.46683615263E+03  0.57006915885E+03  0.46999998093E+01 0. -1.
       -5    1    3    3    0  502  0.31035298575E+03 -0.10344944037E+03 -0.64473328591E+03  0.72299644704E+03  0.46999998093E+01 0.  1.
</event>
<event>
 5   0  0.2684924E-02  0.6921123E+03  0.7818609E-02  0.9730817E-01
        1   -1    0    0  501    0  0.00000000000E+00  0.00000000000E+00  0.49467075865E+03  0.49467075867E+03  0.50400001928E-02 0. -1.
       -1   -1    0    0    0  501  0.00000000000E+00  0.00000000000E+00 -0.24209006486E+03  0.24209006491E+03  0.50400001928E-02 0.  1.
    10030    2    1    2    0    0  0.00000000000E+00  0.00000000000E+00  0.25258069378E+03  0.73676082359E+03  0.69211234948E+03 0.  0.
        4    1    3    3  502    0  0.10584429469E+03  0.15204688897E+03 -0.18485276618E+03  0.26171249345E+03  0.12699999809E+01 0.  1.
       -4    1    3    3    0  502 -0.10584429469E+03 -0.15204688897E+03  0.43743345996E+03  0.47504833013E+03  0.12699999809E+01 0. -1.
</event>
<event>
 5   0  0.2777999E-02  0.7009185E+03  0.7818609E-02  0.9715663E-01
       -1   -1    0    0    0  501  0.00000000000E+00  0.00000000000E+00  0.12277825185E+03  0.12277825195E+03  0.50400001928E-02 0.  1.
        1   -1    0    0  501    0  0.00000000000E+00  0.00000000000E+00 -0.10003538039E+04  0.10003538039E+04  0.50400001928E-02 0. -1.
    10030    2    1    2    0    0  0.00000000000E+00  0.00000000000E+00 -0.87757555201E+03  0.11231320558E+04  0.70091851547E+03 0.  0.
        5    1    3    3  502    0 -0.17080002942E+03  0.19928820244E+03 -0.66736632783E+02  0.27085846089E+03  0.46999998093E+01 0.  1.
       -5    1    3    3    0  502  0.17080002942E+03 -0.19928820244E+03 -0.81083891923E+03  0.85227359493E+03  0.46999998093E+01 0. -1.
</event>
<event>
 5   0  0.2777999E-02  0.6878824E+03  0.7818609E-02  0.9738182E-01
       -1   -1    0    0    0  501  0.00000000000E+00  0.00000000000E+00  0.19816536154E+03  0.19816536161E+03  0.50400001928E-02 0. -1.
        1   -1    0    0  501    0  0.00000000000E+00  0.00000000000E+00 -0.59695370677E+03  0.59695370679E+03  0.50400001928E-02 0.  1.
    10030    2    1    2    0    0  0.00000000000E+00  0.00000000000E+00 -0.39878834523E+03  0.79511906839E+03  0.68788239448E+03 0.  0.
        5    1    3    3  502    0 -0.18913129541E+03  0.23908415945E+03 -0.38340135516E+03  0.48984749805E+03  0.46999998093E+01 0.  1.
       -5    1    3    3    0  502  0.18913129541E+03 -0.23908415945E+03 -0.15386990063E+02  0.30527157035E+03  0.46999998093E+01 0. -1.
</event>
<event>
 5   0  0.1784625E-02  0.6748262E+03  0.7818609E-02  0.9761278E-01
        3   -1    0    0  501    0  0.00000000000E+00  0.00000000000E+00  0.44835551334E+02  0.44835665094E+02  0.10100000352E+00 0. -1.
       -3   -1    0    0    0  501  0.00000000000E+00  0.00000000000E+00 -0.25392229731E+04  0.25392229751E+04  0.10100000352E+00 0.  1.
    10030    2    1    2    0    0  0.00000000000E+00  0.00000000000E+00 -0.24943874217E+04  0.25840586402E+04  0.67482623403E+03 0.  0.
        4    1    3    3  502    0 -0.81801667607E+02  0.32623548155E+03 -0.13502912684E+04  0.13915492174E+04  0.12699999809E+01 0.  1.
       -4    1    3    3    0  502  0.81801667607E+02 -0.32623548155E+03 -0.11440961534E+04  0.11925094227E+04  0.12699999809E+01 0. -1.
</event>
<event>
 5   0  0.4526837E-02  0.6938214E+03  0.7818609E-02  0.9727857E-01
        2   -1    0    0  501    0  0.00000000000E+00  0.00000000000E+00  0.36802035721E+03  0.36802035722E+03  0.25500000920E-02 0. -1.
       -2   -1    0    0    0  501  0.00000000000E+00  0.00000000000E+00 -0.32701193897E+03  0.32701193898E+03  0.25500000920E-02 0.  1.
    10030    2    1    2    0    0  0.00000000000E+00  0.00000000000E+00  0.41008418242E+02  0.69503229621E+03  0.69382144850E+03 0.  0.
        1    1    3    3  502    0 -0.29816165135E+02 -0.24285850434E+03  0.26685572215E+03  0.36205142357E+03  0.50400001928E-02 0. -1.
       -1    1    3    3    0  502  0.29816165135E+02  0.24285850434E+03 -0.22584730391E+03  0.33298087264E+03  0.50400001928E-02 0.  1.
</event>
<event>
 5   0  0.4526837E-02  0.6718488E+03  0.7818609E-02  0.9766624E-01
        2   -1    0    0  501    0  0.00000000000E+00  0.00000000000E+00  0.28503972731E+03  0.28503972732E+03  0.25500000920E-02 0.  1.
       -2   -1    0    0    0  501  0.00000000000E+00  0.00000000000E+00 -0.39589284567E+03  0.39589284568E+03  0.25500000920E-02 0. -1.
    10030    2    1    2    0    0  0.00000000000E+00  0.00000000000E+00 -0.11085311836E+03  0.68093257300E+03  0.67184875911E+03 0.  0.
        1    1    3    3  502    0  0.43997541632E+02 -0.72493422118E+02  0.27401302853E+03  0.28683483009E+03  0.50400001928E-02 0.  1.
       -1    1    3    3    0  502 -0.43997541632E+02  0.72493422118E+02 -0.38486614689E+03  0.39409774291E+03  0.50400001928E-02 0. -1.
</event>
<event>
 5   0  0.2684924E-02  0.6898356E+03  0.7818609E-02  0.9734774E-01
       -1   -1    0    0    0  501  0.00000000000E+00  0.00000000000E+00  0.54065933370E+03  0.54065933372E+03  0.50400001928E-02 0. -1.
        1   -1    0    0  501    0  0.00000000000E+00  0.00000000000E+00 -0.22004295573E+03  0.22004295579E+03  0.50400001928E-02 0.  1.
    10030    2    1    2    0    0  0.00000000000E+00  0.00000000000E+00  0.32061637797E+03  0.76070228951E+03  0.68983556841E+03 0.  0.
        4    1    3    3  502    0  0.28176984741E+02  0.22906044285E+03 -0.12235233790E+03  0.26121702938E+03  0.12699999809E+01 0.  1.
       -4    1    3    3    0  502 -0.28176984741E+02 -0.22906044285E+03  0.44296871587E+03  0.49948526013E+03  0.12699999809E+01 0. -1.
</event>
<event>
 5   0  0.4503289E-02  0.6287965E+03  0.7818609E-02  0.9847400E-01
        2   -1    0    0  501    0  0.00000000000E+00  0.00000000000E+00  0.54455707232E+03  0.54455707232E+03  0.25500000920E-02 0. -1.
       -2   -1    0    0    0  501  0.00000000000E+00  0.00000000000E+00 -0.18151682672E+03  0.18151682673E+03  0.25500000920E-02 0.  1.
    10030    2    1    2    0    0  0.00000000000E+00  0.00000000000E+00  0.36304024560E+03  0.72607389906E+03  0.62879653861E+03 0.  0.
        2    1    3    3  502    0  0.38474578847E+02 -0.31239831392E+02 -0.17697791975E+03  0.18378630082E+03  0.25500000920E-02 0.  1.
       -2    1    3    3    0  502 -0.38474578847E+02  0.31239831392E+02  0.54001816536E+03  0.54228759824E+03  0.25500000920E-02 0. -1.
</event>
<event>
 5   0  0.2777999E-02  0.6981099E+03  0.7818609E-02  0.9720470E-01
       -1   -1    0    0    0  501  0.00000000000E+00  0.00000000000E+00  0.13411904288E+03  0.13411904297E+03  0.50400001928E-02 0.  1.
        1   -1    0    0  501    0  0.00000000000E+00  0.00000000000E+00 -0.90844193853E+03  0.90844193855E+03  0.50400001928E-02 0. -1.
    10030    2    1    2    0    0  0.00000000000E+00  0.00000000000E+00 -0.77432289566E+03  0.10425609815E+04  0.69810991501E+03 0.  0.
        5    1    3    3  502    0  0.17791003521E+02  0.55593106349E+02 -0.90105378889E+03  0.90295466871E+03  0.46999998093E+01 0. -1.
       -5    1    3    3    0  502 -0.17791003521E+02 -0.55593106349E+02  0.12673089323E+03  0.13960631281E+03  0.46999998093E+01 0.  1.
</event>
<event>
 5   0  0.4420645E-02  0.7033272E+03  0.7818609E-02  0.9711559E-01
       -2   -1    0    0    0  501  0.00000000000E+00  0.00000000000E+00  0.43357730770E+03  0.43357730771E+03  0.25500000920E-02 0.  1.
        2   -1    0    0  501    0  0.00000000000E+00  0.00000000000E+00 -0.28522543029E+03  0.28522543030E+03  0.25500000920E-02 0. -1.
    10030    2    1    2    0    0  0.00000000000E+00  0.00000000000E+00  0.14835187741E+03  0.71880273800E+03  0.70332716187E+03 0.  0.
        5    1    3    3  502    0 -0.23734095231E+03 -0.41293286291E+02  0.33595511968E+03  0.41342931146E+03  0.46999998093E+01 0.  1.
       -5    1    3    3    0  502  0.23734095231E+03  0.41293286291E+02 -0.18760324226E+03  0.30537342655E+03  0.46999998093E+01 0. -1.
</event>
<event>
 5   0  0.4420645E-02  0.6969414E+03  0.7818609E-02  0.9722477E-01
        2   -1    0    0  501    0  0.00000000000E+00  0.00000000000E+00  0.61818207615E+03  0.61818207615E+03  0.25500000920E-02 0. -1.
       -2   -1    0    0    0  501  0.00000000000E+00  0.00000000000E+00 -0.19643375943E+03  0.19643375945E+03  0.25500000920E-02 0.  1.
    10030    2    1    2    0    0  0.00000000000E+00  0.00000000000E+00  0.42174831671E+03  0.81461583560E+03  0.69694140138E+03 0.  0.
        5    1    3    3  502    0 -0.24854081703E+02 -0.30781393097E+03  0.39949893372E+03  0.50496398833E+03  0.46999998093E+01 0. -1.
       -5    1    3    3    0  502  0.24854081703E+02  0.30781393097E+03  0.22249382997E+02  0.30965184727E+03  0.46999998093E+01 0.  1.
</event>
<event>
 5   0  0.2751729E-02  0.6990897E+03  0.7818609E-02  0.9718790E-01
       -1   -1    0    0    0  501  0.00000000000E+00  0.00000000000E+00  0.13729619970E+03  0.13729619979E+03  0.50400001928E-02 0. -1.
        1   -1    0    0  501    0  0.00000000000E+00  0.00000000000E+00 -0.88991260381E+03  0.88991260383E+03  0.50400001928E-02 0.  1.
    10030    2    1    2    0    0  0.00000000000E+00  0.00000000000E+00 -0.75261640411E+03  0.10272088036E+04  0.69908974709E+03 0.  0.
        1    1    3    3  502    0  0.27282282547E+03 -0.62015681398E+02 -0.68432952263E+02  0.28803004672E+03  0.50400001928E-02 0. -1.
       -1    1    3    3    0  502 -0.27282282547E+03  0.62015681398E+02 -0.68418345185E+03  0.73917875689E+03  0.50400001928E-02 0.  1.
</event>
<event>
 5   0  0.2684924E-02  0.6802738E+03  0.7818609E-02  0.9751574E-01
        1   -1    0    0  501    0  0.00000000000E+00  0.00000000000E+00  0.37983804044E+03  0.37983804047E+03  0.50400001928E-02 0.  1.
       -1   -1    0    0    0  501  0.00000000000E+00  0.00000000000E+00 -0.30458536925E+03  0.30458536929E+03  0.50400001928E-02 0. -1.
    10030    2    1    2    0    0  0.00000000000E+00  0.00000000000E+00  0.75252671191E+02  0.68442340977E+03  0.68027379732E+03 0.  0.
        4    1    3    3  502    0 -0.62198597053E+02 -0.75462141887E+02  0.36538690786E+03  0.37824913175E+03  0.12699999809E+01 0.  1.
       -4    1    3    3    0  502  0.62198597053E+02  0.75462141887E+02 -0.29013423667E+03  0.30617427802E+03  0.12699999809E+01 0. -1.
</event>
<event>
 5   0  0.4299912E-02  0.6891192E+03  0.7818609E-02  0.9736023E-01
        2   -1    0    0  501    0  0.00000000000E+00  0.00000000000E+00  0.49389984825E+03  0.49389984825E+03  0.25500000920E-02 0.  1.
       -2   -1    0    0    0  501  0.00000000000E+00  0.00000000000E+00 -0.24037528391E+03  0.24037528392E+03  0.25500000920E-02 0. -1.
    10030    2    1    2    0    0  0.00000000000E+00  0.00000000000E+00  0.25352456434E+03  0.73427513218E+03  0.68911919507E+03 0.  0.
        3    1    3    3  502    0  0.84070303888E+02  0.33407780088E+03  0.13395068297E+03  0.36961951884E+03  0.10100000352E+00 0.  1.
       -3    1    3    3    0  502 -0.84070303888E+02 -0.33407780088E+03  0.11957388137E+03  0.36465561334E+03  0.10100000352E+00 0. -1.
</event>
<event>
 5   0  0.4526837E-02  0.7294104E+03  0.7818609E-02  0.9668218E-01
       -2   -1    0    0    0  501  0.00000000000E+00  0.00000000000E+00  0.11441563400E+03  0.11441563403E+03  0.25500000920E-02 0.  1.
        2   -1    0    0  501    0  0.00000000000E+00  0.00000000000E+00 -0.11625147828E+04  0.11625147828E+04  0.25500000920E-02 0. -1.
    10030    2    1    2    0    0  0.00000000000E+00  0.00000000000E+00 -0.10480991488E+04  0.12769304168E+04  0.72941035343E+03 0.  0.
        1    1    3    3  502    0  0.18830096073E+03  0.99019112248E+02 -0.54722771069E+01  0.21281913035E+03  0.50400001928E-02 0.  1.
       -1    1    3    3    0  502 -0.18830096073E+03 -0.99019112248E+02 -0.10426268717E+04  0.10641112864E+04  0.50400001928E-02 0. -1.
</event>
<event>
 5   0  0.4420645E-02  0.7011907E+03  0.7818609E-02  0.9715198E-01
        2   -1    0    0  501    0  0.00000000000E+00  0.00000000000E+00  0.36699284003E+03  0.36699284003E+03  0.25500000920E-02 0. -1.
       -2   -1    0    0    0  501  0.00000000000E+00  0.00000000000E+00 -0.33493049056E+03  0.33493049057E+03  0.25500000920E-02 0.  1.
    10030    2    1    2    0    0  0.00000000000E+00  0.00000000000E+00  0.32062349466E+02  0.70192333061E+03  0.70119067863E+03 0.  0.
        5    1    3    3  502    0  0.15509213813E+03 -0.69172076698E+02  0.32303819547E+03  0.36498508632E+03  0.46999998093E+01 0. -1.
       -5    1    3    3    0  502 -0.15509213813E+03  0.69172076698E+02 -0.29097584601E+03  0.33693824428E+03  0.46999998093E+01 0.  1.
</event>
<event>
 5   0  0.4420645E-02  0.6977385E+03  0.7818609E-02  0.9721108E-01
       -2   -1    0    0    0  501  0.00000000000E+00  0.00000000000E+00  0.16512626464E+03  0.16512626466E+03  0.25500000920E-02 0. -1.
        2   -1    0    0  501    0  0.00000000000E+00  0.00000000000E+00 -0.73707076044E+03  0.73707076045E+03  0.25500000920E-02 0.  1.
    10030    2    1    2    0    0  0.00000000000E+00  0.00000000000E+00 -0.57194449580E+03  0.90219702511E+03  0.69773846522E+03 0.  0.
        5    1    3    3  502    0  0.13921727333E+03  0.20800919793E+03 -0.60015036013E+03  0.65027057474E+03  0.46999998093E+01 0.  1.
       -5    1    3    3    0  502 -0.13921727333E+03 -0.20800919793E+03  0.28205864326E+02  0.25192645037E+03  0.46999998093E+01 0. -1.
</event>
<event>
 5   0  0.4299912E-02  0.6992694E+03  0.7818609E-02  0.9718482E-01
       -2   -1    0    0    0  501  0.00000000000E+00  0.00000000000E+00  0.37683411710E+03  0.37683411711E+03  0.25500000920E-02 0.  1.
        2   -1    0    0  501    0  0.00000000000E+00  0.00000000000E+00 -0.32439848711E+03  0.32439848712E+03  0.25500000920E-02 0. -1.
    10030    2    1    2    0    0  0.00000000000E+00  0.00000000000E+00  0.52435629997E+02  0.70123260423E+03  0.69926938295E+03 0.  0.
        3    1    3    3  502    0 -0.57612907510E+02 -0.14005206051E+03  0.34223838174E+03  0.37424717354E+03  0.10100000352E+00 0.  1.
       -3    1    3    3    0  502  0.57612907510E+02  0.14005206051E+03 -0.28980275174E+03  0.32698543069E+03  0.10100000352E+00 0. -1.
</event>
<event>
 5   0  0.4365492E-02  0.7057033E+03  0.7818609E-02  0.9707528E-01
       -2   -1    0    0    0  501  0.00000000000E+00  0.00000000000E+00  0.62865393495E+03  0.62865393496E+03  0.25500000920E-02 0.  1.
        2   -1    0    0  501    0  0.00000000000E+00  0.00000000000E+00 -0.19804899106E+03  0.19804899107E+03  0.25500000920E-02 0. -1.
    10030    2    1    2    0    0  0.00000000000E+00  0.00000000000E+00  0.43060494390E+03  0.82670292603E+03  0.70570327348E+03 0.  0.
        4    1    3    3  502    0  0.99960697504E+02  0.10611113971E+03 -0.16111898400E+03  0.21728473237E+03  0.12699999809E+01 0. -1.
       -4    1    3    3    0  502 -0.99960697504E+02 -0.10611113971E+03  0.59172392790E+03  0.60941819366E+03  0.12699999809E+01 0.  1.
</event>
<event>
 5   0  0.2777999E-02  0.6985949E+03  0.7818609E-02  0.9719638E-01
        1   -1    0    0  501    0  0.00000000000E+00  0.00000000000E+00  0.49321166735E+03  0.49321166738E+03  0.50400001928E-02 0. -1.
       -1   -1    0    0    0  501  0.00000000000E+00  0.00000000000E+00 -0.24737592435E+03  0.24737592441E+03  0.50400001928E-02 0.  1.
    10030    2    1    2    0    0  0.00000000000E+00  0.00000000000E+00  0.24583574300E+03  0.74058759179E+03  0.69859485295E+03 0.  0.
        5    1    3    3  502    0 -0.79878592042E+02  0.15678795069E+03  0.44275430748E+03  0.47646250402E+03  0.46999998093E+01 0. -1.
       -5    1    3    3    0  502  0.79878592042E+02 -0.15678795069E+03 -0.19691856448E+03  0.26412508776E+03  0.46999998093E+01 0.  1.
</event>
<event>
 5   0  0.4299912E-02  0.7142401E+03  0.7818609E-02  0.9693185E-01
        2   -1    0    0  501    0  0.00000000000E+00  0.00000000000E+00  0.77017702134E+03  0.77017702135E+03  0.25500000920E-02 0. -1.
       -2   -1    0    0    0  501  0.00000000000E+00  0.00000000000E+00 -0.16559147203E+03  0.16559147205E+03  0.25500000920E-02 0.  1.
    10030    2    1    2    0    0  0.00000000000E+00  0.00000000000E+00  0.60458554932E+03  0.93576849339E+03  0.71424014644E+03 0.  0.
        3    1    3    3  502    0  0.15802427027E+03 -0.28692803592E+03  0.48866436972E+03  0.58829605151E+03  0.10100000352E+00 0. -1.
       -3    1    3    3    0  502 -0.15802427027E+03  0.28692803592E+03  0.11592117960E+03  0.34747244189E+03  0.10100000352E+00 0.  1.
</event>
<event>
 5   0  0.4365492E-02  0.6855477E+03  0.7818609E-02  0.9742272E-01
        2   -1    0    0  501    0  0.00000000000E+00  0.00000000000E+00  0.87813222860E+03  0.87813222861E+03  0.25500000920E-02 0.  1.
       -2   -1    0    0    0  501  0.00000000000E+00  0.00000000000E+00 -0.13379978445E+03  0.13379978448E+03  0.25500000920E-02 0. -1.
    10030    2    1    2    0    0  0.00000000000E+00  0.00000000000E+00  0.74433244415E+03  0.10119320131E+04  0.68554767280E+03 0.  0.
        4    1    3    3  502    0  0.13727338621E+03  0.19732920248E+03  0.73285727307E+03  0.77127439495E+03  0.12699999809E+01 0.  1.
       -4    1    3    3    0  502 -0.13727338621E+03 -0.19732920248E+03  0.11475171086E+02  0.24065761813E+03  0.12699999809E+01 0. -1.
</event>
<event>
 5   0  0.4526837E-02  0.6991271E+03  0.7818609E-02  0.9718726E-01
        2   -1    0    0  501    0  0.00000000000E+00  0.00000000000E+00  0.64214634497E+03  0.64214634497E+03  0.25500000920E-02 0. -1.
       -2   -1    0    0    0  501  0.00000000000E+00  0.00000000000E+00 -0.19029103481E+03  0.19029103483E+03  0.25500000920E-02 0.  1.
    10030    2    1    2    0    0  0.00000000000E+00  0.00000000000E+00  0.45185531015E+03  0.83243737980E+03  0.69912714865E+03 0.  0.
        1    1    3    3  502    0  0.13048398261E+03  0.24598700185E+03  0.47755045433E+03  0.55280205432E+03  0.50400001928E-02 0. -1.
       -1    1    3    3    0  502 -0.13048398261E+03 -0.24598700185E+03 -0.25695144179E+02  0.27963532549E+03  0.50400001928E-02 0.  1.
</event>
<event>
 5   0  0.2684924E-02  0.7042752E+03  0.7818609E-02  0.9709949E-01
       -1   -1    0    0    0  501  0.00000000000E+00  0.00000000000E+00  0.11888909178E+03  0.11888909189E+03  0.50400001928E-02 0. -1.
        1   -1    0    0  501    0  0.00000000000E+00  0.00000000000E+00 -0.10429962864E+04  0.10429962864E+04  0.50400001928E-02 0.  1.
    10030    2    1    2    0    0  0.00000000000E+00  0.00000000000E+00 -0.92410719459E+03  0.11618853783E+04  0.70427517716E+03 0.  0.
        4    1    3    3  502    0  0.23746724060E+03  0.26001491003E+03 -0.46055549785E+03  0.57975117361E+03  0.12699999809E+01 0. -1.
       -4    1    3    3    0  502 -0.23746724060E+03 -0.26001491003E+03 -0.46355169673E+03  0.58213420467E+03  0.12699999809E+01 0.  1.
</event>
<event>
 5   0  0.4299912E-02  0.6836828E+03  0.7818609E-02  0.9745551E-01
        2   -1    0    0  501    0  0.00000000000E+00  0.00000000000E+00  0.74270699245E+03  0.74270699245E+03  0.25500000920E-02 0.  1.
       -2   -1    0    0    0  501  0.00000000000E+00  0.00000000000E+00 -0.15733734843E+03  0.15733734845E+03  0.25500000920E-02 0. -1.
    10030    2    1    2    0    0  0.00000000000E+00  0.00000000000E+00  0.58536964402E+03  0.90004434090E+03  0.68368281786E+03 0.  0.
        3    1    3    3  502    0  0.13352903069E+03 -0.11496362534E+03  0.67831890552E+03  0.70083035392E+03  0.10100000352E+00 0.  1.
       -3    1    3    3    0  502 -0.13352903069E+03  0.11496362534E+03 -0.92949261503E+02  0.19921398697E+03  0.10100000352E+00 0. -1.
</event>
<event>
 5   0  0.4420645E-02  0.7572896E+03  0.7818609E-02  0.9623983E-01
       -2   -1    0    0    0  501  0.00000000000E+00  0.00000000000E+00  0.30398866514E+03  0.30398866515E+03  0.25500000920E-02 0.  1.
        2   -1    0    0  501    0  0.00000000000E+00  0.00000000000E+00 -0.47163565117E+03  0.47163565118E+03  0.25500000920E-02 0. -1.
    10030    2    1    2    0    0  0.00000000000E+00  0.00000000000E+00 -0.16764698603E+03  0.77562431633E+03  0.75728961974E+03 0.  0.
        5    1    3    3  502    0 -0.29673946008E+03 -0.14565476016E+03  0.10525424081E+03  0.34694403228E+03  0.46999998093E+01 0.  1.
       -5    1    3    3    0  502  0.29673946008E+03  0.14565476016E+03 -0.27290122684E+03  0.42868028405E+03  0.46999998093E+01 0. -1.
</event>
<event>
 5   0  0.2751729E-02  0.7456156E+03  0.7818609E-02  0.9642254E-01
       -1   -1    0    0    0  501  0.00000000000E+00  0.00000000000E+00  0.19481606948E+03  0.19481606955E+03  0.50400001928E-02 0. -1.
        1   -1    0    0  501    0  0.00000000000E+00  0.00000000000E+00 -0.71341994944E+03  0.71341994945E+03  0.50400001928E-02 0.  1.
    10030    2    1    2    0    0  0.00000000000E+00  0.00000000000E+00 -0.51860387995E+03  0.90823601900E+03  0.74561563953E+03 0.  0.
        1    1    3    3  502    0  0.23564192594E+03 -0.47554599670E+02 -0.60640145508E+03  0.65231225802E+03  0.50400001928E-02 0.  1.
       -1    1    3    3    0  502 -0.23564192594E+03  0.47554599670E+02  0.87797575127E+02  0.25592376098E+03  0.50400001928E-02 0. -1.
</event>
<event>
 5   0  0.1784625E-02  0.6998696E+03  0.7818609E-02  0.9717455E-01
       -3   -1    0    0    0  501  0.00000000000E+00  0.00000000000E+00  0.30767750969E+03  0.30767752627E+03  0.10100000352E+00 0. -1.
        3   -1    0    0  501    0  0.00000000000E+00  0.00000000000E+00 -0.39799579609E+03  0.39799580891E+03  0.10100000352E+00 0.  1.
    10030    2    1    2    0    0  0.00000000000E+00  0.00000000000E+00 -0.90318286401E+02  0.70567333517E+03  0.69986960437E+03 0.  0.
        4    1    3    3  502    0 -0.69533746076E+02 -0.29713368305E+02  0.29933907708E+03  0.30874475229E+03  0.12699999809E+01 0. -1.
       -4    1    3    3    0  502  0.69533746076E+02  0.29713368305E+02 -0.38965736348E+03  0.39692858289E+03  0.12699999809E+01 0.  1.
</event>
<event>
 5   0  0.2684924E-02  0.6888875E+03  0.7818609E-02  0.9736427E-01
       -1   -1    0    0    0  501  0.00000000000E+00  0.00000000000E+00  0.55039950191E+03  0.55039950194E+03  0.50400001928E-02 0. -1.
        1   -1    0    0  501    0  0.00000000000E+00  0.00000000000E+00 -0.21555521133E+03  0.21555521139E+03  0.50400001928E-02 0.  1.
    10030    2    1    2    0    0  0.00000000000E+00  0.00000000000E+00  0.33484429058E+03  0.76595471332E+03  0.68888745374E+03 0.  0.
        4    1    3    3  502    0  0.11722662358E+03  0.28180291832E+03 -0.10077014601E+02  0.30538193328E+03  0.12699999809E+01 0. -1.
       -4    1    3    3    0  502 -0.11722662358E+03 -0.28180291832E+03  0.34492130518E+03  0.46057278005E+03  0.12699999809E+01 0.  1.
</event>
<event>
 5   0  0.4365492E-02  0.6399271E+03  0.7818609E-02  0.9825866E-01
       -2   -1    0    0    0  501  0.00000000000E+00  0.00000000000E+00  0.19089256966E+03  0.19089256967E+03  0.25500000920E-02 0. -1.
        2   -1    0    0  501    0  0.00000000000E+00  0.00000000000E+00 -0.53630512304E+03  0.53630512304E+03  0.25500000920E-02 0.  1.
    10030    2    1    2    0    0  0.00000000000E+00  0.00000000000E+00 -0.34541255338E+03  0.72719769272E+03  0.63992706792E+03 0.  0.
        4    1    3    3  502    0  0.18051446951E+03 -0.93661286527E+02  0.10799729264E+03  0.23026710233E+03  0.12699999809E+01 0. -1.
       -4    1    3    3    0  502 -0.18051446951E+03  0.93661286527E+02 -0.45340984602E+03  0.49693059039E+03  0.12699999809E+01 0.  1.
</event>
<event>
 5   0  0.2758681E-02  0.7029864E+03  0.7818609E-02  0.9712139E-01
        1   -1    0    0  501    0  0.00000000000E+00  0.00000000000E+00  0.50705206240E+03  0.50705206242E+03  0.50400001928E-02 0. -1.
       -1   -1    0    0    0  501  0.00000000000E+00  0.00000000000E+00 -0.24365832240E+03  0.24365832246E+03  0.50400001928E-02 0.  1.
    10030    2    1    2    0    0  0.00000000000E+00  0.00000000000E+00  0.26339373999E+03  0.75071038488E+03  0.70298635812E+03 0.  0.
        3    1    3    3  502    0 -0.12221896147E+03 -0.21464823600E+03 -0.13535212030E+03  0.28165856358E+03  0.10100000352E+00 0.  1.
       -3    1    3    3    0  502  0.12221896147E+03  0.21464823600E+03  0.39874586030E+03  0.46905182130E+03  0.10100000352E+00 0. -1.
</event>
<event>
 5   0  0.4420645E-02  0.6992609E+03  0.7818609E-02  0.9718497E-01
       -2   -1    0    0    0  501  0.00000000000E+00  0.00000000000E+00  0.49736670352E+03  0.49736670352E+03  0.25500000920E-02 0.  1.
        2   -1    0    0  501    0  0.00000000000E+00  0.00000000000E+00 -0.24577728286E+03  0.24577728288E+03  0.25500000920E-02 0. -1.
    10030    2    1    2    0    0  0.00000000000E+00  0.00000000000E+00  0.25158942065E+03  0.74314398640E+03  0.69926085829E+03 0.  0.
        5    1    3    3  502    0  0.14130159623E+03 -0.31248889241E+03  0.19790489306E+03  0.39598470383E+03  0.46999998093E+01 0.  1.
       -5    1    3    3    0  502 -0.14130159623E+03  0.31248889241E+03  0.53684527591E+02  0.34715928257E+03  0.46999998093E+01 0. -1.
</event>
<event>
 5   0  0.4503289E-02  0.6984618E+03  0.7818609E-02  0.9719866E-01
        2   -1    0    0  501    0  0.00000000000E+00  0.00000000000E+00  0.96695984489E+03  0.96695984489E+03  0.25500000920E-02 0. -1.
       -2   -1    0    0    0  501  0.00000000000E+00  0.00000000000E+00 -0.12612955941E+03  0.12612955944E+03  0.25500000920E-02 0.  1.
    10030    2    1    2    0    0  0.00000000000E+00  0.00000000000E+00  0.84083028548E+03  0.10930894043E+04  0.69846179344E+03 0.  0.
        2    1    3    3  502    0 -0.23420002111E+03  0.25883082579E+03  0.43749962698E+03  0.55968649250E+03  0.25500000920E-02 0.  1.
       -2    1    3    3    0  502  0.23420002111E+03 -0.25883082579E+03  0.40333065849E+03  0.53340291184E+03  0.25500000920E-02 0. -1.
</event>
<event>
 5   0  0.4420645E-02  0.7227737E+03  0.7818609E-02  0.9679060E-01
        2   -1    0    0  501    0  0.00000000000E+00  0.00000000000E+00  0.10447149575E+04  0.10447149575E+04  0.25500000920E-02 0. -1.
       -2   -1    0    0    0  501  0.00000000000E+00  0.00000000000E+00 -0.12501061530E+03  0.12501061533E+03  0.25500000920E-02 0.  1.
    10030    2    1    2    0    0  0.00000000000E+00  0.00000000000E+00  0.91970434216E+03  0.11697255728E+04  0.72277371193E+03 0.  0.
        5    1    3    3  502    0  0.66956053672E+02 -0.74356081392E+02 -0.10209415535E+03  0.14302883107E+03  0.46999998093E+01 0.  1.
       -5    1    3    3    0  502 -0.66956053672E+02  0.74356081392E+02  0.10217984975E+04  0.10266967417E+04  0.46999998093E+01 0. -1.
</event>
<event>
 5   0  0.2758681E-02  0.6746888E+03  0.7818609E-02  0.9761524E-01
       -1   -1    0    0    0  501  0.00000000000E+00  0.00000000000E+00  0.27453085629E+03  0.27453085633E+03  0.50400001928E-02 0.  1.
        1   -1    0    0  501    0  0.00000000000E+00  0.00000000000E+00 -0.41452982849E+03  0.41452982852E+03  0.50400001928E-02 0. -1.
    10030    2    1    2    0    0  0.00000000000E+00  0.00000000000E+00 -0.13999897220E+03  0.68906068485E+03  0.67468875431E+03 0.  0.
        3    1    3    3  502    0  0.17155688629E+03  0.26020177345E+03 -0.20184034375E+03  0.37131693027E+03  0.10100000352E+00 0. -1.
       -3    1    3    3    0  502 -0.17155688629E+03 -0.26020177345E+03  0.61841371547E+02  0.31774375458E+03  0.10100000352E+00 0.  1.
</event>
<event>
 5   0  0.2750139E-02  0.6146124E+03  0.7818609E-02  0.9875545E-01
       -1   -1    0    0    0  501  0.00000000000E+00  0.00000000000E+00  0.12286069751E+03  0.12286069762E+03  0.50400001928E-02 0. -1.
        1   -1    0    0  501    0  0.00000000000E+00  0.00000000000E+00 -0.76865179752E+03  0.76865179754E+03  0.50400001928E-02 0.  1.
    10030    2    1    2    0    0  0.00000000000E+00  0.00000000000E+00 -0.64579110001E+03  0.89151249515E+03  0.61461238530E+03 0.  0.
        2    1    3    3  502    0  0.14741292250E+02  0.44650903803E+02 -0.76340275730E+03  0.76484951380E+03  0.25500000920E-02 0.  1.
       -2    1    3    3    0  502 -0.14741292250E+02 -0.44650903803E+02  0.11761165729E+03  0.12666298135E+03  0.25500000920E-02 0. -1.
</event>
<event>
 5   0  0.4299912E-02  0.6964257E+03  0.7818609E-02  0.9723364E-01
        2   -1    0    0  501    0  0.00000000000E+00  0.00000000000E+00  0.11070325027E+04  0.11070325027E+04  0.25500000920E-02 0.  1.
       -2   -1    0    0    0  501  0.00000000000E+00  0.00000000000E+00 -0.10952902913E+03  0.10952902916E+03  0.25500000920E-02 0. -1.
    10030    2    1    2    0    0  0.00000000000E+00  0.00000000000E+00  0.99750347352E+03  0.12165615318E+04  0.69642571824E+03 0.  0.
        3    1    3    3  502    0 -0.32366237226E+03  0.50154652192E+02  0.70529117743E+03  0.77763003769E+03  0.10100000352E+00 0.  1.
       -3    1    3    3    0  502  0.32366237226E+03 -0.50154652192E+02  0.29221229610E+03  0.43893149414E+03  0.10100000352E+00 0. -1.
</event>
<event>
 5   0  0.2750139E-02  0.7039762E+03  0.7818609E-02  0.9710456E-01
        1   -1    0    0  501    0  0.00000000000E+00  0.00000000000E+00  0.46743946410E+03  0.46743946413E+03  0.50400001928E-02 0. -1.
       -1   -1    0    0    0  501  0.00000000000E+00  0.00000000000E+00 -0.26505168801E+03  0.26505168806E+03  0.50400001928E-02 0.  1.
    10030    2    1    2    0    0  0.00000000000E+00  0.00000000000E+00  0.20238777609E+03  0.73249115219E+03  0.70397619003E+03 0.  0.
        2    1    3    3  502    0 -0.20637626239E+03 -0.27959882691E+03  0.42991077628E+02  0.35016410217E+03  0.25500000920E-02 0.  1.
       -2    1    3    3    0  502  0.20637626239E+03  0.27959882691E+03  0.15939669846E+03  0.38232705002E+03  0.25500000920E-02 0. -1.
</event>
<event>
 5   0  0.4365492E-02  0.7098573E+03  0.7818609E-02  0.9700522E-01
       -2   -1    0    0    0  501  0.00000000000E+00  0.00000000000E+00  0.19666604258E+03  0.19666604260E+03  0.25500000920E-02 0. -1.
        2   -1    0    0  501    0  0.00000000000E+00  0.00000000000E+00 -0.64054963374E+03  0.64054963375E+03  0.25500000920E-02 0.  1.
    10030    2    1    2    0    0  0.00000000000E+00  0.00000000000E+00 -0.44388359116E+03  0.83721567635E+03  0.70985734216E+03 0.  0.
        4    1    3    3  502    0 -0.16224027131E+03  0.31479408204E+03 -0.24974018370E+03  0.43334627260E+03  0.12699999809E+01 0.  1.
       -4    1    3    3    0  502  0.16224027131E+03 -0.31479408204E+03 -0.19414340746E+03  0.40386940375E+03  0.12699999809E+01 0. -1.
</event>
<event>
 5   0  0.2684924E-02  0.6997758E+03  0.7818609E-02  0.9717616E-01
        1   -1    0    0  501    0  0.00000000000E+00  0.00000000000E+00  0.30380599374E+03  0.30380599378E+03  0.50400001928E-02 0. -1.
       -1   -1    0    0    0  501  0.00000000000E+00  0.00000000000E+00 -0.40295965890E+03  0.40295965893E+03  0.50400001928E-02 0.  1.
    10030    2    1    2    0    0  0.00000000000E+00  0.00000000000E+00 -0.99153665156E+02  0.70676565271E+03  0.69977584878E+03 0.  0.
        4    1    3    3  502    0 -0.27238771384E+02 -0.21439362101E+03  0.22833227412E+03  0.31439436334E+03  0.12699999809E+01 0. -1.
       -4    1    3    3    0  502  0.27238771384E+02  0.21439362101E+03 -0.32748593927E+03  0.39237128937E+03  0.12699999809E+01 0.  1.
</event>
<event>
 5   0  0.2751729E-02  0.7272352E+03  0.7818609E-02  0.9671758E-01
       -1   -1    0    0    0  501  0.00000000000E+00  0.00000000000E+00  0.17169699613E+03  0.17169699621E+03  0.50400001928E-02 0.  1.
        1   -1    0    0  501    0  0.00000000000E+00  0.00000000000E+00 -0.77006443690E+03  0.77006443692E+03  0.50400001928E-02 0. -1.
    10030    2    1    2    0    0  0.00000000000E+00  0.00000000000E+00 -0.59836744077E+03  0.94176143312E+03  0.72723517706E+03 0.  0.
        1    1    3    3  502    0 -0.18499347807E+03 -0.15611876706E+03  0.52190671603E+02  0.24762779041E+03  0.50400001928E-02 0.  1.
       -1    1    3    3    0  502  0.18499347807E+03  0.15611876706E+03 -0.65055811237E+03  0.69413364272E+03  0.50400001928E-02 0. -1.
</event>
<event>
 5   0  0.2777999E-02  0.6843151E+03  0.7818609E-02  0.9744438E-01
        1   -1    0    0  501    0  0.00000000000E+00  0.00000000000E+00  0.72463309885E+03  0.72463309886E+03  0.50400001928E-02 0. -1.
       -1   -1    0    0    0  501  0.00000000000E+00  0.00000000000E+00 -0.16156009480E+03  0.16156009488E+03  0.50400001928E-02 0.  1.
    10030    2    1    2    0    0  0.00000000000E+00  0.00000000000E+00  0.56307300405E+03  0.88619319374E+03  0.68431510925E+03 0.  0.
        5    1    3    3  502    0  0.25854983504E+03  0.18419297128E+03  0.11632970906E+03  0.33812683874E+03  0.46999998093E+01 0. -1.
       -5    1    3    3    0  502 -0.25854983504E+03 -0.18419297128E+03  0.44674329499E+03  0.54806635500E+03  0.46999998093E+01 0.  1.
</event>
<event>
 5   0  0.2758681E-02  0.6972745E+03  0.7818609E-02  0.9721905E-01
        1   -1    0    0  501    0  0.00000000000E+00  0.00000000000E+00  0.20721480958E+03  0.20721480964E+03  0.50400001928E-02 0.  1.
       -1   -1    0    0    0  501  0.00000000000E+00  0.00000000000E+00 -0.58657932575E+03  0.58657932577E+03  0.50400001928E-02 0. -1.
    10030    2    1    2    0    0  0.00000000000E+00  0.00000000000E+00 -0.37936451616E+03  0.79379413541E+03  0.69727447486E+03 0.  0.
        3    1    3    3  502    0 -0.23903659263E+03 -0.98204059372E+02  0.76731828461E+02  0.26957431924E+03  0.10100000352E+00 0.  1.
       -3    1    3    3    0  502  0.23903659263E+03  0.98204059372E+02 -0.45609634463E+03  0.52421981618E+03  0.10100000352E+00 0. -1.
</event>
<event>
 5   0  0.4503289E-02  0.6926380E+03  0.7818609E-02  0.9729906E-01
        2   -1    0    0  501    0  0.00000000000E+00  0.00000000000E+00  0.16233347384E+04  0.16233347385E+04  0.25500000920E-02 0.  1.
       -2   -1    0    0    0  501  0.00000000000E+00  0.00000000000E+00 -0.73883002291E+02  0.73883002335E+02  0.25500000920E-02 0. -1.
    10030    2    1    2    0    0  0.00000000000E+00  0.00000000000E+00  0.15494517362E+04  0.16972177408E+04  0.69263798406E+03 0.  0.
        2    1    3    3  502    0 -0.33690899167E+03  0.71856066922E+02  0.86190805016E+03  0.92820065178E+03  0.25500000920E-02 0.  1.
       -2    1    3    3    0  502  0.33690899167E+03 -0.71856066922E+02  0.68754368600E+03  0.76901708901E+03  0.25500000920E-02 0. -1.
</event>
<event>
 5   0  0.2684924E-02  0.7053672E+03  0.7818609E-02  0.9708097E-01
       -1   -1    0    0    0  501  0.00000000000E+00  0.00000000000E+00  0.22911853383E+03  0.22911853388E+03  0.50400001928E-02 0.  1.
        1   -1    0    0  501    0  0.00000000000E+00  0.00000000000E+00 -0.54288812161E+03  0.54288812164E+03  0.50400001928E-02 0. -1.
    10030    2    1    2    0    0  0.00000000000E+00  0.00000000000E+00 -0.31376958779E+03  0.77200665552E+03  0.70536722489E+03 0.  0.
        4    1    3    3  502    0 -0.15332551098E+03 -0.19715897382E+03  0.11564546363E+03  0.27523782340E+03  0.12699999809E+01 0.  1.
       -4    1    3    3    0  502  0.15332551098E+03  0.19715897382E+03 -0.42941505142E+03  0.49676883211E+03  0.12699999809E+01 0. -1.
</event>
<event>
 5   0  0.4299912E-02  0.7019077E+03  0.7818609E-02  0.9713975E-01
       -2   -1    0    0    0  501  0.00000000000E+00  0.00000000000E+00  0.15127850460E+03  0.15127850462E+03  0.25500000920E-02 0.  1.
        2   -1    0    0  501    0  0.00000000000E+00  0.00000000000E+00 -0.81418455182E+03  0.81418455183E+03  0.25500000920E-02 0. -1.
    10030    2    1    2    0    0  0.00000000000E+00  0.00000000000E+00 -0.66290604722E+03  0.96546305645E+03  0.70190774744E+03 0.  0.
        3    1    3    3  502    0  0.24575640717E+03  0.22348665639E+03 -0.17567608224E+03  0.37577199646E+03  0.10100000352E+00 0.  1.
       -3    1    3    3    0  502 -0.24575640717E+03 -0.22348665639E+03 -0.48722996499E+03  0.58969105999E+03  0.10100000352E+00 0. -1.
</event>
<event>
 5   0  0.1784625E-02  0.6986707E+03  0.7818609E-02  0.9719508E-01
       -3   -1    0    0    0  501  0.00000000000E+00  0.00000000000E+00  0.12566982904E+04  0.12566982945E+04  0.10100000352E+00 0.  1.
        3   -1    0    0  501    0  0.00000000000E+00  0.00000000000E+00 -0.97107759512E+02  0.97107812036E+02  0.10100000352E+00 0. -1.
    10030    2    1    2    0    0  0.00000000000E+00  0.00000000000E+00  0.11595905309E+04  0.13538061065E+04  0.69867071977E+03 0.  0.
        4    1    3    3  502    0  0.32951281070E+02  0.42646281737E+02  0.12485899844E+04  0.12497531974E+04  0.12699999809E+01 0.  1.
       -4    1    3    3    0  502 -0.32951281070E+02 -0.42646281737E+02 -0.88999453521E+02  0.10405290912E+03  0.12699999809E+01 0. -1.
</event>
<event>
 5   0  0.4365492E-02  0.6952691E+03  0.7818609E-02  0.9725357E-01
       -2   -1    0    0    0  501  0.00000000000E+00  0.00000000000E+00  0.79212705266E+02  0.79212705307E+02  0.25500000920E-02 0.  1.
        2   -1    0    0  501    0  0.00000000000E+00  0.00000000000E+00 -0.15256361821E+04  0.15256361821E+04  0.25500000920E-02 0. -1.
    10030    2    1    2    0    0  0.00000000000E+00  0.00000000000E+00 -0.14464234768E+04  0.16048488874E+04  0.69526906811E+03 0.  0.
        4    1    3    3  502    0  0.29048902112E+03 -0.14311874141E+03 -0.10150131821E+04  0.10654202074E+04  0.12699999809E+01 0. -1.
       -4    1    3    3    0  502 -0.29048902112E+03  0.14311874141E+03 -0.43141029467E+03  0.53942867998E+03  0.12699999809E+01 0.  1.
</event>
<event>
 5   0  0.2751729E-02  0.7125388E+03  0.7818609E-02  0.9696026E-01
       -1   -1    0    0    0  501  0.00000000000E+00  0.00000000000E+00  0.23270478767E+03  0.23270478773E+03  0.50400001928E-02 0. -1.
        1   -1    0    0  501    0  0.00000000000E+00  0.00000000000E+00 -0.54544597594E+03  0.54544597596E+03  0.50400001928E-02 0.  1.
    10030    2    1    2    0    0  0.00000000000E+00  0.00000000000E+00 -0.31274118826E+03  0.77815076369E+03  0.71253881311E+03 0.  0.
        1    1    3    3  502    0  0.29191818865E+03  0.18081353091E+03 -0.26007887240E+03  0.43075605825E+03  0.50400001928E-02 0.  1.
       -1    1    3    3    0  502 -0.29191818865E+03 -0.18081353091E+03 -0.52662315860E+02  0.34739470543E+03  0.50400001928E-02 0. -1.
</event>
<event>
 5   0  0.4420645E-02  0.7010069E+03  0.7818609E-02  0.9715512E-01
       -2   -1    0    0    0  501  0.00000000000E+00  0.00000000000E+00  0.83615704947E+02  0.83615704986E+02  0.25500000920E-02 0.  1.
        2   -1    0    0  501    0  0.00000000000E+00  0.00000000000E+00 -0.14692536947E+04  0.14692536948E+04  0.25500000920E-02 0. -1.
    10030    2    1    2    0    0  0.00000000000E+00  0.00000000000E+00 -0.13856379898E+04  0.15528693997E+04  0.70100694280E+03 0.  0.
        5    1    3    3  502    0  0.17245678208E+03  0.13558994687E+02 -0.17617952321E+02  0.17394732037E+03  0.46999998093E+01 0.  1.
       -5    1    3    3    0  502 -0.17245678208E+03 -0.13558994687E+02 -0.13680200375E+04  0.13789220794E+04  0.46999998093E+01 0. -1.
</event>
<event>
 5   0  0.1784625E-02  0.6982400E+03  0.7818609E-02  0.9720247E-01
        3   -1    0    0  501    0  0.00000000000E+00  0.00000000000E+00  0.49063231534E+03  0.49063232573E+03  0.10100000352E+00 0.  1.
       -3   -1    0    0    0  501  0.00000000000E+00  0.00000000000E+00 -0.24842382931E+03  0.24842384984E+03  0.10100000352E+00 0. -1.
    10030    2    1    2    0    0  0.00000000000E+00  0.00000000000E+00  0.24220848603E+03  0.73905617557E+03  0.69823998736E+03 0.  0.
        2    1    3    3  502    0  0.22117044237E+03  0.10883000821E+03 -0.14058155974E+03  0.28376664746E+03  0.25500000920E-02 0. -1.
       -2    1    3    3    0  502 -0.22117044237E+03 -0.10883000821E+03  0.38279004577E+03  0.45528952812E+03  0.25500000920E-02 0.  1.
</event>
<event>
 5   0  0.4526837E-02  0.7044562E+03  0.7818609E-02  0.9709642E-01
        2   -1    0    0  501    0  0.00000000000E+00  0.00000000000E+00  0.52111525653E+03  0.52111525653E+03  0.25500000920E-02 0. -1.
       -2   -1    0    0    0  501  0.00000000000E+00  0.00000000000E+00 -0.23807523432E+03  0.23807523433E+03  0.25500000920E-02 0.  1.
    10030    2    1    2    0    0  0.00000000000E+00  0.00000000000E+00  0.28304002221E+03  0.75919049086E+03  0.70445620676E+03 0.  0.
        1    1    3    3  502    0  0.16451518769E+03 -0.30413465629E+03  0.21382619118E+03  0.40655230438E+03  0.50400001928E-02 0. -1.
       -1    1    3    3    0  502 -0.16451518769E+03  0.30413465629E+03  0.69213831034E+02  0.35263818649E+03  0.50400001928E-02 0.  1.
</event>
<event>
 5   0  0.4299912E-02  0.7014977E+03  0.7818609E-02  0.9714674E-01
       -2   -1    0    0    0  501  0.00000000000E+00  0.00000000000E+00  0.39944340777E+03  0.39944340777E+03  0.25500000920E-02 0.  1.
        2   -1    0    0  501    0  0.00000000000E+00  0.00000000000E+00 -0.30799047300E+03  0.30799047301E+03  0.25500000920E-02 0. -1.
    10030    2    1    2    0    0  0.00000000000E+00  0.00000000000E+00  0.91452934763E+02  0.70743388079E+03  0.70149772374E+03 0.  0.
        3    1    3    3  502    0 -0.58107133617E+02  0.94914458142E+02  0.38116643724E+03  0.39708066740E+03  0.10100000352E+00 0.  1.
       -3    1    3    3    0  502  0.58107133617E+02 -0.94914458142E+02 -0.28971350248E+03  0.31035321339E+03  0.10100000352E+00 0. -1.
</event>
<event>
 5   0  0.2684924E-02  0.7109862E+03  0.7818609E-02  0.9698627E-01
        1   -1    0    0  501    0  0.00000000000E+00  0.00000000000E+00  0.16165105598E+04  0.16165105598E+04  0.50400001928E-02 0.  1.
       -1   -1    0    0    0  501  0.00000000000E+00  0.00000000000E+00 -0.78177859978E+02  0.78177860141E+02  0.50400001928E-02 0. -1.
    10030    2    1    2    0    0  0.00000000000E+00  0.00000000000E+00  0.15383326998E+04  0.16946884200E+04  0.71098617805E+03 0.  0.
        4    1    3    3  502    0  0.30975059559E+03  0.15071268862E+03  0.97851390190E+03  0.10373768915E+04  0.12699999809E+01 0.  1.
       -4    1    3    3    0  502 -0.30975059559E+03 -0.15071268862E+03  0.55981879794E+03  0.65731152843E+03  0.12699999809E+01 0. -1.
</event>
<event>
 5   0  0.1784625E-02  0.6350280E+03  0.7818609E-02  0.9835286E-01
       -4   -1    0    0    0  501  0.00000000000E+00  0.00000000000E+00  0.13019267710E+03  0.13019887123E+03  0.12699999809E+01 0.  1.
        4   -1    0    0  501    0  0.00000000000E+00  0.00000000000E+00 -0.77432816889E+03  0.77432921037E+03  0.12699999809E+01 0. -1.
    10030    2    1    2    0    0  0.00000000000E+00  0.00000000000E+00 -0.64413549179E+03  0.90452808160E+03  0.63502796681E+03 0.  0.
        1    1    3    3  502    0 -0.15559388711E+03 -0.21767365538E+03 -0.56556716509E+03  0.62566564251E+03  0.50400001928E-02 0. -1.
       -1    1    3    3    0  502  0.15559388711E+03  0.21767365538E+03 -0.78568326697E+02  0.27886243910E+03  0.50400001928E-02 0.  1.
</event>
<event>
 5   0  0.4526837E-02  0.7053062E+03  0.7818609E-02  0.9708201E-01
        2   -1    0    0  501    0  0.00000000000E+00  0.00000000000E+00  0.19752348422E+04  0.19752348422E+04  0.25500000920E-02 0.  1.
       -2   -1    0    0    0  501  0.00000000000E+00  0.00000000000E+00 -0.62961724347E+02  0.62961724398E+02  0.25500000920E-02 0. -1.
    10030    2    1    2    0    0  0.00000000000E+00  0.00000000000E+00  0.19122731178E+04  0.20381965666E+04  0.70530615113E+03 0.  0.
        1    1    3    3  502    0  0.34278421293E+03 -0.24929367570E+02  0.72782920624E+03  0.80489616937E+03  0.50400001928E-02 0. -1.
       -1    1    3    3    0  502 -0.34278421293E+03  0.24929367570E+02  0.11844439116E+04  0.12333003972E+04  0.50400001928E-02 0.  1.
</event>
<event>
 5   0  0.4299912E-02  0.6944020E+03  0.7818609E-02  0.9726854E-01
       -2   -1    0    0    0  501  0.00000000000E+00  0.00000000000E+00  0.91517608997E+02  0.91517609033E+02  0.25500000920E-02 0.  1.
        2   -1    0    0  501    0  0.00000000000E+00  0.00000000000E+00 -0.13172168725E+04  0.13172168725E+04  0.25500000920E-02 0. -1.
    10030    2    1    2    0    0  0.00000000000E+00  0.00000000000E+00 -0.12256992635E+04  0.14087344816E+04  0.69440201248E+03 0.  0.
        3    1    3    3  502    0  0.78221393360E+02 -0.92282214552E+02 -0.12730788287E+04  0.12788136330E+04  0.10100000352E+00 0. -1.
       -3    1    3    3    0  502 -0.78221393360E+02  0.92282214552E+02  0.47379565196E+02  0.12992084860E+03  0.10100000352E+00 0.  1.
</event>
<event>
 5   0  0.2777999E-02  0.7174498E+03  0.7818609E-02  0.9687847E-01
       -1   -1    0    0    0  501  0.00000000000E+00  0.00000000000E+00  0.11793745147E+03  0.11793745158E+03  0.50400001928E-02 0. -1.
        1   -1    0    0  501    0  0.00000000000E+00  0.00000000000E+00 -0.10911170735E+04  0.10911170735E+04  0.50400001928E-02 0.  1.
    10030    2    1    2    0    0  0.00000000000E+00  0.00000000000E+00 -0.97317962200E+03  0.12090545251E+04  0.71744983651E+03 0.  0.
        5    1    3    3  502    0 -0.18990915032E+02 -0.20002782788E+03  0.14146796093E+02  0.20147954888E+03  0.46999998093E+01 0. -1.
       -5    1    3    3    0  502  0.18990915032E+02  0.20002782788E+03 -0.98732641809E+03  0.10075749762E+04  0.46999998093E+01 0.  1.
</event>
<event>
 5   0  0.4299912E-02  0.6993077E+03  0.7818609E-02  0.9718417E-01
        2   -1    0    0  501    0  0.00000000000E+00  0.00000000000E+00  0.11217240319E+03  0.11217240321E+03  0.25500000920E-02 0. -1.
       -2   -1    0    0    0  501  0.00000000000E+00  0.00000000000E+00 -0.10899098813E+04  0.10899098813E+04  0.25500000920E-02 0.  1.
    10030    2    1    2    0    0  0.00000000000E+00  0.00000000000E+00 -0.97773747815E+03  0.12020822845E+04  0.69930768811E+03 0.  0.
        3    1    3    3  502    0  0.34643502074E+03 -0.47282514567E+02 -0.49268958385E+03  0.60414890219E+03  0.10100000352E+00 0. -1.
       -3    1    3    3    0  502 -0.34643502074E+03  0.47282514567E+02 -0.48504789430E+03  0.59793338236E+03  0.10100000352E+00 0.  1.
</event>
<event>
 5   0  0.2750139E-02  0.6910231E+03  0.7818609E-02  0.9732708E-01
       -1   -1    0    0    0  501  0.00000000000E+00  0.00000000000E+00  0.20565330564E+03  0.20565330571E+03  0.50400001928E-02 0.  1.
        1   -1    0    0  501    0  0.00000000000E+00  0.00000000000E+00 -0.58048286252E+03  0.58048286254E+03  0.50400001928E-02 0. -1.
    10030    2    1    2    0    0  0.00000000000E+00  0.00000000000E+00 -0.37482955687E+03  0.78613616824E+03  0.69102306641E+03 0.  0.
        2    1    3    3  502    0  0.11170778064E+03 -0.24421517907E+02 -0.55833316582E+03  0.56992189189E+03  0.25500000920E-02 0. -1.
       -2    1    3    3    0  502 -0.11170778064E+03  0.24421517907E+02  0.18350360895E+03  0.21621427635E+03  0.25500000920E-02 0.  1.
</event>
<event>
 5   0  0.2684924E-02  0.6420536E+03  0.7818609E-02  0.9821805E-01
        1   -1    0    0  501    0  0.00000000000E+00  0.00000000000E+00  0.16870752426E+04  0.16870752426E+04  0.50400001928E-02 0.  1.
       -1   -1    0    0    0  501  0.00000000000E+00  0.00000000000E+00 -0.61086905203E+02  0.61086905411E+02  0.50400001928E-02 0. -1.
    10030    2    1    2    0    0  0.00000000000E+00  0.00000000000E+00  0.16259883374E+04  0.17481621481E+04  0.64205359778E+03 0.  0.
        4    1    3    3  502    0  0.29243178475E+03  0.34580265056E+02  0.46490094105E+03  0.55031503828E+03  0.12699999809E+01 0. -1.
       -4    1    3    3    0  502 -0.29243178475E+03 -0.34580265056E+02  0.11610873964E+04  0.11978471098E+04  0.12699999809E+01 0.  1.
</event>
<event>
 5   0  0.4299912E-02  0.6898592E+03  0.7818609E-02  0.9734733E-01
       -2   -1    0    0    0  501  0.00000000000E+00  0.00000000000E+00  0.10062031179E+03  0.10062031182E+03  0.25500000920E-02 0. -1.
        2   -1    0    0  501    0  0.00000000000E+00  0.00000000000E+00 -0.11824294735E+04  0.11824294735E+04  0.25500000920E-02 0.  1.
    10030    2    1    2    0    0  0.00000000000E+00  0.00000000000E+00 -0.10818091617E+04  0.12830497853E+04  0.68985918076E+03 0.  0.
        3    1    3    3  502    0  0.80584971957E+02 -0.14765690029E+03  0.19160647450E+02  0.16930339194E+03  0.10100000352E+00 0. -1.
       -3    1    3    3    0  502 -0.80584971957E+02  0.14765690029E+03 -0.11009698092E+04  0.11137463934E+04  0.10100000352E+00 0.  1.
</event>
<event>
 5   0  0.2758681E-02  0.7078032E+03  0.7818609E-02  0.9703980E-01
        1   -1    0    0  501    0  0.00000000000E+00  0.00000000000E+00  0.13673610439E+04  0.13673610440E+04  0.50400001928E-02 0. -1.
       -1   -1    0    0    0  501  0.00000000000E+00  0.00000000000E+00 -0.91597119942E+02  0.91597120081E+02  0.50400001928E-02 0.  1.
    10030    2    1    2    0    0  0.00000000000E+00  0.00000000000E+00  0.12757639240E+04  0.14589581640E+04  0.70780317505E+03 0.  0.
        3    1    3    3  502    0  0.32025639681E+02 -0.22935602064E+03  0.11894979831E+04  0.12118313776E+04  0.10100000352E+00 0. -1.
       -3    1    3    3    0  502 -0.32025639681E+02  0.22935602064E+03  0.86265940909E+02  0.24712678641E+03  0.10100000352E+00 0.  1.
</event>
<event>
 5   0  0.2751729E-02  0.5210520E+03  0.7818609E-02  0.1008426E+00
        1   -1    0    0  501    0  0.00000000000E+00  0.00000000000E+00  0.13501880745E+04  0.13501880745E+04  0.50400001928E-02 0.  1.
       -1   -1    0    0    0  501  0.00000000000E+00  0.00000000000E+00 -0.50269885420E+02  0.50269885672E+02  0.50400001928E-02 0. -1.
    10030    2    1    2    0    0  0.00000000000E+00  0.00000000000E+00  0.12999181890E+04  0.14004579601E+04  0.52105201269E+03 0.  0.
        1    1    3    3  502    0  0.18541947266E+03  0.12033162528E+03  0.27934448500E+03  0.35622102999E+03  0.50400001928E-02 0. -1.
       -1    1    3    3    0  502 -0.18541947266E+03 -0.12033162528E+03  0.10205737040E+04  0.10442369302E+04  0.50400001928E-02 0.  1.
</event>
<event>
 5   0  0.2684924E-02  0.6975089E+03  0.7818609E-02  0.9721502E-01
       -1   -1    0    0    0  501  0.00000000000E+00  0.00000000000E+00  0.15742132950E+03  0.15742132958E+03  0.50400001928E-02 0. -1.
        1   -1    0    0  501    0  0.00000000000E+00  0.00000000000E+00 -0.77263771831E+03  0.77263771833E+03  0.50400001928E-02 0.  1.
    10030    2    1    2    0    0  0.00000000000E+00  0.00000000000E+00 -0.61521638882E+03  0.93005904790E+03  0.69750887272E+03 0.  0.
        4    1    3    3  502    0  0.22772322868E+03 -0.51267092207E+02  0.37899298983E+02  0.23648288181E+03  0.12699999809E+01 0. -1.
       -4    1    3    3    0  502 -0.22772322868E+03  0.51267092207E+02 -0.65311568780E+03  0.69357616609E+03  0.12699999809E+01 0.  1.
</event>
<event>
 5   0  0.4503289E-02  0.6998392E+03  0.7818609E-02  0.9717507E-01
       -2   -1    0    0    0  501  0.00000000000E+00  0.00000000000E+00  0.27109843365E+03  0.27109843366E+03  0.25500000920E-02 0.  1.
        2   -1    0    0  501    0  0.00000000000E+00  0.00000000000E+00 -0.45165779445E+03  0.45165779446E+03  0.25500000920E-02 0. -1.
    10030    2    1    2    0    0  0.00000000000E+00  0.00000000000E+00 -0.18055936080E+03  0.72275622812E+03  0.69983918332E+03 0.  0.
        2    1    3    3  502    0  0.14472595628E+03  0.25580231836E+03 -0.28640166218E+03  0.41037341606E+03  0.25500000920E-02 0. -1.
       -2    1    3    3    0  502 -0.14472595628E+03 -0.25580231836E+03  0.10584230138E+03  0.31238281206E+03  0.25500000920E-02 0.  1.
</event>
<event>
 5   0  0.4503289E-02  0.6942862E+03  0.7818609E-02  0.9727054E-01
        2   -1    0    0  501    0  0.00000000000E+00  0.00000000000E+00  0.74876536220E+03  0.74876536220E+03  0.25500000920E-02 0.  1.
       -2   -1    0    0    0  501  0.00000000000E+00  0.00000000000E+00 -0.16094272139E+03  0.16094272141E+03  0.25500000920E-02 0. -1.
    10030    2    1    2    0    0  0.00000000000E+00  0.00000000000E+00  0.58782264081E+03  0.90970808362E+03  0.69428620925E+03 0.  0.
        2    1    3    3  502    0  0.82345570177E+02  0.82374575410E+02  0.72239827873E+03  0.73172784334E+03  0.25500000920E-02 0.  1.
       -2    1    3    3    0  502 -0.82345570177E+02 -0.82374575410E+02 -0.13457563792E+03  0.17798024028E+03  0.25500000920E-02 0. -1.
</event>
<event>
 5   0  0.4503289E-02  0.6985122E+03  0.7818609E-02  0.9719780E-01
       -2   -1    0    0    0  501  0.00000000000E+00  0.00000000000E+00  0.87620725880E+02  0.87620725917E+02  0.25500000920E-02 0.  1.
        2   -1    0    0  501    0  0.00000000000E+00  0.00000000000E+00 -0.13921343274E+04  0.13921343274E+04  0.25500000920E-02 0. -1.
    10030    2    1    2    0    0  0.00000000000E+00  0.00000000000E+00 -0.13045136015E+04  0.14797550533E+04  0.69851219122E+03 0.  0.
        2    1    3    3  502    0  0.29262569432E+02 -0.10992236658E+03 -0.13517926071E+04  0.13565701151E+04  0.25500000920E-02 0. -1.
       -2    1    3    3    0  502 -0.29262569432E+02  0.10992236658E+03  0.47279005513E+02  0.12318493826E+03  0.25500000920E-02 0.  1.
</event>
<event>
 5   0  0.1784625E-02  0.7013879E+03  0.7818609E-02  0.9714862E-01
       -4   -1    0    0    0  501  0.00000000000E+00  0.00000000000E+00  0.93057393148E+03  0.93057479809E+03  0.12699999809E+01 0. -1.
        4   -1    0    0  501    0  0.00000000000E+00  0.00000000000E+00 -0.13215772536E+03  0.13216382740E+03  0.12699999809E+01 0.  1.
    10030    2    1    2    0    0  0.00000000000E+00  0.00000000000E+00  0.79841620611E+03  0.10627386255E+04  0.70138787267E+03 0.  0.
        1    1    3    3  502    0 -0.14213115315E+03 -0.25567666907E+03  0.69228911460E+03  0.75155574778E+03  0.50400001928E-02 0.  1.
       -1    1    3    3    0  502  0.14213115315E+03  0.25567666907E+03  0.10612709152E+03  0.31118287771E+03  0.50400001928E-02 0. -1.
</event>
<event>
 5   0  0.2684924E-02  0.6857618E+03  0.7818609E-02  0.9741896E-01
        1   -1    0    0  501    0  0.00000000000E+00  0.00000000000E+00  0.42828924120E+03  0.42828924123E+03  0.50400001928E-02 0. -1.
       -1   -1    0    0    0  501  0.00000000000E+00  0.00000000000E+00 -0.27450444383E+03  0.27450444388E+03  0.50400001928E-02 0.  1.
    10030    2    1    2    0    0  0.00000000000E+00  0.00000000000E+00  0.15378479737E+03  0.70279368511E+03  0.68576176616E+03 0.  0.
        4    1    3    3  502    0  0.13069708629E+03  0.19045209028E+03  0.33658677554E+03  0.40822297513E+03  0.12699999809E+01 0. -1.
       -4    1    3    3    0  502 -0.13069708629E+03 -0.19045209028E+03 -0.18280197817E+03  0.29457070998E+03  0.12699999809E+01 0.  1.
</event>
<event>
 5   0  0.2758681E-02  0.7079682E+03  0.7818609E-02  0.9703702E-01
       -1   -1    0    0    0  501  0.00000000000E+00  0.00000000000E+00  0.99985867972E+02  0.99985868099E+02  0.50400001928E-02 0. -1.
        1   -1    0    0  501    0  0.00000000000E+00  0.00000000000E+00 -0.12532243933E+04  0.12532243933E+04  0.50400001928E-02 0.  1.
    10030    2    1    2    0    0  0.00000000000E+00  0.00000000000E+00 -0.11532385253E+04  0.13532102614E+04  0.70796815978E+03 0.  0.
        3    1    3    3  502    0  0.14440486207E+03  0.15562447835E+03 -0.35207100583E+02  0.21520058686E+03  0.10100000352E+00 0. -1.
       -3    1    3    3    0  502 -0.14440486207E+03 -0.15562447835E+03 -0.11180314247E+04  0.11380096745E+04  0.10100000352E+00 0.  1.
</event>
<event>
 5   0  0.4420645E-02  0.6967421E+03  0.7818609E-02  0.9722820E-01
        2   -1    0    0  501    0  0.00000000000E+00  0.00000000000E+00  0.10472513189E+04  0.10472513189E+04  0.25500000920E-02 0.  1.
       -2   -1    0    0    0  501  0.00000000000E+00  0.00000000000E+00 -0.11588660861E+03  0.11588660863E+03  0.25500000920E-02 0. -1.
    10030    2    1    2    0    0  0.00000000000E+00  0.00000000000E+00  0.93136471031E+03  0.11631379276E+04  0.69674214377E+03 0.  0.
        5    1    3    3  502    0 -0.18220281927E+03 -0.28109934508E+03  0.62515638180E+03  0.70926532472E+03  0.46999998093E+01 0. -1.
       -5    1    3    3    0  502  0.18220281927E+03  0.28109934508E+03  0.30620832851E+03  0.45387260283E+03  0.46999998093E+01 0.  1.
</event>
<event>
 5   0  0.2750139E-02  0.6946525E+03  0.7818609E-02  0.9726421E-01
       -1   -1    0    0    0  501  0.00000000000E+00  0.00000000000E+00  0.10294198303E+03  0.10294198315E+03  0.50400001928E-02 0. -1.
        1   -1    0    0  501    0  0.00000000000E+00  0.00000000000E+00 -0.11718788617E+04  0.11718788617E+04  0.50400001928E-02 0.  1.
    10030    2    1    2    0    0  0.00000000000E+00  0.00000000000E+00 -0.10689368787E+04  0.12748208449E+04  0.69465252890E+03 0.  0.
        2    1    3    3  502    0  0.31522886283E+03  0.10133445575E+03 -0.34201263667E+03  0.47603629224E+03  0.25500000920E-02 0. -1.
       -2    1    3    3    0  502 -0.31522886283E+03 -0.10133445575E+03 -0.72692424202E+03  0.79878455263E+03  0.25500000920E-02 0.  1.
</event>
<event>
 5   0  0.4420645E-02  0.6997560E+03  0.7818609E-02  0.9717650E-01
       -2   -1    0    0    0  501  0.00000000000E+00  0.00000000000E+00  0.15924808518E+03  0.15924808520E+03  0.25500000920E-02 0.  1.
        2   -1    0    0  501    0  0.00000000000E+00  0.00000000000E+00 -0.76870387579E+03  0.76870387579E+03  0.25500000920E-02 0. -1.
    10030    2    1    2    0    0  0.00000000000E+00  0.00000000000E+00 -0.60945579061E+03  0.92795196099E+03  0.69975601548E+03 0.  0.
        5    1    3    3  502    0 -0.91696990047E+02  0.60918131983E+02 -0.74509390495E+03  0.75319743359E+03  0.46999998093E+01 0. -1.
       -5    1    3    3    0  502  0.91696990047E+02 -0.60918131983E+02  0.13563811433E+03  0.17475452740E+03  0.46999998093E+01 0.  1.
</event>
<event>
 5   0  0.2684924E-02  0.7006694E+03  0.7818609E-02  0.9716088E-01
       -1   -1    0    0    0  501  0.00000000000E+00  0.00000000000E+00  0.15338032174E+03  0.15338032182E+03  0.50400001928E-02 0. -1.
        1   -1    0    0  501    0  0.00000000000E+00  0.00000000000E+00 -0.80019644505E+03  0.80019644507E+03  0.50400001928E-02 0.  1.
    10030    2    1    2    0    0  0.00000000000E+00  0.00000000000E+00 -0.64681612331E+03  0.95357676689E+03  0.70066936066E+03 0.  0.
        4    1    3    3  502    0 -0.97004824294E+01 -0.88622662962E+02  0.13768069831E+03  0.16402945875E+03  0.12699999809E+01 0. -1.
       -4    1    3    3    0  502  0.97004824294E+01  0.88622662962E+02 -0.78449682163E+03  0.78954730814E+03  0.12699999809E+01 0.  1.
</event>
<event>
 5   0  0.2777999E-02  0.6902598E+03  0.7818609E-02  0.9734036E-01
        1   -1    0    0  501    0  0.00000000000E+00  0.00000000000E+00  0.32583710600E+03  0.32583710604E+03  0.50400001928E-02 0. -1.
       -1   -1    0    0    0  501  0.00000000000E+00  0.00000000000E+00 -0.36556503840E+03  0.36556503844E+03  0.50400001928E-02 0.  1.
    10030    2    1    2    0    0  0.00000000000E+00  0.00000000000E+00 -0.39727932404E+02  0.69140214448E+03  0.69025981831E+03 0.  0.
        5    1    3    3  502    0 -0.19584832105E+03 -0.25906670394E+03 -0.13676375700E+03  0.35241812833E+03  0.46999998093E+01 0.  1.
       -5    1    3    3    0  502  0.19584832105E+03  0.25906670394E+03  0.97035824596E+02  0.33898401615E+03  0.46999998093E+01 0. -1.
</event>
<event>
 5   0  0.2758681E-02  0.7048275E+03  0.7818609E-02  0.9709012E-01
        1   -1    0    0  501    0  0.00000000000E+00  0.00000000000E+00  0.17698422768E+04  0.17698422768E+04  0.50400001928E-02 0.  1.
       -1   -1    0    0    0  501  0.00000000000E+00  0.00000000000E+00 -0.70173171406E+02  0.70173171587E+02  0.50400001928E-02 0. -1.
    10030    2    1    2    0    0  0.00000000000E+00  0.00000000000E+00  0.16996691054E+04  0.18400154484E+04  0.70482748421E+03 0.  0.
        3    1    3    3  502    0  0.75921380754E+01 -0.59951783642E+02 -0.56546208282E+02  0.82760744285E+02  0.10100000352E+00 0. -1.
       -3    1    3    3    0  502 -0.75921380754E+01  0.59951783642E+02  0.17562153137E+04  0.17572547041E+04  0.10100000352E+00 0.  1.
</event>
<event>
 5   0  0.2751729E-02  0.7077260E+03  0.7818609E-02  0.9704110E-01
        1   -1    0    0  501    0  0.00000000000E+00  0.00000000000E+00  0.19164876740E+03  0.19164876747E+03  0.50400001928E-02 0.  1.
       -1   -1    0    0    0  501  0.00000000000E+00  0.00000000000E+00 -0.65337758734E+03  0.65337758736E+03  0.50400001928E-02 0. -1.
    10030    2    1    2    0    0  0.00000000000E+00  0.00000000000E+00 -0.46172881994E+03  0.84502635483E+03  0.70772596193E+03 0.  0.
        1    1    3    3  502    0 -0.25367477547E+03  0.15162890073E+03  0.15118367293E+01  0.29554103086E+03  0.50400001928E-02 0.  1.
       -1    1    3    3    0  502  0.25367477547E+03 -0.15162890073E+03 -0.46324065667E+03  0.54948532397E+03  0.50400001928E-02 0. -1.
</event>
<event>
 5   0  0.4365492E-02  0.6940884E+03  0.7818609E-02  0.9727396E-01
       -2   -1    0    0    0  501  0.00000000000E+00  0.00000000000E+00  0.35816204456E+03  0.35816204457E+03  0.25500000920E-02 0. -1.
        2   -1    0    0  501    0  0.00000000000E+00  0.00000000000E+00 -0.33627147264E+03  0.33627147265E+03  0.25500000920E-02 0.  1.
    10030    2    1    2    0    0  0.00000000000E+00  0.00000000000E+00  0.21890571923E+02  0.69443351722E+03  0.69408840410E+03 0.  0.
        4    1    3    3  502    0 -0.32849840505E+02  0.55352514273E+02 -0.33024487966E+03  0.33646144846E+03  0.12699999809E+01 0.  1.
       -4    1    3    3    0  502  0.32849840505E+02 -0.55352514273E+02  0.35213545158E+03  0.35797206877E+03  0.12699999809E+01 0. -1.
</event>
<event>
 5   0  0.4503289E-02  0.6964820E+03  0.7818609E-02  0.9723267E-01
        2   -1    0    0  501    0  0.00000000000E+00  0.00000000000E+00  0.12357678619E+04  0.12357678619E+04  0.25500000920E-02 0.  1.
       -2   -1    0    0    0  501  0.00000000000E+00  0.00000000000E+00 -0.98134781257E+02  0.98134781290E+02  0.25500000920E-02 0. -1.
    10030    2    1    2    0    0  0.00000000000E+00  0.00000000000E+00  0.11376330806E+04  0.13339026432E+04  0.69648204237E+03 0.  0.
        2    1    3    3  502    0 -0.16472346633E+02  0.26430950469E+03  0.10019269604E+04  0.10363341577E+04  0.25500000920E-02 0.  1.
       -2    1    3    3    0  502  0.16472346633E+02 -0.26430950469E+03  0.13570612027E+03  0.29756848550E+03  0.25500000920E-02 0. -1.
</event>
<event>
 5   0  0.2758681E-02  0.7037398E+03  0.7818609E-02  0.9710858E-01
        1   -1    0    0  501    0  0.00000000000E+00  0.00000000000E+00  0.52095308162E+03  0.52095308165E+03  0.50400001928E-02 0.  1.
       -1   -1    0    0    0  501  0.00000000000E+00  0.00000000000E+00 -0.23766519467E+03  0.23766519472E+03  0.50400001928E-02 0. -1.
    10030    2    1    2    0    0  0.00000000000E+00  0.00000000000E+00  0.28328788695E+03  0.75861827637E+03  0.70373976891E+03 0.  0.
        3    1    3    3  502    0  0.29468833479E+03  0.88103267060E+02  0.32587786197E+03  0.44810689735E+03  0.10100000352E+00 0.  1.
       -3    1    3    3    0  502 -0.29468833479E+03 -0.88103267060E+02 -0.42589975022E+02  0.31051137902E+03  0.10100000352E+00 0. -1.
</event>
<event>
 5   0  0.4299912E-02  0.6966690E+03  0.7818609E-02  0.9722946E-01
       -2   -1    0    0    0  501  0.00000000000E+00  0.00000000000E+00  0.13565273647E+03  0.13565273650E+03  0.25500000920E-02 0.  1.
        2   -1    0    0  501    0  0.00000000000E+00  0.00000000000E+00 -0.89446726430E+03  0.89446726430E+03  0.25500000920E-02 0. -1.
    10030    2    1    2    0    0  0.00000000000E+00  0.00000000000E+00 -0.75881452783E+03  0.10301200008E+04  0.69666902357E+03 0.  0.
        3    1    3    3  502    0  0.13435649689E+03  0.26493734652E+01  0.95781016836E+02  0.16502333418E+03  0.10100000352E+00 0.  1.
       -3    1    3    3    0  502 -0.13435649689E+03 -0.26493734652E+01 -0.85459554466E+03  0.86509666662E+03  0.10100000352E+00 0. -1.
</event>
<event>
 5   0  0.2751729E-02  0.6377015E+03  0.7818609E-02  0.9830134E-01
       -1   -1    0    0    0  501  0.00000000000E+00  0.00000000000E+00  0.32455939368E+03  0.32455939372E+03  0.50400001928E-02 0.  1.
        1   -1    0    0  501    0  0.00000000000E+00  0.00000000000E+00 -0.31324248190E+03  0.31324248194E+03  0.50400001928E-02 0. -1.
    10030    2    1    2    0    0  0.00000000000E+00  0.00000000000E+00  0.11316911779E+02  0.63780187566E+03  0.63770146629E+03 0.  0.
        1    1    3    3  502    0 -0.10508413659E+03  0.28333621282E+03  0.10737847526E+03  0.32070581883E+03  0.50400001928E-02 0.  1.
       -1    1    3    3    0  502  0.10508413659E+03 -0.28333621282E+03 -0.96061563483E+02  0.31709605684E+03  0.50400001928E-02 0. -1.
</event>
<event>
 5   0  0.2684924E-02  0.7083194E+03  0.7818609E-02  0.9703110E-01
        1   -1    0    0  501    0  0.00000000000E+00  0.00000000000E+00  0.58887585107E+03  0.58887585109E+03  0.50400001928E-02 0. -1.
       -1   -1    0    0    0  501  0.00000000000E+00  0.00000000000E+00 -0.21299750499E+03  0.21299750505E+03  0.50400001928E-02 0.  1.
    10030    2    1    2    0    0  0.00000000000E+00  0.00000000000E+00  0.37587834609E+03  0.80187335614E+03  0.70831938293E+03 0.  0.
        4    1    3    3  502    0  0.30303120101E+03  0.13462874877E+03  0.32876661493E+03  0.46694957840E+03  0.12699999809E+01 0.  1.
       -4    1    3    3    0  502 -0.30303120101E+03 -0.13462874877E+03  0.47111731159E+02  0.33492377774E+03  0.12699999809E+01 0. -1.
</event>
<event>
 5   0  0.2777999E-02  0.7093978E+03  0.7818609E-02  0.9701294E-01
        1   -1    0    0  501    0  0.00000000000E+00  0.00000000000E+00  0.47012216878E+03  0.47012216881E+03  0.50400001928E-02 0.  1.
       -1   -1    0    0    0  501  0.00000000000E+00  0.00000000000E+00 -0.26761409216E+03  0.26761409221E+03  0.50400001928E-02 0. -1.
    10030    2    1    2    0    0  0.00000000000E+00  0.00000000000E+00  0.20250807662E+03  0.73773626102E+03  0.70939782190E+03 0.  0.
        5    1    3    3  502    0  0.12854646071E+03 -0.20993603792E+03 -0.16427259061E+03  0.29598126056E+03  0.46999998093E+01 0. -1.
       -5    1    3    3    0  502 -0.12854646071E+03  0.20993603792E+03  0.36678066723E+03  0.44175500046E+03  0.46999998093E+01 0.  1.
</event>
<event>
 5   0  0.4299912E-02  0.7024868E+03  0.7818609E-02  0.9712989E-01
        2   -1    0    0  501    0  0.00000000000E+00  0.00000000000E+00  0.77631720780E+03  0.77631720780E+03  0.25500000920E-02 0. -1.
       -2   -1    0    0    0  501  0.00000000000E+00  0.00000000000E+00 -0.15891948127E+03  0.15891948129E+03  0.25500000920E-02 0.  1.
    10030    2    1    2    0    0  0.00000000000E+00  0.00000000000E+00  0.61739772653E+03  0.93523668909E+03  0.70248680550E+03 0.  0.
        3    1    3    3  502    0  0.23693514449E+03 -0.66375118667E+02 -0.25004034009E+02  0.24732393938E+03  0.10100000352E+00 0.  1.
       -3    1    3    3    0  502 -0.23693514449E+03  0.66375118667E+02  0.64240176054E+03  0.68791274971E+03  0.10100000352E+00 0. -1.
</event>
<event>
 5   0  0.2684924E-02  0.6951113E+03  0.7818609E-02  0.9725629E-01
        1   -1    0    0  501    0  0.00000000000E+00  0.00000000000E+00  0.28472876093E+03  0.28472876097E+03  0.50400001928E-02 0. -1.
       -1   -1    0    0    0  501  0.00000000000E+00  0.00000000000E+00 -0.42424556480E+03  0.42424556483E+03  0.50400001928E-02 0.  1.
    10030    2    1    2    0    0  0.00000000000E+00  0.00000000000E+00 -0.13951680387E+03  0.70897432580E+03  0.69511125446E+03 0.  0.
        4    1    3    3  502    0  0.14876172789E+03  0.20080172396E+03  0.17659952221E+03  0.30600717014E+03  0.12699999809E+01 0. -1.
       -4    1    3    3    0  502 -0.14876172789E+03 -0.20080172396E+03 -0.31611632608E+03  0.40296715566E+03  0.12699999809E+01 0.  1.
</event>
<event>
 5   0  0.4526837E-02  0.6936311E+03  0.7818609E-02  0.9728186E-01
        2   -1    0    0  501    0  0.00000000000E+00  0.00000000000E+00  0.82889361585E+03  0.82889361586E+03  0.25500000920E-02 0. -1.
       -2   -1    0    0    0  501  0.00000000000E+00  0.00000000000E+00 -0.14511034630E+03  0.14511034632E+03  0.25500000920E-02 0.  1.
    10030    2    1    2    0    0  0.00000000000E+00  0.00000000000E+00  0.68378326956E+03  0.97400396218E+03  0.69363114017E+03 0.  0.
        1    1    3    3  502    0  0.29193396856E+03  0.15239238306E+03  0.18914764034E+03  0.37977060218E+03  0.50400001928E-02 0.  1.
       -1    1    3    3    0  502 -0.29193396856E+03 -0.15239238306E+03  0.49463562922E+03  0.59423336000E+03  0.50400001928E-02 0. -1.
</event>
<event>
 5   0  0.2684924E-02  0.6812560E+03  0.7818609E-02  0.9749835E-01
       -1   -1    0    0    0  501  0.00000000000E+00  0.00000000000E+00  0.67846057911E+03  0.67846057912E+03  0.50400001928E-02 0. -1.
        1   -1    0    0  501    0  0.00000000000E+00  0.00000000000E+00 -0.17101575200E+03  0.17101575208E+03  0.50400001928E-02 0.  1.
    10030    2    1    2    0    0  0.00000000000E+00  0.00000000000E+00  0.50744482710E+03  0.84947633120E+03  0.68125603463E+03 0.  0.
        4    1    3    3  502    0  0.10890771171E+03  0.52841551475E+02  0.65073242393E+03  0.66189683462E+03  0.12699999809E+01 0. -1.
       -4    1    3    3    0  502 -0.10890771171E+03 -0.52841551475E+02 -0.14328759683E+03  0.18757949658E+03  0.12699999809E+01 0.  1.
</event>
<event>
 5   0  0.2777999E-02  0.7057303E+03  0.7818609E-02  0.9707482E-01
        1   -1    0    0  501    0  0.00000000000E+00  0.00000000000E+00  0.55484622099E+03  0.55484622101E+03  0.50400001928E-02 0.  1.
       -1   -1    0    0    0  501  0.00000000000E+00  0.00000000000E+00 -0.22441140705E+03  0.22441140711E+03  0.50400001928E-02 0. -1.
    10030    2    1    2    0    0  0.00000000000E+00  0.00000000000E+00  0.33043481394E+03  0.77925762812E+03  0.70573032011E+03 0.  0.
        5    1    3    3  502    0 -0.24215342565E+03  0.15235846458E+03 -0.62791942576E+02  0.29294419491E+03  0.46999998093E+01 0. -1.
       -5    1    3    3    0  502  0.24215342565E+03 -0.15235846458E+03  0.39322675651E+03  0.48631343321E+03  0.46999998093E+01 0.  1.
</event>
<event>
 5   0  0.1784625E-02  0.7077903E+03  0.7818609E-02  0.9704002E-01
        3   -1    0    0  501    0  0.00000000000E+00  0.00000000000E+00  0.10735256426E+04  0.10735256474E+04  0.10100000352E+00 0.  1.
       -3   -1    0    0    0  501  0.00000000000E+00  0.00000000000E+00 -0.11666395994E+03  0.11666400366E+03  0.10100000352E+00 0. -1.
    10030    2    1    2    0    0  0.00000000000E+00  0.00000000000E+00  0.95686168266E+03  0.11901896510E+04  0.70779031191E+03 0.  0.
        1    1    3    3  502    0  0.29937480823E+03 -0.12632803165E+03  0.24266641155E+03  0.40555028628E+03  0.50400001928E-02 0. -1.
       -1    1    3    3    0  502 -0.29937480823E+03  0.12632803165E+03  0.71419527111E+03  0.78463936473E+03  0.50400001928E-02 0.  1.
</event>
<event>
 5   0  0.1784625E-02  0.7238480E+03  0.7818609E-02  0.9677296E-01
        4   -1    0    0  501    0  0.00000000000E+00  0.00000000000E+00  0.19259069297E+03  0.19259488030E+03  0.12699999809E+01 0.  1.
       -4   -1    0    0    0  501  0.00000000000E+00  0.00000000000E+00 -0.68012961168E+03  0.68013079741E+03  0.12699999809E+01 0. -1.
    10030    2    1    2    0    0  0.00000000000E+00  0.00000000000E+00 -0.48753891870E+03  0.87272567771E+03  0.72384798907E+03 0.  0.
        5    1    3    3  502    0  0.10232761558E+03 -0.32882824149E+03 -0.37785408086E+03  0.51126778672E+03  0.46999998093E+01 0. -1.
       -5    1    3    3    0  502 -0.10232761558E+03  0.32882824149E+03 -0.10968483784E+03  0.36145789099E+03  0.46999998093E+01 0.  1.
</event>
<event>
 5   0  0.1784625E-02  0.6841410E+03  0.7818609E-02  0.9744744E-01
       -3   -1    0    0    0  501  0.00000000000E+00  0.00000000000E+00  0.11597084387E+03  0.11597088785E+03  0.10100000352E+00 0.  1.
        3   -1    0    0  501    0  0.00000000000E+00  0.00000000000E+00 -0.10089793648E+04  0.10089793699E+04  0.10100000352E+00 0. -1.
    10030    2    1    2    0    0  0.00000000000E+00  0.00000000000E+00 -0.89300852097E+03  0.11249502577E+04  0.68414096783E+03 0.  0.
        5    1    3    3  502    0 -0.16524067089E+03 -0.26700437940E+03 -0.22349163564E+03  0.38544314643E+03  0.46999998093E+01 0.  1.
       -5    1    3    3    0  502  0.16524067089E+03  0.26700437940E+03 -0.66951688533E+03  0.73950711131E+03  0.46999998093E+01 0. -1.
</event>
<event>
 5   0  0.2750139E-02  0.6863211E+03  0.7818609E-02  0.9740915E-01
        1   -1    0    0  501    0  0.00000000000E+00  0.00000000000E+00  0.32548581602E+03  0.32548581606E+03  0.50400001928E-02 0.  1.
       -1   -1    0    0    0  501  0.00000000000E+00  0.00000000000E+00 -0.36179511306E+03  0.36179511309E+03  0.50400001928E-02 0. -1.
    10030    2    1    2    0    0  0.00000000000E+00  0.00000000000E+00 -0.36309297033E+02  0.68728092915E+03  0.68632114241E+03 0.  0.
        2    1    3    3  502    0 -0.38156723926E+02 -0.26134588451E+03  0.20124434942E+03  0.33204953713E+03  0.25500000920E-02 0.  1.
       -2    1    3    3    0  502  0.38156723926E+02  0.26134588451E+03 -0.23755364645E+03  0.35523139202E+03  0.25500000920E-02 0. -1.
</event>
<event>
 5   0  0.1784625E-02  0.6945561E+03  0.7818609E-02  0.9726588E-01
        3   -1    0    0  501    0  0.00000000000E+00  0.00000000000E+00  0.56011006406E+03  0.56011007317E+03  0.10100000352E+00 0. -1.
       -3   -1    0    0    0  501  0.00000000000E+00  0.00000000000E+00 -0.21531844331E+03  0.21531846700E+03  0.10100000352E+00 0.  1.
    10030    2    1    2    0    0  0.00000000000E+00  0.00000000000E+00  0.34479162075E+03  0.77542854016E+03  0.69455608784E+03 0.  0.
        3    1    3    3  502    0  0.31802184194E+02 -0.83267057242E+02  0.54712198351E+03  0.55433496803E+03  0.10100000352E+00 0. -1.
       -3    1    3    3    0  502 -0.31802184194E+02  0.83267057242E+02 -0.20233036276E+03  0.22109357213E+03  0.10100000352E+00 0.  1.
</event>
<event>
 5   0  0.2777999E-02  0.7135464E+03  0.7818609E-02  0.9694342E-01
        1   -1    0    0  501    0  0.00000000000E+00  0.00000000000E+00  0.55332970186E+03  0.55332970188E+03  0.50400001928E-02 0.  1.
       -1   -1    0    0    0  501  0.00000000000E+00  0.00000000000E+00 -0.23003848989E+03  0.23003848995E+03  0.50400001928E-02 0. -1.
    10030    2    1    2    0    0  0.00000000000E+00  0.00000000000E+00  0.32329121196E+03  0.78336819183E+03  0.71354643593E+03 0.  0.
        5    1    3    3  502    0 -0.25248358341E+03 -0.24618624406E+03  0.10242861506E+03  0.36724560969E+03  0.46999998093E+01 0. -1.
       -5    1    3    3    0  502  0.25248358341E+03  0.24618624406E+03  0.22086259691E+03  0.41612258214E+03  0.46999998093E+01 0.  1.
</event>
<event>
 5   0  0.4503289E-02  0.7341416E+03  0.7818609E-02  0.9660563E-01
       -2   -1    0    0    0  501  0.00000000000E+00  0.00000000000E+00  0.12701346291E+04  0.12701346291E+04  0.25500000920E-02 0. -1.
        2   -1    0    0  501    0  0.00000000000E+00  0.00000000000E+00 -0.10608400184E+03  0.10608400187E+03  0.25500000920E-02 0.  1.
    10030    2    1    2    0    0  0.00000000000E+00  0.00000000000E+00  0.11640506272E+04  0.13762186309E+04  0.73414157859E+03 0.  0.
        2    1    3    3  502    0 -0.88789200262E+02  0.20872425426E+03  0.11230390436E+04  0.11457163828E+04  0.25500000920E-02 0. -1.
       -2    1    3    3    0  502  0.88789200262E+02 -0.20872425426E+03  0.41011583638E+02  0.23050224814E+03  0.25500000920E-02 0.  1.
</event>
<event>
 5   0  0.2684924E-02  0.6997015E+03  0.7818609E-02  0.9717743E-01
        1   -1    0    0  501    0  0.00000000000E+00  0.00000000000E+00  0.47817351138E+03  0.47817351141E+03  0.50400001928E-02 0.  1.
       -1   -1    0    0    0  501  0.00000000000E+00  0.00000000000E+00 -0.25596471787E+03  0.25596471792E+03  0.50400001928E-02 0. -1.
    10030    2    1    2    0    0  0.00000000000E+00  0.00000000000E+00  0.22220879351E+03  0.73413822933E+03  0.69970150197E+03 0.  0.
        4    1    3    3  502    0  0.27372290912E+03 -0.71561082747E+02 -0.10481176681E+03  0.30171565903E+03  0.12699999809E+01 0. -1.
       -4    1    3    3    0  502 -0.27372290912E+03  0.71561082747E+02  0.32702056031E+03  0.43242257030E+03  0.12699999809E+01 0.  1.
</event>
<event>
 5   0  0.2751729E-02  0.6866907E+03  0.7818609E-02  0.9740267E-01
        1   -1    0    0  501    0  0.00000000000E+00  0.00000000000E+00  0.70083630762E+03  0.70083630763E+03  0.50400001928E-02 0. -1.
       -1   -1    0    0    0  501  0.00000000000E+00  0.00000000000E+00 -0.16820765699E+03  0.16820765707E+03  0.50400001928E-02 0.  1.
    10030    2    1    2    0    0  0.00000000000E+00  0.00000000000E+00  0.53262865062E+03  0.86904396470E+03  0.68669071140E+03 0.  0.
        1    1    3    3  502    0 -0.58586223079E+00  0.37605411240E+02 -0.16559288301E+03  0.16981022678E+03  0.50400001928E-02 0.  1.
       -1    1    3    3    0  502  0.58586223079E+00 -0.37605411240E+02  0.69822153364E+03  0.69923373792E+03  0.50400001928E-02 0. -1.
</event>
<event>
 5   0  0.2751729E-02  0.6959545E+03  0.7818609E-02  0.9724176E-01
        1   -1    0    0  501    0  0.00000000000E+00  0.00000000000E+00  0.13880440281E+03  0.13880440290E+03  0.50400001928E-02 0.  1.
       -1   -1    0    0    0  501  0.00000000000E+00  0.00000000000E+00 -0.87236537242E+03  0.87236537244E+03  0.50400001928E-02 0. -1.
    10030    2    1    2    0    0  0.00000000000E+00  0.00000000000E+00 -0.73356096961E+03  0.10111697753E+04  0.69595446576E+03 0.  0.
        1    1    3    3  502    0 -0.11086911986E+02  0.25933052717E+03 -0.30049868407E+02  0.26130104583E+03  0.50400001928E-02 0.  1.
       -1    1    3    3    0  502  0.11086911986E+02 -0.25933052717E+03 -0.70351110121E+03  0.74986872950E+03  0.50400001928E-02 0. -1.
</event>
<event>
 5   0  0.1784625E-02  0.7257891E+03  0.7818609E-02  0.9674118E-01
        3   -1    0    0  501    0  0.00000000000E+00  0.00000000000E+00  0.19077070959E+03  0.19077073632E+03  0.10100000352E+00 0.  1.
       -3   -1    0    0    0  501  0.00000000000E+00  0.00000000000E+00 -0.69031787823E+03  0.69031788561E+03  0.10100000352E+00 0. -1.
    10030    2    1    2    0    0  0.00000000000E+00  0.00000000000E+00 -0.49954716864E+03  0.88108862194E+03  0.72578907819E+03 0.  0.
        4    1    3    3  502    0  0.18943471380E+03 -0.61952877506E+02  0.11837705672E+03  0.23181546601E+03  0.12699999809E+01 0.  1.
       -4    1    3    3    0  502 -0.18943471380E+03  0.61952877506E+02 -0.61792422536E+03  0.64927315593E+03  0.12699999809E+01 0. -1.
</event>
<event>
 5   0  0.4365492E-02  0.6926619E+03  0.7818609E-02  0.9729864E-01
        2   -1    0    0  501    0  0.00000000000E+00  0.00000000000E+00  0.14619851412E+04  0.14619851412E+04  0.25500000920E-02 0.  1.
       -2   -1    0    0    0  501  0.00000000000E+00  0.00000000000E+00 -0.82042647757E+02  0.82042647796E+02  0.25500000920E-02 0. -1.
    10030    2    1    2    0    0  0.00000000000E+00  0.00000000000E+00  0.13799424935E+04  0.15440277890E+04  0.69266191465E+03 0.  0.
        4    1    3    3  502    0  0.39650580351E+01 -0.13557927932E+03 -0.20367221492E+02  0.13716376810E+03  0.12699999809E+01 0. -1.
       -4    1    3    3    0  502 -0.39650580351E+01  0.13557927932E+03  0.14003097150E+04  0.14068640209E+04  0.12699999809E+01 0.  1.
</event>
<event>
 5   0  0.2751729E-02  0.7052043E+03  0.7818609E-02  0.9708373E-01
       -1   -1    0    0    0  501  0.00000000000E+00  0.00000000000E+00  0.45979455232E+03  0.45979455235E+03  0.50400001928E-02 0.  1.
        1   -1    0    0  501    0  0.00000000000E+00  0.00000000000E+00 -0.27039960772E+03  0.27039960777E+03  0.50400001928E-02 0. -1.
    10030    2    1    2    0    0  0.00000000000E+00  0.00000000000E+00  0.18939494460E+03  0.73019416012E+03  0.70520427284E+03 0.  0.
        1    1    3    3  502    0  0.14970021867E+02  0.32857859274E+03 -0.36848896380E+02  0.33097709038E+03  0.50400001928E-02 0. -1.
       -1    1    3    3    0  502 -0.14970021867E+02 -0.32857859274E+03  0.22624384098E+03  0.39921706974E+03  0.50400001928E-02 0.  1.
</event>
<event>
 5   0  0.4365492E-02  0.7035421E+03  0.7818609E-02  0.9711194E-01
       -2   -1    0    0    0  501  0.00000000000E+00  0.00000000000E+00  0.77618203604E+02  0.77618203646E+02  0.25500000920E-02 0.  1.
        2   -1    0    0  501    0  0.00000000000E+00  0.00000000000E+00 -0.15942506751E+04  0.15942506751E+04  0.25500000920E-02 0. -1.
    10030    2    1    2    0    0  0.00000000000E+00  0.00000000000E+00 -0.15166324715E+04  0.16718688787E+04  0.70354210544E+03 0.  0.
        4    1    3    3  502    0  0.23489724582E+03 -0.25946475048E+03 -0.67454871506E+03  0.75994490243E+03  0.12699999809E+01 0.  1.
       -4    1    3    3    0  502 -0.23489724582E+03  0.25946475048E+03 -0.84208375642E+03  0.91192397630E+03  0.12699999809E+01 0. -1.
</event>
<event>
 5   0  0.4299912E-02  0.7013394E+03  0.7818609E-02  0.9714944E-01
       -2   -1    0    0    0  501  0.00000000000E+00  0.00000000000E+00  0.11143919400E+03  0.11143919402E+03  0.25500000920E-02 0. -1.
        2   -1    0    0  501    0  0.00000000000E+00  0.00000000000E+00 -0.11034649538E+04  0.11034649538E+04  0.25500000920E-02 0.  1.
    10030    2    1    2    0    0  0.00000000000E+00  0.00000000000E+00 -0.99202575982E+03  0.12149041478E+04  0.70133941875E+03 0.  0.
        3    1    3    3  502    0  0.28418594210E+03 -0.30596315744E+02 -0.14409718772E+03  0.32009653846E+03  0.10100000352E+00 0. -1.
       -3    1    3    3    0  502 -0.28418594210E+03  0.30596315744E+02 -0.84792857210E+03  0.89480760938E+03  0.10100000352E+00 0.  1.
</event>
<event>
 5   0  0.4526837E-02  0.7046464E+03  0.7818609E-02  0.9709319E-01
       -2   -1    0    0    0  501  0.00000000000E+00  0.00000000000E+00  0.50165144477E+03  0.50165144477E+03  0.25500000920E-02 0.  1.
        2   -1    0    0  501    0  0.00000000000E+00  0.00000000000E+00 -0.24744598151E+03  0.24744598153E+03  0.25500000920E-02 0. -1.
    10030    2    1    2    0    0  0.00000000000E+00  0.00000000000E+00  0.25420546325E+03  0.74909742630E+03  0.70464639114E+03 0.  0.
        1    1    3    3  502    0 -0.30892488888E+03 -0.16496752948E+02  0.30633515564E+03  0.43537105718E+03  0.50400001928E-02 0.  1.
       -1    1    3    3    0  502  0.30892488888E+03  0.16496752948E+02 -0.52129692384E+02  0.31372636912E+03  0.50400001928E-02 0. -1.
</event>
<event>
 5   0  0.4365492E-02  0.6986777E+03  0.7818609E-02  0.9719496E-01
        2   -1    0    0  501    0  0.00000000000E+00  0.00000000000E+00  0.55097628820E+03  0.55097628821E+03  0.25500000920E-02 0. -1.
       -2   -1    0    0    0  501  0.00000000000E+00  0.00000000000E+00 -0.22149346264E+03  0.22149346265E+03  0.25500000920E-02 0.  1.
    10030    2    1    2    0    0  0.00000000000E+00  0.00000000000E+00  0.32948282557E+03  0.77246975086E+03  0.69867773949E+03 0.  0.
        4    1    3    3  502    0  0.40250770642E+02  0.24077500732E+03  0.44102018273E+03  0.50407652511E+03  0.12699999809E+01 0. -1.
       -4    1    3    3    0  502 -0.40250770642E+02 -0.24077500732E+03 -0.11153735716E+03  0.26839322576E+03  0.12699999809E+01 0.  1.
</event>
<event>
 5   0  0.2751729E-02  0.7336738E+03  0.7818609E-02  0.9661317E-01
        1   -1    0    0  501    0  0.00000000000E+00  0.00000000000E+00  0.17513348874E+03  0.17513348881E+03  0.50400001928E-02 0.  1.
       -1   -1    0    0    0  501  0.00000000000E+00  0.00000000000E+00 -0.76838141887E+03  0.76838141889E+03  0.50400001928E-02 0. -1.
    10030    2    1    2    0    0  0.00000000000E+00  0.00000000000E+00 -0.59324793013E+03  0.94351490770E+03  0.73367382020E+03 0.  0.
        1    1    3    3  502    0  0.13312533432E+03  0.30398959335E+03 -0.49765924318E+03  0.59816114038E+03  0.50400001928E-02 0. -1.
       -1    1    3    3    0  502 -0.13312533432E+03 -0.30398959335E+03 -0.95588686949E+02  0.34535376732E+03  0.50400001928E-02 0.  1.
</event>
<event>
 5   0  0.4299912E-02  0.6878909E+03  0.7818609E-02  0.9738167E-01
        2   -1    0    0  501    0  0.00000000000E+00  0.00000000000E+00  0.42243310752E+03  0.42243310753E+03  0.25500000920E-02 0.  1.
       -2   -1    0    0    0  501  0.00000000000E+00  0.00000000000E+00 -0.28004071207E+03  0.28004071208E+03  0.25500000920E-02 0. -1.
    10030    2    1    2    0    0  0.00000000000E+00  0.00000000000E+00  0.14239239546E+03  0.70247381961E+03  0.68789088739E+03 0.  0.
        3    1    3    3  502    0  0.75615430272E+02  0.12207029429E+03 -0.24796680398E+03  0.28654213673E+03  0.10100000352E+00 0.  1.
       -3    1    3    3    0  502 -0.75615430272E+02 -0.12207029429E+03  0.39035919943E+03  0.41593168288E+03  0.10100000352E+00 0. -1.
</event>
<event>
 5   0  0.2751729E-02  0.6988111E+03  0.7818609E-02  0.9719268E-01
       -1   -1    0    0    0  501  0.00000000000E+00  0.00000000000E+00  0.73612242010E+02  0.73612242183E+02  0.50400001928E-02 0.  1.
        1   -1    0    0  501    0  0.00000000000E+00  0.00000000000E+00 -0.16584772571E+04  0.16584772571E+04  0.50400001928E-02 0. -1.
    10030    2    1    2    0    0  0.00000000000E+00  0.00000000000E+00 -0.15848650151E+04  0.17320894993E+04  0.69881107425E+03 0.  0.
        1    1    3    3  502    0  0.27853415237E+03  0.16197195106E+03 -0.11274415699E+04  0.11725786458E+04  0.50400001928E-02 0.  1.
       -1    1    3    3    0  502 -0.27853415237E+03 -0.16197195106E+03 -0.45742344518E+03  0.55951085350E+03  0.50400001928E-02 0. -1.
</event>
<event>
 5   0  0.4365492E-02  0.7005291E+03  0.7818609E-02  0.9716328E-01
        2   -1    0    0  501    0  0.00000000000E+00  0.00000000000E+00  0.10201511569E+03  0.10201511572E+03  0.25500000920E-02 0.  1.
       -2   -1    0    0    0  501  0.00000000000E+00  0.00000000000E+00 -0.12026185601E+04  0.12026185601E+04  0.25500000920E-02 0. -1.
    10030    2    1    2    0    0  0.00000000000E+00  0.00000000000E+00 -0.11006034444E+04  0.13046336758E+04  0.70052914733E+03 0.  0.
        4    1    3    3  502    0  0.29378902199E+03 -0.13025815105E+03 -0.29087577199E+03  0.43346222787E+03  0.12699999809E+01 0.  1.
       -4    1    3    3    0  502 -0.29378902199E+03  0.13025815105E+03 -0.80972767244E+03  0.87117144798E+03  0.12699999809E+01 0. -1.
</event>
<event>
 5   0  0.4503289E-02  0.7019501E+03  0.7818609E-02  0.9713903E-01
       -2   -1    0    0    0  501  0.00000000000E+00  0.00000000000E+00  0.10527065849E+03  0.10527065852E+03  0.25500000920E-02 0.  1.
        2   -1    0    0  501    0  0.00000000000E+00  0.00000000000E+00 -0.11701598330E+04  0.11701598330E+04  0.25500000920E-02 0. -1.
    10030    2    1    2    0    0  0.00000000000E+00  0.00000000000E+00 -0.10648891745E+04  0.12754304915E+04  0.70195012980E+03 0.  0.
        2    1    3    3  502    0 -0.11502580382E+03 -0.22996391496E+03 -0.98383083236E+02  0.27530631813E+03  0.25500000920E-02 0.  1.
       -2    1    3    3    0  502  0.11502580382E+03  0.22996391496E+03 -0.96650609129E+03  0.10001241734E+04  0.25500000920E-02 0. -1.
</event>
<event>
 5   0  0.4526837E-02  0.7074486E+03  0.7818609E-02  0.9704578E-01
       -2   -1    0    0    0  501  0.00000000000E+00  0.00000000000E+00  0.35842672812E+03  0.35842672813E+03  0.25500000920E-02 0. -1.
        2   -1    0    0  501    0  0.00000000000E+00  0.00000000000E+00 -0.34908355805E+03  0.34908355806E+03  0.25500000920E-02 0.  1.
    10030    2    1    2    0    0  0.00000000000E+00  0.00000000000E+00  0.93431700654E+01  0.70751028619E+03  0.70744859194E+03 0.  0.
        1    1    3    3  502    0  0.23008450891E+03  0.12858497728E+03 -0.23124705788E+03  0.35063967178E+03  0.50400001928E-02 0.  1.
       -1    1    3    3    0  502 -0.23008450891E+03 -0.12858497728E+03  0.24059022795E+03  0.35687061441E+03  0.50400001928E-02 0. -1.
</event>
<event>
 5   0  0.4299912E-02  0.6949581E+03  0.7818609E-02  0.9725894E-01
        2   -1    0    0  501    0  0.00000000000E+00  0.00000000000E+00  0.54513071443E+03  0.54513071444E+03  0.25500000920E-02 0.  1.
       -2   -1    0    0    0  501  0.00000000000E+00  0.00000000000E+00 -0.22149127636E+03  0.22149127638E+03  0.25500000920E-02 0. -1.
    10030    2    1    2    0    0  0.00000000000E+00  0.00000000000E+00  0.32363943807E+03  0.76662199082E+03  0.69495812171E+03 0.  0.
        3    1    3    3  502    0  0.12359407848E+03 -0.25673849358E+03 -0.57563963391E+02  0.29069532230E+03  0.10100000352E+00 0. -1.
       -3    1    3    3    0  502 -0.12359407848E+03  0.25673849358E+03  0.38120340146E+03  0.47592666852E+03  0.10100000352E+00 0.  1.
</event>
<event>
 5   0  0.1784625E-02  0.7068697E+03  0.7818609E-02  0.9705556E-01
       -3   -1    0    0    0  501  0.00000000000E+00  0.00000000000E+00  0.24321525517E+03  0.24321527614E+03  0.10100000352E+00 0.  1.
        3   -1    0    0  501    0  0.00000000000E+00  0.00000000000E+00 -0.51360341893E+03  0.51360342886E+03  0.10100000352E+00 0. -1.
    10030    2    1    2    0    0  0.00000000000E+00  0.00000000000E+00 -0.27038816376E+03  0.75681870500E+03  0.70686971439E+03 0.  0.
        4    1    3    3  502    0 -0.75062436577E+01 -0.32586764935E+02  0.24151526214E+03  0.24382263162E+03  0.12699999809E+01 0.  1.
       -4    1    3    3    0  502  0.75062436577E+01  0.32586764935E+02 -0.51190342591E+03  0.51299607337E+03  0.12699999809E+01 0. -1.
</event>
<event>
 5   0  0.4503289E-02  0.7151547E+03  0.7818609E-02  0.9691661E-01
        2   -1    0    0  501    0  0.00000000000E+00  0.00000000000E+00  0.19251961082E+03  0.19251961083E+03  0.25500000920E-02 0. -1.
       -2   -1    0    0    0  501  0.00000000000E+00  0.00000000000E+00 -0.66414831053E+03  0.66414831053E+03  0.25500000920E-02 0.  1.
    10030    2    1    2    0    0  0.00000000000E+00  0.00000000000E+00 -0.47162869971E+03  0.85666792137E+03  0.71515473648E+03 0.  0.
        2    1    3    3  502    0  0.14293884864E+03 -0.43763150558E+02 -0.62492155347E+03  0.64255246929E+03  0.25500000920E-02 0.  1.
       -2    1    3    3    0  502 -0.14293884864E+03  0.43763150558E+02  0.15329285376E+03  0.21411545208E+03  0.25500000920E-02 0. -1.
</event>
<event>
 5   0  0.2750139E-02  0.6601629E+03  0.7818609E-02  0.9787894E-01
       -1   -1    0    0    0  501  0.00000000000E+00  0.00000000000E+00  0.16407042742E+04  0.16407042742E+04  0.50400001928E-02 0. -1.
        1   -1    0    0  501    0  0.00000000000E+00  0.00000000000E+00 -0.66406705746E+02  0.66406705937E+02  0.50400001928E-02 0.  1.
    10030    2    1    2    0    0  0.00000000000E+00  0.00000000000E+00  0.15742975684E+04  0.17071109801E+04  0.66016290753E+03 0.  0.
        2    1    3    3  502    0 -0.19534810405E+03 -0.24349202865E+03  0.50978815150E+03  0.59777354340E+03  0.25500000920E-02 0.  1.
       -2    1    3    3    0  502  0.19534810405E+03  0.24349202865E+03  0.10645094169E+04  0.11093374367E+04  0.25500000920E-02 0. -1.
</event>
<event>
 5   0  0.2750139E-02  0.6801508E+03  0.7818609E-02  0.9751792E-01
       -1   -1    0    0    0  501  0.00000000000E+00  0.00000000000E+00  0.11948420238E+03  0.11948420248E+03  0.50400001928E-02 0.  1.
        1   -1    0    0  501    0  0.00000000000E+00  0.00000000000E+00 -0.96792112443E+03  0.96792112444E+03  0.50400001928E-02 0. -1.
    10030    2    1    2    0    0  0.00000000000E+00  0.00000000000E+00 -0.84843692205E+03  0.10874053269E+04  0.68015081734E+03 0.  0.
        2    1    3    3  502    0  0.28303392789E+03  0.17212467973E+03 -0.54719059123E+03  0.63965041456E+03  0.25500000920E-02 0.  1.
       -2    1    3    3    0  502 -0.28303392789E+03 -0.17212467973E+03 -0.30124633082E+03  0.44775491237E+03  0.25500000920E-02 0. -1.
</event>
<event>
 5   0  0.2684924E-02  0.7033694E+03  0.7818609E-02  0.9711487E-01
        1   -1    0    0  501    0  0.00000000000E+00  0.00000000000E+00  0.32997839976E+03  0.32997839979E+03  0.50400001928E-02 0. -1.
       -1   -1    0    0    0  501  0.00000000000E+00  0.00000000000E+00 -0.37481882278E+03  0.37481882281E+03  0.50400001928E-02 0.  1.
    10030    2    1    2    0    0  0.00000000000E+00  0.00000000000E+00 -0.44840423025E+02  0.70479722261E+03  0.70336936346E+03 0.  0.
        4    1    3    3  502    0 -0.33636540606E+03 -0.71755732104E+02 -0.95985397641E+02  0.35707895618E+03  0.12699999809E+01 0.  1.
       -4    1    3    3    0  502  0.33636540606E+03  0.71755732104E+02  0.51144974616E+02  0.34771826643E+03  0.12699999809E+01 0. -1.
</event>
<event>
 5   0  0.2777999E-02  0.7251426E+03  0.7818609E-02  0.9675176E-01
        1   -1    0    0  501    0  0.00000000000E+00  0.00000000000E+00  0.38094198084E+03  0.38094198087E+03  0.50400001928E-02 0. -1.
       -1   -1    0    0    0  501  0.00000000000E+00  0.00000000000E+00 -0.34508652508E+03  0.34508652511E+03  0.50400001928E-02 0.  1.
    10030    2    1    2    0    0  0.00000000000E+00  0.00000000000E+00  0.35855455760E+02  0.72602850598E+03  0.72514259135E+03 0.  0.
        5    1    3    3  502    0 -0.11342924825E+03  0.92525599372E+02 -0.31415303842E+03  0.34661419827E+03  0.46999998093E+01 0.  1.
       -5    1    3    3    0  502  0.11342924825E+03 -0.92525599372E+02  0.35000849418E+03  0.37941430771E+03  0.46999998093E+01 0. -1.
</event>
<event>
 5   0  0.2777999E-02  0.6834488E+03  0.7818609E-02  0.9745963E-01
        1   -1    0    0  501    0  0.00000000000E+00  0.00000000000E+00  0.39053883817E+03  0.39053883820E+03  0.50400001928E-02 0.  1.
       -1   -1    0    0    0  501  0.00000000000E+00  0.00000000000E+00 -0.29901139572E+03  0.29901139576E+03  0.50400001928E-02 0. -1.
    10030    2    1    2    0    0  0.00000000000E+00  0.00000000000E+00  0.91527442449E+02  0.68955023396E+03  0.68344879283E+03 0.  0.
        5    1    3    3  502    0  0.14631347542E+03 -0.12174142058E+03 -0.24053864424E+03  0.30677277576E+03  0.46999998093E+01 0. -1.
       -5    1    3    3    0  502 -0.14631347542E+03  0.12174142058E+03  0.33206608669E+03  0.38277745820E+03  0.46999998093E+01 0.  1.
</event>
<event>
 5   0  0.4299912E-02  0.5132438E+03  0.7818609E-02  0.1010379E+00
       -2   -1    0    0    0  501  0.00000000000E+00  0.00000000000E+00  0.10445035286E+03  0.10445035289E+03  0.25500000920E-02 0.  1.
        2   -1    0    0  501    0  0.00000000000E+00  0.00000000000E+00 -0.63048906064E+03  0.63048906064E+03  0.25500000920E-02 0. -1.
    10030    2    1    2    0    0  0.00000000000E+00  0.00000000000E+00 -0.52603870778E+03  0.73493941353E+03  0.51324382070E+03 0.  0.
        3    1    3    3  502    0  0.13107165507E+03 -0.85026448203E+02 -0.55453817596E+03  0.57612661322E+03  0.10100000352E+00 0. -1.
       -3    1    3    3    0  502 -0.13107165507E+03  0.85026448203E+02  0.28499468185E+02  0.15881280032E+03  0.10100000352E+00 0.  1.
</event>
<event>
 5   0  0.4299912E-02  0.6899120E+03  0.7818609E-02  0.9734641E-01
       -2   -1    0    0    0  501  0.00000000000E+00  0.00000000000E+00  0.16631461757E+03  0.16631461759E+03  0.25500000920E-02 0.  1.
        2   -1    0    0  501    0  0.00000000000E+00  0.00000000000E+00 -0.71547915480E+03  0.71547915481E+03  0.25500000920E-02 0. -1.
    10030    2    1    2    0    0  0.00000000000E+00  0.00000000000E+00 -0.54916453723E+03  0.88179377240E+03  0.68991200025E+03 0.  0.
        3    1    3    3  502    0 -0.35086523276E+01  0.17871163852E+03  0.10250678402E+03  0.20605293338E+03  0.10100000352E+00 0.  1.
       -3    1    3    3    0  502  0.35086523276E+01 -0.17871163852E+03 -0.65167132125E+03  0.67574083902E+03  0.10100000352E+00 0. -1.
</event>
<event>
 5   0  0.2777999E-02  0.6956533E+03  0.7818609E-02  0.9724695E-01
       -1   -1    0    0    0  501  0.00000000000E+00  0.00000000000E+00  0.96855624718E+02  0.96855624849E+02  0.50400001928E-02 0.  1.
        1   -1    0    0  501    0  0.00000000000E+00  0.00000000000E+00 -0.12491105705E+04  0.12491105705E+04  0.50400001928E-02 0. -1.
    10030    2    1    2    0    0  0.00000000000E+00  0.00000000000E+00 -0.11522549458E+04  0.13459661953E+04  0.69565331808E+03 0.  0.
        5    1    3    3  502    0  0.17486974688E+03 -0.24767705045E+03 -0.24642346150E+03  0.39073003732E+03  0.46999998093E+01 0.  1.
       -5    1    3    3    0  502 -0.17486974688E+03  0.24767705045E+03 -0.90583148426E+03  0.95523615801E+03  0.46999998093E+01 0. -1.
</event>
<event>
 5   0  0.4526837E-02  0.7073260E+03  0.7818609E-02  0.9704785E-01
        2   -1    0    0  501    0  0.00000000000E+00  0.00000000000E+00  0.67964270290E+03  0.67964270291E+03  0.25500000920E-02 0.  1.
       -2   -1    0    0    0  501  0.00000000000E+00  0.00000000000E+00 -0.18403421174E+03  0.18403421175E+03  0.25500000920E-02 0. -1.
    10030    2    1    2    0    0  0.00000000000E+00  0.00000000000E+00  0.49560849117E+03  0.86367691466E+03  0.70732597606E+03 0.  0.
        1    1    3    3  502    0 -0.31545114762E+03  0.84770161449E+01  0.52833422019E+02  0.31995727347E+03  0.50400001928E-02 0. -1.
       -1    1    3    3    0  502  0.31545114762E+03 -0.84770161449E+01  0.44277506915E+03  0.54371964120E+03  0.50400001928E-02 0.  1.
</event>
<event>
 5   0  0.2750139E-02  0.7223867E+03  0.7818609E-02  0.9679696E-01
       -1   -1    0    0    0  501  0.00000000000E+00  0.00000000000E+00  0.95930856318E+03  0.95930856319E+03  0.50400001928E-02 0.  1.
        1   -1    0    0  501    0  0.00000000000E+00  0.00000000000E+00 -0.13599446365E+03  0.13599446374E+03  0.50400001928E-02 0. -1.
    10030    2    1    2    0    0  0.00000000000E+00  0.00000000000E+00  0.82331409953E+03  0.10953030269E+04  0.72238674845E+03 0.  0.
        2    1    3    3  502    0 -0.26057962560E+03  0.24337855758E+03  0.49909740819E+03  0.61337842026E+03  0.25500000920E-02 0.  1.
       -2    1    3    3    0  502  0.26057962560E+03 -0.24337855758E+03  0.32421669134E+03  0.48192460668E+03  0.25500000920E-02 0. -1.
</event>
<event>
 5   0  0.4299912E-02  0.6961489E+03  0.7818609E-02  0.9723841E-01
       -2   -1    0    0    0  501  0.00000000000E+00  0.00000000000E+00  0.83658078909E+02  0.83658078948E+02  0.25500000920E-02 0.  1.
        2   -1    0    0  501    0  0.00000000000E+00  0.00000000000E+00 -0.14482262624E+04  0.14482262624E+04  0.25500000920E-02 0. -1.
    10030    2    1    2    0    0  0.00000000000E+00  0.00000000000E+00 -0.13645681834E+04  0.15318843413E+04  0.69614891213E+03 0.  0.
        3    1    3    3  502    0  0.27414068777E+03  0.16659105437E+03 -0.97955793531E+03  0.10307470373E+04  0.10100000352E+00 0. -1.
       -3    1    3    3    0  502 -0.27414068777E+03 -0.16659105437E+03 -0.38501024814E+03  0.50113730400E+03  0.10100000352E+00 0.  1.
</event>
<event>
 5   0  0.4365492E-02  0.7704807E+03  0.7818609E-02  0.9603756E-01
       -2   -1    0    0    0  501  0.00000000000E+00  0.00000000000E+00  0.13288308344E+03  0.13288308347E+03  0.25500000920E-02 0. -1.
        2   -1    0    0  501    0  0.00000000000E+00  0.00000000000E+00 -0.11168472760E+04  0.11168472760E+04  0.25500000920E-02 0.  1.
    10030    2    1    2    0    0  0.00000000000E+00  0.00000000000E+00 -0.98396419255E+03  0.12497303595E+04  0.77048065462E+03 0.  0.
        4    1    3    3  502    0  0.32137140758E+03 -0.93213114099E+02 -0.80161359852E+03  0.86865081620E+03  0.12699999809E+01 0.  1.
       -4    1    3    3    0  502 -0.32137140758E+03  0.93213114099E+02 -0.18235059404E+03  0.38107954327E+03  0.12699999809E+01 0. -1.
</event>
<event>
 5   0  0.4420645E-02  0.7016751E+03  0.7818609E-02  0.9714372E-01
       -2   -1    0    0    0  501  0.00000000000E+00  0.00000000000E+00  0.89394907135E+03  0.89394907135E+03  0.25500000920E-02 0. -1.
        2   -1    0    0  501    0  0.00000000000E+00  0.00000000000E+00 -0.13768902926E+03  0.13768902929E+03  0.25500000920E-02 0.  1.
    10030    2    1    2    0    0  0.00000000000E+00  0.00000000000E+00  0.75626004209E+03  0.10316381006E+04  0.70167508110E+03 0.  0.
        5    1    3    3  502    0 -0.94142865553E+02 -0.27877973660E+03  0.65895889893E+03  0.72168548631E+03  0.46999998093E+01 0. -1.
       -5    1    3    3    0  502  0.94142865553E+02  0.27877973660E+03  0.97301143158E+02  0.30995261433E+03  0.46999998093E+01 0.  1.
</event>
<event>
 5   0  0.2751729E-02  0.6525461E+03  0.7818609E-02  0.9802013E-01
        1   -1    0    0  501    0  0.00000000000E+00  0.00000000000E+00  0.89437792711E+03  0.89437792712E+03  0.50400001928E-02 0. -1.
       -1   -1    0    0    0  501  0.00000000000E+00  0.00000000000E+00 -0.11902586624E+03  0.11902586635E+03  0.50400001928E-02 0.  1.
    10030    2    1    2    0    0  0.00000000000E+00  0.00000000000E+00  0.77535206086E+03  0.10134037935E+04  0.65254611357E+03 0.  0.
        1    1    3    3  502    0  0.24171899359E+02  0.77888741543E+02 -0.10294198093E+03  0.13133159651E+03  0.50400001928E-02 0.  1.
       -1    1    3    3    0  502 -0.24171899359E+02 -0.77888741543E+02  0.87829404179E+03  0.88207219696E+03  0.50400001928E-02 0. -1.
</event>
<event>
 5   0  0.1784625E-02  0.6999315E+03  0.7818609E-02  0.9717349E-01
        3   -1    0    0  501    0  0.00000000000E+00  0.00000000000E+00  0.66016763293E+03  0.66016764065E+03  0.10100000352E+00 0.  1.
       -3   -1    0    0    0  501  0.00000000000E+00  0.00000000000E+00 -0.18552260302E+03  0.18552263051E+03  0.10100000352E+00 0. -1.
    10030    2    1    2    0    0  0.00000000000E+00  0.00000000000E+00  0.47464502991E+03  0.84569027117E+03  0.69993151832E+03 0.  0.
        3    1    3    3  502    0 -0.28706274346E+03  0.19434121039E+03  0.17934556278E+03  0.39030547758E+03  0.10100000352E+00 0.  1.
       -3    1    3    3    0  502  0.28706274346E+03 -0.19434121039E+03  0.29529946713E+03  0.45538479359E+03  0.10100000352E+00 0. -1.
</event>
<event>
 5   0  0.2751729E-02  0.7155448E+03  0.7818609E-02  0.9691012E-01
       -1   -1    0    0    0  501  0.00000000000E+00  0.00000000000E+00  0.72118060918E+02  0.72118061095E+02  0.50400001928E-02 0.  1.
        1   -1    0    0  501    0  0.00000000000E+00  0.00000000000E+00 -0.17748823767E+04  0.17748823767E+04  0.50400001928E-02 0. -1.
    10030    2    1    2    0    0  0.00000000000E+00  0.00000000000E+00 -0.17027643158E+04  0.18470004378E+04  0.71554475901E+03 0.  0.
        1    1    3    3  502    0  0.84072971338E+02 -0.29620004250E+03 -0.13216967090E+04  0.13570869244E+04  0.50400001928E-02 0. -1.
       -1    1    3    3    0  502 -0.84072971338E+02  0.29620004250E+03 -0.38106760682E+03  0.48991351347E+03  0.50400001928E-02 0.  1.
</event>
<event>
 5   0  0.2684924E-02  0.7554209E+03  0.7818609E-02  0.9626884E-01
        1   -1    0    0  501    0  0.00000000000E+00  0.00000000000E+00  0.39106392996E+03  0.39106392999E+03  0.50400001928E-02 0. -1.
       -1   -1    0    0    0  501  0.00000000000E+00  0.00000000000E+00 -0.36481292871E+03  0.36481292875E+03  0.50400001928E-02 0.  1.
    10030    2    1    2    0    0  0.00000000000E+00  0.00000000000E+00  0.26251001250E+02  0.75587685874E+03  0.75542088303E+03 0.  0.
        4    1    3    3  502    0  0.83910642112E+02  0.49330451601E+02 -0.35204557036E+03  0.36525632893E+03  0.12699999809E+01 0.  1.
       -4    1    3    3    0  502 -0.83910642112E+02 -0.49330451601E+02  0.37829657161E+03  0.39062052981E+03  0.12699999809E+01 0. -1.
</event>
<event>
 5   0  0.2777999E-02  0.7013585E+03  0.7818609E-02  0.9714912E-01
       -1   -1    0    0    0  501  0.00000000000E+00  0.00000000000E+00  0.63986528875E+03  0.63986528877E+03  0.50400001928E-02 0.  1.
        1   -1    0    0  501    0  0.00000000000E+00  0.00000000000E+00 -0.19219036035E+03  0.19219036041E+03  0.50400001928E-02 0. -1.
    10030    2    1    2    0    0  0.00000000000E+00  0.00000000000E+00  0.44767492841E+03  0.83205564918E+03  0.70135851161E+03 0.  0.
        5    1    3    3  502    0  0.96896677022E+02 -0.33527898976E+03  0.26411890596E+03  0.43770064368E+03  0.46999998093E+01 0.  1.
       -5    1    3    3    0  502 -0.96896677022E+02  0.33527898976E+03  0.18355602245E+03  0.39435500551E+03  0.46999998093E+01 0. -1.
</event>
<event>
 5   0  0.4299912E-02  0.6998612E+03  0.7818609E-02  0.9717470E-01
       -2   -1    0    0    0  501  0.00000000000E+00  0.00000000000E+00  0.13734240343E+03  0.13734240345E+03  0.25500000920E-02 0.  1.
        2   -1    0    0  501    0  0.00000000000E+00  0.00000000000E+00 -0.89157761853E+03  0.89157761853E+03  0.25500000920E-02 0. -1.
    10030    2    1    2    0    0  0.00000000000E+00  0.00000000000E+00 -0.75423521510E+03  0.10289200220E+04  0.69986116619E+03 0.  0.
        3    1    3    3  502    0 -0.17868468968E+03  0.23473522604E+03 -0.10041727380E+03  0.31162875950E+03  0.10100000352E+00 0.  1.
       -3    1    3    3    0  502  0.17868468968E+03 -0.23473522604E+03 -0.65381794130E+03  0.71729126248E+03  0.10100000352E+00 0. -1.
</event>
<event>
 5   0  0.2750139E-02  0.6712356E+03  0.7818609E-02  0.9767728E-01
       -1   -1    0    0    0  501  0.00000000000E+00  0.00000000000E+00  0.11103820621E+03  0.11103820633E+03  0.50400001928E-02 0.  1.
        1   -1    0    0  501    0  0.00000000000E+00  0.00000000000E+00 -0.10144193351E+04  0.10144193351E+04  0.50400001928E-02 0. -1.
    10030    2    1    2    0    0  0.00000000000E+00  0.00000000000E+00 -0.90338112885E+03  0.11254575414E+04  0.67123558721E+03 0.  0.
        2    1    3    3  502    0 -0.10524789454E+03  0.94321470703E+02 -0.96209391503E+03  0.97241881948E+03  0.25500000920E-02 0. -1.
       -2    1    3    3    0  502  0.10524789454E+03 -0.94321470703E+02  0.58712786178E+02  0.15303872192E+03  0.25500000920E-02 0.  1.
</event>
<event>
 5   0  0.2684924E-02  0.6985041E+03  0.7818609E-02  0.9719794E-01
       -1   -1    0    0    0  501  0.00000000000E+00  0.00000000000E+00  0.51503833803E+03  0.51503833805E+03  0.50400001928E-02 0. -1.
        1   -1    0    0  501    0  0.00000000000E+00  0.00000000000E+00 -0.23683093330E+03  0.23683093335E+03  0.50400001928E-02 0.  1.
    10030    2    1    2    0    0  0.00000000000E+00  0.00000000000E+00  0.27820740473E+03  0.75186927141E+03  0.69850414547E+03 0.  0.
        4    1    3    3  502    0  0.32135573903E+03 -0.10575479388E+03  0.45749359400E+02  0.34139157022E+03  0.12699999809E+01 0.  1.
       -4    1    3    3    0  502 -0.32135573903E+03  0.10575479388E+03  0.23245804533E+03  0.41047770119E+03  0.12699999809E+01 0. -1.
</event>
<event>
 5   0  0.2758681E-02  0.6692020E+03  0.7818609E-02  0.9771401E-01
        1   -1    0    0  501    0  0.00000000000E+00  0.00000000000E+00  0.25021490100E+03  0.25021490105E+03  0.50400001928E-02 0.  1.
       -1   -1    0    0    0  501  0.00000000000E+00  0.00000000000E+00 -0.44744667979E+03  0.44744667981E+03  0.50400001928E-02 0. -1.
    10030    2    1    2    0    0  0.00000000000E+00  0.00000000000E+00 -0.19723177879E+03  0.69766158086E+03  0.66920199256E+03 0.  0.
        3    1    3    3  502    0  0.18035126951E+03  0.25656048798E+03 -0.22023000007E+03  0.38321159630E+03  0.10100000352E+00 0. -1.
       -3    1    3    3    0  502 -0.18035126951E+03 -0.25656048798E+03  0.22998221279E+02  0.31444998456E+03  0.10100000352E+00 0.  1.
</event>
<event>
 5   0  0.2684924E-02  0.6920067E+03  0.7818609E-02  0.9731000E-01
        1   -1    0    0  501    0  0.00000000000E+00  0.00000000000E+00  0.57525002089E+03  0.57525002091E+03  0.50400001928E-02 0.  1.
       -1   -1    0    0    0  501  0.00000000000E+00  0.00000000000E+00 -0.20811527273E+03  0.20811527279E+03  0.50400001928E-02 0. -1.
    10030    2    1    2    0    0  0.00000000000E+00  0.00000000000E+00  0.36713474816E+03  0.78336529370E+03  0.69200669077E+03 0.  0.
        4    1    3    3  502    0  0.34231188650E+03  0.17619478314E+02  0.13012418623E+03  0.36663577348E+03  0.12699999809E+01 0. -1.
       -4    1    3    3    0  502 -0.34231188650E+03 -0.17619478314E+02  0.23701056193E+03  0.41672952022E+03  0.12699999809E+01 0.  1.
</event>
<event>
 5   0  0.4503289E-02  0.6725919E+03  0.7818609E-02  0.9765287E-01
       -2   -1    0    0    0  501  0.00000000000E+00  0.00000000000E+00  0.10925926078E+03  0.10925926081E+03  0.25500000920E-02 0.  1.
        2   -1    0    0  501    0  0.00000000000E+00  0.00000000000E+00 -0.10351063721E+04  0.10351063721E+04  0.25500000920E-02 0. -1.
    10030    2    1    2    0    0  0.00000000000E+00  0.00000000000E+00 -0.92584711133E+03  0.11443656329E+04  0.67259187347E+03 0.  0.
        2    1    3    3  502    0  0.16705924672E+03 -0.83658708410E+02  0.12829445980E+02  0.18727564203E+03  0.25500000920E-02 0.  1.
       -2    1    3    3    0  502 -0.16705924672E+03  0.83658708410E+02 -0.93867655731E+03  0.95708999089E+03  0.25500000920E-02 0. -1.
</event>
<event>
 5   0  0.4420645E-02  0.6861112E+03  0.7818609E-02  0.9741283E-01
        2   -1    0    0  501    0  0.00000000000E+00  0.00000000000E+00  0.16536118430E+03  0.16536118432E+03  0.25500000920E-02 0. -1.
       -2   -1    0    0    0  501  0.00000000000E+00  0.00000000000E+00 -0.71169759773E+03  0.71169759774E+03  0.25500000920E-02 0.  1.
    10030    2    1    2    0    0  0.00000000000E+00  0.00000000000E+00 -0.54633641343E+03  0.87705878205E+03  0.68611123773E+03 0.  0.
        5    1    3    3  502    0 -0.27060529822E+03  0.20897139387E+02 -0.50253811927E+01  0.27149818105E+03  0.46999998093E+01 0. -1.
       -5    1    3    3    0  502  0.27060529822E+03 -0.20897139387E+02 -0.54131103224E+03  0.60556060100E+03  0.46999998093E+01 0.  1.
</event>
<event>
 5   0  0.4299912E-02  0.7064998E+03  0.7818609E-02  0.9706181E-01
       -2   -1    0    0    0  501  0.00000000000E+00  0.00000000000E+00  0.33780245222E+03  0.33780245223E+03  0.25500000920E-02 0. -1.
        2   -1    0    0  501    0  0.00000000000E+00  0.00000000000E+00 -0.36940376119E+03  0.36940376119E+03  0.25500000920E-02 0.  1.
    10030    2    1    2    0    0  0.00000000000E+00  0.00000000000E+00 -0.31601308961E+02  0.70720621343E+03  0.70649981287E+03 0.  0.
        3    1    3    3  502    0  0.32839233235E+03  0.75957848854E+02 -0.12161522914E+03  0.35833140096E+03  0.10100000352E+00 0. -1.
       -3    1    3    3    0  502 -0.32839233235E+03 -0.75957848854E+02  0.90013920183E+02  0.34887481247E+03  0.10100000352E+00 0.  1.
</event>
<event>
 5   0  0.4420645E-02  0.7022371E+03  0.7818609E-02  0.9713414E-01
        2   -1    0    0  501    0  0.00000000000E+00  0.00000000000E+00  0.95266813377E+03  0.95266813377E+03  0.25500000920E-02 0.  1.
       -2   -1    0    0    0  501  0.00000000000E+00  0.00000000000E+00 -0.12940942839E+03  0.12940942842E+03  0.25500000920E-02 0. -1.
    10030    2    1    2    0    0  0.00000000000E+00  0.00000000000E+00  0.82325870538E+03  0.10820775622E+04  0.70223710712E+03 0.  0.
        5    1    3    3  502    0  0.28109955654E+03  0.39872483434E+02  0.72987427963E+03  0.78316366724E+03  0.46999998093E+01 0.  1.
       -5    1    3    3    0  502 -0.28109955654E+03 -0.39872483434E+02  0.93384425746E+02  0.29891389495E+03  0.46999998093E+01 0. -1.
</event>
<event>
 5   0  0.2684924E-02  0.7029892E+03  0.7818609E-02  0.9712134E-01
       -1   -1    0    0    0  501  0.00000000000E+00  0.00000000000E+00  0.40441911252E+03  0.40441911255E+03  0.50400001928E-02 0. -1.
        1   -1    0    0  501    0  0.00000000000E+00  0.00000000000E+00 -0.30549605339E+03  0.30549605343E+03  0.50400001928E-02 0.  1.
    10030    2    1    2    0    0  0.00000000000E+00  0.00000000000E+00  0.98923059124E+02  0.70991516598E+03  0.70298916867E+03 0.  0.
        4    1    3    3  502    0 -0.49902486411E+02  0.18920879373E+03  0.34432558586E+03  0.39604538597E+03  0.12699999809E+01 0. -1.
       -4    1    3    3    0  502  0.49902486411E+02 -0.18920879373E+03 -0.24540252673E+03  0.31386978001E+03  0.12699999809E+01 0.  1.
</event>
<event>
 5   0  0.2758681E-02  0.6968650E+03  0.7818609E-02  0.9722609E-01
       -1   -1    0    0    0  501  0.00000000000E+00  0.00000000000E+00  0.10324639018E+03  0.10324639031E+03  0.50400001928E-02 0.  1.
        1   -1    0    0  501    0  0.00000000000E+00  0.00000000000E+00 -0.11758783227E+04  0.11758783227E+04  0.50400001928E-02 0. -1.
    10030    2    1    2    0    0  0.00000000000E+00  0.00000000000E+00 -0.10726319325E+04  0.12791247130E+04  0.69686495736E+03 0.  0.
        3    1    3    3  502    0 -0.18870826236E+03 -0.27664616198E+03 -0.71296027452E+03  0.78769046615E+03  0.10100000352E+00 0. -1.
       -3    1    3    3    0  502  0.18870826236E+03  0.27664616198E+03 -0.35967165798E+03  0.49143424685E+03  0.10100000352E+00 0.  1.
</event>
<event>
 5   0  0.2758681E-02  0.7027011E+03  0.7818609E-02  0.9712624E-01
        1   -1    0    0  501    0  0.00000000000E+00  0.00000000000E+00  0.11312014224E+04  0.11312014224E+04  0.50400001928E-02 0. -1.
       -1   -1    0    0    0  501  0.00000000000E+00  0.00000000000E+00 -0.10912928010E+03  0.10912928022E+03  0.50400001928E-02 0.  1.
    10030    2    1    2    0    0  0.00000000000E+00  0.00000000000E+00  0.10220721423E+04  0.12403307026E+04  0.70270106575E+03 0.  0.
        3    1    3    3  502    0 -0.19251418314E+03 -0.29192340981E+03  0.45075885517E+03  0.57049499877E+03  0.10100000352E+00 0.  1.
       -3    1    3    3    0  502  0.19251418314E+03  0.29192340981E+03  0.57131328710E+03  0.66983570383E+03  0.10100000352E+00 0. -1.
</event>
<event>
 5   0  0.2777999E-02  0.8188241E+03  0.7818609E-02  0.9533163E-01
       -1   -1    0    0    0  501  0.00000000000E+00  0.00000000000E+00  0.24714201002E+03  0.24714201007E+03  0.50400001928E-02 0.  1.
        1   -1    0    0  501    0  0.00000000000E+00  0.00000000000E+00 -0.67822639529E+03  0.67822639531E+03  0.50400001928E-02 0. -1.
    10030    2    1    2    0    0  0.00000000000E+00  0.00000000000E+00 -0.43108438527E+03  0.92536840538E+03  0.81882411937E+03 0.  0.
        5    1    3    3  502    0  0.44625511910E+02  0.38009878451E+03 -0.37981659948E+03  0.53921170382E+03  0.46999998093E+01 0. -1.
       -5    1    3    3    0  502 -0.44625511910E+02 -0.38009878451E+03 -0.51267785791E+02  0.38615670156E+03  0.46999998093E+01 0.  1.
</event>
<event>
 5   0  0.4503289E-02  0.6778098E+03  0.7818609E-02  0.9755951E-01
       -2   -1    0    0    0  501  0.00000000000E+00  0.00000000000E+00  0.16277283085E+03  0.16277283087E+03  0.25500000920E-02 0. -1.
        2   -1    0    0  501    0  0.00000000000E+00  0.00000000000E+00 -0.70562471274E+03  0.70562471275E+03  0.25500000920E-02 0.  1.
    10030    2    1    2    0    0  0.00000000000E+00  0.00000000000E+00 -0.54285188189E+03  0.86839754362E+03  0.67780980230E+03 0.  0.
        2    1    3    3  502    0 -0.20282053499E+02  0.31343352446E+02 -0.70298220194E+03  0.70397282880E+03  0.25500000920E-02 0.  1.
       -2    1    3    3    0  502  0.20282053499E+02 -0.31343352446E+02  0.16013032005E+03  0.16442471482E+03  0.25500000920E-02 0. -1.
</event>
<event>
 5   0  0.4299912E-02  0.7036960E+03  0.7818609E-02  0.9710932E-01
        2   -1    0    0  501    0  0.00000000000E+00  0.00000000000E+00  0.17859568562E+04  0.17859568562E+04  0.25500000920E-02 0. -1.
       -2   -1    0    0    0  501  0.00000000000E+00  0.00000000000E+00 -0.69316919533E+02  0.69316919579E+02  0.25500000920E-02 0.  1.
    10030    2    1    2    0    0  0.00000000000E+00  0.00000000000E+00  0.17166399367E+04  0.18552737758E+04  0.70369603590E+03 0.  0.
        3    1    3    3  502    0  0.45010733844E+02  0.14176729304E+03  0.17649281982E+02  0.14978464171E+03  0.10100000352E+00 0.  1.
       -3    1    3    3    0  502 -0.45010733844E+02 -0.14176729304E+03  0.16989906547E+04  0.17054891341E+04  0.10100000352E+00 0. -1.
</event>
<event>
 5   0  0.4299912E-02  0.7191441E+03  0.7818609E-02  0.9685042E-01
       -2   -1    0    0    0  501  0.00000000000E+00  0.00000000000E+00  0.22916443769E+03  0.22916443770E+03  0.25500000920E-02 0.  1.
        2   -1    0    0  501    0  0.00000000000E+00  0.00000000000E+00 -0.56418900023E+03  0.56418900024E+03  0.25500000920E-02 0. -1.
    10030    2    1    2    0    0  0.00000000000E+00  0.00000000000E+00 -0.33502456254E+03  0.79335343794E+03  0.71914408847E+03 0.  0.
        3    1    3    3  502    0 -0.17748983891E+02  0.29764748231E+03 -0.38920429788E+03  0.49029485602E+03  0.10100000352E+00 0. -1.
       -3    1    3    3    0  502  0.17748983891E+02 -0.29764748231E+03  0.54179735335E+02  0.30305858192E+03  0.10100000352E+00 0.  1.
</event>
<event>
 5   0  0.2750139E-02  0.7095886E+03  0.7818609E-02  0.9700973E-01
       -1   -1    0    0    0  501  0.00000000000E+00  0.00000000000E+00  0.28412416369E+03  0.28412416374E+03  0.50400001928E-02 0. -1.
        1   -1    0    0  501    0  0.00000000000E+00  0.00000000000E+00 -0.44304222827E+03  0.44304222830E+03  0.50400001928E-02 0.  1.
    10030    2    1    2    0    0  0.00000000000E+00  0.00000000000E+00 -0.15891806458E+03  0.72716639204E+03  0.70958862058E+03 0.  0.
        2    1    3    3  502    0  0.13403049168E+03  0.15185166397E+03 -0.37797542409E+03  0.42882224963E+03  0.25500000920E-02 0.  1.
       -2    1    3    3    0  502 -0.13403049168E+03 -0.15185166397E+03  0.21905735951E+03  0.29834414241E+03  0.25500000920E-02 0. -1.
</event>
<event>
 5   0  0.4365492E-02  0.6879496E+03  0.7818609E-02  0.9738065E-01
       -2   -1    0    0    0  501  0.00000000000E+00  0.00000000000E+00  0.39031619390E+03  0.39031619391E+03  0.25500000920E-02 0. -1.
        2   -1    0    0  501    0  0.00000000000E+00  0.00000000000E+00 -0.30313545921E+03  0.30313545922E+03  0.25500000920E-02 0.  1.
    10030    2    1    2    0    0  0.00000000000E+00  0.00000000000E+00  0.87180734694E+02  0.69345165313E+03  0.68794964549E+03 0.  0.
        4    1    3    3  502    0  0.26075079581E+03  0.45849475313E+02  0.26494609509E+03  0.37455466638E+03  0.12699999809E+01 0. -1.
       -4    1    3    3    0  502 -0.26075079581E+03 -0.45849475313E+02 -0.17776536040E+03  0.31889698675E+03  0.12699999809E+01 0.  1.
</event>
<event>
 5   0  0.4299912E-02  0.7020947E+03  0.7818609E-02  0.9713657E-01
       -2   -1    0    0    0  501  0.00000000000E+00  0.00000000000E+00  0.25344705889E+03  0.25344705890E+03  0.25500000920E-02 0. -1.
        2   -1    0    0  501    0  0.00000000000E+00  0.00000000000E+00 -0.48623262791E+03  0.48623262792E+03  0.25500000920E-02 0.  1.
    10030    2    1    2    0    0  0.00000000000E+00  0.00000000000E+00 -0.23278556902E+03  0.73967968682E+03  0.70209466452E+03 0.  0.
        3    1    3    3  502    0 -0.14142536482E+03 -0.31041566548E+03 -0.29037196624E+02  0.34234805123E+03  0.10100000352E+00 0.  1.
       -3    1    3    3    0  502  0.14142536482E+03  0.31041566548E+03 -0.20374837239E+03  0.39733163559E+03  0.10100000352E+00 0. -1.
</event>
<event>
 5   0  0.4299912E-02  0.7298611E+03  0.7818609E-02  0.9667486E-01
       -2   -1    0    0    0  501  0.00000000000E+00  0.00000000000E+00  0.14307383283E+03  0.14307383285E+03  0.25500000920E-02 0. -1.
        2   -1    0    0  501    0  0.00000000000E+00  0.00000000000E+00 -0.93080823541E+03  0.93080823541E+03  0.25500000920E-02 0.  1.
    10030    2    1    2    0    0  0.00000000000E+00  0.00000000000E+00 -0.78773440259E+03  0.10738820683E+04  0.72986108782E+03 0.  0.
        3    1    3    3  502    0  0.33819975871E+03 -0.13315608276E+03 -0.44187639374E+03  0.57215765023E+03  0.10100000352E+00 0. -1.
       -3    1    3    3    0  502 -0.33819975871E+03  0.13315608276E+03 -0.34585800884E+03  0.50172441803E+03  0.10100000352E+00 0.  1.
</event>
<event>
 5   0  0.1784625E-02  0.7021042E+03  0.7818609E-02  0.9713640E-01
       -3   -1    0    0    0  501  0.00000000000E+00  0.00000000000E+00  0.49519580794E+03  0.49519581824E+03  0.10100000352E+00 0. -1.
        3   -1    0    0  501    0  0.00000000000E+00  0.00000000000E+00 -0.24886636204E+03  0.24886638253E+03  0.10100000352E+00 0.  1.
    10030    2    1    2    0    0  0.00000000000E+00  0.00000000000E+00  0.24632944590E+03  0.74406220077E+03  0.70210423919E+03 0.  0.
        1    1    3    3  502    0 -0.23083068320E+03  0.24567768936E+03  0.19344666333E+02  0.33766040262E+03  0.50400001928E-02 0.  1.
       -1    1    3    3    0  502  0.23083068320E+03 -0.24567768936E+03  0.22698477957E+03  0.40640179815E+03  0.50400001928E-02 0. -1.
</event>
<event>
 5   0  0.4299912E-02  0.6930590E+03  0.7818609E-02  0.9729176E-01
       -2   -1    0    0    0  501  0.00000000000E+00  0.00000000000E+00  0.12622012527E+03  0.12622012530E+03  0.25500000920E-02 0.  1.
        2   -1    0    0  501    0  0.00000000000E+00  0.00000000000E+00 -0.95137508142E+03  0.95137508143E+03  0.25500000920E-02 0. -1.
    10030    2    1    2    0    0  0.00000000000E+00  0.00000000000E+00 -0.82515495615E+03  0.10775952067E+04  0.69305896423E+03 0.  0.
        3    1    3    3  502    0  0.29841339942E+03 -0.68799369267E+02 -0.66472407719E+03  0.73187568559E+03  0.10100000352E+00 0. -1.
       -3    1    3    3    0  502 -0.29841339942E+03  0.68799369267E+02 -0.16043087896E+03  0.34571952113E+03  0.10100000352E+00 0.  1.
</event>
<event>
 5   0  0.4420645E-02  0.7185707E+03  0.7818609E-02  0.9685990E-01
        2   -1    0    0  501    0  0.00000000000E+00  0.00000000000E+00  0.14013425560E+04  0.14013425560E+04  0.25500000920E-02 0. -1.
       -2   -1    0    0    0  501  0.00000000000E+00  0.00000000000E+00 -0.92115932342E+02  0.92115932377E+02  0.25500000920E-02 0.  1.
    10030    2    1    2    0    0  0.00000000000E+00  0.00000000000E+00  0.13092266237E+04  0.14934584884E+04  0.71857073725E+03 0.  0.
        5    1    3    3  502    0  0.30520326679E+03 -0.83503287894E+02  0.10081938035E+04  0.10566923244E+04  0.46999998093E+01 0.  1.
       -5    1    3    3    0  502 -0.30520326679E+03  0.83503287894E+02  0.30103282020E+03  0.43676616396E+03  0.46999998093E+01 0. -1.
</event>
<event>
 5   0  0.2758681E-02  0.6974464E+03  0.7818609E-02  0.9721609E-01
       -1   -1    0    0    0  501  0.00000000000E+00  0.00000000000E+00  0.31574688732E+03  0.31574688736E+03  0.50400001928E-02 0. -1.
        1   -1    0    0  501    0  0.00000000000E+00  0.00000000000E+00 -0.38514357246E+03  0.38514357249E+03  0.50400001928E-02 0.  1.
    10030    2    1    2    0    0  0.00000000000E+00  0.00000000000E+00 -0.69396685138E+02  0.70089045985E+03  0.69744644010E+03 0.  0.
        3    1    3    3  502    0  0.15853578464E+02  0.31873196051E+03 -0.17598589602E+03  0.36443441714E+03  0.10100000352E+00 0.  1.
       -3    1    3    3    0  502 -0.15853578464E+02 -0.31873196051E+03  0.10658921088E+03  0.33645604271E+03  0.10100000352E+00 0. -1.
</event>
<event>
 5   0  0.1784625E-02  0.6977480E+03  0.7818609E-02  0.9721091E-01
       -3   -1    0    0    0  501  0.00000000000E+00  0.00000000000E+00  0.11126388830E+04  0.11126388876E+04  0.10100000352E+00 0.  1.
        3   -1    0    0  501    0  0.00000000000E+00  0.00000000000E+00 -0.10939132262E+03  0.10939136925E+03  0.10100000352E+00 0. -1.
    10030    2    1    2    0    0  0.00000000000E+00  0.00000000000E+00  0.10032475604E+04  0.12220302569E+04  0.69774800697E+03 0.  0.
        4    1    3    3  502    0 -0.15944266183E+03 -0.30778716330E+03  0.57072184487E+03  0.66774241846E+03  0.12699999809E+01 0.  1.
       -4    1    3    3    0  502  0.15944266183E+03  0.30778716330E+03  0.43252571555E+03  0.55428783841E+03  0.12699999809E+01 0. -1.
</event>
<event>
 5   0  0.2750139E-02  0.7004578E+03  0.7818609E-02  0.9716450E-01
        1   -1    0    0  501    0  0.00000000000E+00  0.00000000000E+00  0.45663698284E+03  0.45663698286E+03  0.50400001928E-02 0. -1.
       -1   -1    0    0    0  501  0.00000000000E+00  0.00000000000E+00 -0.26861658432E+03  0.26861658437E+03  0.50400001928E-02 0.  1.
    10030    2    1    2    0    0  0.00000000000E+00  0.00000000000E+00  0.18802039852E+03  0.72525356723E+03  0.70045775499E+03 0.  0.
        2    1    3    3  502    0 -0.10127568414E+03 -0.33425306677E+03  0.12097812695E+03  0.36961815979E+03  0.25500000920E-02 0. -1.
       -2    1    3    3    0  502  0.10127568414E+03  0.33425306677E+03  0.67042271564E+02  0.35563540744E+03  0.25500000920E-02 0.  1.
</event>
<event>
 5   0  0.2684924E-02  0.6972198E+03  0.7818609E-02  0.9721999E-01
        1   -1    0    0  501    0  0.00000000000E+00  0.00000000000E+00  0.15972417461E+04  0.15972417462E+04  0.50400001928E-02 0.  1.
       -1   -1    0    0    0  501  0.00000000000E+00  0.00000000000E+00 -0.76086705740E+02  0.76086705907E+02  0.50400001928E-02 0. -1.
    10030    2    1    2    0    0  0.00000000000E+00  0.00000000000E+00  0.15211550404E+04  0.16733284521E+04  0.69721980144E+03 0.  0.
        4    1    3    3  502    0 -0.33848083373E+03 -0.72990519307E+02  0.85748407217E+03  0.92475804275E+03  0.12699999809E+01 0. -1.
       -4    1    3    3    0  502  0.33848083373E+03  0.72990519307E+02  0.66367096824E+03  0.74857040931E+03  0.12699999809E+01 0.  1.
</event>
<event>
 5   0  0.4299912E-02  0.7099212E+03  0.7818609E-02  0.9700414E-01
        2   -1    0    0  501    0  0.00000000000E+00  0.00000000000E+00  0.57929668414E+03  0.57929668415E+03  0.25500000920E-02 0.  1.
       -2   -1    0    0    0  501  0.00000000000E+00  0.00000000000E+00 -0.21750000575E+03  0.21750000577E+03  0.25500000920E-02 0. -1.
    10030    2    1    2    0    0  0.00000000000E+00  0.00000000000E+00  0.36179667839E+03  0.79679668992E+03  0.70992121293E+03 0.  0.
        3    1    3    3  502    0 -0.84633094730E+02 -0.33130689914E+03  0.28778930634E+03  0.44693368321E+03  0.10100000352E+00 0. -1.
       -3    1    3    3    0  502  0.84633094730E+02  0.33130689914E+03  0.74007372050E+02  0.34986300671E+03  0.10100000352E+00 0.  1.
</event>
<event>
 5   0  0.4299912E-02  0.6994088E+03  0.7818609E-02  0.9718244E-01
        2   -1    0    0  501    0  0.00000000000E+00  0.00000000000E+00  0.17140867461E+04  0.17140867461E+04  0.25500000920E-02 0. -1.
       -2   -1    0    0    0  501  0.00000000000E+00  0.00000000000E+00 -0.71345964806E+02  0.71345964851E+02  0.25500000920E-02 0.  1.
    10030    2    1    2    0    0  0.00000000000E+00  0.00000000000E+00  0.16427407813E+04  0.17854327110E+04  0.69940881523E+03 0.  0.
        3    1    3    3  502    0  0.10193916544E+03  0.19013641726E+03  0.15239618692E+04  0.15391566651E+04  0.10100000352E+00 0. -1.
       -3    1    3    3    0  502 -0.10193916544E+03 -0.19013641726E+03  0.11877891209E+03  0.24627604589E+03  0.10100000352E+00 0.  1.
</event>
<event>
 5   0  0.4526837E-02  0.7455994E+03  0.7818609E-02  0.9642280E-01
       -2   -1    0    0    0  501  0.00000000000E+00  0.00000000000E+00  0.19782216074E+03  0.19782216076E+03  0.25500000920E-02 0.  1.
        2   -1    0    0  501    0  0.00000000000E+00  0.00000000000E+00 -0.70254833569E+03  0.70254833569E+03  0.25500000920E-02 0. -1.
    10030    2    1    2    0    0  0.00000000000E+00  0.00000000000E+00 -0.50472617495E+03  0.90037049645E+03  0.74559943616E+03 0.  0.
        1    1    3    3  502    0 -0.17644496408E+02 -0.18991170604E+03  0.13444297362E+03  0.23335101784E+03  0.50400001928E-02 0.  1.
       -1    1    3    3    0  502  0.17644496408E+02  0.18991170604E+03 -0.63916914857E+03  0.66701947861E+03  0.50400001928E-02 0. -1.
</event>
<event>
 5   0  0.2751729E-02  0.6953335E+03  0.7818609E-02  0.9725246E-01
        1   -1    0    0  501    0  0.00000000000E+00  0.00000000000E+00  0.51206191283E+03  0.51206191285E+03  0.50400001928E-02 0.  1.
       -1   -1    0    0    0  501  0.00000000000E+00  0.00000000000E+00 -0.23604991928E+03  0.23604991933E+03  0.50400001928E-02 0. -1.
    10030    2    1    2    0    0  0.00000000000E+00  0.00000000000E+00  0.27601199355E+03  0.74811183219E+03  0.69533351198E+03 0.  0.
        1    1    3    3  502    0 -0.34133834810E+03 -0.46589499240E+02  0.18835235241E+03  0.39263094377E+03  0.50400001928E-02 0.  1.
       -1    1    3    3    0  502  0.34133834810E+03  0.46589499240E+02  0.87659641135E+02  0.35548088842E+03  0.50400001928E-02 0. -1.
</event>
<event>
 5   0  0.4503289E-02  0.6935402E+03  0.7818609E-02  0.9728343E-01
       -2   -1    0    0    0  501  0.00000000000E+00  0.00000000000E+00  0.37219615518E+03  0.37219615518E+03  0.25500000920E-02 0.  1.
        2   -1    0    0  501    0  0.00000000000E+00  0.00000000000E+00 -0.32308102259E+03  0.32308102260E+03  0.25500000920E-02 0. -1.
    10030    2    1    2    0    0  0.00000000000E+00  0.00000000000E+00  0.49115132588E+02  0.69527717778E+03  0.69354023509E+03 0.  0.
        2    1    3    3  502    0  0.12453830336E+02  0.19878472315E+03  0.30913298609E+03  0.36774130464E+03  0.25500000920E-02 0.  1.
       -2    1    3    3    0  502 -0.12453830336E+02 -0.19878472315E+03 -0.26001785350E+03  0.32753587314E+03  0.25500000920E-02 0. -1.
</event>
<event>
 5   0  0.4299912E-02  0.8630504E+03  0.7818609E-02  0.9472987E-01
        2   -1    0    0  501    0  0.00000000000E+00  0.00000000000E+00  0.10320170255E+04  0.10320170255E+04  0.25500000920E-02 0.  1.
       -2   -1    0    0    0  501  0.00000000000E+00  0.00000000000E+00 -0.18043694741E+03  0.18043694743E+03  0.25500000920E-02 0. -1.
    10030    2    1    2    0    0  0.00000000000E+00  0.00000000000E+00  0.85158007804E+03  0.12124539729E+04  0.86305040818E+03 0.  0.
        3    1    3    3  502    0 -0.37039726905E+03 -0.14186012491E+03  0.66459571966E+03  0.77395472268E+03  0.10100000352E+00 0.  1.
       -3    1    3    3    0  502  0.37039726905E+03  0.14186012491E+03  0.18698435838E+03  0.43849925021E+03  0.10100000352E+00 0. -1.
</event>
<event>
 5   0  0.2751729E-02  0.7020189E+03  0.7818609E-02  0.9713786E-01
       -1   -1    0    0    0  501  0.00000000000E+00  0.00000000000E+00  0.18426928373E+03  0.18426928380E+03  0.50400001928E-02 0. -1.
        1   -1    0    0  501    0  0.00000000000E+00  0.00000000000E+00 -0.66862825048E+03  0.66862825050E+03  0.50400001928E-02 0.  1.
    10030    2    1    2    0    0  0.00000000000E+00  0.00000000000E+00 -0.48435896675E+03  0.85289753430E+03  0.70201894230E+03 0.  0.
        1    1    3    3  502    0 -0.23651166758E+03  0.24088245936E+03 -0.35899854555E+03  0.49279010122E+03  0.50400001928E-02 0.  1.
       -1    1    3    3    0  502  0.23651166758E+03 -0.24088245936E+03 -0.12536042119E+03  0.36010743307E+03  0.50400001928E-02 0. -1.
</event>
<event>
 5   0  0.4365492E-02  0.7100217E+03  0.7818609E-02  0.9700246E-01
        2   -1    0    0  501    0  0.00000000000E+00  0.00000000000E+00  0.86164767909E+03  0.86164767909E+03  0.25500000920E-02 0.  1.
       -2   -1    0    0    0  501  0.00000000000E+00  0.00000000000E+00 -0.14626943526E+03  0.14626943528E+03  0.25500000920E-02 0. -1.
    10030    2    1    2    0    0  0.00000000000E+00  0.00000000000E+00  0.71537824383E+03  0.10079171144E+04  0.71002174452E+03 0.  0.
        4    1    3    3  502    0  0.22221778184E+03 -0.19983888065E+03  0.62969210646E+03  0.69701512367E+03  0.12699999809E+01 0.  1.
       -4    1    3    3    0  502 -0.22221778184E+03  0.19983888065E+03  0.85686137372E+02  0.31090199070E+03  0.12699999809E+01 0. -1.
</event>
<event>
 5   0  0.2777999E-02  0.7050500E+03  0.7818609E-02  0.9708635E-01
        1   -1    0    0  501    0  0.00000000000E+00  0.00000000000E+00  0.43422170809E+03  0.43422170812E+03  0.50400001928E-02 0.  1.
       -1   -1    0    0    0  501  0.00000000000E+00  0.00000000000E+00 -0.28619914987E+03  0.28619914992E+03  0.50400001928E-02 0. -1.
    10030    2    1    2    0    0  0.00000000000E+00  0.00000000000E+00  0.14802255822E+03  0.72042085803E+03  0.70505002301E+03 0.  0.
        5    1    3    3  502    0 -0.25272760471E+03 -0.16054496460E+03 -0.11607081479E+03  0.32115487212E+03  0.46999998093E+01 0. -1.
       -5    1    3    3    0  502  0.25272760471E+03  0.16054496460E+03  0.26409337301E+03  0.39926598591E+03  0.46999998093E+01 0.  1.
</event>
<event>
 5   0  0.4420645E-02  0.6743987E+03  0.7818609E-02  0.9762044E-01
        2   -1    0    0  501    0  0.00000000000E+00  0.00000000000E+00  0.51368831565E+03  0.51368831566E+03  0.25500000920E-02 0.  1.
       -2   -1    0    0    0  501  0.00000000000E+00  0.00000000000E+00 -0.22134704066E+03  0.22134704067E+03  0.25500000920E-02 0. -1.
    10030    2    1    2    0    0  0.00000000000E+00  0.00000000000E+00  0.29234127500E+03  0.73503535633E+03  0.67439866102E+03 0.  0.
        5    1    3    3  502    0 -0.17045966237E+02  0.31581074806E+03  0.18812608473E+02  0.31686432079E+03  0.46999998093E+01 0.  1.
       -5    1    3    3    0  502  0.17045966237E+02 -0.31581074806E+03  0.27352866652E+03  0.41817103554E+03  0.46999998093E+01 0. -1.
</event>
<event>
 5   0  0.4365492E-02  0.6992895E+03  0.7818609E-02  0.9718448E-01
       -2   -1    0    0    0  501  0.00000000000E+00  0.00000000000E+00  0.53916677761E+03  0.53916677762E+03  0.25500000920E-02 0. -1.
        2   -1    0    0  501    0  0.00000000000E+00  0.00000000000E+00 -0.22674145613E+03  0.22674145614E+03  0.25500000920E-02 0.  1.
    10030    2    1    2    0    0  0.00000000000E+00  0.00000000000E+00  0.31242532148E+03  0.76590823376E+03  0.69928952590E+03 0.  0.
        4    1    3    3  502    0  0.13938047636E+03  0.31607606097E+02  0.50571054899E+03  0.52551948605E+03  0.12699999809E+01 0. -1.
       -4    1    3    3    0  502 -0.13938047636E+03 -0.31607606097E+02 -0.19328522751E+03  0.24038874771E+03  0.12699999809E+01 0.  1.
</event>
<event>
 5   0  0.4299912E-02  0.7028140E+03  0.7818609E-02  0.9712432E-01
        2   -1    0    0  501    0  0.00000000000E+00  0.00000000000E+00  0.26846943527E+03  0.26846943529E+03  0.25500000920E-02 0. -1.
       -2   -1    0    0    0  501  0.00000000000E+00  0.00000000000E+00 -0.45996621767E+03  0.45996621767E+03  0.25500000920E-02 0.  1.
    10030    2    1    2    0    0  0.00000000000E+00  0.00000000000E+00 -0.19149678239E+03  0.72843565296E+03  0.70281397456E+03 0.  0.
        3    1    3    3  502    0  0.62931699732E+02  0.34483898168E+03 -0.70096613828E+02  0.35747428941E+03  0.10100000352E+00 0. -1.
       -3    1    3    3    0  502 -0.62931699732E+02 -0.34483898168E+03 -0.12140016856E+03  0.37096136355E+03  0.10100000352E+00 0.  1.
</event>
<event>
 5   0  0.4299912E-02  0.6905941E+03  0.7818609E-02  0.9733454E-01
       -2   -1    0    0    0  501  0.00000000000E+00  0.00000000000E+00  0.27704348020E+03  0.27704348021E+03  0.25500000920E-02 0.  1.
        2   -1    0    0  501    0  0.00000000000E+00  0.00000000000E+00 -0.43036584537E+03  0.43036584537E+03  0.25500000920E-02 0. -1.
    10030    2    1    2    0    0  0.00000000000E+00  0.00000000000E+00 -0.15332236517E+03  0.70740932559E+03  0.69059409661E+03 0.  0.
        3    1    3    3  502    0  0.12229437174E+03 -0.11939098309E+03 -0.38399987080E+03  0.42031658446E+03  0.10100000352E+00 0. -1.
       -3    1    3    3    0  502 -0.12229437174E+03  0.11939098309E+03  0.23067750563E+03  0.28709274112E+03  0.10100000352E+00 0.  1.
</event>
<event>
 5   0  0.4365492E-02  0.7096742E+03  0.7818609E-02  0.9700830E-01
       -2   -1    0    0    0  501  0.00000000000E+00  0.00000000000E+00  0.68781523833E+02  0.68781523880E+02  0.25500000920E-02 0.  1.
        2   -1    0    0  501    0  0.00000000000E+00  0.00000000000E+00 -0.18305698455E+04  0.18305698455E+04  0.25500000920E-02 0. -1.
    10030    2    1    2    0    0  0.00000000000E+00  0.00000000000E+00 -0.17617883217E+04  0.18993513694E+04  0.70967424499E+03 0.  0.
        4    1    3    3  502    0 -0.17375676063E+03 -0.19681972432E+03 -0.24204074292E+03  0.35709207479E+03  0.12699999809E+01 0.  1.
       -4    1    3    3    0  502  0.17375676063E+03  0.19681972432E+03 -0.15197475787E+04  0.15422592946E+04  0.12699999809E+01 0. -1.
</event>
<event>
 5   0  0.4299912E-02  0.7002818E+03  0.7818609E-02  0.9716750E-01
        2   -1    0    0  501    0  0.00000000000E+00  0.00000000000E+00  0.69555054304E+03  0.69555054305E+03  0.25500000920E-02 0.  1.
       -2   -1    0    0    0  501  0.00000000000E+00  0.00000000000E+00 -0.17626130115E+03  0.17626130117E+03  0.25500000920E-02 0. -1.
    10030    2    1    2    0    0  0.00000000000E+00  0.00000000000E+00  0.51928924189E+03  0.87181184422E+03  0.70028178255E+03 0.  0.
        3    1    3    3  502    0  0.85843340030E+01 -0.33350323590E+03  0.39198714922E+03  0.51473491673E+03  0.10100000352E+00 0.  1.
       -3    1    3    3    0  502 -0.85843340030E+01  0.33350323590E+03  0.12730209267E+03  0.35707692749E+03  0.10100000352E+00 0. -1.
</event>
<event>
 5   0  0.1784625E-02  0.6703338E+03  0.7818609E-02  0.9769355E-01
        3   -1    0    0  501    0  0.00000000000E+00  0.00000000000E+00  0.48169970117E+03  0.48169971176E+03  0.10100000352E+00 0. -1.
       -3   -1    0    0    0  501  0.00000000000E+00  0.00000000000E+00 -0.23320930599E+03  0.23320932787E+03  0.10100000352E+00 0.  1.
    10030    2    1    2    0    0  0.00000000000E+00  0.00000000000E+00  0.24849039518E+03  0.71490903963E+03  0.67033384104E+03 0.  0.
        4    1    3    3  502    0  0.12097130042E+02  0.14955646792E+03 -0.19538695379E+03  0.24635574332E+03  0.12699999809E+01 0.  1.
       -4    1    3    3    0  502 -0.12097130042E+02 -0.14955646792E+03  0.44387734897E+03  0.46855329631E+03  0.12699999809E+01 0. -1.
</event>
<event>
 5   0  0.2777999E-02  0.7055960E+03  0.7818609E-02  0.9707710E-01
       -1   -1    0    0    0  501  0.00000000000E+00  0.00000000000E+00  0.18073046110E+03  0.18073046117E+03  0.50400001928E-02 0.  1.
        1   -1    0    0  501    0  0.00000000000E+00  0.00000000000E+00 -0.68868532189E+03  0.68868532191E+03  0.50400001928E-02 0. -1.
    10030    2    1    2    0    0  0.00000000000E+00  0.00000000000E+00 -0.50795486079E+03  0.86941578309E+03  0.70559596320E+03 0.  0.
        5    1    3    3  502    0  0.33099847115E+02  0.34498372387E+03 -0.33510412651E+03  0.48210604147E+03  0.46999998093E+01 0.  1.
       -5    1    3    3    0  502 -0.33099847115E+02 -0.34498372387E+03 -0.17285073427E+03  0.38730974162E+03  0.46999998093E+01 0. -1.
</event>
<event>
 5   0  0.4526837E-02  0.6963370E+03  0.7818609E-02  0.9723517E-01
        2   -1    0    0  501    0  0.00000000000E+00  0.00000000000E+00  0.91663814428E+03  0.91663814428E+03  0.25500000920E-02 0.  1.
       -2   -1    0    0    0  501  0.00000000000E+00  0.00000000000E+00 -0.13224554536E+03  0.13224554538E+03  0.25500000920E-02 0. -1.
    10030    2    1    2    0    0  0.00000000000E+00  0.00000000000E+00  0.78439259892E+03  0.10488836897E+04  0.69633701984E+03 0.  0.
        1    1    3    3  502    0 -0.45653503442E+02  0.33548503652E+03  0.26994681494E+03  0.43301932409E+03  0.50400001928E-02 0.  1.
       -1    1    3    3    0  502  0.45653503442E+02 -0.33548503652E+03  0.51444578398E+03  0.61586436558E+03  0.50400001928E-02 0. -1.
</event>
<event>
 5   0  0.2751729E-02  0.6926295E+03  0.7818609E-02  0.9729920E-01
        1   -1    0    0  501    0  0.00000000000E+00  0.00000000000E+00  0.60082282668E+03  0.60082282670E+03  0.50400001928E-02 0. -1.
       -1   -1    0    0    0  501  0.00000000000E+00  0.00000000000E+00 -0.19961609406E+03  0.19961609412E+03  0.50400001928E-02 0.  1.
    10030    2    1    2    0    0  0.00000000000E+00  0.00000000000E+00  0.40120673262E+03  0.80043892082E+03  0.69262949957E+03 0.  0.
        1    1    3    3  502    0 -0.23859976467E+03 -0.21397167730E+03  0.35225463586E+03  0.47623214392E+03  0.50400001928E-02 0. -1.
       -1    1    3    3    0  502  0.23859976467E+03  0.21397167730E+03  0.48952096752E+02  0.32420677690E+03  0.50400001928E-02 0.  1.
</event>
<event>
 5   0  0.4365492E-02  0.6901397E+03  0.7818609E-02  0.9734245E-01
       -2   -1    0    0    0  501  0.00000000000E+00  0.00000000000E+00  0.62097446738E+03  0.62097446739E+03  0.25500000920E-02 0.  1.
        2   -1    0    0  501    0  0.00000000000E+00  0.00000000000E+00 -0.19175218094E+03  0.19175218096E+03  0.25500000920E-02 0. -1.
    10030    2    1    2    0    0  0.00000000000E+00  0.00000000000E+00  0.42922228644E+03  0.81272664835E+03  0.69013972046E+03 0.  0.
        4    1    3    3  502    0  0.19027313510E+03  0.20010067800E+03 -0.29096177939E+02  0.27765508774E+03  0.12699999809E+01 0. -1.
       -4    1    3    3    0  502 -0.19027313510E+03 -0.20010067800E+03  0.45831846438E+03  0.53507156061E+03  0.12699999809E+01 0.  1.
</event>
<event>
 5   0  0.4365492E-02  0.6899798E+03  0.7818609E-02  0.9734523E-01
        2   -1    0    0  501    0  0.00000000000E+00  0.00000000000E+00  0.16994967777E+04  0.16994967777E+04  0.25500000920E-02 0.  1.
       -2   -1    0    0    0  501  0.00000000000E+00  0.00000000000E+00 -0.70031334830E+02  0.70031334877E+02  0.25500000920E-02 0. -1.
    10030    2    1    2    0    0  0.00000000000E+00  0.00000000000E+00  0.16294654429E+04  0.17695281126E+04  0.68997979080E+03 0.  0.
        4    1    3    3  502    0 -0.55762167070E+02  0.12178611687E+03  0.16300812024E+04  0.16355756225E+04  0.12699999809E+01 0.  1.
       -4    1    3    3    0  502  0.55762167070E+02 -0.12178611687E+03 -0.61575954667E+00  0.13395249008E+03  0.12699999809E+01 0. -1.
</event>
<event>
 5   0  0.2777999E-02  0.6763630E+03  0.7818609E-02  0.9758531E-01
        1   -1    0    0  501    0  0.00000000000E+00  0.00000000000E+00  0.61914517538E+03  0.61914517540E+03  0.50400001928E-02 0.  1.
       -1   -1    0    0    0  501  0.00000000000E+00  0.00000000000E+00 -0.18471714767E+03  0.18471714774E+03  0.50400001928E-02 0. -1.
    10030    2    1    2    0    0  0.00000000000E+00  0.00000000000E+00  0.43442802771E+03  0.80386232314E+03  0.67636301148E+03 0.  0.
        5    1    3    3  502    0 -0.13305676960E+02  0.24251321288E+03  0.49684160549E+03  0.55304915731E+03  0.46999998093E+01 0.  1.
       -5    1    3    3    0  502  0.13305676960E+02 -0.24251321288E+03 -0.62413577779E+02  0.25081316583E+03  0.46999998093E+01 0. -1.
</event>
<event>
 5   0  0.4365492E-02  0.6836569E+03  0.7818609E-02  0.9745597E-01
       -2   -1    0    0    0  501  0.00000000000E+00  0.00000000000E+00  0.13806297973E+03  0.13806297975E+03  0.25500000920E-02 0. -1.
        2   -1    0    0  501    0  0.00000000000E+00  0.00000000000E+00 -0.84632881948E+03  0.84632881948E+03  0.25500000920E-02 0.  1.
    10030    2    1    2    0    0  0.00000000000E+00  0.00000000000E+00 -0.70826583975E+03  0.98439179923E+03  0.68365686908E+03 0.  0.
        4    1    3    3  502    0 -0.28161719728E+03  0.81183167021E+02 -0.10083427800E+03  0.30994857143E+03  0.12699999809E+01 0. -1.
       -4    1    3    3    0  502  0.28161719728E+03 -0.81183167021E+02 -0.60743156175E+03  0.67444322780E+03  0.12699999809E+01 0.  1.
</event>
<event>
 5   0  0.4526837E-02  0.6901147E+03  0.7818609E-02  0.9734288E-01
        2   -1    0    0  501    0  0.00000000000E+00  0.00000000000E+00  0.38442715797E+03  0.38442715798E+03  0.25500000920E-02 0.  1.
       -2   -1    0    0    0  501  0.00000000000E+00  0.00000000000E+00 -0.30971946077E+03  0.30971946078E+03  0.25500000920E-02 0. -1.
    10030    2    1    2    0    0  0.00000000000E+00  0.00000000000E+00  0.74707697200E+02  0.69414661876E+03  0.69011469215E+03 0.  0.
        1    1    3    3  502    0  0.19621173426E+03  0.74077328389E+02 -0.23825078113E+03  0.31741129466E+03  0.50400001928E-02 0. -1.
       -1    1    3    3    0  502 -0.19621173426E+03 -0.74077328389E+02  0.31295847833E+03  0.37673532410E+03  0.50400001928E-02 0.  1.
</event>
<event>
 5   0  0.2684924E-02  0.6694007E+03  0.7818609E-02  0.9771041E-01
       -1   -1    0    0    0  501  0.00000000000E+00  0.00000000000E+00  0.33205074884E+03  0.33205074888E+03  0.50400001928E-02 0.  1.
        1   -1    0    0  501    0  0.00000000000E+00  0.00000000000E+00 -0.33737111848E+03  0.33737111852E+03  0.50400001928E-02 0. -1.
    10030    2    1    2    0    0  0.00000000000E+00  0.00000000000E+00 -0.53203696355E+01  0.66942186740E+03  0.66940072469E+03 0.  0.
        4    1    3    3  502    0 -0.18028454981E+03  0.27615535126E+03 -0.59744583374E+02  0.33516462384E+03  0.12699999809E+01 0.  1.
       -4    1    3    3    0  502  0.18028454981E+03 -0.27615535126E+03  0.54424213739E+02  0.33425724356E+03  0.12699999809E+01 0. -1.
</event>
<event>
 5   0  0.1784625E-02  0.6964341E+03  0.7818609E-02  0.9723350E-01
        3   -1    0    0  501    0  0.00000000000E+00  0.00000000000E+00  0.62857975502E+03  0.62857976313E+03  0.10100000352E+00 0.  1.
       -3   -1    0    0    0  501  0.00000000000E+00  0.00000000000E+00 -0.19290327002E+03  0.19290329646E+03  0.10100000352E+00 0. -1.
    10030    2    1    2    0    0  0.00000000000E+00  0.00000000000E+00  0.43567648500E+03  0.82148305960E+03  0.69643407270E+03 0.  0.
        2    1    3    3  502    0  0.14816727937E+03 -0.17107802533E+03  0.52999494704E+03  0.57629495688E+03  0.25500000920E-02 0.  1.
       -2    1    3    3    0  502 -0.14816727937E+03  0.17107802533E+03 -0.94318462039E+02  0.24518810272E+03  0.25500000920E-02 0. -1.
</event>
<event>
 5   0  0.2758681E-02  0.6980260E+03  0.7818609E-02  0.9720614E-01
        1   -1    0    0  501    0  0.00000000000E+00  0.00000000000E+00  0.12332971640E+04  0.12332971640E+04  0.50400001928E-02 0.  1.
       -1   -1    0    0    0  501  0.00000000000E+00  0.00000000000E+00 -0.98767825743E+02  0.98767825872E+02  0.50400001928E-02 0. -1.
    10030    2    1    2    0    0  0.00000000000E+00  0.00000000000E+00  0.11345293383E+04  0.13320649899E+04  0.69802601522E+03 0.  0.
        3    1    3    3  502    0  0.68397871795E+02  0.33242240935E+03  0.41191263331E+03  0.53371804803E+03  0.10100000352E+00 0. -1.
       -3    1    3    3    0  502 -0.68397871795E+02 -0.33242240935E+03  0.72261670498E+03  0.79834694189E+03  0.10100000352E+00 0.  1.
</event>
<event>
 5   0  0.4365492E-02  0.6809569E+03  0.7818609E-02  0.9750364E-01
        2   -1    0    0  501    0  0.00000000000E+00  0.00000000000E+00  0.44708114945E+03  0.44708114946E+03  0.25500000920E-02 0.  1.
       -2   -1    0    0    0  501  0.00000000000E+00  0.00000000000E+00 -0.25929426171E+03  0.25929426172E+03  0.25500000920E-02 0. -1.
    10030    2    1    2    0    0  0.00000000000E+00  0.00000000000E+00  0.18778688774E+03  0.70637541118E+03  0.68095690489E+03 0.  0.
        4    1    3    3  502    0  0.10708439754E+03  0.16912695323E+03  0.37958817945E+03  0.42913843149E+03  0.12699999809E+01 0.  1.
       -4    1    3    3    0  502 -0.10708439754E+03 -0.16912695323E+03 -0.19180129172E+03  0.27723697969E+03  0.12699999809E+01 0. -1.
</event>
<event>
 5   0  0.4526837E-02  0.7054455E+03  0.7818609E-02  0.9707965E-01
        2   -1    0    0  501    0  0.00000000000E+00  0.00000000000E+00  0.30049055381E+03  0.30049055382E+03  0.25500000920E-02 0.  1.
       -2   -1    0    0    0  501  0.00000000000E+00  0.00000000000E+00 -0.41403412935E+03  0.41403412936E+03  0.25500000920E-02 0. -1.
    10030    2    1    2    0    0  0.00000000000E+00  0.00000000000E+00 -0.11354357554E+03  0.71452468318E+03  0.70544551833E+03 0.  0.
        1    1    3    3  502    0 -0.12817752057E+03  0.32436430800E+03 -0.34476273983E+01  0.34878871433E+03  0.50400001928E-02 0.  1.
       -1    1    3    3    0  502  0.12817752057E+03 -0.32436430800E+03 -0.11009594814E+03  0.36573596885E+03  0.50400001928E-02 0. -1.
</event>
<event>
 5   0  0.4503289E-02  0.6732473E+03  0.7818609E-02  0.9764109E-01
        2   -1    0    0  501    0  0.00000000000E+00  0.00000000000E+00  0.32654768447E+03  0.32654768448E+03  0.25500000920E-02 0. -1.
       -2   -1    0    0    0  501  0.00000000000E+00  0.00000000000E+00 -0.34701051211E+03  0.34701051212E+03  0.25500000920E-02 0.  1.
    10030    2    1    2    0    0  0.00000000000E+00  0.00000000000E+00 -0.20462827646E+02  0.67355819660E+03  0.67324729253E+03 0.  0.
        2    1    3    3  502    0  0.18781232175E+03  0.29005190210E+02  0.26774705413E+03  0.32833405894E+03  0.25500000920E-02 0. -1.
       -2    1    3    3    0  502 -0.18781232175E+03 -0.29005190210E+02 -0.28820988177E+03  0.34522413766E+03  0.25500000920E-02 0.  1.
</event>
<event>
 5   0  0.4420645E-02  0.7316519E+03  0.7818609E-02  0.9664584E-01
       -2   -1    0    0    0  501  0.00000000000E+00  0.00000000000E+00  0.16623891329E+03  0.16623891331E+03  0.25500000920E-02 0. -1.
        2   -1    0    0  501    0  0.00000000000E+00  0.00000000000E+00 -0.80503787660E+03  0.80503787661E+03  0.25500000920E-02 0.  1.
    10030    2    1    2    0    0  0.00000000000E+00  0.00000000000E+00 -0.63879896331E+03  0.97127678992E+03  0.73165188930E+03 0.  0.
        5    1    3    3  502    0 -0.30139177899E+03 -0.33277964141E+02 -0.47787427021E+02  0.30700188195E+03  0.46999998093E+01 0.  1.
       -5    1    3    3    0  502  0.30139177899E+03  0.33277964141E+02 -0.59101153629E+03  0.66427490797E+03  0.46999998093E+01 0. -1.
</event>
<event>
 5   0  0.4503289E-02  0.7152619E+03  0.7818609E-02  0.9691483E-01
       -2   -1    0    0    0  501  0.00000000000E+00  0.00000000000E+00  0.14867534447E+03  0.14867534450E+03  0.25500000920E-02 0. -1.
        2   -1    0    0  501    0  0.00000000000E+00  0.00000000000E+00 -0.86026297905E+03  0.86026297905E+03  0.25500000920E-02 0.  1.
    10030    2    1    2    0    0  0.00000000000E+00  0.00000000000E+00 -0.71158763457E+03  0.10089383235E+04  0.71526189543E+03 0.  0.
        2    1    3    3  502    0 -0.37100741149E+02  0.93936325405E+02 -0.83972838759E+03  0.84578026884E+03  0.25500000920E-02 0.  1.
       -2    1    3    3    0  502  0.37100741149E+02 -0.93936325405E+02  0.12814075302E+03  0.16315805471E+03  0.25500000920E-02 0. -1.
</event>
<event>
 5   0  0.2758681E-02  0.6863887E+03  0.7818609E-02  0.9740797E-01
        1   -1    0    0  501    0  0.00000000000E+00  0.00000000000E+00  0.22151868185E+04  0.22151868185E+04  0.50400001928E-02 0.  1.
       -1   -1    0    0    0  501  0.00000000000E+00  0.00000000000E+00 -0.53170392538E+02  0.53170392777E+02  0.50400001928E-02 0. -1.
    10030    2    1    2    0    0  0.00000000000E+00  0.00000000000E+00  0.21620164260E+04  0.22683572113E+04  0.68638867404E+03 0.  0.
        3    1    3    3  502    0  0.87253956858E+02  0.28859175155E+03  0.53914783151E+03  0.61772068646E+03  0.10100000352E+00 0. -1.
       -3    1    3    3    0  502 -0.87253956858E+02 -0.28859175155E+03  0.16228685945E+04  0.16506365248E+04  0.10100000352E+00 0.  1.
</event>
<event>
 5   0  0.4526837E-02  0.7507961E+03  0.7818609E-02  0.9634102E-01
        2   -1    0    0  501    0  0.00000000000E+00  0.00000000000E+00  0.15458821572E+04  0.15458821572E+04  0.25500000920E-02 0. -1.
       -2   -1    0    0    0  501  0.00000000000E+00  0.00000000000E+00 -0.91160700588E+02  0.91160700624E+02  0.25500000920E-02 0.  1.
    10030    2    1    2    0    0  0.00000000000E+00  0.00000000000E+00  0.14547214566E+04  0.16370428578E+04  0.75079611216E+03 0.  0.
        1    1    3    3  502    0 -0.36154517877E+03  0.76622629144E+02  0.87096608456E+03  0.94613311118E+03  0.50400001928E-02 0.  1.
       -1    1    3    3    0  502  0.36154517877E+03 -0.76622629144E+02  0.58375537207E+03  0.69090974666E+03  0.50400001928E-02 0. -1.
</event>
<event>
 5   0  0.2750139E-02  0.6976654E+03  0.7818609E-02  0.9721233E-01
        1   -1    0    0  501    0  0.00000000000E+00  0.00000000000E+00  0.45763959101E+03  0.45763959104E+03  0.50400001928E-02 0. -1.
       -1   -1    0    0    0  501  0.00000000000E+00  0.00000000000E+00 -0.26589536616E+03  0.26589536621E+03  0.50400001928E-02 0.  1.
    10030    2    1    2    0    0  0.00000000000E+00  0.00000000000E+00  0.19174422484E+03  0.72353495725E+03  0.69766538297E+03 0.  0.
        2    1    3    3  502    0  0.21560925233E+03 -0.17706246847E+03 -0.12128609123E+03  0.30421831530E+03  0.25500000920E-02 0.  1.
       -2    1    3    3    0  502 -0.21560925233E+03  0.17706246847E+03  0.31303031607E+03  0.41931664195E+03  0.25500000920E-02 0. -1.
</event>
<event>
 5   0  0.2684924E-02  0.6865108E+03  0.7818609E-02  0.9740583E-01
       -1   -1    0    0    0  501  0.00000000000E+00  0.00000000000E+00  0.31801074099E+03  0.31801074103E+03  0.50400001928E-02 0.  1.
        1   -1    0    0  501    0  0.00000000000E+00  0.00000000000E+00 -0.37050402641E+03  0.37050402644E+03  0.50400001928E-02 0. -1.
    10030    2    1    2    0    0  0.00000000000E+00  0.00000000000E+00 -0.52493285416E+02  0.68851476747E+03  0.68651077196E+03 0.  0.
        4    1    3    3  502    0  0.33760241774E+02 -0.30854985580E+03  0.12074133862E+03  0.33305082373E+03  0.12699999809E+01 0. -1.
       -4    1    3    3    0  502 -0.33760241774E+02  0.30854985580E+03 -0.17323462403E+03  0.35546394374E+03  0.12699999809E+01 0.  1.
</event>
<event>
 5   0  0.4299912E-02  0.5811410E+03  0.7818609E-02  0.9945324E-01
        2   -1    0    0  501    0  0.00000000000E+00  0.00000000000E+00  0.12073315187E+04  0.12073315187E+04  0.25500000920E-02 0. -1.
       -2   -1    0    0    0  501  0.00000000000E+00  0.00000000000E+00 -0.69932089766E+02  0.69932089812E+02  0.25500000920E-02 0.  1.
    10030    2    1    2    0    0  0.00000000000E+00  0.00000000000E+00  0.11373994289E+04  0.12772636085E+04  0.58114100242E+03 0.  0.
        3    1    3    3  502    0  0.22324679991E+03  0.14791446452E+03  0.32088357111E+03  0.41795226868E+03  0.10100000352E+00 0.  1.
       -3    1    3    3    0  502 -0.22324679991E+03 -0.14791446452E+03  0.81651585783E+03  0.85931133984E+03  0.10100000352E+00 0. -1.
</event>
<event>
 5   0  0.4420645E-02  0.6973276E+03  0.7818609E-02  0.9721813E-01
        2   -1    0    0  501    0  0.00000000000E+00  0.00000000000E+00  0.14617326497E+04  0.14617326497E+04  0.25500000920E-02 0.  1.
       -2   -1    0    0    0  501  0.00000000000E+00  0.00000000000E+00 -0.83165997703E+02  0.83165997742E+02  0.25500000920E-02 0. -1.
    10030    2    1    2    0    0  0.00000000000E+00  0.00000000000E+00  0.13785666520E+04  0.15448986475E+04  0.69732762521E+03 0.  0.
        5    1    3    3  502    0 -0.94510245790E+01 -0.65596027014E+02  0.14475786073E+04  0.14491025067E+04  0.46999998093E+01 0.  1.
       -5    1    3    3    0  502  0.94510245790E+01  0.65596027014E+02 -0.69011955248E+02  0.95796140794E+02  0.46999998093E+01 0. -1.
</event>
<event>
 5   0  0.1784625E-02  0.6268067E+03  0.7818609E-02  0.9851300E-01
       -3   -1    0    0    0  501  0.00000000000E+00  0.00000000000E+00  0.22247608621E+03  0.22247610913E+03  0.10100000352E+00 0. -1.
        3   -1    0    0  501    0  0.00000000000E+00  0.00000000000E+00 -0.44149312439E+03  0.44149313594E+03  0.10100000352E+00 0.  1.
    10030    2    1    2    0    0  0.00000000000E+00  0.00000000000E+00 -0.21901703818E+03  0.66396924508E+03  0.62680674485E+03 0.  0.
        4    1    3    3  502    0  0.19153148493E+03 -0.24084252933E+03 -0.17245047572E+03  0.35274666991E+03  0.12699999809E+01 0.  1.
       -4    1    3    3    0  502 -0.19153148493E+03  0.24084252933E+03 -0.46566562463E+02  0.31122257517E+03  0.12699999809E+01 0. -1.
</event>
<event>
 5   0  0.2777999E-02  0.6981289E+03  0.7818609E-02  0.9720437E-01
        1   -1    0    0  501    0  0.00000000000E+00  0.00000000000E+00  0.29158321584E+03  0.29158321589E+03  0.50400001928E-02 0.  1.
       -1   -1    0    0    0  501  0.00000000000E+00  0.00000000000E+00 -0.41787727358E+03  0.41787727361E+03  0.50400001928E-02 0. -1.
    10030    2    1    2    0    0  0.00000000000E+00  0.00000000000E+00 -0.12629405773E+03  0.70946048950E+03  0.69812892587E+03 0.  0.
        5    1    3    3  502    0  0.23429638165E+03  0.24244937880E+03  0.28581084686E+02  0.33840133589E+03  0.46999998093E+01 0. -1.
       -5    1    3    3    0  502 -0.23429638165E+03 -0.24244937880E+03 -0.15487514242E+03  0.37105915360E+03  0.46999998093E+01 0.  1.
</event>
<event>
 5   0  0.4420645E-02  0.6893901E+03  0.7818609E-02  0.9735551E-01
        2   -1    0    0  501    0  0.00000000000E+00  0.00000000000E+00  0.95840053747E+03  0.95840053747E+03  0.25500000920E-02 0. -1.
       -2   -1    0    0    0  501  0.00000000000E+00  0.00000000000E+00 -0.12397182491E+03  0.12397182494E+03  0.25500000920E-02 0.  1.
    10030    2    1    2    0    0  0.00000000000E+00  0.00000000000E+00  0.83442871256E+03  0.10823723624E+04  0.68939005982E+03 0.  0.
        5    1    3    3  502    0 -0.30586768288E+02  0.94943427571E+02 -0.10076382665E+03  0.14186346814E+03  0.46999998093E+01 0.  1.
       -5    1    3    3    0  502  0.30586768288E+02 -0.94943427571E+02  0.93519253920E+03  0.94050889428E+03  0.46999998093E+01 0. -1.
</event>
<event>
 5   0  0.4526837E-02  0.7055069E+03  0.7818609E-02  0.9707861E-01
        2   -1    0    0  501    0  0.00000000000E+00  0.00000000000E+00  0.32979313303E+03  0.32979313304E+03  0.25500000920E-02 0.  1.
       -2   -1    0    0    0  501  0.00000000000E+00  0.00000000000E+00 -0.37731226744E+03  0.37731226745E+03  0.25500000920E-02 0. -1.
    10030    2    1    2    0    0  0.00000000000E+00  0.00000000000E+00 -0.47519134418E+02  0.70710540049E+03  0.70550689526E+03 0.  0.
        1    1    3    3  502    0 -0.16400017674E+02 -0.16632152164E+03  0.28759390726E+03  0.33262901957E+03  0.50400001928E-02 0.  1.
       -1    1    3    3    0  502  0.16400017674E+02  0.16632152164E+03 -0.33511304168E+03  0.37447638092E+03  0.50400001928E-02 0. -1.
</event>
<event>
 5   0  0.2684924E-02  0.6935171E+03  0.7818609E-02  0.9728383E-01
       -1   -1    0    0    0  501  0.00000000000E+00  0.00000000000E+00  0.14610652552E+03  0.14610652560E+03  0.50400001928E-02 0. -1.
        1   -1    0    0  501    0  0.00000000000E+00  0.00000000000E+00 -0.82297142296E+03  0.82297142298E+03  0.50400001928E-02 0.  1.
    10030    2    1    2    0    0  0.00000000000E+00  0.00000000000E+00 -0.67686489745E+03  0.96907794858E+03  0.69351710940E+03 0.  0.
        4    1    3    3  502    0 -0.18264035496E+03  0.14061524383E+03 -0.70042055196E+03  0.73737419847E+03  0.12699999809E+01 0.  1.
       -4    1    3    3    0  502  0.18264035496E+03 -0.14061524383E+03  0.23555654517E+02  0.23170375011E+03  0.12699999809E+01 0. -1.
</event>
<event>
 5   0  0.1784625E-02  0.6892329E+03  0.7818609E-02  0.9735825E-01
        3   -1    0    0  501    0  0.00000000000E+00  0.00000000000E+00  0.52891788684E+03  0.52891789648E+03  0.10100000352E+00 0. -1.
       -3   -1    0    0    0  501  0.00000000000E+00  0.00000000000E+00 -0.22453485663E+03  0.22453487935E+03  0.10100000352E+00 0.  1.
    10030    2    1    2    0    0  0.00000000000E+00  0.00000000000E+00  0.30438303021E+03  0.75345277583E+03  0.68923294780E+03 0.  0.
        3    1    3    3  502    0 -0.11077274381E+02  0.17540351943E+03  0.47624283002E+03  0.50763800486E+03  0.10100000352E+00 0. -1.
       -3    1    3    3    0  502  0.11077274381E+02 -0.17540351943E+03 -0.17185979981E+03  0.24581477097E+03  0.10100000352E+00 0.  1.
</event>
<event>
 5   0  0.2777999E-02  0.6957195E+03  0.7818609E-02  0.9724581E-01
        1   -1    0    0  501    0  0.00000000000E+00  0.00000000000E+00  0.28352094776E+03  0.28352094780E+03  0.50400001928E-02 0. -1.
       -1   -1    0    0    0  501  0.00000000000E+00  0.00000000000E+00 -0.42679881794E+03  0.42679881797E+03  0.50400001928E-02 0.  1.
    10030    2    1    2    0    0  0.00000000000E+00  0.00000000000E+00 -0.14327787018E+03  0.71031976577E+03  0.69571949920E+03 0.  0.
        5    1    3    3  502    0 -0.27007575558E+03  0.62143438725E+02  0.14296635220E+03  0.31187207087E+03  0.46999998093E+01 0. -1.
       -5    1    3    3    0  502  0.27007575558E+03 -0.62143438725E+02 -0.28624422238E+03  0.39844769490E+03  0.46999998093E+01 0.  1.
</event>
<event>
 5   0  0.4420645E-02  0.7029926E+03  0.7818609E-02  0.9712128E-01
        2   -1    0    0  501    0  0.00000000000E+00  0.00000000000E+00  0.12873985741E+03  0.12873985743E+03  0.25500000920E-02 0.  1.
       -2   -1    0    0    0  501  0.00000000000E+00  0.00000000000E+00 -0.95968443886E+03  0.95968443887E+03  0.25500000920E-02 0. -1.
    10030    2    1    2    0    0  0.00000000000E+00  0.00000000000E+00 -0.83094458146E+03  0.10884242963E+04  0.70299256847E+03 0.  0.
        5    1    3    3  502    0  0.24615672852E+03  0.14917838290E+03 -0.10319589671E+03  0.30580844988E+03  0.46999998093E+01 0.  1.
       -5    1    3    3    0  502 -0.24615672852E+03 -0.14917838290E+03 -0.72774868474E+03  0.78261584642E+03  0.46999998093E+01 0. -1.
</event>
<event>
 5   0  0.4503289E-02  0.7225719E+03  0.7818609E-02  0.9679391E-01
        2   -1    0    0  501    0  0.00000000000E+00  0.00000000000E+00  0.65757727523E+03  0.65757727524E+03  0.25500000920E-02 0. -1.
       -2   -1    0    0    0  501  0.00000000000E+00  0.00000000000E+00 -0.19849765805E+03  0.19849765807E+03  0.25500000920E-02 0.  1.
    10030    2    1    2    0    0  0.00000000000E+00  0.00000000000E+00  0.45907961718E+03  0.85607493331E+03  0.72257193173E+03 0.  0.
        2    1    3    3  502    0  0.18113937582E+03  0.24979276117E+03  0.68815018960E+01  0.30863449593E+03  0.25500000920E-02 0.  1.
       -2    1    3    3    0  502 -0.18113937582E+03 -0.24979276117E+03  0.45219811528E+03  0.54744043738E+03  0.25500000920E-02 0. -1.
</event>
<event>
 5   0  0.4299912E-02  0.8189715E+03  0.7818609E-02  0.9532955E-01
        2   -1    0    0  501    0  0.00000000000E+00  0.00000000000E+00  0.76645212249E+03  0.76645212250E+03  0.25500000920E-02 0. -1.
       -2   -1    0    0    0  501  0.00000000000E+00  0.00000000000E+00 -0.21877243250E+03  0.21877243251E+03  0.25500000920E-02 0.  1.
    10030    2    1    2    0    0  0.00000000000E+00  0.00000000000E+00  0.54767969000E+03  0.98522455501E+03  0.81897153855E+03 0.  0.
        3    1    3    3  502    0  0.30124036973E+03 -0.85795303410E+02 -0.43470062886E+02  0.31622183829E+03  0.10100000352E+00 0.  1.
       -3    1    3    3    0  502 -0.30124036973E+03  0.85795303410E+02  0.59114975288E+03  0.66900271672E+03  0.10100000352E+00 0. -1.
</event>
<event>
 5   0  0.2751729E-02  0.7015834E+03  0.7818609E-02  0.9714528E-01
       -1   -1    0    0    0  501  0.00000000000E+00  0.00000000000E+00  0.64847198212E+03  0.64847198214E+03  0.50400001928E-02 0. -1.
        1   -1    0    0  501    0  0.00000000000E+00  0.00000000000E+00 -0.18976120814E+03  0.18976120821E+03  0.50400001928E-02 0.  1.
    10030    2    1    2    0    0  0.00000000000E+00  0.00000000000E+00  0.45871077398E+03  0.83823319035E+03  0.70158342856E+03 0.  0.
        1    1    3    3  502    0  0.68540454812E+01 -0.28106479159E+03  0.48000286851E+03  0.55627973971E+03  0.50400001928E-02 0. -1.
       -1    1    3    3    0  502 -0.68540454812E+01  0.28106479159E+03 -0.21292094530E+02  0.28195345063E+03  0.50400001928E-02 0.  1.
</event>
<event>
 5   0  0.4299912E-02  0.6958628E+03  0.7818609E-02  0.9724334E-01
       -2   -1    0    0    0  501  0.00000000000E+00  0.00000000000E+00  0.90374784227E+02  0.90374784262E+02  0.25500000920E-02 0. -1.
        2   -1    0    0  501    0  0.00000000000E+00  0.00000000000E+00 -0.13394916390E+04  0.13394916390E+04  0.25500000920E-02 0.  1.
    10030    2    1    2    0    0  0.00000000000E+00  0.00000000000E+00 -0.12491168548E+04  0.14298664233E+04  0.69586282520E+03 0.  0.
        3    1    3    3  502    0  0.30102721613E+03 -0.15074668410E+03 -0.44408204498E+03  0.55727086815E+03  0.10100000352E+00 0. -1.
       -3    1    3    3    0  502 -0.30102721613E+03  0.15074668410E+03 -0.80503480979E+03  0.87259555511E+03  0.10100000352E+00 0.  1.
</event>
<event>
 5   0  0.4420645E-02  0.7103886E+03  0.7818609E-02  0.9699629E-01
       -2   -1    0    0    0  501  0.00000000000E+00  0.00000000000E+00  0.21076798450E+03  0.21076798451E+03  0.25500000920E-02 0. -1.
        2   -1    0    0  501    0  0.00000000000E+00  0.00000000000E+00 -0.59858698841E+03  0.59858698841E+03  0.25500000920E-02 0.  1.
    10030    2    1    2    0    0  0.00000000000E+00  0.00000000000E+00 -0.38781900391E+03  0.80935497293E+03  0.71038855030E+03 0.  0.
        5    1    3    3  502    0  0.63185381415E+01 -0.44398226511E+02 -0.59531289425E+03  0.59701813917E+03  0.46999998093E+01 0.  1.
       -5    1    3    3    0  502 -0.63185381415E+01  0.44398226511E+02  0.20749389034E+03  0.21233683375E+03  0.46999998093E+01 0. -1.
</event>
<event>
 5   0  0.2684924E-02  0.7332246E+03  0.7818609E-02  0.9662042E-01
        1   -1    0    0  501    0  0.00000000000E+00  0.00000000000E+00  0.35196237525E+03  0.35196237529E+03  0.50400001928E-02 0. -1.
       -1   -1    0    0    0  501  0.00000000000E+00  0.00000000000E+00 -0.38187200010E+03  0.38187200013E+03  0.50400001928E-02 0.  1.
    10030    2    1    2    0    0  0.00000000000E+00  0.00000000000E+00 -0.29909624845E+02  0.73383437542E+03  0.73322459376E+03 0.  0.
        4    1    3    3  502    0  0.22342296230E+03  0.19953698614E+03  0.19657406167E+03  0.35829569289E+03  0.12699999809E+01 0. -1.
       -4    1    3    3    0  502 -0.22342296230E+03 -0.19953698614E+03 -0.22648368651E+03  0.37553868253E+03  0.12699999809E+01 0.  1.
</event>
<event>
 5   0  0.1784625E-02  0.6993878E+03  0.7818609E-02  0.9718280E-01
        4   -1    0    0  501    0  0.00000000000E+00  0.00000000000E+00  0.17501212983E+03  0.17501673774E+03  0.12699999809E+01 0. -1.
       -4   -1    0    0    0  501  0.00000000000E+00  0.00000000000E+00 -0.69871325494E+03  0.69871440913E+03  0.12699999809E+01 0.  1.
    10030    2    1    2    0    0  0.00000000000E+00  0.00000000000E+00 -0.52370112510E+03  0.87373114687E+03  0.69938776696E+03 0.  0.
        5    1    3    3  502    0 -0.30305377521E+03  0.50013302761E+02 -0.53101889820E+02  0.31174480240E+03  0.46999998093E+01 0. -1.
       -5    1    3    3    0  502  0.30305377521E+03 -0.50013302761E+02 -0.47059923528E+03  0.56198634447E+03  0.46999998093E+01 0.  1.
</event>
<event>
 5   0  0.4365492E-02  0.7125879E+03  0.7818609E-02  0.9695944E-01
        2   -1    0    0  501    0  0.00000000000E+00  0.00000000000E+00  0.18188155493E+03  0.18188155495E+03  0.25500000920E-02 0.  1.
       -2   -1    0    0    0  501  0.00000000000E+00  0.00000000000E+00 -0.69795628653E+03  0.69795628654E+03  0.25500000920E-02 0. -1.
    10030    2    1    2    0    0  0.00000000000E+00  0.00000000000E+00 -0.51607473160E+03  0.87983784149E+03  0.71258788842E+03 0.  0.
        4    1    3    3  502    0  0.14200948199E+02 -0.32111081666E+03 -0.44783705369E+03  0.55124718872E+03  0.12699999809E+01 0. -1.
       -4    1    3    3    0  502 -0.14200948199E+02  0.32111081666E+03 -0.68237677906E+02  0.32859065278E+03  0.12699999809E+01 0.  1.
</event>
<event>
 5   0  0.4365492E-02  0.6956387E+03  0.7818609E-02  0.9724720E-01
       -2   -1    0    0    0  501  0.00000000000E+00  0.00000000000E+00  0.14428385824E+03  0.14428385827E+03  0.25500000920E-02 0.  1.
        2   -1    0    0  501    0  0.00000000000E+00  0.00000000000E+00 -0.83847414695E+03  0.83847414696E+03  0.25500000920E-02 0. -1.
    10030    2    1    2    0    0  0.00000000000E+00  0.00000000000E+00 -0.69419028871E+03  0.98275800522E+03  0.69563865612E+03 0.  0.
        4    1    3    3  502    0  0.28394468640E+03 -0.17833011287E+03 -0.47772954931E+03  0.58365516298E+03  0.12699999809E+01 0.  1.
       -4    1    3    3    0  502 -0.28394468640E+03  0.17833011287E+03 -0.21646073939E+03  0.39910284224E+03  0.12699999809E+01 0. -1.
</event>
<event>
 5   0  0.4503289E-02  0.7124033E+03  0.7818609E-02  0.9696253E-01
        2   -1    0    0  501    0  0.00000000000E+00  0.00000000000E+00  0.24447044376E+03  0.24447044377E+03  0.25500000920E-02 0. -1.
       -2   -1    0    0    0  501  0.00000000000E+00  0.00000000000E+00 -0.51899769843E+03  0.51899769844E+03  0.25500000920E-02 0.  1.
    10030    2    1    2    0    0  0.00000000000E+00  0.00000000000E+00 -0.27452725468E+03  0.76346814221E+03  0.71240325000E+03 0.  0.
        2    1    3    3  502    0 -0.21843361576E+03 -0.19964274140E+03  0.75213280680E+02  0.30533179704E+03  0.25500000920E-02 0. -1.
       -2    1    3    3    0  502  0.21843361576E+03  0.19964274140E+03 -0.34974053536E+03  0.45813634517E+03  0.25500000920E-02 0.  1.
</event>
<event>
 5   0  0.4526837E-02  0.7071565E+03  0.7818609E-02  0.9705071E-01
       -2   -1    0    0    0  501  0.00000000000E+00  0.00000000000E+00  0.78358278768E+03  0.78358278768E+03  0.25500000920E-02 0.  1.
        2   -1    0    0  501    0  0.00000000000E+00  0.00000000000E+00 -0.15954609738E+03  0.15954609740E+03  0.25500000920E-02 0. -1.
    10030    2    1    2    0    0  0.00000000000E+00  0.00000000000E+00  0.62403669030E+03  0.94312888509E+03  0.70715649120E+03 0.  0.
        1    1    3    3  502    0  0.34787978968E+03  0.56331449442E+02  0.35030239970E+03  0.49689571494E+03  0.50400001928E-02 0. -1.
       -1    1    3    3    0  502 -0.34787978968E+03 -0.56331449442E+02  0.27373429059E+03  0.44623317014E+03  0.50400001928E-02 0.  1.
</event>
<event>
 5   0  0.4365492E-02  0.7136697E+03  0.7818609E-02  0.9694137E-01
        2   -1    0    0  501    0  0.00000000000E+00  0.00000000000E+00  0.12679795583E+04  0.12679795583E+04  0.25500000920E-02 0. -1.
       -2   -1    0    0    0  501  0.00000000000E+00  0.00000000000E+00 -0.10042048579E+03  0.10042048582E+03  0.25500000920E-02 0.  1.
    10030    2    1    2    0    0  0.00000000000E+00  0.00000000000E+00  0.11675590725E+04  0.13684000441E+04  0.71366973660E+03 0.  0.
        4    1    3    3  502    0  0.90486171952E+02 -0.24397062531E+03  0.10519587608E+04  0.10836642748E+04  0.12699999809E+01 0. -1.
       -4    1    3    3    0  502 -0.90486171952E+02  0.24397062531E+03  0.11560031174E+03  0.28473576927E+03  0.12699999809E+01 0.  1.
</event>
<event>
 5   0  0.4299912E-02  0.6824899E+03  0.7818609E-02  0.9747654E-01
       -2   -1    0    0    0  501  0.00000000000E+00  0.00000000000E+00  0.65878959584E+02  0.65878959633E+02  0.25500000920E-02 0. -1.
        2   -1    0    0  501    0  0.00000000000E+00  0.00000000000E+00 -0.17676071258E+04  0.17676071258E+04  0.25500000920E-02 0.  1.
    10030    2    1    2    0    0  0.00000000000E+00  0.00000000000E+00 -0.17017281662E+04  0.18334860854E+04  0.68248990746E+03 0.  0.
        3    1    3    3  502    0 -0.22831861627E+03  0.23557961531E+03 -0.59855123016E+03  0.68256188804E+03  0.10100000352E+00 0. -1.
       -3    1    3    3    0  502  0.22831861627E+03 -0.23557961531E+03 -0.11031769360E+04  0.11509241974E+04  0.10100000352E+00 0.  1.
</event>
<event>
 5   0  0.1784625E-02  0.7146448E+03  0.7818609E-02  0.9692510E-01
        3   -1    0    0  501    0  0.00000000000E+00  0.00000000000E+00  0.37224311989E+03  0.37224313359E+03  0.10100000352E+00 0. -1.
       -3   -1    0    0    0  501  0.00000000000E+00  0.00000000000E+00 -0.34299974363E+03  0.34299975850E+03  0.10100000352E+00 0.  1.
    10030    2    1    2    0    0  0.00000000000E+00  0.00000000000E+00  0.29243376260E+02  0.71524289209E+03  0.71464482061E+03 0.  0.
        3    1    3    3  502    0 -0.42798579060E+02 -0.29293366402E+03 -0.18563935622E+03  0.34943358548E+03  0.10100000352E+00 0.  1.
       -3    1    3    3    0  502  0.42798579060E+02  0.29293366402E+03  0.21488273248E+03  0.36580930661E+03  0.10100000352E+00 0. -1.
</event>
<event>
 5   0  0.2751729E-02  0.6993860E+03  0.7818609E-02  0.9718283E-01
        1   -1    0    0  501    0  0.00000000000E+00  0.00000000000E+00  0.66693132434E+03  0.66693132436E+03  0.50400001928E-02 0. -1.
       -1   -1    0    0    0  501  0.00000000000E+00  0.00000000000E+00 -0.18335501827E+03  0.18335501834E+03  0.50400001928E-02 0.  1.
    10030    2    1    2    0    0  0.00000000000E+00  0.00000000000E+00  0.48357630607E+03  0.85028634269E+03  0.69938603130E+03 0.  0.
        1    1    3    3  502    0  0.80364071430E+02 -0.26315989457E+03 -0.20584507161E+02  0.27592614238E+03  0.50400001928E-02 0.  1.
       -1    1    3    3    0  502 -0.80364071430E+02  0.26315989457E+03  0.50416081323E+03  0.57436020032E+03  0.50400001928E-02 0. -1.
</event>
<event>
 5   0  0.2751729E-02  0.7131592E+03  0.7818609E-02  0.9694989E-01
        1   -1    0    0  501    0  0.00000000000E+00  0.00000000000E+00  0.25007343649E+03  0.25007343654E+03  0.50400001928E-02 0.  1.
       -1   -1    0    0    0  501  0.00000000000E+00  0.00000000000E+00 -0.50844665310E+03  0.50844665312E+03  0.50400001928E-02 0. -1.
    10030    2    1    2    0    0  0.00000000000E+00  0.00000000000E+00 -0.25837321660E+03  0.75852008967E+03  0.71315917394E+03 0.  0.
        1    1    3    3  502    0  0.54751499867E+02  0.15452759212E+03  0.20761296480E+03  0.26453666408E+03  0.50400001928E-02 0.  1.
       -1    1    3    3    0  502 -0.54751499867E+02 -0.15452759212E+03 -0.46598618141E+03  0.49398342558E+03  0.50400001928E-02 0. -1.
</event>
<event>
 5   0  0.2684924E-02  0.7037936E+03  0.7818609E-02  0.9710767E-01
        1   -1    0    0  501    0  0.00000000000E+00  0.00000000000E+00  0.10591727636E+04  0.10591727637E+04  0.50400001928E-02 0.  1.
       -1   -1    0    0    0  501  0.00000000000E+00  0.00000000000E+00 -0.11691327668E+03  0.11691327679E+03  0.50400001928E-02 0. -1.
    10030    2    1    2    0    0  0.00000000000E+00  0.00000000000E+00  0.94225948696E+03  0.11760860405E+04  0.70379360169E+03 0.  0.
        4    1    3    3  502    0 -0.46064312671E+02  0.33991590251E+03  0.60233778634E+03  0.69316460054E+03  0.12699999809E+01 0. -1.
       -4    1    3    3    0  502  0.46064312671E+02 -0.33991590251E+03  0.33992170062E+03  0.48292143992E+03  0.12699999809E+01 0.  1.
</event>
<event>
 5   0  0.2751729E-02  0.6959869E+03  0.7818609E-02  0.9724120E-01
        1   -1    0    0  501    0  0.00000000000E+00  0.00000000000E+00  0.45357716036E+03  0.45357716039E+03  0.50400001928E-02 0.  1.
       -1   -1    0    0    0  501  0.00000000000E+00  0.00000000000E+00 -0.26698752633E+03  0.26698752638E+03  0.50400001928E-02 0. -1.
    10030    2    1    2    0    0  0.00000000000E+00  0.00000000000E+00  0.18658963403E+03  0.72056468677E+03  0.69598690813E+03 0.  0.
        1    1    3    3  502    0 -0.29973804389E+03 -0.96794695707E+02 -0.59873294013E+02  0.32061958679E+03  0.50400001928E-02 0.  1.
       -1    1    3    3    0  502  0.29973804389E+03  0.96794695707E+02  0.24646292804E+03  0.39994509998E+03  0.50400001928E-02 0. -1.
</event>
<event>
 5   0  0.4526837E-02  0.7049690E+03  0.7818609E-02  0.9708772E-01
       -2   -1    0    0    0  501  0.00000000000E+00  0.00000000000E+00  0.40297416759E+03  0.40297416760E+03  0.25500000920E-02 0.  1.
        2   -1    0    0  501    0  0.00000000000E+00  0.00000000000E+00 -0.30832080758E+03  0.30832080759E+03  0.25500000920E-02 0. -1.
    10030    2    1    2    0    0  0.00000000000E+00  0.00000000000E+00  0.94653360010E+02  0.71129497519E+03  0.70496899447E+03 0.  0.
        1    1    3    3  502    0 -0.33221858279E+03  0.87621926263E+02 -0.32110560618E+02  0.34507662459E+03  0.50400001928E-02 0.  1.
       -1    1    3    3    0  502  0.33221858279E+03 -0.87621926263E+02  0.12676392063E+03  0.36621835059E+03  0.50400001928E-02 0. -1.
</event>
<event>
 5   0  0.4365492E-02  0.6989490E+03  0.7818609E-02  0.9719031E-01
        2   -1    0    0  501    0  0.00000000000E+00  0.00000000000E+00  0.76109093872E+03  0.76109093872E+03  0.25500000920E-02 0.  1.
       -2   -1    0    0    0  501  0.00000000000E+00  0.00000000000E+00 -0.16047020798E+03  0.16047020800E+03  0.25500000920E-02 0. -1.
    10030    2    1    2    0    0  0.00000000000E+00  0.00000000000E+00  0.60062073074E+03  0.92156114672E+03  0.69894898595E+03 0.  0.
        4    1    3    3  502    0 -0.13643216696E+03 -0.27925151096E+03  0.51100441479E+03  0.59809887761E+03  0.12699999809E+01 0.  1.
       -4    1    3    3    0  502  0.13643216696E+03  0.27925151096E+03  0.89616315945E+02  0.32346226912E+03  0.12699999809E+01 0. -1.
</event>
<event>
 5   0  0.4503289E-02  0.6920279E+03  0.7818609E-02  0.9730963E-01
       -2   -1    0    0    0  501  0.00000000000E+00  0.00000000000E+00  0.13752395183E+03  0.13752395185E+03  0.25500000920E-02 0. -1.
        2   -1    0    0  501    0  0.00000000000E+00  0.00000000000E+00 -0.87058037514E+03  0.87058037514E+03  0.25500000920E-02 0.  1.
    10030    2    1    2    0    0  0.00000000000E+00  0.00000000000E+00 -0.73305642331E+03  0.10081043270E+04  0.69202789997E+03 0.  0.
        2    1    3    3  502    0  0.11586942738E+03  0.23772406883E+03 -0.69157113165E+03  0.74041143106E+03  0.25500000920E-02 0.  1.
       -2    1    3    3    0  502 -0.11586942738E+03 -0.23772406883E+03 -0.41485291661E+02  0.26769289593E+03  0.25500000920E-02 0. -1.
</event>
<event>
 5   0  0.2777999E-02  0.6878827E+03  0.7818609E-02  0.9738182E-01
       -1   -1    0    0    0  501  0.00000000000E+00  0.00000000000E+00  0.21954624768E+03  0.21954624773E+03  0.50400001928E-02 0. -1.
        1   -1    0    0  501    0  0.00000000000E+00  0.00000000000E+00 -0.53881877156E+03  0.53881877158E+03  0.50400001928E-02 0.  1.
    10030    2    1    2    0    0  0.00000000000E+00  0.00000000000E+00 -0.31927252388E+03  0.75836501932E+03  0.68788266297E+03 0.  0.
        5    1    3    3  502    0 -0.26479267509E+03 -0.20048952244E+03 -0.61261364912E+02  0.33776656765E+03  0.46999998093E+01 0.  1.
       -5    1    3    3    0  502  0.26479267509E+03  0.20048952244E+03 -0.25801115897E+03  0.42059845167E+03  0.46999998093E+01 0. -1.
</event>
<event>
 5   0  0.2758681E-02  0.7063053E+03  0.7818609E-02  0.9706510E-01
        1   -1    0    0  501    0  0.00000000000E+00  0.00000000000E+00  0.16736038677E+03  0.16736038684E+03  0.50400001928E-02 0. -1.
       -1   -1    0    0    0  501  0.00000000000E+00  0.00000000000E+00 -0.74519891738E+03  0.74519891740E+03  0.50400001928E-02 0.  1.
    10030    2    1    2    0    0  0.00000000000E+00  0.00000000000E+00 -0.57783853061E+03  0.91255930424E+03  0.70630525716E+03 0.  0.
        3    1    3    3  502    0  0.23703254571E+03 -0.60068719981E+02  0.40289654884E+02  0.24782240685E+03  0.10100000352E+00 0. -1.
       -3    1    3    3    0  502 -0.23703254571E+03  0.60068719981E+02 -0.61812818549E+03  0.66473689739E+03  0.10100000352E+00 0.  1.
</event>
<event>
 5   0  0.4526837E-02  0.6938869E+03  0.7818609E-02  0.9727744E-01
        2   -1    0    0  501    0  0.00000000000E+00  0.00000000000E+00  0.24790197168E+04  0.24790197168E+04  0.25500000920E-02 0.  1.
       -2   -1    0    0    0  501  0.00000000000E+00  0.00000000000E+00 -0.48555379850E+02  0.48555379917E+02  0.25500000920E-02 0. -1.
    10030    2    1    2    0    0  0.00000000000E+00  0.00000000000E+00  0.24304643370E+04  0.25275750967E+04  0.69388686136E+03 0.  0.
        1    1    3    3  502    0 -0.25109562265E+03  0.21775631522E+03  0.15777230019E+04  0.16123512940E+04  0.50400001928E-02 0.  1.
       -1    1    3    3    0  502  0.25109562265E+03 -0.21775631522E+03  0.85274133507E+03  0.91522380273E+03  0.50400001928E-02 0. -1.
</event>
<event>
 5   0  0.2684924E-02  0.6964156E+03  0.7818609E-02  0.9723382E-01
       -1   -1    0    0    0  501  0.00000000000E+00  0.00000000000E+00  0.13802098430E+03  0.13802098439E+03  0.50400001928E-02 0.  1.
        1   -1    0    0  501    0  0.00000000000E+00  0.00000000000E+00 -0.87847988380E+03  0.87847988381E+03  0.50400001928E-02 0. -1.
    10030    2    1    2    0    0  0.00000000000E+00  0.00000000000E+00 -0.74045889950E+03  0.10165008682E+04  0.69641556071E+03 0.  0.
        4    1    3    3  502    0  0.21794206972E+02  0.20341095410E+03  0.41051612972E+02  0.20865725852E+03  0.12699999809E+01 0.  1.
       -4    1    3    3    0  502 -0.21794206972E+02 -0.20341095410E+03 -0.78151051247E+03  0.80784360969E+03  0.12699999809E+01 0. -1.
</event>
<event>
 5   0  0.2751729E-02  0.6962456E+03  0.7818609E-02  0.9723674E-01
        1   -1    0    0  501    0  0.00000000000E+00  0.00000000000E+00  0.19415346692E+03  0.19415346699E+03  0.50400001928E-02 0.  1.
       -1   -1    0    0    0  501  0.00000000000E+00  0.00000000000E+00 -0.62419428221E+03  0.62419428223E+03  0.50400001928E-02 0. -1.
    10030    2    1    2    0    0  0.00000000000E+00  0.00000000000E+00 -0.43004081529E+03  0.81834774921E+03  0.69624560022E+03 0.  0.
        1    1    3    3  502    0  0.16845533807E+03 -0.30104127451E+03 -0.26998001477E+03  0.43805508590E+03  0.50400001928E-02 0.  1.
       -1    1    3    3    0  502 -0.16845533807E+03  0.30104127451E+03 -0.16006080052E+03  0.38029266331E+03  0.50400001928E-02 0. -1.
</event>
<event>
 5   0  0.2751729E-02  0.7087804E+03  0.7818609E-02  0.9702333E-01
       -1   -1    0    0    0  501  0.00000000000E+00  0.00000000000E+00  0.19064073996E+03  0.19064074003E+03  0.50400001928E-02 0.  1.
        1   -1    0    0  501    0  0.00000000000E+00  0.00000000000E+00 -0.65879112187E+03  0.65879112189E+03  0.50400001928E-02 0. -1.
    10030    2    1    2    0    0  0.00000000000E+00  0.00000000000E+00 -0.46815038190E+03  0.84943186192E+03  0.70878043707E+03 0.  0.
        1    1    3    3  502    0 -0.12021820008E+03 -0.29373463218E+03 -0.45116362349E+02  0.32057438443E+03  0.50400001928E-02 0.  1.
       -1    1    3    3    0  502  0.12021820008E+03  0.29373463218E+03 -0.42303401956E+03  0.52885747749E+03  0.50400001928E-02 0. -1.
</event>
<event>
 5   0  0.1784625E-02  0.7049020E+03  0.7818609E-02  0.9708886E-01
       -3   -1    0    0    0  501  0.00000000000E+00  0.00000000000E+00  0.35401460622E+03  0.35401462062E+03  0.10100000352E+00 0. -1.
        3   -1    0    0  501    0  0.00000000000E+00  0.00000000000E+00 -0.35089429561E+03  0.35089431014E+03  0.10100000352E+00 0.  1.
    10030    2    1    2    0    0  0.00000000000E+00  0.00000000000E+00  0.31203106107E+01  0.70490893076E+03  0.70490202463E+03 0.  0.
        4    1    3    3  502    0  0.16341985721E+03  0.29577536336E+03 -0.98595645497E+02  0.35201112129E+03  0.12699999809E+01 0.  1.
       -4    1    3    3    0  502 -0.16341985721E+03 -0.29577536336E+03  0.10171595611E+03  0.35289780947E+03  0.12699999809E+01 0. -1.
</event>
<event>
 5   0  0.2777999E-02  0.7025705E+03  0.7818609E-02  0.9712846E-01
        1   -1    0    0  501    0  0.00000000000E+00  0.00000000000E+00  0.22878084459E+03  0.22878084464E+03  0.50400001928E-02 0. -1.
       -1   -1    0    0    0  501  0.00000000000E+00  0.00000000000E+00 -0.53938663054E+03  0.53938663056E+03  0.50400001928E-02 0.  1.
    10030    2    1    2    0    0  0.00000000000E+00  0.00000000000E+00 -0.31060578595E+03  0.76816747520E+03  0.70257050585E+03 0.  0.
        5    1    3    3  502    0 -0.21681958062E+03 -0.11501215657E+02  0.14658570319E+03  0.26201615767E+03  0.46999998093E+01 0. -1.
       -5    1    3    3    0  502  0.21681958062E+03  0.11501215657E+02 -0.45719148914E+03  0.50615131754E+03  0.46999998093E+01 0.  1.
</event>
<event>
 5   0  0.2758681E-02  0.6995377E+03  0.7818609E-02  0.9718023E-01
        1   -1    0    0  501    0  0.00000000000E+00  0.00000000000E+00  0.64284428041E+03  0.64284428043E+03  0.50400001928E-02 0.  1.
       -1   -1    0    0    0  501  0.00000000000E+00  0.00000000000E+00 -0.19030774555E+03  0.19030774562E+03  0.50400001928E-02 0. -1.
    10030    2    1    2    0    0  0.00000000000E+00  0.00000000000E+00  0.45253653485E+03  0.83315202605E+03  0.69953769243E+03 0.  0.
        3    1    3    3  502    0  0.10106276597E+03 -0.27572900246E+03  0.45255293418E+03  0.53948524901E+03  0.10100000352E+00 0.  1.
       -3    1    3    3    0  502 -0.10106276597E+03  0.27572900246E+03 -0.16399330091E-01  0.29366677703E+03  0.10100000352E+00 0. -1.
</event>
<event>
 5   0  0.4365492E-02  0.6919477E+03  0.7818609E-02  0.9731103E-01
        2   -1    0    0  501    0  0.00000000000E+00  0.00000000000E+00  0.16172469628E+04  0.16172469628E+04  0.25500000920E-02 0. -1.
       -2   -1    0    0    0  501  0.00000000000E+00  0.00000000000E+00 -0.74013373239E+02  0.74013373283E+02  0.25500000920E-02 0.  1.
    10030    2    1    2    0    0  0.00000000000E+00  0.00000000000E+00  0.15432335896E+04  0.16912603361E+04  0.69194769490E+03 0.  0.
        4    1    3    3  502    0  0.19416908575E+03  0.14290666636E+02  0.72598646753E+02  0.20779324682E+03  0.12699999809E+01 0.  1.
       -4    1    3    3    0  502 -0.19416908575E+03 -0.14290666636E+02  0.14706349428E+04  0.14834670893E+04  0.12699999809E+01 0. -1.
</event>
<event>
 5   0  0.4526837E-02  0.7048220E+03  0.7818609E-02  0.9709021E-01
        2   -1    0    0  501    0  0.00000000000E+00  0.00000000000E+00  0.16276425898E+04  0.16276425898E+04  0.25500000920E-02 0. -1.
       -2   -1    0    0    0  501  0.00000000000E+00  0.00000000000E+00 -0.76302685375E+02  0.76302685418E+02  0.25500000920E-02 0.  1.
    10030    2    1    2    0    0  0.00000000000E+00  0.00000000000E+00  0.15513399044E+04  0.17039452752E+04  0.70482196467E+03 0.  0.
        1    1    3    3  502    0  0.29488673416E+03  0.13461566188E+03  0.44143543400E+03  0.54767216911E+03  0.50400001928E-02 0. -1.
       -1    1    3    3    0  502 -0.29488673416E+03 -0.13461566188E+03  0.11099044704E+04  0.11562731061E+04  0.50400001928E-02 0.  1.
</event>
<event>
 5   0  0.2684924E-02  0.5825364E+03  0.7818609E-02  0.9942315E-01
        1   -1    0    0  501    0  0.00000000000E+00  0.00000000000E+00  0.65607475351E+03  0.65607475353E+03  0.50400001928E-02 0.  1.
       -1   -1    0    0    0  501  0.00000000000E+00  0.00000000000E+00 -0.12931022036E+03  0.12931022046E+03  0.50400001928E-02 0. -1.
    10030    2    1    2    0    0  0.00000000000E+00  0.00000000000E+00  0.52676453315E+03  0.78538497399E+03  0.58253642289E+03 0.  0.
        4    1    3    3  502    0  0.81362878910E+01  0.25414899618E+03  0.71870809854E+02  0.26424408725E+03  0.12699999809E+01 0. -1.
       -4    1    3    3    0  502 -0.81362878910E+01 -0.25414899618E+03  0.45489372329E+03  0.52114088674E+03  0.12699999809E+01 0.  1.
</event>
<event>
 5   0  0.4420645E-02  0.6968592E+03  0.7818609E-02  0.9722618E-01
       -2   -1    0    0    0  501  0.00000000000E+00  0.00000000000E+00  0.21281351654E+03  0.21281351656E+03  0.25500000920E-02 0.  1.
        2   -1    0    0  501    0  0.00000000000E+00  0.00000000000E+00 -0.57046750470E+03  0.57046750470E+03  0.25500000920E-02 0. -1.
    10030    2    1    2    0    0  0.00000000000E+00  0.00000000000E+00 -0.35765398815E+03  0.78328102126E+03  0.69685922755E+03 0.  0.
        5    1    3    3  502    0  0.22448350350E+03 -0.26631800735E+03 -0.18774727688E+03  0.39571360143E+03  0.46999998093E+01 0.  1.
       -5    1    3    3    0  502 -0.22448350350E+03  0.26631800735E+03 -0.16990671127E+03  0.38756741983E+03  0.46999998093E+01 0. -1.
</event>
<event>
 5   0  0.2684924E-02  0.7086364E+03  0.7818609E-02  0.9702576E-01
        1   -1    0    0  501    0  0.00000000000E+00  0.00000000000E+00  0.81862286075E+03  0.81862286076E+03  0.50400001928E-02 0.  1.
       -1   -1    0    0    0  501  0.00000000000E+00  0.00000000000E+00 -0.15335678476E+03  0.15335678485E+03  0.50400001928E-02 0. -1.
    10030    2    1    2    0    0  0.00000000000E+00  0.00000000000E+00  0.66526607598E+03  0.97197964561E+03  0.70863635218E+03 0.  0.
        4    1    3    3  502    0  0.77489057303E+02  0.56332362360E+02 -0.13525192206E+03  0.16574855768E+03  0.12699999809E+01 0. -1.
       -4    1    3    3    0  502 -0.77489057303E+02 -0.56332362360E+02  0.80051799804E+03  0.80623108793E+03  0.12699999809E+01 0.  1.
</event>
<event>
 5   0  0.2751729E-02  0.7165823E+03  0.7818609E-02  0.9689287E-01
        1   -1    0    0  501    0  0.00000000000E+00  0.00000000000E+00  0.11724370164E+04  0.11724370165E+04  0.50400001928E-02 0. -1.
       -1   -1    0    0    0  501  0.00000000000E+00  0.00000000000E+00 -0.10949207571E+03  0.10949207583E+03  0.50400001928E-02 0.  1.
    10030    2    1    2    0    0  0.00000000000E+00  0.00000000000E+00  0.10629449407E+04  0.12819290923E+04  0.71658234043E+03 0.  0.
        1    1    3    3  502    0 -0.26240337437E+03  0.45250471961E+02  0.10261168733E+03  0.28536344281E+03  0.50400001928E-02 0.  1.
       -1    1    3    3    0  502  0.26240337437E+03 -0.45250471961E+02  0.96033325340E+03  0.99656564947E+03  0.50400001928E-02 0. -1.
</event>
<event>
 5   0  0.2751729E-02  0.7338426E+03  0.7818609E-02  0.9661045E-01
        1   -1    0    0  501    0  0.00000000000E+00  0.00000000000E+00  0.12196745829E+04  0.12196745829E+04  0.50400001928E-02 0.  1.
       -1   -1    0    0    0  501  0.00000000000E+00  0.00000000000E+00 -0.11038292379E+03  0.11038292390E+03  0.50400001928E-02 0. -1.
    10030    2    1    2    0    0  0.00000000000E+00  0.00000000000E+00  0.11092916591E+04  0.13300575068E+04  0.73384261693E+03 0.  0.
        1    1    3    3  502    0 -0.27189445305E+03 -0.16897260629E+03  0.87964154883E+03  0.93608097392E+03  0.50400001928E-02 0.  1.
       -1    1    3    3    0  502  0.27189445305E+03  0.16897260629E+03  0.22965011024E+03  0.39397653285E+03  0.50400001928E-02 0. -1.
</event>
<event>
 5   0  0.2758681E-02  0.6959634E+03  0.7818609E-02  0.9724160E-01
        1   -1    0    0  501    0  0.00000000000E+00  0.00000000000E+00  0.13981029503E+04  0.13981029503E+04  0.50400001928E-02 0.  1.
       -1   -1    0    0    0  501  0.00000000000E+00  0.00000000000E+00 -0.86611119554E+02  0.86611119701E+02  0.50400001928E-02 0. -1.
    10030    2    1    2    0    0  0.00000000000E+00  0.00000000000E+00  0.13114918307E+04  0.14847140700E+04  0.69596339527E+03 0.  0.
        3    1    3    3  502    0  0.41170151799E+02 -0.18941061348E+03  0.39219935214E+02  0.19776141033E+03  0.10100000352E+00 0. -1.
       -3    1    3    3    0  502 -0.41170151799E+02  0.18941061348E+03  0.12722718955E+04  0.12869526596E+04  0.10100000352E+00 0.  1.
</event>
<event>
 5   0  0.4420645E-02  0.6964125E+03  0.7818609E-02  0.9723387E-01
       -2   -1    0    0    0  501  0.00000000000E+00  0.00000000000E+00  0.17501603774E+03  0.17501603776E+03  0.25500000920E-02 0.  1.
        2   -1    0    0  501    0  0.00000000000E+00  0.00000000000E+00 -0.69277983767E+03  0.69277983768E+03  0.25500000920E-02 0. -1.
    10030    2    1    2    0    0  0.00000000000E+00  0.00000000000E+00 -0.51776379993E+03  0.86779587543E+03  0.69641247037E+03 0.  0.
        5    1    3    3  502    0 -0.27156543467E+03 -0.14559415966E+03 -0.56875971146E+02  0.31337263876E+03  0.46999998093E+01 0.  1.
       -5    1    3    3    0  502  0.27156543467E+03  0.14559415966E+03 -0.46088782879E+03  0.55442323667E+03  0.46999998093E+01 0. -1.
</event>
<event>
 5   0  0.4526837E-02  0.7034536E+03  0.7818609E-02  0.9711344E-01
       -2   -1    0    0    0  501  0.00000000000E+00  0.00000000000E+00  0.10767768247E+03  0.10767768250E+03  0.25500000920E-02 0. -1.
        2   -1    0    0  501    0  0.00000000000E+00  0.00000000000E+00 -0.11489077873E+04  0.11489077873E+04  0.25500000920E-02 0.  1.
    10030    2    1    2    0    0  0.00000000000E+00  0.00000000000E+00 -0.10412301048E+04  0.12565854698E+04  0.70345356045E+03 0.  0.
        1    1    3    3  502    0 -0.80403030149E+02  0.27853460765E+03 -0.87638016538E+03  0.92308632814E+03  0.50400001928E-02 0.  1.
       -1    1    3    3    0  502  0.80403030149E+02 -0.27853460765E+03 -0.16484993942E+03  0.33349914163E+03  0.50400001928E-02 0. -1.
</event>
<event>
 5   0  0.2684924E-02  0.6992472E+03  0.7818609E-02  0.9718520E-01
       -1   -1    0    0    0  501  0.00000000000E+00  0.00000000000E+00  0.85511987118E+02  0.85511987266E+02  0.50400001928E-02 0.  1.
        1   -1    0    0  501    0  0.00000000000E+00  0.00000000000E+00 -0.14294682760E+04  0.14294682760E+04  0.50400001928E-02 0. -1.
    10030    2    1    2    0    0  0.00000000000E+00  0.00000000000E+00 -0.13439562888E+04  0.15149802632E+04  0.69924723215E+03 0.  0.
        4    1    3    3  502    0 -0.19404984478E+03 -0.58125048406E+02 -0.54591211468E+02  0.20979913436E+03  0.12699999809E+01 0.  1.
       -4    1    3    3    0  502  0.19404984478E+03  0.58125048406E+02 -0.12893650774E+04  0.13051811289E+04  0.12699999809E+01 0. -1.
</event>
<event>
 5   0  0.2758681E-02  0.7006660E+03  0.7818609E-02  0.9716094E-01
       -1   -1    0    0    0  501  0.00000000000E+00  0.00000000000E+00  0.20992685761E+03  0.20992685767E+03  0.50400001928E-02 0. -1.
        1   -1    0    0  501    0  0.00000000000E+00  0.00000000000E+00 -0.58464749139E+03  0.58464749141E+03  0.50400001928E-02 0.  1.
    10030    2    1    2    0    0  0.00000000000E+00  0.00000000000E+00 -0.37472063378E+03  0.79457434908E+03  0.70066599949E+03 0.  0.
        3    1    3    3  502    0 -0.11119188977E+03 -0.33521667271E+02 -0.56218311224E+03  0.57405330800E+03  0.10100000352E+00 0.  1.
       -3    1    3    3    0  502  0.11119188977E+03  0.33521667271E+02  0.18746247846E+03  0.22052104108E+03  0.10100000352E+00 0. -1.
</event>
<event>
 5   0  0.4420645E-02  0.6869474E+03  0.7818609E-02  0.9739818E-01
        2   -1    0    0  501    0  0.00000000000E+00  0.00000000000E+00  0.43187110523E+03  0.43187110523E+03  0.25500000920E-02 0.  1.
       -2   -1    0    0    0  501  0.00000000000E+00  0.00000000000E+00 -0.27316991492E+03  0.27316991493E+03  0.25500000920E-02 0. -1.
    10030    2    1    2    0    0  0.00000000000E+00  0.00000000000E+00  0.15870119031E+03  0.70504102017E+03  0.68694743053E+03 0.  0.
        5    1    3    3  502    0 -0.27939762779E+03  0.11346778994E+03  0.24803944196E+03  0.39049152172E+03  0.46999998093E+01 0.  1.
       -5    1    3    3    0  502  0.27939762779E+03 -0.11346778994E+03 -0.89338251652E+02  0.31454949845E+03  0.46999998093E+01 0. -1.
</event>
<event>
 5   0  0.2758681E-02  0.6937692E+03  0.7818609E-02  0.9727947E-01
        1   -1    0    0  501    0  0.00000000000E+00  0.00000000000E+00  0.42767229488E+03  0.42767229491E+03  0.50400001928E-02 0. -1.
       -1   -1    0    0    0  501  0.00000000000E+00  0.00000000000E+00 -0.28135780495E+03  0.28135780499E+03  0.50400001928E-02 0.  1.
    10030    2    1    2    0    0  0.00000000000E+00  0.00000000000E+00  0.14631448993E+03  0.70903009990E+03  0.69376923584E+03 0.  0.
        3    1    3    3  502    0 -0.21727858035E+03  0.80085328028E+02 -0.19079767543E+03  0.30004567052E+03  0.10100000352E+00 0.  1.
       -3    1    3    3    0  502  0.21727858035E+03 -0.80085328028E+02  0.33711216536E+03  0.40898442939E+03  0.10100000352E+00 0. -1.
</event>
<event>
 5   0  0.2751729E-02  0.7028516E+03  0.7818609E-02  0.9712368E-01
        1   -1    0    0  501    0  0.00000000000E+00  0.00000000000E+00  0.72271606564E+03  0.72271606566E+03  0.50400001928E-02 0. -1.
       -1   -1    0    0    0  501  0.00000000000E+00  0.00000000000E+00 -0.17088329318E+03  0.17088329325E+03  0.50400001928E-02 0.  1.
    10030    2    1    2    0    0  0.00000000000E+00  0.00000000000E+00  0.55183277246E+03  0.89359935891E+03  0.70285162408E+03 0.  0.
        1    1    3    3  502    0  0.19468193362E+03  0.97155719417E+02 -0.74950294369E+02  0.23012569554E+03  0.50400001928E-02 0.  1.
       -1    1    3    3    0  502 -0.19468193362E+03 -0.97155719417E+02  0.62678306683E+03  0.66347366337E+03  0.50400001928E-02 0. -1.
</event>
<event>
 5   0  0.4365492E-02  0.6974171E+03  0.7818609E-02  0.9721660E-01
        2   -1    0    0  501    0  0.00000000000E+00  0.00000000000E+00  0.91107536679E+03  0.91107536679E+03  0.25500000920E-02 0. -1.
       -2   -1    0    0    0  501  0.00000000000E+00  0.00000000000E+00 -0.13346606754E+03  0.13346606756E+03  0.25500000920E-02 0.  1.
    10030    2    1    2    0    0  0.00000000000E+00  0.00000000000E+00  0.77760929925E+03  0.10445414344E+04  0.69741708167E+03 0.  0.
        4    1    3    3  502    0 -0.17446858225E+03 -0.28179294319E+03  0.22645831095E+03  0.40141191876E+03  0.12699999809E+01 0.  1.
       -4    1    3    3    0  502  0.17446858225E+03  0.28179294319E+03  0.55115098830E+03  0.64312951560E+03  0.12699999809E+01 0. -1.
</event>
<event>
 5   0  0.4503289E-02  0.6933092E+03  0.7818609E-02  0.9728743E-01
        2   -1    0    0  501    0  0.00000000000E+00  0.00000000000E+00  0.10315881812E+03  0.10315881815E+03  0.25500000920E-02 0. -1.
       -2   -1    0    0    0  501  0.00000000000E+00  0.00000000000E+00 -0.11648972822E+04  0.11648972822E+04  0.25500000920E-02 0.  1.
    10030    2    1    2    0    0  0.00000000000E+00  0.00000000000E+00 -0.10617384641E+04  0.12680561003E+04  0.69330924380E+03 0.  0.
        2    1    3    3  502    0 -0.22971550792E+03 -0.23221275843E+03 -0.74320115618E+03  0.81181274830E+03  0.25500000920E-02 0.  1.
       -2    1    3    3    0  502  0.22971550792E+03  0.23221275843E+03 -0.31853730788E+03  0.45624335203E+03  0.25500000920E-02 0. -1.
</event>
<event>
 5   0  0.2750139E-02  0.6931581E+03  0.7818609E-02  0.9729005E-01
       -1   -1    0    0    0  501  0.00000000000E+00  0.00000000000E+00  0.22831826477E+03  0.22831826483E+03  0.50400001928E-02 0.  1.
        1   -1    0    0  501    0  0.00000000000E+00  0.00000000000E+00 -0.52609471577E+03  0.52609471580E+03  0.50400001928E-02 0. -1.
    10030    2    1    2    0    0  0.00000000000E+00  0.00000000000E+00 -0.29777645100E+03  0.75441298063E+03  0.69315808483E+03 0.  0.
        2    1    3    3  502    0  0.79207162705E+02 -0.32312845328E+03 -0.25458499993E+03  0.41892635885E+03  0.25500000920E-02 0. -1.
       -2    1    3    3    0  502 -0.79207162705E+02  0.32312845328E+03 -0.43191451075E+02  0.33548662178E+03  0.25500000920E-02 0.  1.
</event>
<event>
 5   0  0.4503289E-02  0.7000101E+03  0.7818609E-02  0.9717215E-01
       -2   -1    0    0    0  501  0.00000000000E+00  0.00000000000E+00  0.13941908625E+03  0.13941908627E+03  0.25500000920E-02 0.  1.
        2   -1    0    0  501    0  0.00000000000E+00  0.00000000000E+00 -0.87867123630E+03  0.87867123631E+03  0.25500000920E-02 0. -1.
    10030    2    1    2    0    0  0.00000000000E+00  0.00000000000E+00 -0.73925215005E+03  0.10180903226E+04  0.70001011677E+03 0.  0.
        2    1    3    3  502    0 -0.17912974979E+03 -0.18138121511E+03 -0.71842877290E+03  0.76231654461E+03  0.25500000920E-02 0. -1.
       -2    1    3    3    0  502  0.17912974979E+03  0.18138121511E+03 -0.20823377157E+02  0.25577377797E+03  0.25500000920E-02 0.  1.
</event>
<event>
 5   0  0.2750139E-02  0.6779818E+03  0.7818609E-02  0.9755645E-01
       -1   -1    0    0    0  501  0.00000000000E+00  0.00000000000E+00  0.81096960497E+03  0.81096960499E+03  0.50400001928E-02 0. -1.
        1   -1    0    0  501    0  0.00000000000E+00  0.00000000000E+00 -0.14170052597E+03  0.14170052606E+03  0.50400001928E-02 0.  1.
    10030    2    1    2    0    0  0.00000000000E+00  0.00000000000E+00  0.66926907900E+03  0.95267013105E+03  0.67798176854E+03 0.  0.
        2    1    3    3  502    0 -0.15307710264E+03 -0.23514627286E+03  0.67328034075E+02  0.28854710737E+03  0.25500000920E-02 0.  1.
       -2    1    3    3    0  502  0.15307710264E+03  0.23514627286E+03  0.60194104493E+03  0.66412302367E+03  0.25500000920E-02 0. -1.
</event>
<event>
 5   0  0.2777999E-02  0.7216827E+03  0.7818609E-02  0.9680854E-01
        1   -1    0    0  501    0  0.00000000000E+00  0.00000000000E+00  0.24377655430E+03  0.24377655436E+03  0.50400001928E-02 0.  1.
       -1   -1    0    0    0  501  0.00000000000E+00  0.00000000000E+00 -0.53412224474E+03  0.53412224477E+03  0.50400001928E-02 0. -1.
    10030    2    1    2    0    0  0.00000000000E+00  0.00000000000E+00 -0.29034569044E+03  0.77789879913E+03  0.72168270155E+03 0.  0.
        5    1    3    3  502    0  0.31405743092E+03  0.73822021694E+02 -0.31932102363E+03  0.45394907967E+03  0.46999998093E+01 0. -1.
       -5    1    3    3    0  502 -0.31405743092E+03 -0.73822021694E+02  0.28975333188E+02  0.32394971946E+03  0.46999998093E+01 0.  1.
</event>
<event>
 5   0  0.2751729E-02  0.6947963E+03  0.7818609E-02  0.9726173E-01
        1   -1    0    0  501    0  0.00000000000E+00  0.00000000000E+00  0.40011275373E+03  0.40011275376E+03  0.50400001928E-02 0.  1.
       -1   -1    0    0    0  501  0.00000000000E+00  0.00000000000E+00 -0.30162868265E+03  0.30162868270E+03  0.50400001928E-02 0. -1.
    10030    2    1    2    0    0  0.00000000000E+00  0.00000000000E+00  0.98484071078E+02  0.70174143646E+03  0.69479632367E+03 0.  0.
        1    1    3    3  502    0 -0.11429399131E+03 -0.27307995506E+03 -0.13437095335E+03  0.32510203234E+03  0.50400001928E-02 0. -1.
       -1    1    3    3    0  502  0.11429399131E+03  0.27307995506E+03  0.23285502443E+03  0.37663940411E+03  0.50400001928E-02 0.  1.
</event>
<event>
 5   0  0.4503289E-02  0.6296077E+03  0.7818609E-02  0.9845815E-01
        2   -1    0    0  501    0  0.00000000000E+00  0.00000000000E+00  0.95820356600E+03  0.95820356600E+03  0.25500000920E-02 0.  1.
       -2   -1    0    0    0  501  0.00000000000E+00  0.00000000000E+00 -0.10342422721E+03  0.10342422724E+03  0.25500000920E-02 0. -1.
    10030    2    1    2    0    0  0.00000000000E+00  0.00000000000E+00  0.85477933878E+03  0.10616277932E+04  0.62960769800E+03 0.  0.
        2    1    3    3  502    0 -0.15414885254E+03 -0.15966088893E+03  0.80385596305E+03  0.83392918017E+03  0.25500000920E-02 0.  1.
       -2    1    3    3    0  502  0.15414885254E+03  0.15966088893E+03  0.50923375729E+02  0.22769861307E+03  0.25500000920E-02 0. -1.
</event>
<event>
 5   0  0.4365492E-02  0.6756570E+03  0.7818609E-02  0.9759792E-01
       -2   -1    0    0    0  501  0.00000000000E+00  0.00000000000E+00  0.77057385317E+02  0.77057385359E+02  0.25500000920E-02 0. -1.
        2   -1    0    0  501    0  0.00000000000E+00  0.00000000000E+00 -0.14810793578E+04  0.14810793578E+04  0.25500000920E-02 0.  1.
    10030    2    1    2    0    0  0.00000000000E+00  0.00000000000E+00 -0.14040219725E+04  0.15581367431E+04  0.67565702184E+03 0.  0.
        4    1    3    3  502    0  0.45029095944E+02 -0.26980862097E+02  0.67589167605E+02  0.85589104905E+02  0.12699999809E+01 0. -1.
       -4    1    3    3    0  502 -0.45029095944E+02  0.26980862097E+02 -0.14716111401E+04  0.14725476382E+04  0.12699999809E+01 0.  1.
</event>
<event>
 5   0  0.4526837E-02  0.6992683E+03  0.7818609E-02  0.9718484E-01
       -2   -1    0    0    0  501  0.00000000000E+00  0.00000000000E+00  0.97422455891E+02  0.97422455924E+02  0.25500000920E-02 0.  1.
        2   -1    0    0  501    0  0.00000000000E+00  0.00000000000E+00 -0.12547828427E+04  0.12547828427E+04  0.25500000920E-02 0. -1.
    10030    2    1    2    0    0  0.00000000000E+00  0.00000000000E+00 -0.11573603868E+04  0.13522052986E+04  0.69926826373E+03 0.  0.
        1    1    3    3  502    0 -0.41090348799E+02 -0.24301573084E+03 -0.10582288898E+04  0.10865511702E+04  0.50400001928E-02 0. -1.
       -1    1    3    3    0  502  0.41090348799E+02  0.24301573084E+03 -0.99131496917E+02  0.26565412835E+03  0.50400001928E-02 0.  1.
</event>
<event>
 5   0  0.4526837E-02  0.6981899E+03  0.7818609E-02  0.9720333E-01
       -2   -1    0    0    0  501  0.00000000000E+00  0.00000000000E+00  0.35985624988E+03  0.35985624989E+03  0.25500000920E-02 0. -1.
        2   -1    0    0  501    0  0.00000000000E+00  0.00000000000E+00 -0.33865550378E+03  0.33865550379E+03  0.25500000920E-02 0.  1.
    10030    2    1    2    0    0  0.00000000000E+00  0.00000000000E+00  0.21200746107E+02  0.69851175368E+03  0.69818994435E+03 0.  0.
        1    1    3    3  502    0 -0.17413597190E+03 -0.26577891412E+03 -0.13405372349E+03  0.34486543565E+03  0.50400001928E-02 0.  1.
       -1    1    3    3    0  502  0.17413597190E+03  0.26577891412E+03  0.15525446960E+03  0.35364631803E+03  0.50400001928E-02 0. -1.
</event>
<event>
 5   0  0.1784625E-02  0.6933323E+03  0.7818609E-02  0.9728703E-01
       -4   -1    0    0    0  501  0.00000000000E+00  0.00000000000E+00  0.43676156661E+03  0.43676341304E+03  0.12699999809E+01 0.  1.
        4   -1    0    0  501    0  0.00000000000E+00  0.00000000000E+00 -0.27515177446E+03  0.27515470537E+03  0.12699999809E+01 0. -1.
    10030    2    1    2    0    0  0.00000000000E+00  0.00000000000E+00  0.16160979215E+03  0.71191811841E+03  0.69333230301E+03 0.  0.
        5    1    3    3  502    0  0.16356518020E+03  0.52714999948E+02  0.38991099056E+03  0.42612804408E+03  0.46999998093E+01 0.  1.
       -5    1    3    3    0  502 -0.16356518020E+03 -0.52714999948E+02 -0.22830119841E+03  0.28579007433E+03  0.46999998093E+01 0. -1.
</event>
<event>
 5   0  0.1784625E-02  0.7000727E+03  0.7818609E-02  0.9717108E-01
       -4   -1    0    0    0  501  0.00000000000E+00  0.00000000000E+00  0.13585507669E+03  0.13586101267E+03  0.12699999809E+01 0.  1.
        4   -1    0    0  501    0  0.00000000000E+00  0.00000000000E+00 -0.90185731943E+03  0.90185821364E+03  0.12699999809E+01 0. -1.
    10030    2    1    2    0    0  0.00000000000E+00  0.00000000000E+00 -0.76600224273E+03  0.10377192263E+04  0.70007267963E+03 0.  0.
        2    1    3    3  502    0  0.27311719650E+03 -0.65129102687E+02 -0.73165805974E+02  0.29015175032E+03  0.25500000920E-02 0.  1.
       -2    1    3    3    0  502 -0.27311719650E+03  0.65129102687E+02 -0.69283643676E+03  0.74756747599E+03  0.25500000920E-02 0. -1.
</event>
<event>
 5   0  0.4526837E-02  0.7027555E+03  0.7818609E-02  0.9712531E-01
       -2   -1    0    0    0  501  0.00000000000E+00  0.00000000000E+00  0.21263345570E+03  0.21263345572E+03  0.25500000920E-02 0.  1.
        2   -1    0    0  501    0  0.00000000000E+00  0.00000000000E+00 -0.58065338089E+03  0.58065338090E+03  0.25500000920E-02 0. -1.
    10030    2    1    2    0    0  0.00000000000E+00  0.00000000000E+00 -0.36801992519E+03  0.79328683662E+03  0.70275553347E+03 0.  0.
        1    1    3    3  502    0 -0.21454502090E+03 -0.77512035878E+02  0.11768093339E+03  0.25668362591E+03  0.50400001928E-02 0.  1.
       -1    1    3    3    0  502  0.21454502090E+03  0.77512035878E+02 -0.48570085858E+03  0.53660321071E+03  0.50400001928E-02 0. -1.
</event>
<event>
 5   0  0.4420645E-02  0.6822315E+03  0.7818609E-02  0.9748111E-01
       -2   -1    0    0    0  501  0.00000000000E+00  0.00000000000E+00  0.91856528087E+02  0.91856528122E+02  0.25500000920E-02 0.  1.
        2   -1    0    0  501    0  0.00000000000E+00  0.00000000000E+00 -0.12667577000E+04  0.12667577001E+04  0.25500000920E-02 0. -1.
    10030    2    1    2    0    0  0.00000000000E+00  0.00000000000E+00 -0.11749011720E+04  0.13586142282E+04  0.68223152750E+03 0.  0.
        5    1    3    3  502    0  0.16397531309E+03 -0.80867237351E+02 -0.14035601331E+02  0.18342982713E+03  0.46999998093E+01 0.  1.
       -5    1    3    3    0  502 -0.16397531309E+03  0.80867237351E+02 -0.11608655706E+04  0.11751844010E+04  0.46999998093E+01 0. -1.
</event>
<event>
 5   0  0.4365492E-02  0.6979902E+03  0.7818609E-02  0.9720675E-01
       -2   -1    0    0    0  501  0.00000000000E+00  0.00000000000E+00  0.24941903594E+03  0.24941903595E+03  0.25500000920E-02 0.  1.
        2   -1    0    0  501    0  0.00000000000E+00  0.00000000000E+00 -0.48832510973E+03  0.48832510973E+03  0.25500000920E-02 0. -1.
    10030    2    1    2    0    0  0.00000000000E+00  0.00000000000E+00 -0.23890607379E+03  0.73774414569E+03  0.69799019506E+03 0.  0.
        4    1    3    3  502    0 -0.31751217044E+03 -0.56386473456E+02  0.21572443141E+02  0.32320333533E+03  0.12699999809E+01 0.  1.
       -4    1    3    3    0  502  0.31751217044E+03  0.56386473456E+02 -0.26047851693E+03  0.41454081035E+03  0.12699999809E+01 0. -1.
</event>
<event>
 5   0  0.2751729E-02  0.6984079E+03  0.7818609E-02  0.9719959E-01
       -1   -1    0    0    0  501  0.00000000000E+00  0.00000000000E+00  0.68601922085E+03  0.68601922087E+03  0.50400001928E-02 0.  1.
        1   -1    0    0  501    0  0.00000000000E+00  0.00000000000E+00 -0.17775509726E+03  0.17775509733E+03  0.50400001928E-02 0. -1.
    10030    2    1    2    0    0  0.00000000000E+00  0.00000000000E+00  0.50826412359E+03  0.86377431820E+03  0.69840794200E+03 0.  0.
        1    1    3    3  502    0 -0.62620972142E+02  0.21622840773E+03  0.58430105062E+03  0.62616597500E+03  0.50400001928E-02 0.  1.
       -1    1    3    3    0  502  0.62620972142E+02 -0.21622840773E+03 -0.76036927030E+02  0.23760834320E+03  0.50400001928E-02 0. -1.
</event>
<event>
 5   0  0.4299912E-02  0.6984670E+03  0.7818609E-02  0.9719857E-01
        2   -1    0    0  501    0  0.00000000000E+00  0.00000000000E+00  0.59567672846E+03  0.59567672846E+03  0.25500000920E-02 0. -1.
       -2   -1    0    0    0  501  0.00000000000E+00  0.00000000000E+00 -0.20474867680E+03  0.20474867681E+03  0.25500000920E-02 0.  1.
    10030    2    1    2    0    0  0.00000000000E+00  0.00000000000E+00  0.39092805166E+03  0.80042540528E+03  0.69846695544E+03 0.  0.
        3    1    3    3  502    0 -0.29503285387E+03  0.18572356726E+03  0.17180073318E+03  0.38865554212E+03  0.10100000352E+00 0.  1.
       -3    1    3    3    0  502  0.29503285387E+03 -0.18572356726E+03  0.21912731848E+03  0.41176986316E+03  0.10100000352E+00 0. -1.
</event>
<event>
 5   0  0.4526837E-02  0.7137222E+03  0.7818609E-02  0.9694049E-01
        2   -1    0    0  501    0  0.00000000000E+00  0.00000000000E+00  0.22515742053E+03  0.22515742054E+03  0.25500000920E-02 0. -1.
       -2   -1    0    0    0  501  0.00000000000E+00  0.00000000000E+00 -0.56560353249E+03  0.56560353250E+03  0.25500000920E-02 0.  1.
    10030    2    1    2    0    0  0.00000000000E+00  0.00000000000E+00 -0.34044611196E+03  0.79076095304E+03  0.71372216562E+03 0.  0.
        1    1    3    3  502    0 -0.32862770575E+02  0.42528428839E+02  0.22064756572E+03  0.22709904718E+03  0.50400001928E-02 0. -1.
       -1    1    3    3    0  502  0.32862770575E+02 -0.42528428839E+02 -0.56109367768E+03  0.56366190585E+03  0.50400001928E-02 0.  1.
</event>
<event>
 5   0  0.2684924E-02  0.6999324E+03  0.7818609E-02  0.9717348E-01
        1   -1    0    0  501    0  0.00000000000E+00  0.00000000000E+00  0.42054827599E+03  0.42054827602E+03  0.50400001928E-02 0. -1.
       -1   -1    0    0    0  501  0.00000000000E+00  0.00000000000E+00 -0.29123013164E+03  0.29123013168E+03  0.50400001928E-02 0.  1.
    10030    2    1    2    0    0  0.00000000000E+00  0.00000000000E+00  0.12931814435E+03  0.71177840771E+03  0.69993236760E+03 0.  0.
        4    1    3    3  502    0 -0.98014517494E+02 -0.66061085035E+02 -0.27031501671E+03  0.29503005568E+03  0.12699999809E+01 0.  1.
       -4    1    3    3    0  502  0.98014517494E+02  0.66061085035E+02  0.39963316106E+03  0.41674835203E+03  0.12699999809E+01 0. -1.
</event>
<event>
 5   0  0.4299912E-02  0.6595001E+03  0.7818609E-02  0.9789114E-01
       -2   -1    0    0    0  501  0.00000000000E+00  0.00000000000E+00  0.58285680265E+03  0.58285680265E+03  0.25500000920E-02 0.  1.
        2   -1    0    0  501    0  0.00000000000E+00  0.00000000000E+00 -0.18655544698E+03  0.18655544700E+03  0.25500000920E-02 0. -1.
    10030    2    1    2    0    0  0.00000000000E+00  0.00000000000E+00  0.39630135566E+03  0.76941224965E+03  0.65950014815E+03 0.  0.
        3    1    3    3  502    0  0.19604971434E+03  0.11541222809E+02  0.50718650421E+03  0.54388128352E+03  0.10100000352E+00 0.  1.
       -3    1    3    3    0  502 -0.19604971434E+03 -0.11541222809E+02 -0.11088514854E+03  0.22553096613E+03  0.10100000352E+00 0. -1.
</event>
<event>
 5   0  0.4526837E-02  0.6881465E+03  0.7818609E-02  0.9737721E-01
        2   -1    0    0  501    0  0.00000000000E+00  0.00000000000E+00  0.28187761289E+03  0.28187761290E+03  0.25500000920E-02 0.  1.
       -2   -1    0    0    0  501  0.00000000000E+00  0.00000000000E+00 -0.41999217382E+03  0.41999217383E+03  0.25500000920E-02 0. -1.
    10030    2    1    2    0    0  0.00000000000E+00  0.00000000000E+00 -0.13811456093E+03  0.70186978673E+03  0.68814647103E+03 0.  0.
        1    1    3    3  502    0 -0.54120883752E+02 -0.15405724016E+03  0.23984165748E+03  0.29014948560E+03  0.50400001928E-02 0.  1.
       -1    1    3    3    0  502  0.54120883752E+02  0.15405724016E+03 -0.37795621841E+03  0.41172030113E+03  0.50400001928E-02 0. -1.
</event>
<event>
 5   0  0.2750139E-02  0.7055327E+03  0.7818609E-02  0.9707817E-01
        1   -1    0    0  501    0  0.00000000000E+00  0.00000000000E+00  0.39657976964E+03  0.39657976968E+03  0.50400001928E-02 0. -1.
       -1   -1    0    0    0  501  0.00000000000E+00  0.00000000000E+00 -0.31379339207E+03  0.31379339211E+03  0.50400001928E-02 0.  1.
    10030    2    1    2    0    0  0.00000000000E+00  0.00000000000E+00  0.82786377578E+02  0.71037316178E+03  0.70553273820E+03 0.  0.
        2    1    3    3  502    0 -0.17604998807E+02 -0.32470100229E+03  0.17909195647E+03  0.37123389628E+03  0.25500000920E-02 0.  1.
       -2    1    3    3    0  502  0.17604998807E+02  0.32470100229E+03 -0.96305578890E+02  0.33913926550E+03  0.25500000920E-02 0. -1.
</event>
<event>
 5   0  0.4420645E-02  0.6880951E+03  0.7818609E-02  0.9737810E-01
       -2   -1    0    0    0  501  0.00000000000E+00  0.00000000000E+00  0.74384735273E+03  0.74384735273E+03  0.25500000920E-02 0. -1.
        2   -1    0    0  501    0  0.00000000000E+00  0.00000000000E+00 -0.15913040069E+03  0.15913040071E+03  0.25500000920E-02 0.  1.
    10030    2    1    2    0    0  0.00000000000E+00  0.00000000000E+00  0.58471695204E+03  0.90297775344E+03  0.68809513093E+03 0.  0.
        5    1    3    3  502    0 -0.19820502985E+02  0.24807541460E+03 -0.19326416893E+02  0.24965949622E+03  0.46999998093E+01 0.  1.
       -5    1    3    3    0  502  0.19820502985E+02 -0.24807541460E+03  0.60404336893E+03  0.65331825722E+03  0.46999998093E+01 0. -1.
</event>
<event>
 5   0  0.2751729E-02  0.7000546E+03  0.7818609E-02  0.9717139E-01
       -1   -1    0    0    0  501  0.00000000000E+00  0.00000000000E+00  0.78387377348E+02  0.78387377510E+02  0.50400001928E-02 0.  1.
        1   -1    0    0  501    0  0.00000000000E+00  0.00000000000E+00 -0.15629952461E+04  0.15629952461E+04  0.50400001928E-02 0. -1.
    10030    2    1    2    0    0  0.00000000000E+00  0.00000000000E+00 -0.14846078687E+04  0.16413826236E+04  0.70005456441E+03 0.  0.
        1    1    3    3  502    0 -0.31996163328E+03 -0.14158333479E+03 -0.71911550393E+03  0.79971769736E+03  0.50400001928E-02 0. -1.
       -1    1    3    3    0  502  0.31996163328E+03  0.14158333479E+03 -0.76549236481E+03  0.84166492624E+03  0.50400001928E-02 0.  1.
</event>
<event>
 5   0  0.4526837E-02  0.7110670E+03  0.7818609E-02  0.9698491E-01
        2   -1    0    0  501    0  0.00000000000E+00  0.00000000000E+00  0.99415109135E+03  0.99415109135E+03  0.25500000920E-02 0. -1.
       -2   -1    0    0    0  501  0.00000000000E+00  0.00000000000E+00 -0.12714775727E+03  0.12714775729E+03  0.25500000920E-02 0.  1.
    10030    2    1    2    0    0  0.00000000000E+00  0.00000000000E+00  0.86700333408E+03  0.11212988486E+04  0.71106703387E+03 0.  0.
        1    1    3    3  502    0 -0.29769229459E+03  0.63684042326E+01  0.12714451700E+03  0.32376996009E+03  0.50400001928E-02 0.  1.
       -1    1    3    3    0  502  0.29769229459E+03 -0.63684042326E+01  0.73985881708E+03  0.79752888855E+03  0.50400001928E-02 0. -1.
</event>
<event>
 5   0  0.4503289E-02  0.6880009E+03  0.7818609E-02  0.9737975E-01
       -2   -1    0    0    0  501  0.00000000000E+00  0.00000000000E+00  0.21485561220E+03  0.21485561221E+03  0.25500000920E-02 0.  1.
        2   -1    0    0  501    0  0.00000000000E+00  0.00000000000E+00 -0.55077135800E+03  0.55077135801E+03  0.25500000920E-02 0. -1.
    10030    2    1    2    0    0  0.00000000000E+00  0.00000000000E+00 -0.33591574581E+03  0.76562697022E+03  0.68800092242E+03 0.  0.
        2    1    3    3  502    0 -0.18276458872E+03 -0.26343952496E+03 -0.29264272957E+02  0.32196222741E+03  0.25500000920E-02 0.  1.
       -2    1    3    3    0  502  0.18276458872E+03  0.26343952496E+03 -0.30665147285E+03  0.44366474281E+03  0.25500000920E-02 0. -1.
</event>
<event>
 5   0  0.2777999E-02  0.6974038E+03  0.7818609E-02  0.9721682E-01
       -1   -1    0    0    0  501  0.00000000000E+00  0.00000000000E+00  0.23458203367E+03  0.23458203372E+03  0.50400001928E-02 0.  1.
        1   -1    0    0  501    0  0.00000000000E+00  0.00000000000E+00 -0.51833900533E+03  0.51833900536E+03  0.50400001928E-02 0. -1.
    10030    2    1    2    0    0  0.00000000000E+00  0.00000000000E+00 -0.28375697166E+03  0.75292103908E+03  0.69740380850E+03 0.  0.
        5    1    3    3  502    0  0.24142879957E+03  0.21060572253E+03  0.66537903284E+01  0.32048244655E+03  0.46999998093E+01 0.  1.
       -5    1    3    3    0  502 -0.24142879957E+03 -0.21060572253E+03 -0.29041076199E+03  0.43243859252E+03  0.46999998093E+01 0. -1.
</event>
<event>
 5   0  0.2758681E-02  0.6977999E+03  0.7818609E-02  0.9721002E-01
       -1   -1    0    0    0  501  0.00000000000E+00  0.00000000000E+00  0.13538327202E+03  0.13538327211E+03  0.50400001928E-02 0. -1.
        1   -1    0    0  501    0  0.00000000000E+00  0.00000000000E+00 -0.89915953140E+03  0.89915953141E+03  0.50400001928E-02 0.  1.
    10030    2    1    2    0    0  0.00000000000E+00  0.00000000000E+00 -0.76377625938E+03  0.10345428035E+04  0.69779985521E+03 0.  0.
        3    1    3    3  502    0 -0.13530667340E+03 -0.25981937131E+03 -0.10091259305E+03  0.30983441257E+03  0.10100000352E+00 0. -1.
       -3    1    3    3    0  502  0.13530667340E+03  0.25981937131E+03 -0.66286366633E+03  0.72470839095E+03  0.10100000352E+00 0.  1.
</event>
<event>
 5   0  0.4299912E-02  0.6970185E+03  0.7818609E-02  0.9722345E-01
        2   -1    0    0  501    0  0.00000000000E+00  0.00000000000E+00  0.24515874900E+03  0.24515874901E+03  0.25500000920E-02 0.  1.
       -2   -1    0    0    0  501  0.00000000000E+00  0.00000000000E+00 -0.49542872553E+03  0.49542872554E+03  0.25500000920E-02 0. -1.
    10030    2    1    2    0    0  0.00000000000E+00  0.00000000000E+00 -0.25026997653E+03  0.74058747455E+03  0.69701846913E+03 0.  0.
        3    1    3    3  502    0 -0.94520193267E+02  0.15745281075E+03 -0.43984757735E+03  0.47664594413E+03  0.10100000352E+00 0.  1.
       -3    1    3    3    0  502  0.94520193267E+02 -0.15745281075E+03  0.18957760082E+03  0.26394153042E+03  0.10100000352E+00 0. -1.
</event>
<event>
 5   0  0.4420645E-02  0.7044678E+03  0.7818609E-02  0.9709622E-01
       -2   -1    0    0    0  501  0.00000000000E+00  0.00000000000E+00  0.24625117165E+03  0.24625117166E+03  0.25500000920E-02 0. -1.
        2   -1    0    0  501    0  0.00000000000E+00  0.00000000000E+00 -0.50382995965E+03  0.50382995965E+03  0.25500000920E-02 0.  1.
    10030    2    1    2    0    0  0.00000000000E+00  0.00000000000E+00 -0.25757878800E+03  0.75008113132E+03  0.70446779311E+03 0.  0.
        5    1    3    3  502    0 -0.91203072730E+02  0.33065297997E+03 -0.21395087875E+03  0.40428512483E+03  0.46999998093E+01 0.  1.
       -5    1    3    3    0  502  0.91203072730E+02 -0.33065297997E+03 -0.43627909247E+02  0.34579600649E+03  0.46999998093E+01 0. -1.
</event>
<event>
 5   0  0.2777999E-02  0.7062039E+03  0.7818609E-02  0.9706681E-01
       -1   -1    0    0    0  501  0.00000000000E+00  0.00000000000E+00  0.23806366383E+03  0.23806366388E+03  0.50400001928E-02 0.  1.
        1   -1    0    0  501    0  0.00000000000E+00  0.00000000000E+00 -0.52372960453E+03  0.52372960455E+03  0.50400001928E-02 0. -1.
    10030    2    1    2    0    0  0.00000000000E+00  0.00000000000E+00 -0.28566594070E+03  0.76179326844E+03  0.70620390410E+03 0.  0.
        5    1    3    3  502    0 -0.35118153186E+03  0.14240620645E+02 -0.17905654290E+03  0.39448016319E+03  0.46999998093E+01 0. -1.
       -5    1    3    3    0  502  0.35118153186E+03 -0.14240620645E+02 -0.10660939780E+03  0.36731310525E+03  0.46999998093E+01 0.  1.
</event>
<event>
 5   0  0.4526837E-02  0.6842867E+03  0.7818609E-02  0.9744488E-01
        2   -1    0    0  501    0  0.00000000000E+00  0.00000000000E+00  0.16704213091E+04  0.16704213091E+04  0.25500000920E-02 0.  1.
       -2   -1    0    0    0  501  0.00000000000E+00  0.00000000000E+00 -0.70079363601E+02  0.70079363648E+02  0.25500000920E-02 0. -1.
    10030    2    1    2    0    0  0.00000000000E+00  0.00000000000E+00  0.16003419455E+04  0.17405006728E+04  0.68428667189E+03 0.  0.
        1    1    3    3  502    0 -0.31469140269E+03 -0.10595630250E+03  0.59035484795E+03  0.67733024699E+03  0.50400001928E-02 0. -1.
       -1    1    3    3    0  502  0.31469140269E+03  0.10595630250E+03  0.10099870976E+04  0.10631704258E+04  0.50400001928E-02 0.  1.
</event>
<event>
 5   0  0.2684924E-02  0.6931749E+03  0.7818609E-02  0.9728976E-01
        1   -1    0    0  501    0  0.00000000000E+00  0.00000000000E+00  0.99100806407E+03  0.99100806409E+03  0.50400001928E-02 0. -1.
       -1   -1    0    0    0  501  0.00000000000E+00  0.00000000000E+00 -0.12121280947E+03  0.12121280957E+03  0.50400001928E-02 0.  1.
    10030    2    1    2    0    0  0.00000000000E+00  0.00000000000E+00  0.86979525461E+03  0.11122208737E+04  0.69317493237E+03 0.  0.
        4    1    3    3  502    0 -0.11015537224E+02 -0.31346594006E+03  0.19832298856E+03  0.37110087352E+03  0.12699999809E+01 0.  1.
       -4    1    3    3    0  502  0.11015537224E+02  0.31346594006E+03  0.67147226604E+03  0.74112000014E+03  0.12699999809E+01 0. -1.
</event>
<event>
 5   0  0.4299912E-02  0.7497257E+03  0.7818609E-02  0.9635781E-01
       -2   -1    0    0    0  501  0.00000000000E+00  0.00000000000E+00  0.51466292349E+03  0.51466292350E+03  0.25500000920E-02 0.  1.
        2   -1    0    0  501    0  0.00000000000E+00  0.00000000000E+00 -0.27303726787E+03  0.27303726788E+03  0.25500000920E-02 0. -1.
    10030    2    1    2    0    0  0.00000000000E+00  0.00000000000E+00  0.24162565562E+03  0.78770019138E+03  0.74972570587E+03 0.  0.
        3    1    3    3  502    0  0.26665846034E+03  0.18281329649E+03  0.32014523137E+03  0.45499496175E+03  0.10100000352E+00 0.  1.
       -3    1    3    3    0  502 -0.26665846034E+03 -0.18281329649E+03 -0.78519575742E+02  0.33270522963E+03  0.10100000352E+00 0. -1.
</event>
<event>
 5   0  0.1784625E-02  0.7066100E+03  0.7818609E-02  0.9705994E-01
        3   -1    0    0  501    0  0.00000000000E+00  0.00000000000E+00  0.16298951702E+03  0.16298954831E+03  0.10100000352E+00 0. -1.
       -3   -1    0    0    0  501  0.00000000000E+00  0.00000000000E+00 -0.76584321148E+03  0.76584321814E+03  0.10100000352E+00 0.  1.
    10030    2    1    2    0    0  0.00000000000E+00  0.00000000000E+00 -0.60285369446E+03  0.92883276646E+03  0.70661002761E+03 0.  0.
        5    1    3    3  502    0  0.12196864613E+03  0.87450931346E+02 -0.72181409994E+03  0.73726637039E+03  0.46999998093E+01 0.  1.
       -5    1    3    3    0  502 -0.12196864613E+03 -0.87450931346E+02  0.11896040548E+03  0.19156639607E+03  0.46999998093E+01 0. -1.
</event>
<event>
 5   0  0.4365492E-02  0.6923734E+03  0.7818609E-02  0.9730364E-01
       -2   -1    0    0    0  501  0.00000000000E+00  0.00000000000E+00  0.12118299886E+04  0.12118299886E+04  0.25500000920E-02 0.  1.
        2   -1    0    0  501    0  0.00000000000E+00  0.00000000000E+00 -0.98896066919E+02  0.98896066952E+02  0.25500000920E-02 0. -1.
    10030    2    1    2    0    0  0.00000000000E+00  0.00000000000E+00  0.11129339217E+04  0.13107260556E+04  0.69237336653E+03 0.  0.
        4    1    3    3  502    0 -0.12796305548E+03  0.57558876205E+02 -0.42647978868E+02  0.14665616522E+03  0.12699999809E+01 0. -1.
       -4    1    3    3    0  502  0.12796305548E+03 -0.57558876205E+02  0.11555819006E+04  0.11640698903E+04  0.12699999809E+01 0.  1.
</event>
<event>
 5   0  0.4503289E-02  0.7009001E+03  0.7818609E-02  0.9715694E-01
       -2   -1    0    0    0  501  0.00000000000E+00  0.00000000000E+00  0.12866139661E+03  0.12866139663E+03  0.25500000920E-02 0.  1.
        2   -1    0    0  501    0  0.00000000000E+00  0.00000000000E+00 -0.95456164781E+03  0.95456164782E+03  0.25500000920E-02 0. -1.
    10030    2    1    2    0    0  0.00000000000E+00  0.00000000000E+00 -0.82590025121E+03  0.10832230444E+04  0.70090009208E+03 0.  0.
        2    1    3    3  502    0  0.15855391986E+03  0.68941816307E+02  0.58160811437E+02  0.18241436219E+03  0.25500000920E-02 0.  1.
       -2    1    3    3    0  502 -0.15855391986E+03 -0.68941816307E+02 -0.88406106264E+03  0.90080868226E+03  0.25500000920E-02 0. -1.
</event>
<event>
 5   0  0.4503289E-02  0.7414331E+03  0.7818609E-02  0.9648887E-01
        2   -1    0    0  501    0  0.00000000000E+00  0.00000000000E+00  0.62533876498E+03  0.62533876499E+03  0.25500000920E-02 0. -1.
       -2   -1    0    0    0  501  0.00000000000E+00  0.00000000000E+00 -0.21977011434E+03  0.21977011435E+03  0.25500000920E-02 0.  1.
    10030    2    1    2    0    0  0.00000000000E+00  0.00000000000E+00  0.40556865065E+03  0.84510887934E+03  0.74143313087E+03 0.  0.
        2    1    3    3  502    0  0.15767323325E+03  0.94386214695E+02  0.56976966949E+03  0.59867109692E+03  0.25500000920E-02 0. -1.
       -2    1    3    3    0  502 -0.15767323325E+03 -0.94386214695E+02 -0.16420101884E+03  0.24643778242E+03  0.25500000920E-02 0.  1.
</event>
<event>
 5   0  0.4526837E-02  0.6226690E+03  0.7818609E-02  0.9859460E-01
       -2   -1    0    0    0  501  0.00000000000E+00  0.00000000000E+00  0.11354824873E+03  0.11354824876E+03  0.25500000920E-02 0. -1.
        2   -1    0    0  501    0  0.00000000000E+00  0.00000000000E+00 -0.85363855863E+03  0.85363855863E+03  0.25500000920E-02 0.  1.
    10030    2    1    2    0    0  0.00000000000E+00  0.00000000000E+00 -0.74009030990E+03  0.96718680739E+03  0.62266897594E+03 0.  0.
        1    1    3    3  502    0  0.41429903667E+02  0.41640450049E+02 -0.84495338851E+03  0.84699267576E+03  0.50400001928E-02 0.  1.
       -1    1    3    3    0  502 -0.41429903667E+02 -0.41640450049E+02  0.10486307862E+03  0.12019413164E+03  0.50400001928E-02 0. -1.
</event>
<event>
 5   0  0.2777999E-02  0.6961454E+03  0.7818609E-02  0.9723847E-01
       -1   -1    0    0    0  501  0.00000000000E+00  0.00000000000E+00  0.69672090192E+02  0.69672090374E+02  0.50400001928E-02 0. -1.
        1   -1    0    0  501    0  0.00000000000E+00  0.00000000000E+00 -0.17389258249E+04  0.17389258249E+04  0.50400001928E-02 0.  1.
    10030    2    1    2    0    0  0.00000000000E+00  0.00000000000E+00 -0.16692537347E+04  0.18085979153E+04  0.69614537873E+03 0.  0.
        5    1    3    3  502    0  0.91516366297E+02 -0.32934369649E+03 -0.10047918879E+04  0.10613535433E+04  0.46999998093E+01 0. -1.
       -5    1    3    3    0  502 -0.91516366297E+02  0.32934369649E+03 -0.66446184677E+03  0.74724437203E+03  0.46999998093E+01 0.  1.
</event>
<event>
 5   0  0.2751729E-02  0.7051777E+03  0.7818609E-02  0.9708418E-01
       -1   -1    0    0    0  501  0.00000000000E+00  0.00000000000E+00  0.16460418855E+03  0.16460418863E+03  0.50400001928E-02 0. -1.
        1   -1    0    0  501    0  0.00000000000E+00  0.00000000000E+00 -0.75525952381E+03  0.75525952383E+03  0.50400001928E-02 0.  1.
    10030    2    1    2    0    0  0.00000000000E+00  0.00000000000E+00 -0.59065533527E+03  0.91986371246E+03  0.70517765451E+03 0.  0.
        1    1    3    3  502    0 -0.57297051533E+02  0.31989585507E+03 -0.47371975998E+03  0.57447952203E+03  0.50400001928E-02 0. -1.
       -1    1    3    3    0  502  0.57297051533E+02 -0.31989585507E+03 -0.11693557528E+03  0.34538419043E+03  0.50400001928E-02 0.  1.
</event>
<event>
 5   0  0.4526837E-02  0.6955469E+03  0.7818609E-02  0.9724878E-01
        2   -1    0    0  501    0  0.00000000000E+00  0.00000000000E+00  0.50000764176E+03  0.50000764177E+03  0.25500000920E-02 0.  1.
       -2   -1    0    0    0  501  0.00000000000E+00  0.00000000000E+00 -0.24188905709E+03  0.24188905710E+03  0.25500000920E-02 0. -1.
    10030    2    1    2    0    0  0.00000000000E+00  0.00000000000E+00  0.25811858467E+03  0.74189669887E+03  0.69554691290E+03 0.  0.
        1    1    3    3  502    0  0.11083270706E+03 -0.17779460633E+03 -0.16701980370E+03  0.26793735433E+03  0.50400001928E-02 0. -1.
       -1    1    3    3    0  502 -0.11083270706E+03  0.17779460633E+03  0.42513838837E+03  0.47395934454E+03  0.50400001928E-02 0.  1.
</event>
<event>
 5   0  0.2750139E-02  0.8823684E+03  0.7818609E-02  0.9447894E-01
       -1   -1    0    0    0  501  0.00000000000E+00  0.00000000000E+00  0.95997930419E+03  0.95997930420E+03  0.50400001928E-02 0. -1.
        1   -1    0    0  501    0  0.00000000000E+00  0.00000000000E+00 -0.20275800140E+03  0.20275800146E+03  0.50400001928E-02 0.  1.
    10030    2    1    2    0    0  0.00000000000E+00  0.00000000000E+00  0.75722130279E+03  0.11627373057E+04  0.88236837011E+03 0.  0.
        2    1    3    3  502    0 -0.29122511601E+03  0.25419688573E+03  0.98406430799E+02  0.39888839359E+03  0.25500000920E-02 0.  1.
       -2    1    3    3    0  502  0.29122511601E+03 -0.25419688573E+03  0.65881487199E+03  0.76384891207E+03  0.25500000920E-02 0. -1.
</event>
<event>
 5   0  0.2758681E-02  0.6988845E+03  0.7818609E-02  0.9719142E-01
       -1   -1    0    0    0  501  0.00000000000E+00  0.00000000000E+00  0.11530433886E+03  0.11530433897E+03  0.50400001928E-02 0.  1.
        1   -1    0    0  501    0  0.00000000000E+00  0.00000000000E+00 -0.10590224386E+04  0.10590224386E+04  0.50400001928E-02 0. -1.
    10030    2    1    2    0    0  0.00000000000E+00  0.00000000000E+00 -0.94371809977E+03  0.11743267776E+04  0.69888448888E+03 0.  0.
        3    1    3    3  502    0  0.15849767482E+03  0.28781167345E+03 -0.27196275596E+03  0.42652177334E+03  0.10100000352E+00 0.  1.
       -3    1    3    3    0  502 -0.15849767482E+03 -0.28781167345E+03 -0.67175534381E+03  0.74780500428E+03  0.10100000352E+00 0. -1.
</event>
<event>
 5   0  0.2684924E-02  0.6948968E+03  0.7818609E-02  0.9725999E-01
        1   -1    0    0  501    0  0.00000000000E+00  0.00000000000E+00  0.12828024077E+03  0.12828024087E+03  0.50400001928E-02 0.  1.
       -1   -1    0    0    0  501  0.00000000000E+00  0.00000000000E+00 -0.94106779739E+03  0.94106779741E+03  0.50400001928E-02 0. -1.
    10030    2    1    2    0    0  0.00000000000E+00  0.00000000000E+00 -0.81278755662E+03  0.10693480383E+04  0.69489683750E+03 0.  0.
        4    1    3    3  502    0  0.20548519159E+03 -0.84032231557E+02  0.48968632963E+01  0.22206118993E+03  0.12699999809E+01 0.  1.
       -4    1    3    3    0  502 -0.20548519159E+03  0.84032231557E+02 -0.81768441992E+03  0.84728684835E+03  0.12699999809E+01 0. -1.
</event>
<event>
 5   0  0.4526837E-02  0.7125056E+03  0.7818609E-02  0.9696082E-01
        2   -1    0    0  501    0  0.00000000000E+00  0.00000000000E+00  0.81837851667E+03  0.81837851667E+03  0.25500000920E-02 0. -1.
       -2   -1    0    0    0  501  0.00000000000E+00  0.00000000000E+00 -0.15508236029E+03  0.15508236031E+03  0.25500000920E-02 0.  1.
    10030    2    1    2    0    0  0.00000000000E+00  0.00000000000E+00  0.66329615638E+03  0.97346087698E+03  0.71250564064E+03 0.  0.
        1    1    3    3  502    0 -0.19860321615E+03 -0.21394058770E+03  0.52644361878E+02  0.29662306281E+03  0.50400001928E-02 0.  1.
       -1    1    3    3    0  502  0.19860321615E+03  0.21394058770E+03  0.61065179450E+03  0.67683781416E+03  0.50400001928E-02 0. -1.
</event>
<event>
 5   0  0.2750139E-02  0.7025809E+03  0.7818609E-02  0.9712829E-01
       -1   -1    0    0    0  501  0.00000000000E+00  0.00000000000E+00  0.11179078912E+03  0.11179078923E+03  0.50400001928E-02 0.  1.
        1   -1    0    0  501    0  0.00000000000E+00  0.00000000000E+00 -0.11038922255E+04  0.11038922255E+04  0.50400001928E-02 0. -1.
    10030    2    1    2    0    0  0.00000000000E+00  0.00000000000E+00 -0.99210143638E+03  0.12156830147E+04  0.70258090798E+03 0.  0.
        2    1    3    3  502    0 -0.77835894756E+02  0.16093354697E+03  0.27198535321E+02  0.18082531178E+03  0.25500000920E-02 0.  1.
       -2    1    3    3    0  502  0.77835894756E+02 -0.16093354697E+03 -0.10192999717E+04  0.10348577030E+04  0.25500000920E-02 0. -1.
</event>
<event>
 5   0  0.2758681E-02  0.6883162E+03  0.7818609E-02  0.9737424E-01
       -1   -1    0    0    0  501  0.00000000000E+00  0.00000000000E+00  0.21375671062E+03  0.21375671067E+03  0.50400001928E-02 0. -1.
        1   -1    0    0  501    0  0.00000000000E+00  0.00000000000E+00 -0.55411029776E+03  0.55411029778E+03  0.50400001928E-02 0.  1.
    10030    2    1    2    0    0  0.00000000000E+00  0.00000000000E+00 -0.34035358715E+03  0.76786700846E+03  0.68831619071E+03 0.  0.
        3    1    3    3  502    0 -0.28822033277E+03  0.12170724071E+03 -0.10212904784E+02  0.31303023223E+03  0.10100000352E+00 0.  1.
       -3    1    3    3    0  502  0.28822033277E+03 -0.12170724071E+03 -0.33014068236E+03  0.45483677623E+03  0.10100000352E+00 0. -1.
</event>
<event>
 5   0  0.2777999E-02  0.7006091E+03  0.7818609E-02  0.9716191E-01
       -1   -1    0    0    0  501  0.00000000000E+00  0.00000000000E+00  0.11398572165E+03  0.11398572176E+03  0.50400001928E-02 0. -1.
        1   -1    0    0  501    0  0.00000000000E+00  0.00000000000E+00 -0.10765670720E+04  0.10765670720E+04  0.50400001928E-02 0.  1.
    10030    2    1    2    0    0  0.00000000000E+00  0.00000000000E+00 -0.96258135030E+03  0.11905527937E+04  0.70060909123E+03 0.  0.
        5    1    3    3  502    0 -0.62783370298E+02  0.23487853388E+03 -0.52803034070E+02  0.24883715090E+03  0.46999998093E+01 0. -1.
       -5    1    3    3    0  502  0.62783370298E+02 -0.23487853388E+03 -0.90977831623E+03  0.94171564283E+03  0.46999998093E+01 0.  1.
</event>
<event>
 5   0  0.4526837E-02  0.7125493E+03  0.7818609E-02  0.9696009E-01
       -2   -1    0    0    0  501  0.00000000000E+00  0.00000000000E+00  0.26797678545E+03  0.26797678546E+03  0.25500000920E-02 0. -1.
        2   -1    0    0  501    0  0.00000000000E+00  0.00000000000E+00 -0.47366646367E+03  0.47366646368E+03  0.25500000920E-02 0.  1.
    10030    2    1    2    0    0  0.00000000000E+00  0.00000000000E+00 -0.20568967822E+03  0.74164324914E+03  0.71254927217E+03 0.  0.
        1    1    3    3  502    0  0.17124134883E+03  0.17317902073E+03 -0.37349496659E+03  0.44588458469E+03  0.50400001928E-02 0.  1.
       -1    1    3    3    0  502 -0.17124134883E+03 -0.17317902073E+03  0.16780528837E+03  0.29575866445E+03  0.50400001928E-02 0. -1.
</event>
<event>
 5   0  0.1784625E-02  0.7038281E+03  0.7818609E-02  0.9710708E-01
       -3   -1    0    0    0  501  0.00000000000E+00  0.00000000000E+00  0.99669201030E+03  0.99669201542E+03  0.10100000352E+00 0. -1.
        3   -1    0    0  501    0  0.00000000000E+00  0.00000000000E+00 -0.12425451614E+03  0.12425455719E+03  0.10100000352E+00 0.  1.
    10030    2    1    2    0    0  0.00000000000E+00  0.00000000000E+00  0.87243749417E+03  0.11209465726E+04  0.70382813059E+03 0.  0.
        2    1    3    3  502    0  0.21128291065E+03  0.23634006821E+03  0.19287041367E+03  0.37107424142E+03  0.25500000920E-02 0.  1.
       -2    1    3    3    0  502 -0.21128291065E+03 -0.23634006821E+03  0.67956708050E+03  0.74987233118E+03  0.25500000920E-02 0. -1.
</event>
<event>
 5   0  0.2758681E-02  0.7334414E+03  0.7818609E-02  0.9661692E-01
       -1   -1    0    0    0  501  0.00000000000E+00  0.00000000000E+00  0.12397579101E+03  0.12397579111E+03  0.50400001928E-02 0.  1.
        1   -1    0    0  501    0  0.00000000000E+00  0.00000000000E+00 -0.10847608439E+04  0.10847608439E+04  0.50400001928E-02 0. -1.
    10030    2    1    2    0    0  0.00000000000E+00  0.00000000000E+00 -0.96078505288E+03  0.12087366350E+04  0.73344143255E+03 0.  0.
        3    1    3    3  502    0 -0.25521555955E+03 -0.32912414649E+02 -0.49798458014E+02  0.26210323443E+03  0.10100000352E+00 0.  1.
       -3    1    3    3    0  502  0.25521555955E+03  0.32912414649E+02 -0.91098659487E+03  0.94663340059E+03  0.10100000352E+00 0. -1.
</event>
<event>
 5   0  0.1784625E-02  0.6988063E+03  0.7818609E-02  0.9719276E-01
       -3   -1    0    0    0  501  0.00000000000E+00  0.00000000000E+00  0.46690614250E+03  0.46690615343E+03  0.10100000352E+00 0.  1.
        3   -1    0    0  501    0  0.00000000000E+00  0.00000000000E+00 -0.26147130989E+03  0.26147132939E+03  0.10100000352E+00 0. -1.
    10030    2    1    2    0    0  0.00000000000E+00  0.00000000000E+00  0.20543483262E+03  0.72837748282E+03  0.69880633013E+03 0.  0.
        3    1    3    3  502    0  0.52180601554E+02 -0.31408094422E+03  0.25272741497E+03  0.40649823023E+03  0.10100000352E+00 0.  1.
       -3    1    3    3    0  502 -0.52180601554E+02  0.31408094422E+03 -0.47292582354E+02  0.32187925259E+03  0.10100000352E+00 0. -1.
</event>
<event>
 5   0  0.4503289E-02  0.6908226E+03  0.7818609E-02  0.9733057E-01
       -2   -1    0    0    0  501  0.00000000000E+00  0.00000000000E+00  0.17300723267E+03  0.17300723269E+03  0.25500000920E-02 0.  1.
        2   -1    0    0  501    0  0.00000000000E+00  0.00000000000E+00 -0.68961842451E+03  0.68961842452E+03  0.25500000920E-02 0. -1.
    10030    2    1    2    0    0  0.00000000000E+00  0.00000000000E+00 -0.51661119184E+03  0.86262565720E+03  0.69082262624E+03 0.  0.
        2    1    3    3  502    0  0.31985938098E+03  0.13031298496E+03 -0.25308528472E+03  0.42818647690E+03  0.25500000920E-02 0. -1.
       -2    1    3    3    0  502 -0.31985938098E+03 -0.13031298496E+03 -0.26352590713E+03  0.43443918031E+03  0.25500000920E-02 0.  1.
</event>
<event>
 5   0  0.2750139E-02  0.7034907E+03  0.7818609E-02  0.9711281E-01
       -1   -1    0    0    0  501  0.00000000000E+00  0.00000000000E+00  0.25688406263E+03  0.25688406268E+03  0.50400001928E-02 0. -1.
        1   -1    0    0  501    0  0.00000000000E+00  0.00000000000E+00 -0.48163670852E+03  0.48163670855E+03  0.50400001928E-02 0.  1.
    10030    2    1    2    0    0  0.00000000000E+00  0.00000000000E+00 -0.22475264589E+03  0.73852077123E+03  0.70349070904E+03 0.  0.
        2    1    3    3  502    0  0.25041871990E+03  0.10557592983E+03 -0.34680978474E+03  0.44060508285E+03  0.25500000920E-02 0.  1.
       -2    1    3    3    0  502 -0.25041871990E+03 -0.10557592983E+03  0.12205713885E+03  0.29791568838E+03  0.25500000920E-02 0. -1.
</event>
<event>
 5   0  0.4420645E-02  0.7060151E+03  0.7818609E-02  0.9707000E-01
        2   -1    0    0  501    0  0.00000000000E+00  0.00000000000E+00  0.32993032949E+03  0.32993032950E+03  0.25500000920E-02 0.  1.
       -2   -1    0    0    0  501  0.00000000000E+00  0.00000000000E+00 -0.37769895336E+03  0.37769895337E+03  0.25500000920E-02 0. -1.
    10030    2    1    2    0    0  0.00000000000E+00  0.00000000000E+00 -0.47768623873E+02  0.70762928286E+03  0.70601512770E+03 0.  0.
        5    1    3    3  502    0  0.19855096763E+03 -0.10426470323E+03 -0.29708526332E+03  0.37225711379E+03  0.46999998093E+01 0. -1.
       -5    1    3    3    0  502 -0.19855096763E+03  0.10426470323E+03  0.24931663945E+03  0.33537216907E+03  0.46999998093E+01 0.  1.
</event>
<event>
 5   0  0.4365492E-02  0.6955999E+03  0.7818609E-02  0.9724787E-01
        2   -1    0    0  501    0  0.00000000000E+00  0.00000000000E+00  0.26740437309E+03  0.26740437310E+03  0.25500000920E-02 0. -1.
       -2   -1    0    0    0  501  0.00000000000E+00  0.00000000000E+00 -0.45236661044E+03  0.45236661045E+03  0.25500000920E-02 0.  1.
    10030    2    1    2    0    0  0.00000000000E+00  0.00000000000E+00 -0.18496223735E+03  0.71977098355E+03  0.69559991339E+03 0.  0.
        4    1    3    3  502    0 -0.19685487928E+03 -0.28621600666E+03 -0.11015536899E+03  0.36442730988E+03  0.12699999809E+01 0.  1.
       -4    1    3    3    0  502  0.19685487928E+03  0.28621600666E+03 -0.74806868353E+02  0.35534367367E+03  0.12699999809E+01 0. -1.
</event>
<event>
 5   0  0.4365492E-02  0.5993924E+03  0.7818609E-02  0.9906668E-01
        2   -1    0    0  501    0  0.00000000000E+00  0.00000000000E+00  0.42872825142E+03  0.42872825143E+03  0.25500000920E-02 0.  1.
       -2   -1    0    0    0  501  0.00000000000E+00  0.00000000000E+00 -0.20949820635E+03  0.20949820637E+03  0.25500000920E-02 0. -1.
    10030    2    1    2    0    0  0.00000000000E+00  0.00000000000E+00  0.21923004507E+03  0.63822645780E+03  0.59939235795E+03 0.  0.
        4    1    3    3  502    0  0.27966602152E+03  0.46092370948E+02  0.21328085067E+03  0.35472232015E+03  0.12699999809E+01 0.  1.
       -4    1    3    3    0  502 -0.27966602152E+03 -0.46092370948E+02  0.59491943982E+01  0.28350413765E+03  0.12699999809E+01 0. -1.
</event>
<event>
 5   0  0.2777999E-02  0.7088224E+03  0.7818609E-02  0.9702263E-01
       -1   -1    0    0    0  501  0.00000000000E+00  0.00000000000E+00  0.81731490131E+02  0.81731490287E+02  0.50400001928E-02 0. -1.
        1   -1    0    0  501    0  0.00000000000E+00  0.00000000000E+00 -0.15368287671E+04  0.15368287671E+04  0.50400001928E-02 0.  1.
    10030    2    1    2    0    0  0.00000000000E+00  0.00000000000E+00 -0.14550972769E+04  0.16185602573E+04  0.70882241878E+03 0.  0.
        5    1    3    3  502    0 -0.14682631634E+03  0.80306215226E+01  0.87098620226E+01  0.14737845754E+03  0.46999998093E+01 0. -1.
       -5    1    3    3    0  502  0.14682631634E+03 -0.80306215226E+01 -0.14638071389E+04  0.14711817998E+04  0.46999998093E+01 0.  1.
</event>
<event>
 5   0  0.2777999E-02  0.7015586E+03  0.7818609E-02  0.9714570E-01
       -1   -1    0    0    0  501  0.00000000000E+00  0.00000000000E+00  0.10339659001E+03  0.10339659013E+03  0.50400001928E-02 0. -1.
        1   -1    0    0  501    0  0.00000000000E+00  0.00000000000E+00 -0.11900404911E+04  0.11900404911E+04  0.50400001928E-02 0.  1.
    10030    2    1    2    0    0  0.00000000000E+00  0.00000000000E+00 -0.10866439011E+04  0.12934370812E+04  0.70155863287E+03 0.  0.
        5    1    3    3  502    0  0.10379752421E+03  0.14930890348E+03  0.96444324487E+01  0.18215976440E+03  0.46999998093E+01 0. -1.
       -5    1    3    3    0  502 -0.10379752421E+03 -0.14930890348E+03 -0.10962883335E+04  0.11112773168E+04  0.46999998093E+01 0.  1.
</event>
<event>
 5   0  0.2777999E-02  0.8027688E+03  0.7818609E-02  0.9556018E-01
       -1   -1    0    0    0  501  0.00000000000E+00  0.00000000000E+00  0.84416899263E+03  0.84416899265E+03  0.50400001928E-02 0. -1.
        1   -1    0    0  501    0  0.00000000000E+00  0.00000000000E+00 -0.19084972994E+03  0.19084973001E+03  0.50400001928E-02 0.  1.
    10030    2    1    2    0    0  0.00000000000E+00  0.00000000000E+00  0.65331926269E+03  0.10350187227E+04  0.80276876948E+03 0.  0.
        5    1    3    3  502    0 -0.22166580594E+03 -0.21784301408E+03 -0.77470170950E+00  0.31082792421E+03  0.46999998093E+01 0.  1.
       -5    1    3    3    0  502  0.22166580594E+03  0.21784301408E+03  0.65409396440E+03  0.72419079845E+03  0.46999998093E+01 0. -1.
</event>
<event>
 5   0  0.4365492E-02  0.6892572E+03  0.7818609E-02  0.9735782E-01
       -2   -1    0    0    0  501  0.00000000000E+00  0.00000000000E+00  0.10030148683E+03  0.10030148686E+03  0.25500000920E-02 0. -1.
        2   -1    0    0  501    0  0.00000000000E+00  0.00000000000E+00 -0.11841188959E+04  0.11841188959E+04  0.25500000920E-02 0.  1.
    10030    2    1    2    0    0  0.00000000000E+00  0.00000000000E+00 -0.10838174090E+04  0.12844203827E+04  0.68925724039E+03 0.  0.
        4    1    3    3  502    0  0.18585084480E+03  0.18079678236E+03 -0.11885554683E+03  0.28523019991E+03  0.12699999809E+01 0. -1.
       -4    1    3    3    0  502 -0.18585084480E+03 -0.18079678236E+03 -0.96496186222E+03  0.99919018283E+03  0.12699999809E+01 0.  1.
</event>
<event>
 5   0  0.4420645E-02  0.7071838E+03  0.7818609E-02  0.9705025E-01
       -2   -1    0    0    0  501  0.00000000000E+00  0.00000000000E+00  0.47868795363E+03  0.47868795363E+03  0.25500000920E-02 0.  1.
        2   -1    0    0  501    0  0.00000000000E+00  0.00000000000E+00 -0.26118732732E+03  0.26118732733E+03  0.25500000920E-02 0. -1.
    10030    2    1    2    0    0  0.00000000000E+00  0.00000000000E+00  0.21750062631E+03  0.73987528097E+03  0.70718378724E+03 0.  0.
        5    1    3    3  502    0 -0.60638756715E+02  0.84622023974E+02  0.46225638778E+03  0.47385757755E+03  0.46999998093E+01 0.  1.
       -5    1    3    3    0  502  0.60638756715E+02 -0.84622023974E+02 -0.24475576148E+03  0.26601770342E+03  0.46999998093E+01 0. -1.
</event>
<event>
 5   0  0.2758681E-02  0.7225864E+03  0.7818609E-02  0.9679367E-01
       -1   -1    0    0    0  501  0.00000000000E+00  0.00000000000E+00  0.20502348722E+03  0.20502348729E+03  0.50400001928E-02 0.  1.
        1   -1    0    0  501    0  0.00000000000E+00  0.00000000000E+00 -0.63667235192E+03  0.63667235194E+03  0.50400001928E-02 0. -1.
    10030    2    1    2    0    0  0.00000000000E+00  0.00000000000E+00 -0.43164886470E+03  0.84169583923E+03  0.72258642623E+03 0.  0.
        3    1    3    3  502    0  0.98771679976E+02  0.22078647520E+03  0.96799975559E+02  0.26052400632E+03  0.10100000352E+00 0.  1.
       -3    1    3    3    0  502 -0.98771679976E+02 -0.22078647520E+03 -0.52844884026E+03  0.58117183291E+03  0.10100000352E+00 0. -1.
</event>
<event>
 5   0  0.4365492E-02  0.6916090E+03  0.7818609E-02  0.9731690E-01
        2   -1    0    0  501    0  0.00000000000E+00  0.00000000000E+00  0.26427493051E+03  0.26427493052E+03  0.25500000920E-02 0. -1.
       -2   -1    0    0    0  501  0.00000000000E+00  0.00000000000E+00 -0.45248616799E+03  0.45248616799E+03  0.25500000920E-02 0.  1.
    10030    2    1    2    0    0  0.00000000000E+00  0.00000000000E+00 -0.18821123748E+03  0.71676109851E+03  0.69160899533E+03 0.  0.
        4    1    3    3  502    0  0.33648724421E+03  0.62633465491E+02 -0.14521988243E+03  0.37180242558E+03  0.12699999809E+01 0. -1.
       -4    1    3    3    0  502 -0.33648724421E+03 -0.62633465491E+02 -0.42991355050E+02  0.34495867293E+03  0.12699999809E+01 0.  1.
</event>
<event>
 5   0  0.4526837E-02  0.7097385E+03  0.7818609E-02  0.9700722E-01
        2   -1    0    0  501    0  0.00000000000E+00  0.00000000000E+00  0.94722224958E+03  0.94722224958E+03  0.25500000920E-02 0.  1.
       -2   -1    0    0    0  501  0.00000000000E+00  0.00000000000E+00 -0.13294891531E+03  0.13294891534E+03  0.25500000920E-02 0. -1.
    10030    2    1    2    0    0  0.00000000000E+00  0.00000000000E+00  0.81427333427E+03  0.10801711649E+04  0.70973846072E+03 0.  0.
        1    1    3    3  502    0 -0.29715102893E+02  0.26887621038E+03  0.57573960747E+02  0.27657216930E+03  0.50400001928E-02 0. -1.
       -1    1    3    3    0  502  0.29715102893E+02 -0.26887621038E+03  0.75669937352E+03  0.80359899562E+03  0.50400001928E-02 0.  1.
</event>
<event>
 5   0  0.1784625E-02  0.6983070E+03  0.7818609E-02  0.9720132E-01
       -3   -1    0    0    0  501  0.00000000000E+00  0.00000000000E+00  0.13945370371E+03  0.13945374029E+03  0.10100000352E+00 0. -1.
        3   -1    0    0  501    0  0.00000000000E+00  0.00000000000E+00 -0.87418366185E+03  0.87418366769E+03  0.10100000352E+00 0.  1.
    10030    2    1    2    0    0  0.00000000000E+00  0.00000000000E+00 -0.73472995814E+03  0.10136374080E+04  0.69830701233E+03 0.  0.
        3    1    3    3  502    0 -0.26215947571E+03  0.21700364402E+03 -0.48064268903E+03  0.58892748021E+03  0.10100000352E+00 0.  1.
       -3    1    3    3    0  502  0.26215947571E+03 -0.21700364402E+03 -0.25408726910E+03  0.42470992777E+03  0.10100000352E+00 0. -1.
</event>
<event>
 5   0  0.2751729E-02  0.6866735E+03  0.7818609E-02  0.9740298E-01
       -1   -1    0    0    0  501  0.00000000000E+00  0.00000000000E+00  0.92703292171E+02  0.92703292308E+02  0.50400001928E-02 0.  1.
        1   -1    0    0  501    0  0.00000000000E+00  0.00000000000E+00 -0.12715849051E+04  0.12715849051E+04  0.50400001928E-02 0. -1.
    10030    2    1    2    0    0  0.00000000000E+00  0.00000000000E+00 -0.11788816129E+04  0.13642881974E+04  0.68667345099E+03 0.  0.
        1    1    3    3  502    0 -0.23357498999E+02 -0.34757892794E+02  0.87610203518E+02  0.97104230891E+02  0.50400001928E-02 0.  1.
       -1    1    3    3    0  502  0.23357498999E+02  0.34757892794E+02 -0.12664918164E+04  0.12671839665E+04  0.50400001928E-02 0. -1.
</event>
<event>
 5   0  0.4299912E-02  0.6987895E+03  0.7818609E-02  0.9719304E-01
        2   -1    0    0  501    0  0.00000000000E+00  0.00000000000E+00  0.78779699546E+02  0.78779699587E+02  0.25500000920E-02 0. -1.
       -2   -1    0    0    0  501  0.00000000000E+00  0.00000000000E+00 -0.15495959663E+04  0.15495959663E+04  0.25500000920E-02 0.  1.
    10030    2    1    2    0    0  0.00000000000E+00  0.00000000000E+00 -0.14708162668E+04  0.16283756659E+04  0.69878953821E+03 0.  0.
        3    1    3    3  502    0  0.90549642263E+02 -0.33493787102E+03 -0.83132060440E+03  0.90081994463E+03  0.10100000352E+00 0. -1.
       -3    1    3    3    0  502 -0.90549642263E+02  0.33493787102E+03 -0.63949566237E+03  0.72755572127E+03  0.10100000352E+00 0.  1.
</event>
<event>
 5   0  0.2758681E-02  0.6936106E+03  0.7818609E-02  0.9728222E-01
        1   -1    0    0  501    0  0.00000000000E+00  0.00000000000E+00  0.30761361021E+03  0.30761361025E+03  0.50400001928E-02 0.  1.
       -1   -1    0    0    0  501  0.00000000000E+00  0.00000000000E+00 -0.39099023771E+03  0.39099023774E+03  0.50400001928E-02 0. -1.
    10030    2    1    2    0    0  0.00000000000E+00  0.00000000000E+00 -0.83376627503E+02  0.69860384799E+03  0.69361060719E+03 0.  0.
        3    1    3    3  502    0  0.29094369583E+03  0.11026834480E+02 -0.23147004258E+03  0.37195190017E+03  0.10100000352E+00 0. -1.
       -3    1    3    3    0  502 -0.29094369583E+03 -0.11026834480E+02  0.14809341508E+03  0.32665194782E+03  0.10100000352E+00 0.  1.
</event>
<event>
 5   0  0.2777999E-02  0.7021663E+03  0.7818609E-02  0.9713535E-01
        1   -1    0    0  501    0  0.00000000000E+00  0.00000000000E+00  0.18047879159E+03  0.18047879166E+03  0.50400001928E-02 0. -1.
       -1   -1    0    0    0  501  0.00000000000E+00  0.00000000000E+00 -0.68295778491E+03  0.68295778493E+03  0.50400001928E-02 0.  1.
    10030    2    1    2    0    0  0.00000000000E+00  0.00000000000E+00 -0.50247899332E+03  0.86343657659E+03  0.70216635000E+03 0.  0.
        5    1    3    3  502    0  0.15508474584E+03 -0.24114819033E+03 -0.21473006543E+01  0.28675848547E+03  0.46999998093E+01 0. -1.
       -5    1    3    3    0  502 -0.15508474584E+03  0.24114819033E+03 -0.50033169266E+03  0.57667809112E+03  0.46999998093E+01 0.  1.
</event>
<event>
 5   0  0.1784625E-02  0.6923125E+03  0.7818609E-02  0.9730470E-01
        3   -1    0    0  501    0  0.00000000000E+00  0.00000000000E+00  0.24945989800E+03  0.24945991845E+03  0.10100000352E+00 0.  1.
       -3   -1    0    0    0  501  0.00000000000E+00  0.00000000000E+00 -0.48033423651E+03  0.48033424713E+03  0.10100000352E+00 0. -1.
    10030    2    1    2    0    0  0.00000000000E+00  0.00000000000E+00 -0.23087433850E+03  0.72979416557E+03  0.69231247564E+03 0.  0.
        1    1    3    3  502    0  0.17394586903E+03  0.29927632210E+03 -0.11458166790E+03  0.36462644030E+03  0.50400001928E-02 0. -1.
       -1    1    3    3    0  502 -0.17394586903E+03 -0.29927632210E+03 -0.11629267060E+03  0.36516772528E+03  0.50400001928E-02 0.  1.
</event>
<event>
 5   0  0.2751729E-02  0.6879486E+03  0.7818609E-02  0.9738066E-01
       -1   -1    0    0    0  501  0.00000000000E+00  0.00000000000E+00  0.41790134475E+03  0.41790134478E+03  0.50400001928E-02 0. -1.
        1   -1    0    0  501    0  0.00000000000E+00  0.00000000000E+00 -0.28312502532E+03  0.28312502537E+03  0.50400001928E-02 0.  1.
    10030    2    1    2    0    0  0.00000000000E+00  0.00000000000E+00  0.13477631943E+03  0.70102637014E+03  0.68794862843E+03 0.  0.
        1    1    3    3  502    0 -0.15687967248E+03  0.30483272759E+03  0.95922350372E+02  0.35599904603E+03  0.50400001928E-02 0. -1.
       -1    1    3    3    0  502  0.15687967248E+03 -0.30483272759E+03  0.38853969055E+02  0.34502732411E+03  0.50400001928E-02 0.  1.
</event>
<event>
 5   0  0.2751729E-02  0.6763795E+03  0.7818609E-02  0.9758501E-01
        1   -1    0    0  501    0  0.00000000000E+00  0.00000000000E+00  0.18541658899E+03  0.18541658905E+03  0.50400001928E-02 0. -1.
       -1   -1    0    0    0  501  0.00000000000E+00  0.00000000000E+00 -0.61683968709E+03  0.61683968711E+03  0.50400001928E-02 0.  1.
    10030    2    1    2    0    0  0.00000000000E+00  0.00000000000E+00 -0.43142309810E+03  0.80225627616E+03  0.67637951112E+03 0.  0.
        1    1    3    3  502    0 -0.22383175913E+03  0.28441647317E+02  0.83089449786E+02  0.24044425630E+03  0.50400001928E-02 0. -1.
       -1    1    3    3    0  502  0.22383175913E+03 -0.28441647317E+02 -0.51451254789E+03  0.56181201986E+03  0.50400001928E-02 0.  1.
</event>
<event>
 5   0  0.1784625E-02  0.6968364E+03  0.7818609E-02  0.9722658E-01
       -3   -1    0    0    0  501  0.00000000000E+00  0.00000000000E+00  0.68396057889E+03  0.68396058634E+03  0.10100000352E+00 0.  1.
        3   -1    0    0  501    0  0.00000000000E+00  0.00000000000E+00 -0.17748862577E+03  0.17748865450E+03  0.10100000352E+00 0. -1.
    10030    2    1    2    0    0  0.00000000000E+00  0.00000000000E+00  0.50647195312E+03  0.86144924085E+03  0.69683639060E+03 0.  0.
        3    1    3    3  502    0 -0.10205400716E+03 -0.18597025427E+03 -0.88453900838E+02  0.22983485077E+03  0.10100000352E+00 0. -1.
       -3    1    3    3    0  502  0.10205400716E+03  0.18597025427E+03  0.59492585396E+03  0.63161439008E+03  0.10100000352E+00 0.  1.
</event>
<event>
 5   0  0.4299912E-02  0.6730309E+03  0.7818609E-02  0.9764498E-01
       -2   -1    0    0    0  501  0.00000000000E+00  0.00000000000E+00  0.19385573644E+03  0.19385573646E+03  0.25500000920E-02 0.  1.
        2   -1    0    0  501    0  0.00000000000E+00  0.00000000000E+00 -0.58415936100E+03  0.58415936101E+03  0.25500000920E-02 0. -1.
    10030    2    1    2    0    0  0.00000000000E+00  0.00000000000E+00 -0.39030362456E+03  0.77801509747E+03  0.67303088528E+03 0.  0.
        3    1    3    3  502    0  0.29660616579E+03 -0.13613116984E+03 -0.10027828635E+03  0.34141273834E+03  0.10100000352E+00 0.  1.
       -3    1    3    3    0  502 -0.29660616579E+03  0.13613116984E+03 -0.29002533821E+03  0.43660235912E+03  0.10100000352E+00 0. -1.
</event>
<event>
 5   0  0.1784625E-02  0.6793901E+03  0.7818609E-02  0.9753142E-01
       -3   -1    0    0    0  501  0.00000000000E+00  0.00000000000E+00  0.51079492937E+03  0.51079493936E+03  0.10100000352E+00 0. -1.
        3   -1    0    0  501    0  0.00000000000E+00  0.00000000000E+00 -0.22590807937E+03  0.22590810195E+03  0.10100000352E+00 0.  1.
    10030    2    1    2    0    0  0.00000000000E+00  0.00000000000E+00  0.28488685000E+03  0.73670304131E+03  0.67939006010E+03 0.  0.
        5    1    3    3  502    0  0.22076426835E+03  0.11493815165E+03 -0.10818904808E+03  0.27143065599E+03  0.46999998093E+01 0.  1.
       -5    1    3    3    0  502 -0.22076426835E+03 -0.11493815165E+03  0.39307589809E+03  0.46527238532E+03  0.46999998093E+01 0. -1.
</event>
<event>
 5   0  0.2751729E-02  0.6784126E+03  0.7818609E-02  0.9754879E-01
       -1   -1    0    0    0  501  0.00000000000E+00  0.00000000000E+00  0.51932553234E+03  0.51932553236E+03  0.50400001928E-02 0.  1.
        1   -1    0    0  501    0  0.00000000000E+00  0.00000000000E+00 -0.22155833200E+03  0.22155833206E+03  0.50400001928E-02 0. -1.
    10030    2    1    2    0    0  0.00000000000E+00  0.00000000000E+00  0.29776720033E+03  0.74088386442E+03  0.67841255514E+03 0.  0.
        1    1    3    3  502    0  0.26015909542E+03 -0.20431064499E+03  0.23086492633E+03  0.40339088837E+03  0.50400001928E-02 0.  1.
       -1    1    3    3    0  502 -0.26015909542E+03  0.20431064499E+03  0.66902274006E+02  0.33749297605E+03  0.50400001928E-02 0. -1.
</event>
<event>
 5   0  0.2750139E-02  0.7030104E+03  0.7818609E-02  0.9712098E-01
        1   -1    0    0  501    0  0.00000000000E+00  0.00000000000E+00  0.17929860681E+04  0.17929860682E+04  0.50400001928E-02 0. -1.
       -1   -1    0    0    0  501  0.00000000000E+00  0.00000000000E+00 -0.68910693339E+02  0.68910693523E+02  0.50400001928E-02 0.  1.
    10030    2    1    2    0    0  0.00000000000E+00  0.00000000000E+00  0.17240753748E+04  0.18618967617E+04  0.70301042178E+03 0.  0.
        2    1    3    3  502    0 -0.46146787772E+02 -0.13953741227E+03  0.17077050776E+04  0.17140177500E+04  0.25500000920E-02 0. -1.
       -2    1    3    3    0  502  0.46146787772E+02  0.13953741227E+03  0.16370297222E+02  0.14787901163E+03  0.25500000920E-02 0.  1.
</event>
<event>
 5   0  0.2758681E-02  0.7030557E+03  0.7818609E-02  0.9712021E-01
        1   -1    0    0  501    0  0.00000000000E+00  0.00000000000E+00  0.37626683276E+03  0.37626683280E+03  0.50400001928E-02 0.  1.
       -1   -1    0    0    0  501  0.00000000000E+00  0.00000000000E+00 -0.32841537884E+03  0.32841537888E+03  0.50400001928E-02 0. -1.
    10030    2    1    2    0    0  0.00000000000E+00  0.00000000000E+00  0.47851453923E+02  0.70468221167E+03  0.70305565769E+03 0.  0.
        3    1    3    3  502    0 -0.14427354990E+03 -0.12174537074E+03  0.32115016474E+03  0.37252413480E+03  0.10100000352E+00 0.  1.
       -3    1    3    3    0  502  0.14427354990E+03  0.12174537074E+03 -0.27329871082E+03  0.33215807687E+03  0.10100000352E+00 0. -1.
</event>
<event>
 5   0  0.4365492E-02  0.7012426E+03  0.7818609E-02  0.9715110E-01
       -2   -1    0    0    0  501  0.00000000000E+00  0.00000000000E+00  0.79386673430E+02  0.79386673471E+02  0.25500000920E-02 0.  1.
        2   -1    0    0  501    0  0.00000000000E+00  0.00000000000E+00 -0.15485634702E+04  0.15485634702E+04  0.25500000920E-02 0. -1.
    10030    2    1    2    0    0  0.00000000000E+00  0.00000000000E+00 -0.14691767967E+04  0.16279501436E+04  0.70124261858E+03 0.  0.
        4    1    3    3  502    0  0.17223650447E+03 -0.16084071393E+03 -0.13372840317E+04  0.13578900335E+04  0.12699999809E+01 0. -1.
       -4    1    3    3    0  502 -0.17223650447E+03  0.16084071393E+03 -0.13189276507E+03  0.27006011017E+03  0.12699999809E+01 0.  1.
</event>
<event>
 5   0  0.4299912E-02  0.6890173E+03  0.7818609E-02  0.9736201E-01
        2   -1    0    0  501    0  0.00000000000E+00  0.00000000000E+00  0.33095505454E+03  0.33095505455E+03  0.25500000920E-02 0. -1.
       -2   -1    0    0    0  501  0.00000000000E+00  0.00000000000E+00 -0.35861727661E+03  0.35861727662E+03  0.25500000920E-02 0.  1.
    10030    2    1    2    0    0  0.00000000000E+00  0.00000000000E+00 -0.27662222064E+02  0.68957233117E+03  0.68901727220E+03 0.  0.
        3    1    3    3  502    0  0.10620765959E+03  0.88192296406E+02 -0.32972480180E+03  0.35745825382E+03  0.10100000352E+00 0.  1.
       -3    1    3    3    0  502 -0.10620765959E+03 -0.88192296406E+02  0.30206257973E+03  0.33211407735E+03  0.10100000352E+00 0. -1.
</event>
<event>
 5   0  0.2684924E-02  0.7030252E+03  0.7818609E-02  0.9712073E-01
        1   -1    0    0  501    0  0.00000000000E+00  0.00000000000E+00  0.17704509115E+03  0.17704509122E+03  0.50400001928E-02 0.  1.
       -1   -1    0    0    0  501  0.00000000000E+00  0.00000000000E+00 -0.69790750277E+03  0.69790750279E+03  0.50400001928E-02 0. -1.
    10030    2    1    2    0    0  0.00000000000E+00  0.00000000000E+00 -0.52086241163E+03  0.87495259401E+03  0.70302517019E+03 0.  0.
        4    1    3    3  502    0  0.84871423795E+02  0.76307437641E+02 -0.67420274200E+03  0.68379597384E+03  0.12699999809E+01 0. -1.
       -4    1    3    3    0  502 -0.84871423795E+02 -0.76307437641E+02  0.15334033037E+03  0.19115662017E+03  0.12699999809E+01 0.  1.
</event>
<event>
 5   0  0.2750139E-02  0.6999196E+03  0.7818609E-02  0.9717370E-01
       -1   -1    0    0    0  501  0.00000000000E+00  0.00000000000E+00  0.10783107893E+04  0.10783107893E+04  0.50400001928E-02 0. -1.
        1   -1    0    0  501    0  0.00000000000E+00  0.00000000000E+00 -0.11357750511E+03  0.11357750523E+03  0.50400001928E-02 0.  1.
    10030    2    1    2    0    0  0.00000000000E+00  0.00000000000E+00  0.96473328419E+03  0.11918882945E+04  0.69991956469E+03 0.  0.
        2    1    3    3  502    0 -0.85459363896E+02  0.11899610173E+03  0.10235772826E+04  0.10340086212E+04  0.25500000920E-02 0. -1.
       -2    1    3    3    0  502  0.85459363896E+02 -0.11899610173E+03 -0.58843998452E+02  0.15787967337E+03  0.25500000920E-02 0.  1.
</event>
<event>
 5   0  0.2750139E-02  0.7041372E+03  0.7818609E-02  0.9710183E-01
       -1   -1    0    0    0  501  0.00000000000E+00  0.00000000000E+00  0.63588493745E+02  0.63588493945E+02  0.50400001928E-02 0.  1.
        1   -1    0    0  501    0  0.00000000000E+00  0.00000000000E+00 -0.19492883924E+04  0.19492883924E+04  0.50400001928E-02 0. -1.
    10030    2    1    2    0    0  0.00000000000E+00  0.00000000000E+00 -0.18856998986E+04  0.20128768863E+04  0.70413723933E+03 0.  0.
        2    1    3    3  502    0 -0.72103347959E+02  0.75769657060E+02 -0.19038488896E+04  0.19067198347E+04  0.25500000920E-02 0. -1.
       -2    1    3    3    0  502  0.72103347959E+02 -0.75769657060E+02  0.18148990993E+02  0.10615705157E+03  0.25500000920E-02 0.  1.
</event>
<event>
 5   0  0.2751729E-02  0.7040121E+03  0.7818609E-02  0.9710395E-01
        1   -1    0    0  501    0  0.00000000000E+00  0.00000000000E+00  0.22507914589E+03  0.22507914595E+03  0.50400001928E-02 0.  1.
       -1   -1    0    0    0  501  0.00000000000E+00  0.00000000000E+00 -0.55050979735E+03  0.55050979737E+03  0.50400001928E-02 0. -1.
    10030    2    1    2    0    0  0.00000000000E+00  0.00000000000E+00 -0.32543065145E+03  0.77558894332E+03  0.70401214485E+03 0.  0.
        1    1    3    3  502    0 -0.84827108866E+02 -0.46767006683E+02 -0.53553817857E+03  0.54422783101E+03  0.50400001928E-02 0. -1.
       -1    1    3    3    0  502  0.84827108866E+02  0.46767006683E+02  0.21010752712E+03  0.23136111231E+03  0.50400001928E-02 0.  1.
</event>
<event>
 5   0  0.2777999E-02  0.7001054E+03  0.7818609E-02  0.9717052E-01
        1   -1    0    0  501    0  0.00000000000E+00  0.00000000000E+00  0.65476777076E+03  0.65476777078E+03  0.50400001928E-02 0.  1.
       -1   -1    0    0    0  501  0.00000000000E+00  0.00000000000E+00 -0.18714558730E+03  0.18714558736E+03  0.50400001928E-02 0. -1.
    10030    2    1    2    0    0  0.00000000000E+00  0.00000000000E+00  0.46762218347E+03  0.84191335815E+03  0.70010541789E+03 0.  0.
        5    1    3    3  502    0 -0.34568215038E+03 -0.48155900298E+02  0.26562011581E+03  0.43862429909E+03  0.46999998093E+01 0.  1.
       -5    1    3    3    0  502  0.34568215038E+03  0.48155900298E+02  0.20200206765E+03  0.40328905906E+03  0.46999998093E+01 0. -1.
</event>
<event>
 5   0  0.2684924E-02  0.6780034E+03  0.7818609E-02  0.9755607E-01
        1   -1    0    0  501    0  0.00000000000E+00  0.00000000000E+00  0.44765577773E+03  0.44765577775E+03  0.50400001928E-02 0.  1.
       -1   -1    0    0    0  501  0.00000000000E+00  0.00000000000E+00 -0.25671995015E+03  0.25671995020E+03  0.50400001928E-02 0. -1.
    10030    2    1    2    0    0  0.00000000000E+00  0.00000000000E+00  0.19093582757E+03  0.70437572795E+03  0.67800344828E+03 0.  0.
        4    1    3    3  502    0  0.14540178544E+03 -0.26547132449E+03 -0.63125936587E+02  0.30919767157E+03  0.12699999809E+01 0. -1.
       -4    1    3    3    0  502 -0.14540178544E+03  0.26547132449E+03  0.25406176416E+03  0.39517805638E+03  0.12699999809E+01 0.  1.
</event>
<event>
 5   0  0.4365492E-02  0.7008837E+03  0.7818609E-02  0.9715722E-01
        2   -1    0    0  501    0  0.00000000000E+00  0.00000000000E+00  0.16394210036E+04  0.16394210036E+04  0.25500000920E-02 0. -1.
       -2   -1    0    0    0  501  0.00000000000E+00  0.00000000000E+00 -0.74910289292E+02  0.74910289336E+02  0.25500000920E-02 0.  1.
    10030    2    1    2    0    0  0.00000000000E+00  0.00000000000E+00  0.15645107143E+04  0.17143312929E+04  0.70088373270E+03 0.  0.
        4    1    3    3  502    0  0.61130542630E+02 -0.67438194911E+01 -0.61601373106E+02  0.87056099224E+02  0.12699999809E+01 0.  1.
       -4    1    3    3    0  502 -0.61130542630E+02  0.67438194911E+01  0.16261120874E+04  0.16272751937E+04  0.12699999809E+01 0. -1.
</event>
<event>
 5   0  0.1784625E-02  0.7014411E+03  0.7818609E-02  0.9714771E-01
        3   -1    0    0  501    0  0.00000000000E+00  0.00000000000E+00  0.69314161439E+03  0.69314162175E+03  0.10100000352E+00 0.  1.
       -3   -1    0    0    0  501  0.00000000000E+00  0.00000000000E+00 -0.17745997445E+03  0.17746000319E+03  0.10100000352E+00 0. -1.
    10030    2    1    2    0    0  0.00000000000E+00  0.00000000000E+00  0.51568163994E+03  0.87060162494E+03  0.70144111340E+03 0.  0.
        4    1    3    3  502    0 -0.12164066336E+02 -0.22002758226E+03 -0.80801130312E+02  0.23471373421E+03  0.12699999809E+01 0. -1.
       -4    1    3    3    0  502  0.12164066336E+02  0.22002758226E+03  0.59648277025E+03  0.63588789073E+03  0.12699999809E+01 0.  1.
</event>
<event>
 5   0  0.4365492E-02  0.6489006E+03  0.7818609E-02  0.9808844E-01
       -2   -1    0    0    0  501  0.00000000000E+00  0.00000000000E+00  0.76062164333E+02  0.76062164376E+02  0.25500000920E-02 0. -1.
        2   -1    0    0  501    0  0.00000000000E+00  0.00000000000E+00 -0.13839730344E+04  0.13839730344E+04  0.25500000920E-02 0.  1.
    10030    2    1    2    0    0  0.00000000000E+00  0.00000000000E+00 -0.13079108701E+04  0.14600351988E+04  0.64890056067E+03 0.  0.
        4    1    3    3  502    0 -0.10499158058E+03 -0.18518248227E+03 -0.12048670126E+04  0.12235284691E+04  0.12699999809E+01 0.  1.
       -4    1    3    3    0  502  0.10499158058E+03  0.18518248227E+03 -0.10304385750E+03  0.23650672972E+03  0.12699999809E+01 0. -1.
</event>
<event>
 5   0  0.2751729E-02  0.6951282E+03  0.7818609E-02  0.9725600E-01
       -1   -1    0    0    0  501  0.00000000000E+00  0.00000000000E+00  0.71974004527E+02  0.71974004703E+02  0.50400001928E-02 0. -1.
        1   -1    0    0  501    0  0.00000000000E+00  0.00000000000E+00 -0.16783951577E+04  0.16783951577E+04  0.50400001928E-02 0.  1.
    10030    2    1    2    0    0  0.00000000000E+00  0.00000000000E+00 -0.16064211531E+04  0.17503691624E+04  0.69512824957E+03 0.  0.
        1    1    3    3  502    0  0.80681228211E+02 -0.20809700935E+03 -0.14741048903E+04  0.14909054475E+04  0.50400001928E-02 0.  1.
       -1    1    3    3    0  502 -0.80681228211E+02  0.20809700935E+03 -0.13231626287E+03  0.25946371487E+03  0.50400001928E-02 0. -1.
</event>
<event>
 5   0  0.2684924E-02  0.7056017E+03  0.7818609E-02  0.9707700E-01
       -1   -1    0    0    0  501  0.00000000000E+00  0.00000000000E+00  0.19928317692E+03  0.19928317698E+03  0.50400001928E-02 0. -1.
        1   -1    0    0  501    0  0.00000000000E+00  0.00000000000E+00 -0.62458077300E+03  0.62458077302E+03  0.50400001928E-02 0.  1.
    10030    2    1    2    0    0  0.00000000000E+00  0.00000000000E+00 -0.42529759608E+03  0.82386395000E+03  0.70560170272E+03 0.  0.
        4    1    3    3  502    0 -0.30642098957E+02 -0.35086785747E+03 -0.18873038598E+03  0.39958473836E+03  0.12699999809E+01 0. -1.
       -4    1    3    3    0  502  0.30642098957E+02  0.35086785747E+03 -0.23656721011E+03  0.42427921165E+03  0.12699999809E+01 0.  1.
</event>
<event>
 5   0  0.4365492E-02  0.6959231E+03  0.7818609E-02  0.9724230E-01
       -2   -1    0    0    0  501  0.00000000000E+00  0.00000000000E+00  0.12896052382E+03  0.12896052385E+03  0.25500000920E-02 0. -1.
        2   -1    0    0  501    0  0.00000000000E+00  0.00000000000E+00 -0.93887060741E+03  0.93887060741E+03  0.25500000920E-02 0.  1.
    10030    2    1    2    0    0  0.00000000000E+00  0.00000000000E+00 -0.80991008358E+03  0.10678311313E+04  0.69592311457E+03 0.  0.
        4    1    3    3  502    0 -0.75857724990E+02 -0.30920026093E+03 -0.18950056109E+03  0.37050137834E+03  0.12699999809E+01 0. -1.
       -4    1    3    3    0  502  0.75857724990E+02  0.30920026093E+03 -0.62040952250E+03  0.69732975292E+03  0.12699999809E+01 0.  1.
</event>
<event>
 5   0  0.4365492E-02  0.6993147E+03  0.7818609E-02  0.9718405E-01
       -2   -1    0    0    0  501  0.00000000000E+00  0.00000000000E+00  0.69747111578E+02  0.69747111624E+02  0.25500000920E-02 0.  1.
        2   -1    0    0  501    0  0.00000000000E+00  0.00000000000E+00 -0.17529076927E+04  0.17529076927E+04  0.25500000920E-02 0. -1.
    10030    2    1    2    0    0  0.00000000000E+00  0.00000000000E+00 -0.16831605811E+04  0.18226548043E+04  0.69931466014E+03 0.  0.
        4    1    3    3  502    0  0.19140879814E+03  0.70532235320E+02 -0.10142204006E+03  0.22781608226E+03  0.12699999809E+01 0.  1.
       -4    1    3    3    0  502 -0.19140879814E+03 -0.70532235320E+02 -0.15817385410E+04  0.15948387220E+04  0.12699999809E+01 0. -1.
</event>
<event>
 5   0  0.4420645E-02  0.7029026E+03  0.7818609E-02  0.9712281E-01
        2   -1    0    0  501    0  0.00000000000E+00  0.00000000000E+00  0.12218010074E+04  0.12218010074E+04  0.25500000920E-02 0.  1.
       -2   -1    0    0    0  501  0.00000000000E+00  0.00000000000E+00 -0.10109503587E+03  0.10109503590E+03  0.25500000920E-02 0. -1.
    10030    2    1    2    0    0  0.00000000000E+00  0.00000000000E+00  0.11207059715E+04  0.13228960433E+04  0.70290260119E+03 0.  0.
        5    1    3    3  502    0  0.12118538546E+03 -0.70614095196E+02 -0.46074355005E+02  0.14770641244E+03  0.46999998093E+01 0. -1.
       -5    1    3    3    0  502 -0.12118538546E+03  0.70614095196E+02  0.11667803265E+04  0.11751896309E+04  0.46999998093E+01 0.  1.
</event>
<event>
 5   0  0.4526837E-02  0.6411105E+03  0.7818609E-02  0.9823604E-01
       -2   -1    0    0    0  501  0.00000000000E+00  0.00000000000E+00  0.71597694373E+02  0.71597694418E+02  0.25500000920E-02 0.  1.
        2   -1    0    0  501    0  0.00000000000E+00  0.00000000000E+00 -0.14351812315E+04  0.14351812315E+04  0.25500000920E-02 0. -1.
    10030    2    1    2    0    0  0.00000000000E+00  0.00000000000E+00 -0.13635835371E+04  0.15067789259E+04  0.64111049661E+03 0.  0.
        1    1    3    3  502    0  0.14082165212E+03  0.28516631781E+03 -0.58763147832E+03  0.66817761176E+03  0.50400001928E-02 0. -1.
       -1    1    3    3    0  502 -0.14082165212E+03 -0.28516631781E+03 -0.77595205875E+03  0.83860131411E+03  0.50400001928E-02 0.  1.
</event>
<event>
 5   0  0.2777999E-02  0.7079593E+03  0.7818609E-02  0.9703717E-01
        1   -1    0    0  501    0  0.00000000000E+00  0.00000000000E+00  0.58641167154E+03  0.58641167157E+03  0.50400001928E-02 0. -1.
       -1   -1    0    0    0  501  0.00000000000E+00  0.00000000000E+00 -0.21367516307E+03  0.21367516313E+03  0.50400001928E-02 0.  1.
    10030    2    1    2    0    0  0.00000000000E+00  0.00000000000E+00  0.37273650847E+03  0.80008683470E+03  0.70795934792E+03 0.  0.
        5    1    3    3  502    0  0.19439739811E+03 -0.37759303846E+01  0.52061759901E+03  0.55576018249E+03  0.46999998093E+01 0. -1.
       -5    1    3    3    0  502 -0.19439739811E+03  0.37759303846E+01 -0.14788109054E+03  0.24432665221E+03  0.46999998093E+01 0.  1.
</event>
<event>
 5   0  0.4420645E-02  0.6931420E+03  0.7818609E-02  0.9729033E-01
        2   -1    0    0  501    0  0.00000000000E+00  0.00000000000E+00  0.77450597720E+03  0.77450597720E+03  0.25500000920E-02 0. -1.
       -2   -1    0    0    0  501  0.00000000000E+00  0.00000000000E+00 -0.15508138545E+03  0.15508138547E+03  0.25500000920E-02 0.  1.
    10030    2    1    2    0    0  0.00000000000E+00  0.00000000000E+00  0.61942459175E+03  0.92958736268E+03  0.69314200564E+03 0.  0.
        5    1    3    3  502    0  0.15460981779E+03  0.26093081854E+03  0.53452628553E+03  0.61459704502E+03  0.46999998093E+01 0. -1.
       -5    1    3    3    0  502 -0.15460981779E+03 -0.26093081854E+03  0.84898306219E+02  0.31499031766E+03  0.46999998093E+01 0.  1.
</event>
<event>
 5   0  0.1784625E-02  0.6759129E+03  0.7818609E-02  0.9759335E-01
        4   -1    0    0  501    0  0.00000000000E+00  0.00000000000E+00  0.36181870531E+03  0.36182093418E+03  0.12699999809E+01 0. -1.
       -4   -1    0    0    0  501  0.00000000000E+00  0.00000000000E+00 -0.31566346123E+03  0.31566601600E+03  0.12699999809E+01 0.  1.
    10030    2    1    2    0    0  0.00000000000E+00  0.00000000000E+00  0.46155244075E+02  0.67748695018E+03  0.67591290941E+03 0.  0.
        4    1    3    3  502    0  0.31261050520E+03 -0.74141926578E+01 -0.10541081629E+03  0.32998992606E+03  0.12699999809E+01 0.  1.
       -4    1    3    3    0  502 -0.31261050520E+03  0.74141926578E+01  0.15156606037E+03  0.34749702411E+03  0.12699999809E+01 0. -1.
</event>
<event>
 5   0  0.4420645E-02  0.7201937E+03  0.7818609E-02  0.9683308E-01
        2   -1    0    0  501    0  0.00000000000E+00  0.00000000000E+00  0.21910326334E+04  0.21910326334E+04  0.25500000920E-02 0.  1.
       -2   -1    0    0    0  501  0.00000000000E+00  0.00000000000E+00 -0.59182021782E+02  0.59182021837E+02  0.25500000920E-02 0. -1.
    10030    2    1    2    0    0  0.00000000000E+00  0.00000000000E+00  0.21318506117E+04  0.22502146553E+04  0.72019369923E+03 0.  0.
        5    1    3    3  502    0 -0.20337574068E+03 -0.10010426233E+03  0.19183019291E+03  0.29699068696E+03  0.46999998093E+01 0. -1.
       -5    1    3    3    0  502  0.20337574068E+03  0.10010426233E+03  0.19400204188E+04  0.19532239683E+04  0.46999998093E+01 0.  1.
</event>
<event>
 5   0  0.2758681E-02  0.7149103E+03  0.7818609E-02  0.9692068E-01
        1   -1    0    0  501    0  0.00000000000E+00  0.00000000000E+00  0.65280151065E+03  0.65280151067E+03  0.50400001928E-02 0. -1.
       -1   -1    0    0    0  501  0.00000000000E+00  0.00000000000E+00 -0.19573207162E+03  0.19573207168E+03  0.50400001928E-02 0.  1.
    10030    2    1    2    0    0  0.00000000000E+00  0.00000000000E+00  0.45706943903E+03  0.84853358235E+03  0.71491032185E+03 0.  0.
        3    1    3    3  502    0 -0.27100577984E+03 -0.23296455127E+03  0.23754014663E+03  0.42911763692E+03  0.10100000352E+00 0. -1.
       -3    1    3    3    0  502  0.27100577984E+03  0.23296455127E+03  0.21952929240E+03  0.41941594543E+03  0.10100000352E+00 0.  1.
</event>
<event>
 5   0  0.2750139E-02  0.6941761E+03  0.7818609E-02  0.9727244E-01
       -1   -1    0    0    0  501  0.00000000000E+00  0.00000000000E+00  0.12834665382E+03  0.12834665392E+03  0.50400001928E-02 0.  1.
        1   -1    0    0  501    0  0.00000000000E+00  0.00000000000E+00 -0.93863082118E+03  0.93863082119E+03  0.50400001928E-02 0. -1.
    10030    2    1    2    0    0  0.00000000000E+00  0.00000000000E+00 -0.81028416735E+03  0.10669774751E+04  0.69417613078E+03 0.  0.
        2    1    3    3  502    0 -0.77722684523E+02 -0.13141139940E+03  0.73962270699E+02  0.16964724895E+03  0.25500000920E-02 0.  1.
       -2    1    3    3    0  502  0.77722684523E+02  0.13141139940E+03 -0.88424643805E+03  0.89733022617E+03  0.25500000920E-02 0. -1.
</event>
<event>
 5   0  0.2758681E-02  0.6703995E+03  0.7818609E-02  0.9769236E-01
        1   -1    0    0  501    0  0.00000000000E+00  0.00000000000E+00  0.21278286137E+03  0.21278286143E+03  0.50400001928E-02 0.  1.
       -1   -1    0    0    0  501  0.00000000000E+00  0.00000000000E+00 -0.52804472726E+03  0.52804472729E+03  0.50400001928E-02 0. -1.
    10030    2    1    2    0    0  0.00000000000E+00  0.00000000000E+00 -0.31526186590E+03  0.74082758871E+03  0.67039948696E+03 0.  0.
        3    1    3    3  502    0  0.14137806745E+03  0.26144849364E+03  0.13619574811E+02  0.29753751999E+03  0.10100000352E+00 0.  1.
       -3    1    3    3    0  502 -0.14137806745E+03 -0.26144849364E+03 -0.32888144071E+03  0.44329006872E+03  0.10100000352E+00 0. -1.
</event>
<event>
 5   0  0.2758681E-02  0.5794828E+03  0.7818609E-02  0.9948911E-01
       -1   -1    0    0    0  501  0.00000000000E+00  0.00000000000E+00  0.12736748609E+03  0.12736748619E+03  0.50400001928E-02 0.  1.
        1   -1    0    0  501    0  0.00000000000E+00  0.00000000000E+00 -0.65911700246E+03  0.65911700248E+03  0.50400001928E-02 0. -1.
    10030    2    1    2    0    0  0.00000000000E+00  0.00000000000E+00 -0.53174951636E+03  0.78648448867E+03  0.57948278902E+03 0.  0.
        3    1    3    3  502    0  0.50009029950E+02 -0.35358822093E+02  0.11848142275E+03  0.13337543670E+03  0.10100000352E+00 0.  1.
       -3    1    3    3    0  502 -0.50009029950E+02  0.35358822093E+02 -0.65023093912E+03  0.65310905197E+03  0.10100000352E+00 0. -1.
</event>
<event>
 5   0  0.4503289E-02  0.7099255E+03  0.7818609E-02  0.9700407E-01
       -2   -1    0    0    0  501  0.00000000000E+00  0.00000000000E+00  0.11893868917E+04  0.11893868917E+04  0.25500000920E-02 0. -1.
        2   -1    0    0  501    0  0.00000000000E+00  0.00000000000E+00 -0.10593572357E+03  0.10593572360E+03  0.25500000920E-02 0.  1.
    10030    2    1    2    0    0  0.00000000000E+00  0.00000000000E+00  0.10834511682E+04  0.12953226154E+04  0.70992552006E+03 0.  0.
        2    1    3    3  502    0  0.26534226835E+03  0.23399430493E+03  0.48888467703E+03  0.60346340531E+03  0.25500000920E-02 0.  1.
       -2    1    3    3    0  502 -0.26534226835E+03 -0.23399430493E+03  0.59456649115E+03  0.69185921004E+03  0.25500000920E-02 0. -1.
</event>
<event>
 5   0  0.2758681E-02  0.6635497E+03  0.7818609E-02  0.9781681E-01
       -1   -1    0    0    0  501  0.00000000000E+00  0.00000000000E+00  0.14101013222E+03  0.14101013231E+03  0.50400001928E-02 0.  1.
        1   -1    0    0  501    0  0.00000000000E+00  0.00000000000E+00 -0.78061448874E+03  0.78061448875E+03  0.50400001928E-02 0. -1.
    10030    2    1    2    0    0  0.00000000000E+00  0.00000000000E+00 -0.63960435652E+03  0.92162462107E+03  0.66354970370E+03 0.  0.
        3    1    3    3  502    0  0.19994746394E+03 -0.20334744282E+03 -0.55528789481E+03  0.62423859794E+03  0.10100000352E+00 0. -1.
       -3    1    3    3    0  502 -0.19994746394E+03  0.20334744282E+03 -0.84316461711E+02  0.29738602313E+03  0.10100000352E+00 0.  1.
</event>
<event>
 5   0  0.2750139E-02  0.6971473E+03  0.7818609E-02  0.9722123E-01
        1   -1    0    0  501    0  0.00000000000E+00  0.00000000000E+00  0.92212034499E+03  0.92212034501E+03  0.50400001928E-02 0. -1.
       -1   -1    0    0    0  501  0.00000000000E+00  0.00000000000E+00 -0.13176544153E+03  0.13176544163E+03  0.50400001928E-02 0.  1.
    10030    2    1    2    0    0  0.00000000000E+00  0.00000000000E+00  0.79035490346E+03  0.10538857866E+04  0.69714731431E+03 0.  0.
        2    1    3    3  502    0 -0.15298467135E+03 -0.67758845406E+02  0.85744502262E+03  0.87361750075E+03  0.25500000920E-02 0. -1.
       -2    1    3    3    0  502  0.15298467135E+03  0.67758845406E+02 -0.67090119160E+02  0.18026828588E+03  0.25500000920E-02 0.  1.
</event>
<event>
 5   0  0.2751729E-02  0.7021239E+03  0.7818609E-02  0.9713607E-01
        1   -1    0    0  501    0  0.00000000000E+00  0.00000000000E+00  0.16522310084E+04  0.16522310084E+04  0.50400001928E-02 0. -1.
       -1   -1    0    0    0  501  0.00000000000E+00  0.00000000000E+00 -0.74592780259E+02  0.74592780429E+02  0.50400001928E-02 0.  1.
    10030    2    1    2    0    0  0.00000000000E+00  0.00000000000E+00  0.15776382281E+04  0.17268237888E+04  0.70212393407E+03 0.  0.
        1    1    3    3  502    0 -0.17032060803E+02 -0.24195949669E+03  0.16463753538E+03  0.29315526128E+03  0.50400001928E-02 0.  1.
       -1    1    3    3    0  502  0.17032060803E+02  0.24195949669E+03  0.14130006928E+04  0.14336685276E+04  0.50400001928E-02 0. -1.
</event>
<event>
 5   0  0.4526837E-02  0.7334890E+03  0.7818609E-02  0.9661616E-01
        2   -1    0    0  501    0  0.00000000000E+00  0.00000000000E+00  0.26917181150E+04  0.26917181150E+04  0.25500000920E-02 0. -1.
       -2   -1    0    0    0  501  0.00000000000E+00  0.00000000000E+00 -0.49968655080E+02  0.49968655145E+02  0.25500000920E-02 0.  1.
    10030    2    1    2    0    0  0.00000000000E+00  0.00000000000E+00  0.26417494599E+04  0.27416867702E+04  0.73348901601E+03 0.  0.
        1    1    3    3  502    0 -0.23131208005E+02  0.11493960956E+03  0.26197798948E+04  0.26224021171E+04  0.50400001928E-02 0. -1.
       -1    1    3    3    0  502  0.23131208005E+02 -0.11493960956E+03  0.21969565104E+02  0.11928465301E+03  0.50400001928E-02 0.  1.
</event>
<event>
 5   0  0.4503289E-02  0.7041026E+03  0.7818609E-02  0.9710242E-01
       -2   -1    0    0    0  501  0.00000000000E+00  0.00000000000E+00  0.15237394891E+03  0.15237394893E+03  0.25500000920E-02 0. -1.
        2   -1    0    0  501    0  0.00000000000E+00  0.00000000000E+00 -0.81339433701E+03  0.81339433701E+03  0.25500000920E-02 0.  1.
    10030    2    1    2    0    0  0.00000000000E+00  0.00000000000E+00 -0.66102038810E+03  0.96576828594E+03  0.70410256969E+03 0.  0.
        2    1    3    3  502    0  0.79193306390E+02 -0.17680212972E+03 -0.73370770536E+03  0.75885279848E+03  0.25500000920E-02 0.  1.
       -2    1    3    3    0  502 -0.79193306390E+02  0.17680212972E+03  0.72687317264E+02  0.20691548745E+03  0.25500000920E-02 0. -1.
</event>
<event>
 5   0  0.2758681E-02  0.6871324E+03  0.7818609E-02  0.9739494E-01
        1   -1    0    0  501    0  0.00000000000E+00  0.00000000000E+00  0.99504461968E+03  0.99504461969E+03  0.50400001928E-02 0. -1.
       -1   -1    0    0    0  501  0.00000000000E+00  0.00000000000E+00 -0.11862556664E+03  0.11862556674E+03  0.50400001928E-02 0.  1.
    10030    2    1    2    0    0  0.00000000000E+00  0.00000000000E+00  0.87641905304E+03  0.11136701864E+04  0.68713239453E+03 0.  0.
        3    1    3    3  502    0  0.11054100835E+03  0.23044454481E+03  0.66093822730E+02  0.26399319378E+03  0.10100000352E+00 0.  1.
       -3    1    3    3    0  502 -0.11054100835E+03 -0.23044454481E+03  0.81032523031E+03  0.84967699265E+03  0.10100000352E+00 0. -1.
</event>
<event>
 5   0  0.4526837E-02  0.7158305E+03  0.7818609E-02  0.9690536E-01
        2   -1    0    0  501    0  0.00000000000E+00  0.00000000000E+00  0.15441067357E+04  0.15441067357E+04  0.25500000920E-02 0.  1.
       -2   -1    0    0    0  501  0.00000000000E+00  0.00000000000E+00 -0.82962741328E+02  0.82962741367E+02  0.25500000920E-02 0. -1.
    10030    2    1    2    0    0  0.00000000000E+00  0.00000000000E+00  0.14611439944E+04  0.16270694771E+04  0.71583050432E+03 0.  0.
        1    1    3    3  502    0 -0.32667541761E+03 -0.54893827701E+01  0.10627413599E+04  0.11118300948E+04  0.50400001928E-02 0.  1.
       -1    1    3    3    0  502  0.32667541761E+03  0.54893827701E+01  0.39840263449E+03  0.51523938222E+03  0.50400001928E-02 0. -1.
</event>
<event>
 5   0  0.2751729E-02  0.7066577E+03  0.7818609E-02  0.9705914E-01
        1   -1    0    0  501    0  0.00000000000E+00  0.00000000000E+00  0.17863376342E+03  0.17863376349E+03  0.50400001928E-02 0.  1.
       -1   -1    0    0    0  501  0.00000000000E+00  0.00000000000E+00 -0.69886728014E+03  0.69886728016E+03  0.50400001928E-02 0. -1.
    10030    2    1    2    0    0  0.00000000000E+00  0.00000000000E+00 -0.52023351672E+03  0.87750104365E+03  0.70665774579E+03 0.  0.
        1    1    3    3  502    0  0.14463249225E+03 -0.31333700038E+03 -0.16601558826E+03  0.38296189000E+03  0.50400001928E-02 0. -1.
       -1    1    3    3    0  502 -0.14463249225E+03  0.31333700038E+03 -0.35421792846E+03  0.49453915365E+03  0.50400001928E-02 0.  1.
</event>
<event>
 5   0  0.2758681E-02  0.6916692E+03  0.7818609E-02  0.9731586E-01
       -1   -1    0    0    0  501  0.00000000000E+00  0.00000000000E+00  0.43764925970E+03  0.43764925973E+03  0.50400001928E-02 0.  1.
        1   -1    0    0  501    0  0.00000000000E+00  0.00000000000E+00 -0.27328180848E+03  0.27328180853E+03  0.50400001928E-02 0. -1.
    10030    2    1    2    0    0  0.00000000000E+00  0.00000000000E+00  0.16436745122E+03  0.71093106826E+03  0.69166923077E+03 0.  0.
        3    1    3    3  502    0  0.24994742114E+03 -0.21040893973E+03 -0.34357849620E+02  0.32852109108E+03  0.10100000352E+00 0. -1.
       -3    1    3    3    0  502 -0.24994742114E+03  0.21040893973E+03  0.19872530084E+03  0.38240997718E+03  0.10100000352E+00 0.  1.
</event>
<event>
 5   0  0.4365492E-02  0.6881281E+03  0.7818609E-02  0.9737753E-01
        2   -1    0    0  501    0  0.00000000000E+00  0.00000000000E+00  0.13414363832E+04  0.13414363832E+04  0.25500000920E-02 0. -1.
       -2   -1    0    0    0  501  0.00000000000E+00  0.00000000000E+00 -0.88248735517E+02  0.88248735554E+02  0.25500000920E-02 0.  1.
    10030    2    1    2    0    0  0.00000000000E+00  0.00000000000E+00  0.12531876477E+04  0.14296851188E+04  0.68812808291E+03 0.  0.
        4    1    3    3  502    0  0.20057986930E+03  0.26512159169E+03  0.81075219245E+03  0.87626621116E+03  0.12699999809E+01 0.  1.
       -4    1    3    3    0  502 -0.20057986930E+03 -0.26512159169E+03  0.44243545524E+03  0.55341890761E+03  0.12699999809E+01 0. -1.
</event>
<event>
 5   0  0.4420645E-02  0.6772568E+03  0.7818609E-02  0.9756937E-01
        2   -1    0    0  501    0  0.00000000000E+00  0.00000000000E+00  0.12318201178E+04  0.12318201178E+04  0.25500000920E-02 0. -1.
       -2   -1    0    0    0  501  0.00000000000E+00  0.00000000000E+00 -0.93089228689E+02  0.93089228724E+02  0.25500000920E-02 0.  1.
    10030    2    1    2    0    0  0.00000000000E+00  0.00000000000E+00  0.11387308891E+04  0.13249093465E+04  0.67725677456E+03 0.  0.
        5    1    3    3  502    0 -0.23862541927E+03  0.16917646543E+03  0.90299331165E+03  0.94920059948E+03  0.46999998093E+01 0. -1.
       -5    1    3    3    0  502  0.23862541927E+03 -0.16917646543E+03  0.23573757743E+03  0.37570874702E+03  0.46999998093E+01 0.  1.
</event>
<event>
 5   0  0.1784625E-02  0.6803960E+03  0.7818609E-02  0.9751358E-01
       -3   -1    0    0    0  501  0.00000000000E+00  0.00000000000E+00  0.16866288122E+03  0.16866291146E+03  0.10100000352E+00 0. -1.
        3   -1    0    0  501    0  0.00000000000E+00  0.00000000000E+00 -0.68618930671E+03  0.68618931414E+03  0.10100000352E+00 0.  1.
    10030    2    1    2    0    0  0.00000000000E+00  0.00000000000E+00 -0.51752642549E+03  0.85485222561E+03  0.68039600715E+03 0.  0.
        2    1    3    3  502    0  0.80598151418E+02 -0.13945120811E+03 -0.63524854852E+03  0.65534984539E+03  0.25500000920E-02 0.  1.
       -2    1    3    3    0  502 -0.80598151418E+02  0.13945120811E+03  0.11772212303E+03  0.19950238022E+03  0.25500000920E-02 0. -1.
</event>
<event>
 5   0  0.4526837E-02  0.7347287E+03  0.7818609E-02  0.9659618E-01
       -2   -1    0    0    0  501  0.00000000000E+00  0.00000000000E+00  0.16735153866E+03  0.16735153868E+03  0.25500000920E-02 0.  1.
        2   -1    0    0  501    0  0.00000000000E+00  0.00000000000E+00 -0.80642553711E+03  0.80642553711E+03  0.25500000920E-02 0. -1.
    10030    2    1    2    0    0  0.00000000000E+00  0.00000000000E+00 -0.63907399845E+03  0.97377707579E+03  0.73472866955E+03 0.  0.
        1    1    3    3  502    0  0.92522064348E+02 -0.10915599552E+03 -0.76797213042E+03  0.78118919403E+03  0.50400001928E-02 0. -1.
       -1    1    3    3    0  502 -0.92522064348E+02  0.10915599552E+03  0.12889813197E+03  0.19258788176E+03  0.50400001928E-02 0.  1.
</event>
<event>
 5   0  0.4420645E-02  0.7043580E+03  0.7818609E-02  0.9709808E-01
       -2   -1    0    0    0  501  0.00000000000E+00  0.00000000000E+00  0.90234428473E+02  0.90234428509E+02  0.25500000920E-02 0. -1.
        2   -1    0    0  501    0  0.00000000000E+00  0.00000000000E+00 -0.13745313892E+04  0.13745313892E+04  0.25500000920E-02 0.  1.
    10030    2    1    2    0    0  0.00000000000E+00  0.00000000000E+00 -0.12842969607E+04  0.14647658177E+04  0.70435801791E+03 0.  0.
        5    1    3    3  502    0 -0.20579249594E+02  0.77464901851E+01  0.88740139070E+02  0.91544611553E+02  0.46999998093E+01 0. -1.
       -5    1    3    3    0  502  0.20579249594E+02 -0.77464901851E+01 -0.13730370998E+04  0.13732212061E+04  0.46999998093E+01 0.  1.
</event>
<event>
 5   0  0.4365492E-02  0.6927448E+03  0.7818609E-02  0.9729721E-01
        2   -1    0    0  501    0  0.00000000000E+00  0.00000000000E+00  0.48946591507E+03  0.48946591507E+03  0.25500000920E-02 0.  1.
       -2   -1    0    0    0  501  0.00000000000E+00  0.00000000000E+00 -0.24511173534E+03  0.24511173535E+03  0.25500000920E-02 0. -1.
    10030    2    1    2    0    0  0.00000000000E+00  0.00000000000E+00  0.24435417973E+03  0.73457765042E+03  0.69274480102E+03 0.  0.
        4    1    3    3  502    0 -0.28709562470E+03 -0.18006678699E+03  0.19808393171E+03  0.39253891833E+03  0.12699999809E+01 0.  1.
       -4    1    3    3    0  502  0.28709562470E+03  0.18006678699E+03  0.46270248019E+02  0.34203873209E+03  0.12699999809E+01 0. -1.
</event>
<event>
 5   0  0.2758681E-02  0.7035571E+03  0.7818609E-02  0.9711168E-01
        1   -1    0    0  501    0  0.00000000000E+00  0.00000000000E+00  0.76413370907E+03  0.76413370908E+03  0.50400001928E-02 0.  1.
       -1   -1    0    0    0  501  0.00000000000E+00  0.00000000000E+00 -0.16194565576E+03  0.16194565583E+03  0.50400001928E-02 0. -1.
    10030    2    1    2    0    0  0.00000000000E+00  0.00000000000E+00  0.60218805331E+03  0.92607936492E+03  0.70355706135E+03 0.  0.
        3    1    3    3  502    0  0.12831979735E+03  0.23915691767E+03  0.65110895626E+01  0.27148555422E+03  0.10100000352E+00 0. -1.
       -3    1    3    3    0  502 -0.12831979735E+03 -0.23915691767E+03  0.59567696375E+03  0.65459381070E+03  0.10100000352E+00 0.  1.
</event>
<event>
 5   0  0.2758681E-02  0.6406242E+03  0.7818609E-02  0.9824533E-01
       -1   -1    0    0    0  501  0.00000000000E+00  0.00000000000E+00  0.23909475091E+03  0.23909475096E+03  0.50400001928E-02 0.  1.
        1   -1    0    0  501    0  0.00000000000E+00  0.00000000000E+00 -0.42911797824E+03  0.42911797827E+03  0.50400001928E-02 0. -1.
    10030    2    1    2    0    0  0.00000000000E+00  0.00000000000E+00 -0.19002322733E+03  0.66821272923E+03  0.64062424602E+03 0.  0.
        3    1    3    3  502    0 -0.59794542225E+02 -0.25455592373E+03  0.97957498477E+02  0.27923070622E+03  0.10100000352E+00 0.  1.
       -3    1    3    3    0  502  0.59794542225E+02  0.25455592373E+03 -0.28798072581E+03  0.38898202301E+03  0.10100000352E+00 0. -1.
</event>
<event>
 5   0  0.4299912E-02  0.6845326E+03  0.7818609E-02  0.9744055E-01
       -2   -1    0    0    0  501  0.00000000000E+00  0.00000000000E+00  0.25975309844E+03  0.25975309846E+03  0.25500000920E-02 0. -1.
        2   -1    0    0  501    0  0.00000000000E+00  0.00000000000E+00 -0.45099069385E+03  0.45099069386E+03  0.25500000920E-02 0.  1.
    10030    2    1    2    0    0  0.00000000000E+00  0.00000000000E+00 -0.19123759540E+03  0.71074379231E+03  0.68453262918E+03 0.  0.
        3    1    3    3  502    0 -0.16438685266E+03  0.19758809465E+03 -0.33028654756E+03  0.41851320908E+03  0.10100000352E+00 0.  1.
       -3    1    3    3    0  502  0.16438685266E+03 -0.19758809465E+03  0.13904895215E+03  0.29223058323E+03  0.10100000352E+00 0. -1.
</event>
<event>
 5   0  0.4365492E-02  0.6891390E+03  0.7818609E-02  0.9735988E-01
       -2   -1    0    0    0  501  0.00000000000E+00  0.00000000000E+00  0.35290851207E+03  0.35290851208E+03  0.25500000920E-02 0.  1.
        2   -1    0    0  501    0  0.00000000000E+00  0.00000000000E+00 -0.33642748987E+03  0.33642748988E+03  0.25500000920E-02 0. -1.
    10030    2    1    2    0    0  0.00000000000E+00  0.00000000000E+00  0.16481022205E+02  0.68933600196E+03  0.68913895515E+03 0.  0.
        4    1    3    3  502    0  0.23338093100E+03  0.20633821965E+03  0.15553882890E+03  0.34818968974E+03  0.12699999809E+01 0.  1.
       -4    1    3    3    0  502 -0.23338093100E+03 -0.20633821965E+03 -0.13905780669E+03  0.34114631223E+03  0.12699999809E+01 0. -1.
</event>
<event>
 5   0  0.2750139E-02  0.6990748E+03  0.7818609E-02  0.9718816E-01
        1   -1    0    0  501    0  0.00000000000E+00  0.00000000000E+00  0.12476682942E+03  0.12476682952E+03  0.50400001928E-02 0. -1.
       -1   -1    0    0    0  501  0.00000000000E+00  0.00000000000E+00 -0.97923781685E+03  0.97923781687E+03  0.50400001928E-02 0.  1.
    10030    2    1    2    0    0  0.00000000000E+00  0.00000000000E+00 -0.85447098744E+03  0.11040046464E+04  0.69907481064E+03 0.  0.
        2    1    3    3  502    0  0.27242109699E+03 -0.16143883758E+03 -0.66094463714E+03  0.73288714393E+03  0.25500000920E-02 0.  1.
       -2    1    3    3    0  502 -0.27242109699E+03  0.16143883758E+03 -0.19352635030E+03  0.37111750246E+03  0.25500000920E-02 0. -1.
</event>
<event>
 5   0  0.2751729E-02  0.7023392E+03  0.7818609E-02  0.9713240E-01
        1   -1    0    0  501    0  0.00000000000E+00  0.00000000000E+00  0.24116543334E+03  0.24116543339E+03  0.50400001928E-02 0. -1.
       -1   -1    0    0    0  501  0.00000000000E+00  0.00000000000E+00 -0.51135052396E+03  0.51135052399E+03  0.50400001928E-02 0.  1.
    10030    2    1    2    0    0  0.00000000000E+00  0.00000000000E+00 -0.27018509063E+03  0.75251595738E+03  0.70233915091E+03 0.  0.
        1    1    3    3  502    0 -0.17234145602E+03 -0.19759241559E+03 -0.38539702050E+03  0.46612788330E+03  0.50400001928E-02 0.  1.
       -1    1    3    3    0  502  0.17234145602E+03  0.19759241559E+03  0.11521192987E+03  0.28638807407E+03  0.50400001928E-02 0. -1.
</event>
<event>
 5   0  0.2750139E-02  0.7029019E+03  0.7818609E-02  0.9712282E-01
       -1   -1    0    0    0  501  0.00000000000E+00  0.00000000000E+00  0.18802309713E+03  0.18802309719E+03  0.50400001928E-02 0. -1.
        1   -1    0    0  501    0  0.00000000000E+00  0.00000000000E+00 -0.65692880095E+03  0.65692880097E+03  0.50400001928E-02 0.  1.
    10030    2    1    2    0    0  0.00000000000E+00  0.00000000000E+00 -0.46890570382E+03  0.84495189816E+03  0.70290194987E+03 0.  0.
        2    1    3    3  502    0  0.21315582761E+03 -0.25262212481E+03 -0.90882539103E+02  0.34280166381E+03  0.25500000920E-02 0.  1.
       -2    1    3    3    0  502 -0.21315582761E+03  0.25262212481E+03 -0.37802316472E+03  0.50215023435E+03  0.25500000920E-02 0. -1.
</event>
<event>
 5   0  0.1784625E-02  0.7270003E+03  0.7818609E-02  0.9672141E-01
        3   -1    0    0  501    0  0.00000000000E+00  0.00000000000E+00  0.46243608155E+03  0.46243609258E+03  0.10100000352E+00 0. -1.
       -3   -1    0    0    0  501  0.00000000000E+00  0.00000000000E+00 -0.28573104156E+03  0.28573105941E+03  0.10100000352E+00 0.  1.
    10030    2    1    2    0    0  0.00000000000E+00  0.00000000000E+00  0.17670503999E+03  0.74816715199E+03  0.72700028622E+03 0.  0.
        4    1    3    3  502    0  0.24596016677E+03 -0.26652000650E+03  0.63114556886E+02  0.36812277530E+03  0.12699999809E+01 0. -1.
       -4    1    3    3    0  502 -0.24596016677E+03  0.26652000650E+03  0.11359048310E+03  0.38004437669E+03  0.12699999809E+01 0.  1.
</event>
<event>
 5   0  0.4365492E-02  0.6940392E+03  0.7818609E-02  0.9727481E-01
       -2   -1    0    0    0  501  0.00000000000E+00  0.00000000000E+00  0.66792817760E+02  0.66792817808E+02  0.25500000920E-02 0. -1.
        2   -1    0    0  501    0  0.00000000000E+00  0.00000000000E+00 -0.18029275434E+04  0.18029275434E+04  0.25500000920E-02 0.  1.
    10030    2    1    2    0    0  0.00000000000E+00  0.00000000000E+00 -0.17361347257E+04  0.18697203613E+04  0.69403922336E+03 0.  0.
        4    1    3    3  502    0 -0.54365764326E+02  0.29911675177E+03 -0.41732410814E+03  0.51632111293E+03  0.12699999809E+01 0. -1.
       -4    1    3    3    0  502  0.54365764326E+02 -0.29911675177E+03 -0.13188106175E+04  0.13533992483E+04  0.12699999809E+01 0.  1.
</event>
<event>
 5   0  0.4365492E-02  0.6992383E+03  0.7818609E-02  0.9718536E-01
        2   -1    0    0  501    0  0.00000000000E+00  0.00000000000E+00  0.96103156091E+03  0.96103156091E+03  0.25500000920E-02 0.  1.
       -2   -1    0    0    0  501  0.00000000000E+00  0.00000000000E+00 -0.12718995148E+03  0.12718995151E+03  0.25500000920E-02 0. -1.
    10030    2    1    2    0    0  0.00000000000E+00  0.00000000000E+00  0.83384160943E+03  0.10882215124E+04  0.69923832166E+03 0.  0.
        4    1    3    3  502    0 -0.21038445402E+02  0.23505453111E+03  0.15472870194E+02  0.23650427352E+03  0.12699999809E+01 0. -1.
       -4    1    3    3    0  502  0.21038445402E+02 -0.23505453111E+03  0.81836873923E+03  0.85171723890E+03  0.12699999809E+01 0.  1.
</event>
<event>
 5   0  0.4420645E-02  0.7214840E+03  0.7818609E-02  0.9681181E-01
        2   -1    0    0  501    0  0.00000000000E+00  0.00000000000E+00  0.10457917342E+04  0.10457917342E+04  0.25500000920E-02 0. -1.
       -2   -1    0    0    0  501  0.00000000000E+00  0.00000000000E+00 -0.12443662364E+03  0.12443662367E+03  0.25500000920E-02 0.  1.
    10030    2    1    2    0    0  0.00000000000E+00  0.00000000000E+00  0.92135511056E+03  0.11702283579E+04  0.72148400524E+03 0.  0.
        5    1    3    3  502    0  0.14890201861E+03  0.19503917853E+03  0.88950679871E+03  0.92274402044E+03  0.46999998093E+01 0. -1.
       -5    1    3    3    0  502 -0.14890201861E+03 -0.19503917853E+03  0.31848311850E+02  0.24748433743E+03  0.46999998093E+01 0.  1.
</event>
<event>
 5   0  0.1784625E-02  0.6920381E+03  0.7818609E-02  0.9730946E-01
       -3   -1    0    0    0  501  0.00000000000E+00  0.00000000000E+00  0.44753174824E+03  0.44753175964E+03  0.10100000352E+00 0. -1.
        3   -1    0    0  501    0  0.00000000000E+00  0.00000000000E+00 -0.26753221401E+03  0.26753223308E+03  0.10100000352E+00 0.  1.
    10030    2    1    2    0    0  0.00000000000E+00  0.00000000000E+00  0.17999953423E+03  0.71506399271E+03  0.69203806351E+03 0.  0.
        1    1    3    3  502    0  0.12023436808E+03 -0.28629286320E+03 -0.67753805457E+02  0.31782146712E+03  0.50400001928E-02 0.  1.
       -1    1    3    3    0  502 -0.12023436808E+03  0.28629286320E+03  0.24775333969E+03  0.39724252559E+03  0.50400001928E-02 0. -1.
</event>
<event>
 5   0  0.2758681E-02  0.7237731E+03  0.7818609E-02  0.9677419E-01
       -1   -1    0    0    0  501  0.00000000000E+00  0.00000000000E+00  0.35937500847E+03  0.35937500850E+03  0.50400001928E-02 0. -1.
        1   -1    0    0  501    0  0.00000000000E+00  0.00000000000E+00 -0.36441564019E+03  0.36441564023E+03  0.50400001928E-02 0.  1.
    10030    2    1    2    0    0  0.00000000000E+00  0.00000000000E+00 -0.50406317235E+01  0.72379064873E+03  0.72377309650E+03 0.  0.
        3    1    3    3  502    0 -0.17528951507E+02 -0.34018421725E+03  0.11966815294E+03  0.36104437793E+03  0.10100000352E+00 0. -1.
       -3    1    3    3    0  502  0.17528951507E+02  0.34018421725E+03 -0.12470878467E+03  0.36274627080E+03  0.10100000352E+00 0.  1.
</event>
<event>
 5   0  0.2750139E-02  0.6883145E+03  0.7818609E-02  0.9737427E-01
        1   -1    0    0  501    0  0.00000000000E+00  0.00000000000E+00  0.83483152691E+03  0.83483152692E+03  0.50400001928E-02 0. -1.
       -1   -1    0    0    0  501  0.00000000000E+00  0.00000000000E+00 -0.14187796290E+03  0.14187796299E+03  0.50400001928E-02 0.  1.
    10030    2    1    2    0    0  0.00000000000E+00  0.00000000000E+00  0.69295356401E+03  0.97670948991E+03  0.68831445271E+03 0.  0.
        2    1    3    3  502    0 -0.29218505082E+03  0.11759502940E+03  0.54332005097E+03  0.62801064693E+03  0.25500000920E-02 0. -1.
       -2    1    3    3    0  502  0.29218505082E+03 -0.11759502940E+03  0.14963351304E+03  0.34869884298E+03  0.25500000920E-02 0.  1.
</event>
<event>
 5   0  0.4526837E-02  0.7047194E+03  0.7818609E-02  0.9709195E-01
        2   -1    0    0  501    0  0.00000000000E+00  0.00000000000E+00  0.16566355061E+04  0.16566355061E+04  0.25500000920E-02 0. -1.
       -2   -1    0    0    0  501  0.00000000000E+00  0.00000000000E+00 -0.74945496101E+02  0.74945496144E+02  0.25500000920E-02 0.  1.
    10030    2    1    2    0    0  0.00000000000E+00  0.00000000000E+00  0.15816900100E+04  0.17315810022E+04  0.70471943325E+03 0.  0.
        1    1    3    3  502    0  0.14734038536E+03 -0.27272986304E+03  0.37920129208E+03  0.48977993762E+03  0.50400001928E-02 0.  1.
       -1    1    3    3    0  502 -0.14734038536E+03  0.27272986304E+03  0.12024887179E+04  0.12418010646E+04  0.50400001928E-02 0. -1.
</event>
<event>
 5   0  0.2750139E-02  0.7021899E+03  0.7818609E-02  0.9713495E-01
        1   -1    0    0  501    0  0.00000000000E+00  0.00000000000E+00  0.10654043450E+03  0.10654043461E+03  0.50400001928E-02 0. -1.
       -1   -1    0    0    0  501  0.00000000000E+00  0.00000000000E+00 -0.11570035198E+04  0.11570035198E+04  0.50400001928E-02 0.  1.
    10030    2    1    2    0    0  0.00000000000E+00  0.00000000000E+00 -0.10504630853E+04  0.12635439544E+04  0.70218988257E+03 0.  0.
        2    1    3    3  502    0 -0.15030377400E+02 -0.21868749325E+03 -0.31722279908E+02  0.22148687320E+03  0.25500000920E-02 0. -1.
       -2    1    3    3    0  502  0.15030377400E+02  0.21868749325E+03 -0.10187408054E+04  0.10420570812E+04  0.25500000920E-02 0.  1.
</event>
<event>
 5   0  0.4365492E-02  0.6979883E+03  0.7818609E-02  0.9720679E-01
       -2   -1    0    0    0  501  0.00000000000E+00  0.00000000000E+00  0.21140166704E+03  0.21140166706E+03  0.25500000920E-02 0. -1.
        2   -1    0    0  501    0  0.00000000000E+00  0.00000000000E+00 -0.57613973677E+03  0.57613973677E+03  0.25500000920E-02 0.  1.
    10030    2    1    2    0    0  0.00000000000E+00  0.00000000000E+00 -0.36473806973E+03  0.78754140383E+03  0.69798825437E+03 0.  0.
        4    1    3    3  502    0 -0.23153617006E+03  0.20680118678E+03 -0.24780966050E+01  0.31045689357E+03  0.12699999809E+01 0. -1.
       -4    1    3    3    0  502  0.23153617006E+03 -0.20680118678E+03 -0.36225997312E+03  0.47708451026E+03  0.12699999809E+01 0.  1.
</event>
<event>
 5   0  0.1784625E-02  0.6960712E+03  0.7818609E-02  0.9723975E-01
        3   -1    0    0  501    0  0.00000000000E+00  0.00000000000E+00  0.24467170142E+03  0.24467172226E+03  0.10100000352E+00 0.  1.
       -3   -1    0    0    0  501  0.00000000000E+00  0.00000000000E+00 -0.49506658843E+03  0.49506659874E+03  0.10100000352E+00 0. -1.
    10030    2    1    2    0    0  0.00000000000E+00  0.00000000000E+00 -0.25039488701E+03  0.73973832100E+03  0.69607124931E+03 0.  0.
        2    1    3    3  502    0 -0.20928353217E+03  0.26108462019E+03 -0.23463133884E+02  0.33543299539E+03  0.25500000920E-02 0.  1.
       -2    1    3    3    0  502  0.20928353217E+03 -0.26108462019E+03 -0.22693175313E+03  0.40430532561E+03  0.25500000920E-02 0. -1.
</event>
<event>
 5   0  0.4503289E-02  0.7340887E+03  0.7818609E-02  0.9660649E-01
        2   -1    0    0  501    0  0.00000000000E+00  0.00000000000E+00  0.80069633645E+03  0.80069633645E+03  0.25500000920E-02 0.  1.
       -2   -1    0    0    0  501  0.00000000000E+00  0.00000000000E+00 -0.16825549785E+03  0.16825549786E+03  0.25500000920E-02 0. -1.
    10030    2    1    2    0    0  0.00000000000E+00  0.00000000000E+00  0.63244083860E+03  0.96895183431E+03  0.73408871595E+03 0.  0.
        2    1    3    3  502    0  0.22712947691E+03 -0.44967586410E+01  0.69675097259E+03  0.73285055634E+03  0.25500000920E-02 0.  1.
       -2    1    3    3    0  502 -0.22712947691E+03  0.44967586410E+01 -0.64310133987E+02  0.23610127797E+03  0.25500000920E-02 0. -1.
</event>
<event>
 5   0  0.2684924E-02  0.6578938E+03  0.7818609E-02  0.9792079E-01
       -1   -1    0    0    0  501  0.00000000000E+00  0.00000000000E+00  0.27851512903E+03  0.27851512907E+03  0.50400001928E-02 0. -1.
        1   -1    0    0  501    0  0.00000000000E+00  0.00000000000E+00 -0.38851048483E+03  0.38851048486E+03  0.50400001928E-02 0.  1.
    10030    2    1    2    0    0  0.00000000000E+00  0.00000000000E+00 -0.10999535580E+03  0.66702561394E+03  0.65789375385E+03 0.  0.
        4    1    3    3  502    0 -0.94424092755E+02  0.28246167322E+03  0.86597283562E+02  0.31016319664E+03  0.12699999809E+01 0. -1.
       -4    1    3    3    0  502  0.94424092755E+02 -0.28246167322E+03 -0.19659263936E+03  0.35686241730E+03  0.12699999809E+01 0.  1.
</event>
<event>
 5   0  0.4365492E-02  0.7030810E+03  0.7818609E-02  0.9711978E-01
       -2   -1    0    0    0  501  0.00000000000E+00  0.00000000000E+00  0.10382496122E+03  0.10382496125E+03  0.25500000920E-02 0. -1.
        2   -1    0    0  501    0  0.00000000000E+00  0.00000000000E+00 -0.11902793606E+04  0.11902793606E+04  0.25500000920E-02 0.  1.
    10030    2    1    2    0    0  0.00000000000E+00  0.00000000000E+00 -0.10864543993E+04  0.12941043218E+04  0.70308095828E+03 0.  0.
        4    1    3    3  502    0  0.22103180396E+03  0.20188611429E+03 -0.20400335498E+03  0.36225963513E+03  0.12699999809E+01 0. -1.
       -4    1    3    3    0  502 -0.22103180396E+03 -0.20188611429E+03 -0.88245104435E+03  0.93184468668E+03  0.12699999809E+01 0.  1.
</event>
<event>
 5   0  0.2758681E-02  0.6968774E+03  0.7818609E-02  0.9722587E-01
       -1   -1    0    0    0  501  0.00000000000E+00  0.00000000000E+00  0.45703709949E+03  0.45703709951E+03  0.50400001928E-02 0.  1.
        1   -1    0    0  501    0  0.00000000000E+00  0.00000000000E+00 -0.26564479092E+03  0.26564479097E+03  0.50400001928E-02 0. -1.
    10030    2    1    2    0    0  0.00000000000E+00  0.00000000000E+00  0.19139230856E+03  0.72268189049E+03  0.69687739170E+03 0.  0.
        3    1    3    3  502    0  0.34586921791E+03 -0.21926147590E+02  0.13313336213E+03  0.37125567222E+03  0.10100000352E+00 0. -1.
       -3    1    3    3    0  502 -0.34586921791E+03  0.21926147590E+02  0.58258946433E+02  0.35142621827E+03  0.10100000352E+00 0.  1.
</event>
<event>
 5   0  0.4420645E-02  0.7049926E+03  0.7818609E-02  0.9708732E-01
        2   -1    0    0  501    0  0.00000000000E+00  0.00000000000E+00  0.37162501511E+03  0.37162501512E+03  0.25500000920E-02 0.  1.
       -2   -1    0    0    0  501  0.00000000000E+00  0.00000000000E+00 -0.33435219124E+03  0.33435219125E+03  0.25500000920E-02 0. -1.
    10030    2    1    2    0    0  0.00000000000E+00  0.00000000000E+00  0.37272823868E+02  0.70597720637E+03  0.70499259040E+03 0.  0.
        5    1    3    3  502    0  0.12130961338E+03  0.53622924865E+02  0.34565046359E+03  0.37025366081E+03  0.46999998093E+01 0.  1.
       -5    1    3    3    0  502 -0.12130961338E+03 -0.53622924865E+02 -0.30837763972E+03  0.33572354556E+03  0.46999998093E+01 0. -1.
</event>
<event>
 5   0  0.4420645E-02  0.7043227E+03  0.7818609E-02  0.9709868E-01
        2   -1    0    0  501    0  0.00000000000E+00  0.00000000000E+00  0.13761928741E+04  0.13761928741E+04  0.25500000920E-02 0. -1.
       -2   -1    0    0    0  501  0.00000000000E+00  0.00000000000E+00 -0.90116445160E+02  0.90116445196E+02  0.25500000920E-02 0.  1.
    10030    2    1    2    0    0  0.00000000000E+00  0.00000000000E+00  0.12860764290E+04  0.14663093193E+04  0.70432268088E+03 0.  0.
        5    1    3    3  502    0  0.18759597045E+03 -0.52773731954E+02  0.12536274002E+04  0.12686926591E+04  0.46999998093E+01 0. -1.
       -5    1    3    3    0  502 -0.18759597045E+03  0.52773731954E+02  0.32449028802E+02  0.19761666019E+03  0.46999998093E+01 0.  1.
</event>
<event>
 5   0  0.4526837E-02  0.6959452E+03  0.7818609E-02  0.9724192E-01
       -2   -1    0    0    0  501  0.00000000000E+00  0.00000000000E+00  0.55706701927E+02  0.55706701985E+02  0.25500000920E-02 0. -1.
        2   -1    0    0  501    0  0.00000000000E+00  0.00000000000E+00 -0.21736151681E+04  0.21736151681E+04  0.25500000920E-02 0.  1.
    10030    2    1    2    0    0  0.00000000000E+00  0.00000000000E+00 -0.21179084662E+04  0.22293218701E+04  0.69594520572E+03 0.  0.
        1    1    3    3  502    0 -0.17280079656E+03  0.21740895367E+03 -0.38734369629E+03  0.47661505170E+03  0.50400001928E-02 0. -1.
       -1    1    3    3    0  502  0.17280079656E+03 -0.21740895367E+03 -0.17305647699E+04  0.17527068184E+04  0.50400001928E-02 0.  1.
</event>
<event>
 5   0  0.2750139E-02  0.7033191E+03  0.7818609E-02  0.9711573E-01
       -1   -1    0    0    0  501  0.00000000000E+00  0.00000000000E+00  0.21110247601E+03  0.21110247607E+03  0.50400001928E-02 0. -1.
        1   -1    0    0  501    0  0.00000000000E+00  0.00000000000E+00 -0.58580289517E+03  0.58580289519E+03  0.50400001928E-02 0.  1.
    10030    2    1    2    0    0  0.00000000000E+00  0.00000000000E+00 -0.37470041916E+03  0.79690537126E+03  0.70331910725E+03 0.  0.
        2    1    3    3  502    0  0.29624476876E+03 -0.93624480396E+02 -0.69387240626E+00  0.31068792673E+03  0.25500000920E-02 0. -1.
       -2    1    3    3    0  502 -0.29624476876E+03  0.93624480396E+02 -0.37400654675E+03  0.48621744453E+03  0.25500000920E-02 0.  1.
</event>
<event>
 5   0  0.2758681E-02  0.6881514E+03  0.7818609E-02  0.9737712E-01
        1   -1    0    0  501    0  0.00000000000E+00  0.00000000000E+00  0.28709416675E+03  0.28709416679E+03  0.50400001928E-02 0. -1.
       -1   -1    0    0    0  501  0.00000000000E+00  0.00000000000E+00 -0.41236674301E+03  0.41236674304E+03  0.50400001928E-02 0.  1.
    10030    2    1    2    0    0  0.00000000000E+00  0.00000000000E+00 -0.12527257626E+03  0.69946090983E+03  0.68815139760E+03 0.  0.
        3    1    3    3  502    0  0.27725472409E+03 -0.20358280517E+03 -0.54015405468E+02  0.34818646559E+03  0.10100000352E+00 0. -1.
       -3    1    3    3    0  502 -0.27725472409E+03  0.20358280517E+03 -0.71257170797E+02  0.35127444425E+03  0.10100000352E+00 0.  1.
</event>
<event>
 5   0  0.2751729E-02  0.7090964E+03  0.7818609E-02  0.9701801E-01
       -1   -1    0    0    0  501  0.00000000000E+00  0.00000000000E+00  0.18047684666E+03  0.18047684673E+03  0.50400001928E-02 0.  1.
        1   -1    0    0  501    0  0.00000000000E+00  0.00000000000E+00 -0.69651284077E+03  0.69651284079E+03  0.50400001928E-02 0. -1.
    10030    2    1    2    0    0  0.00000000000E+00  0.00000000000E+00 -0.51603599411E+03  0.87698968752E+03  0.70909644252E+03 0.  0.
        1    1    3    3  502    0 -0.27177159226E+02 -0.18674577711E+03  0.11320250317E+03  0.22006224119E+03  0.50400001928E-02 0.  1.
       -1    1    3    3    0  502  0.27177159226E+02  0.18674577711E+03 -0.62923849728E+03  0.65692744632E+03  0.50400001928E-02 0. -1.
</event>
<event>
 5   0  0.4365492E-02  0.6960879E+03  0.7818609E-02  0.9723946E-01
        2   -1    0    0  501    0  0.00000000000E+00  0.00000000000E+00  0.19465070706E+03  0.19465070707E+03  0.25500000920E-02 0.  1.
       -2   -1    0    0    0  501  0.00000000000E+00  0.00000000000E+00 -0.62231772256E+03  0.62231772256E+03  0.25500000920E-02 0. -1.
    10030    2    1    2    0    0  0.00000000000E+00  0.00000000000E+00 -0.42766701550E+03  0.81696842964E+03  0.69608788158E+03 0.  0.
        4    1    3    3  502    0  0.33176009238E+03  0.85660022907E+02 -0.14214839117E+03  0.37095845648E+03  0.12699999809E+01 0.  1.
       -4    1    3    3    0  502 -0.33176009238E+03 -0.85660022907E+02 -0.28551862433E+03  0.44600997316E+03  0.12699999809E+01 0. -1.
</event>
<event>
 5   0  0.2777999E-02  0.6999729E+03  0.7818609E-02  0.9717279E-01
       -1   -1    0    0    0  501  0.00000000000E+00  0.00000000000E+00  0.27460568636E+03  0.27460568641E+03  0.50400001928E-02 0. -1.
        1   -1    0    0  501    0  0.00000000000E+00  0.00000000000E+00 -0.44605965945E+03  0.44605965948E+03  0.50400001928E-02 0.  1.
    10030    2    1    2    0    0  0.00000000000E+00  0.00000000000E+00 -0.17145397309E+03  0.72066534588E+03  0.69997291081E+03 0.  0.
        5    1    3    3  502    0 -0.81927126270E+02 -0.28342798305E+03 -0.27950613790E+03  0.40643480008E+03  0.46999998093E+01 0.  1.
       -5    1    3    3    0  502  0.81927126270E+02  0.28342798305E+03  0.10805216481E+03  0.31423054580E+03  0.46999998093E+01 0. -1.
</event>
<event>
 5   0  0.2684924E-02  0.7163049E+03  0.7818609E-02  0.9689748E-01
        1   -1    0    0  501    0  0.00000000000E+00  0.00000000000E+00  0.50501340431E+03  0.50501340433E+03  0.50400001928E-02 0.  1.
       -1   -1    0    0    0  501  0.00000000000E+00  0.00000000000E+00 -0.25399955940E+03  0.25399955945E+03  0.50400001928E-02 0. -1.
    10030    2    1    2    0    0  0.00000000000E+00  0.00000000000E+00  0.25101384490E+03  0.75901296378E+03  0.71630491333E+03 0.  0.
        4    1    3    3  502    0  0.15702293648E+03  0.29636844276E+03  0.25861980143E+03  0.42352835919E+03  0.12699999809E+01 0.  1.
       -4    1    3    3    0  502 -0.15702293648E+03 -0.29636844276E+03 -0.76059565295E+01  0.33548460460E+03  0.12699999809E+01 0. -1.
</event>
<event>
 5   0  0.2750139E-02  0.6995588E+03  0.7818609E-02  0.9717987E-01
        1   -1    0    0  501    0  0.00000000000E+00  0.00000000000E+00  0.71630768135E+03  0.71630768137E+03  0.50400001928E-02 0.  1.
       -1   -1    0    0    0  501  0.00000000000E+00  0.00000000000E+00 -0.17080037955E+03  0.17080037963E+03  0.50400001928E-02 0. -1.
    10030    2    1    2    0    0  0.00000000000E+00  0.00000000000E+00  0.54550730180E+03  0.88710806099E+03  0.69955878635E+03 0.  0.
        2    1    3    3  502    0  0.18784704938E+03  0.16574585059E+03 -0.36795496113E+02  0.25320369170E+03  0.25500000920E-02 0. -1.
       -2    1    3    3    0  502 -0.18784704938E+03 -0.16574585059E+03  0.58230279791E+03  0.63390436929E+03  0.25500000920E-02 0.  1.
</event>
<event>
 5   0  0.4299912E-02  0.6840269E+03  0.7818609E-02  0.9744945E-01
        2   -1    0    0  501    0  0.00000000000E+00  0.00000000000E+00  0.88421183095E+03  0.88421183095E+03  0.25500000920E-02 0.  1.
       -2   -1    0    0    0  501  0.00000000000E+00  0.00000000000E+00 -0.13229093922E+03  0.13229093924E+03  0.25500000920E-02 0. -1.
    10030    2    1    2    0    0  0.00000000000E+00  0.00000000000E+00  0.75192089173E+03  0.10165027702E+04  0.68402693982E+03 0.  0.
        3    1    3    3  502    0  0.32712787545E+02 -0.10564890210E+03 -0.10498356316E+03  0.15249057584E+03  0.10100000352E+00 0. -1.
       -3    1    3    3    0  502 -0.32712787545E+02  0.10564890210E+03  0.85690445489E+03  0.86401219436E+03  0.10100000352E+00 0.  1.
</event>
<event>
 5   0  0.4365492E-02  0.5317270E+03  0.7818609E-02  0.1005814E+00
        2   -1    0    0  501    0  0.00000000000E+00  0.00000000000E+00  0.11218644150E+04  0.11218644150E+04  0.25500000920E-02 0.  1.
       -2   -1    0    0    0  501  0.00000000000E+00  0.00000000000E+00 -0.63005285811E+02  0.63005285863E+02  0.25500000920E-02 0. -1.
    10030    2    1    2    0    0  0.00000000000E+00  0.00000000000E+00  0.10588591292E+04  0.11848697009E+04  0.53172695302E+03 0.  0.
        4    1    3    3  502    0  0.68947052921E+02 -0.10167697410E+03  0.40420399830E+01  0.12292214672E+03  0.12699999809E+01 0. -1.
       -4    1    3    3    0  502 -0.68947052921E+02  0.10167697410E+03  0.10548170892E+04  0.10619475541E+04  0.12699999809E+01 0.  1.
</event>
<event>
 5   0  0.4526837E-02  0.6981967E+03  0.7818609E-02  0.9720321E-01
        2   -1    0    0  501    0  0.00000000000E+00  0.00000000000E+00  0.40531276108E+03  0.40531276108E+03  0.25500000920E-02 0.  1.
       -2   -1    0    0    0  501  0.00000000000E+00  0.00000000000E+00 -0.30068052274E+03  0.30068052275E+03  0.25500000920E-02 0. -1.
    10030    2    1    2    0    0  0.00000000000E+00  0.00000000000E+00  0.10463223834E+03  0.70599328383E+03  0.69819668541E+03 0.  0.
        1    1    3    3  502    0 -0.99593496491E+02 -0.13493750819E+03 -0.25727708338E+03  0.30711316044E+03  0.50400001928E-02 0. -1.
       -1    1    3    3    0  502  0.99593496491E+02  0.13493750819E+03  0.36190932172E+03  0.39888012339E+03  0.50400001928E-02 0.  1.
</event>
<event>
 5   0  0.4299912E-02  0.7000762E+03  0.7818609E-02  0.9717102E-01
        2   -1    0    0  501    0  0.00000000000E+00  0.00000000000E+00  0.91218957081E+03  0.91218957081E+03  0.25500000920E-02 0.  1.
       -2   -1    0    0    0  501  0.00000000000E+00  0.00000000000E+00 -0.13432151163E+03  0.13432151166E+03  0.25500000920E-02 0. -1.
    10030    2    1    2    0    0  0.00000000000E+00  0.00000000000E+00  0.77786805918E+03  0.10465110825E+04  0.70007623031E+03 0.  0.
        3    1    3    3  502    0 -0.26823972105E+03  0.21028161048E+03  0.26975975294E+03  0.43467371460E+03  0.10100000352E+00 0.  1.
       -3    1    3    3    0  502  0.26823972105E+03 -0.21028161048E+03  0.50810830624E+03  0.61183736787E+03  0.10100000352E+00 0. -1.
</event>
<event>
 5   0  0.2777999E-02  0.7038301E+03  0.7818609E-02  0.9710704E-01
       -1   -1    0    0    0  501  0.00000000000E+00  0.00000000000E+00  0.81126947013E+02  0.81126947170E+02  0.50400001928E-02 0.  1.
        1   -1    0    0  501    0  0.00000000000E+00  0.00000000000E+00 -0.15265484554E+04  0.15265484554E+04  0.50400001928E-02 0. -1.
    10030    2    1    2    0    0  0.00000000000E+00  0.00000000000E+00 -0.14454215083E+04  0.16076754025E+04  0.70383013798E+03 0.  0.
        5    1    3    3  502    0 -0.28348782108E+02  0.34814042598E+03 -0.62535221601E+03  0.71630502840E+03  0.46999998093E+01 0. -1.
       -5    1    3    3    0  502  0.28348782108E+02 -0.34814042598E+03 -0.82006929234E+03  0.89137037414E+03  0.46999998093E+01 0.  1.
</event>
<event>
 5   0  0.2684924E-02  0.6673023E+03  0.7818609E-02  0.9774844E-01
       -1   -1    0    0    0  501  0.00000000000E+00  0.00000000000E+00  0.63838310379E+02  0.63838310578E+02  0.50400001928E-02 0. -1.
        1   -1    0    0  501    0  0.00000000000E+00  0.00000000000E+00 -0.17438288232E+04  0.17438288232E+04  0.50400001928E-02 0.  1.
    10030    2    1    2    0    0  0.00000000000E+00  0.00000000000E+00 -0.16799905128E+04  0.18076671338E+04  0.66730228787E+03 0.  0.
        4    1    3    3  502    0  0.11570959498E+03  0.72823989059E+02 -0.15533828790E+02  0.13760434764E+03  0.12699999809E+01 0. -1.
       -4    1    3    3    0  502 -0.11570959498E+03 -0.72823989059E+02 -0.16644566840E+04  0.16700627861E+04  0.12699999809E+01 0.  1.
</event>
<event>
 5   0  0.2758681E-02  0.7090584E+03  0.7818609E-02  0.9701865E-01
       -1   -1    0    0    0  501  0.00000000000E+00  0.00000000000E+00  0.70659003859E+02  0.70659004039E+02  0.50400001928E-02 0.  1.
        1   -1    0    0  501    0  0.00000000000E+00  0.00000000000E+00 -0.17788384776E+04  0.17788384776E+04  0.50400001928E-02 0. -1.
    10030    2    1    2    0    0  0.00000000000E+00  0.00000000000E+00 -0.17081794737E+04  0.18494974817E+04  0.70905840388E+03 0.  0.
        3    1    3    3  502    0  0.24298893530E+03 -0.24710116237E+03 -0.10490800590E+04  0.11048400733E+04  0.10100000352E+00 0. -1.
       -3    1    3    3    0  502 -0.24298893530E+03  0.24710116237E+03 -0.65909941473E+03  0.74465740835E+03  0.10100000352E+00 0.  1.
</event>
<event>
 5   0  0.2751729E-02  0.6418157E+03  0.7818609E-02  0.9822259E-01
       -1   -1    0    0    0  501  0.00000000000E+00  0.00000000000E+00  0.25648860042E+03  0.25648860047E+03  0.50400001928E-02 0.  1.
        1   -1    0    0  501    0  0.00000000000E+00  0.00000000000E+00 -0.40150650682E+03  0.40150650685E+03  0.50400001928E-02 0. -1.
    10030    2    1    2    0    0  0.00000000000E+00  0.00000000000E+00 -0.14501790640E+03  0.65799510733E+03  0.64181568078E+03 0.  0.
        1    1    3    3  502    0 -0.30553081088E+02  0.94504304831E+02  0.24033480850E+03  0.26004879273E+03  0.50400001928E-02 0.  1.
       -1    1    3    3    0  502  0.30553081088E+02 -0.94504304831E+02 -0.38535271490E+03  0.39794631460E+03  0.50400001928E-02 0. -1.
</event>
<event>
 5   0  0.4365492E-02  0.7105821E+03  0.7818609E-02  0.9699305E-01
       -2   -1    0    0    0  501  0.00000000000E+00  0.00000000000E+00  0.61996496243E+02  0.61996496295E+02  0.25500000920E-02 0. -1.
        2   -1    0    0  501    0  0.00000000000E+00  0.00000000000E+00 -0.20361106861E+04  0.20361106861E+04  0.25500000920E-02 0.  1.
    10030    2    1    2    0    0  0.00000000000E+00  0.00000000000E+00 -0.19741141899E+04  0.20981071824E+04  0.71058209535E+03 0.  0.
        4    1    3    3  502    0  0.20971187521E+03  0.10074370294E+03 -0.19421569962E+03  0.30306717930E+03  0.12699999809E+01 0. -1.
       -4    1    3    3    0  502 -0.20971187521E+03 -0.10074370294E+03 -0.17798984902E+04  0.17950400031E+04  0.12699999809E+01 0.  1.
</event>
<event>
 5   0  0.4526837E-02  0.6908640E+03  0.7818609E-02  0.9732985E-01
        2   -1    0    0  501    0  0.00000000000E+00  0.00000000000E+00  0.27614808154E+03  0.27614808155E+03  0.25500000920E-02 0.  1.
       -2   -1    0    0    0  501  0.00000000000E+00  0.00000000000E+00 -0.43209879258E+03  0.43209879259E+03  0.25500000920E-02 0. -1.
    10030    2    1    2    0    0  0.00000000000E+00  0.00000000000E+00 -0.15595071104E+03  0.70824687414E+03  0.69086395944E+03 0.  0.
        1    1    3    3  502    0  0.20447396307E+03  0.60442435024E+02 -0.35658609195E+03  0.41547145573E+03  0.50400001928E-02 0. -1.
       -1    1    3    3    0  502 -0.20447396307E+03 -0.60442435024E+02  0.20063538091E+03  0.29277541841E+03  0.50400001928E-02 0.  1.
</event>
<event>
 5   0  0.4503289E-02  0.7042162E+03  0.7818609E-02  0.9710049E-01
       -2   -1    0    0    0  501  0.00000000000E+00  0.00000000000E+00  0.19776057756E+03  0.19776057757E+03  0.25500000920E-02 0.  1.
        2   -1    0    0  501    0  0.00000000000E+00  0.00000000000E+00 -0.62692020784E+03  0.62692020785E+03  0.25500000920E-02 0. -1.
    10030    2    1    2    0    0  0.00000000000E+00  0.00000000000E+00 -0.42915963028E+03  0.82468078542E+03  0.70421616680E+03 0.  0.
        2    1    3    3  502    0 -0.84781958323E+02  0.25829800862E+02  0.18448426848E+03  0.20466950039E+03  0.25500000920E-02 0.  1.
       -2    1    3    3    0  502  0.84781958323E+02 -0.25829800862E+02 -0.61364389876E+03  0.62001128503E+03  0.25500000920E-02 0. -1.
</event>
<event>
 5   0  0.2751729E-02  0.6983489E+03  0.7818609E-02  0.9720060E-01
        1   -1    0    0  501    0  0.00000000000E+00  0.00000000000E+00  0.99586914078E+03  0.99586914079E+03  0.50400001928E-02 0.  1.
       -1   -1    0    0    0  501  0.00000000000E+00  0.00000000000E+00 -0.12242853520E+03  0.12242853530E+03  0.50400001928E-02 0. -1.
    10030    2    1    2    0    0  0.00000000000E+00  0.00000000000E+00  0.87344060558E+03  0.11182976761E+04  0.69834891055E+03 0.  0.
        1    1    3    3  502    0 -0.94403675758E+01  0.25431570624E+03  0.81956306395E+03  0.85816619299E+03  0.50400001928E-02 0.  1.
       -1    1    3    3    0  502  0.94403675758E+01 -0.25431570624E+03  0.53877541635E+02  0.26013148310E+03  0.50400001928E-02 0. -1.
</event>
<event>
 5   0  0.4299912E-02  0.7031969E+03  0.7818609E-02  0.9711781E-01
        2   -1    0    0  501    0  0.00000000000E+00  0.00000000000E+00  0.72549728197E+03  0.72549728198E+03  0.25500000920E-02 0.  1.
       -2   -1    0    0    0  501  0.00000000000E+00  0.00000000000E+00 -0.17039551596E+03  0.17039551597E+03  0.25500000920E-02 0. -1.
    10030    2    1    2    0    0  0.00000000000E+00  0.00000000000E+00  0.55510176602E+03  0.89589279795E+03  0.70319693884E+03 0.  0.
        3    1    3    3  502    0  0.34815653363E+02  0.26283199134E+03  0.57176230148E+03  0.63024195750E+03  0.10100000352E+00 0.  1.
       -3    1    3    3    0  502 -0.34815653363E+02 -0.26283199134E+03 -0.16660535467E+02  0.26565084045E+03  0.10100000352E+00 0. -1.
</event>
<event>
 5   0  0.4420645E-02  0.6122235E+03  0.7818609E-02  0.9880366E-01
        2   -1    0    0  501    0  0.00000000000E+00  0.00000000000E+00  0.90961187676E+03  0.90961187677E+03  0.25500000920E-02 0. -1.
       -2   -1    0    0    0  501  0.00000000000E+00  0.00000000000E+00 -0.10301582180E+03  0.10301582183E+03  0.25500000920E-02 0.  1.
    10030    2    1    2    0    0  0.00000000000E+00  0.00000000000E+00  0.80659605497E+03  0.10126276986E+04  0.61222353767E+03 0.  0.
        5    1    3    3  502    0  0.18376103722E+03 -0.92954190245E+02  0.28767507308E+02  0.20798620089E+03  0.46999998093E+01 0.  1.
       -5    1    3    3    0  502 -0.18376103722E+03  0.92954190245E+02  0.77782854766E+03  0.80464149771E+03  0.46999998093E+01 0. -1.
</event>
<event>
 5   0  0.4526837E-02  0.7187001E+03  0.7818609E-02  0.9685776E-01
       -2   -1    0    0    0  501  0.00000000000E+00  0.00000000000E+00  0.15671116511E+03  0.15671116513E+03  0.25500000920E-02 0.  1.
        2   -1    0    0  501    0  0.00000000000E+00  0.00000000000E+00 -0.82401570185E+03  0.82401570186E+03  0.25500000920E-02 0. -1.
    10030    2    1    2    0    0  0.00000000000E+00  0.00000000000E+00 -0.66730453674E+03  0.98072686699E+03  0.71870010636E+03 0.  0.
        1    1    3    3  502    0 -0.14826990499E+03  0.24614606911E+03 -0.39203536564E+02  0.29001511921E+03  0.50400001928E-02 0.  1.
       -1    1    3    3    0  502  0.14826990499E+03 -0.24614606911E+03 -0.62810100018E+03  0.69071174778E+03  0.50400001928E-02 0. -1.
</event>
<event>
 5   0  0.2751729E-02  0.7024346E+03  0.7818609E-02  0.9713078E-01
        1   -1    0    0  501    0  0.00000000000E+00  0.00000000000E+00  0.10492969079E+03  0.10492969091E+03  0.50400001928E-02 0. -1.
       -1   -1    0    0    0  501  0.00000000000E+00  0.00000000000E+00 -0.11755833047E+04  0.11755833047E+04  0.50400001928E-02 0.  1.
    10030    2    1    2    0    0  0.00000000000E+00  0.00000000000E+00 -0.10706536139E+04  0.12805129956E+04  0.70243460264E+03 0.  0.
        1    1    3    3  502    0 -0.27097771438E+03 -0.80460995498E+02 -0.91532057838E+03  0.95797424533E+03  0.50400001928E-02 0.  1.
       -1    1    3    3    0  502  0.27097771438E+03  0.80460995498E+02 -0.15533303552E+03  0.32253875028E+03  0.50400001928E-02 0. -1.
</event>
<event>
 5   0  0.2684924E-02  0.5066052E+03  0.7818609E-02  0.1012069E+00
        1   -1    0    0  501    0  0.00000000000E+00  0.00000000000E+00  0.10761980094E+04  0.10761980094E+04  0.50400001928E-02 0. -1.
       -1   -1    0    0    0  501  0.00000000000E+00  0.00000000000E+00 -0.59619332512E+02  0.59619332725E+02  0.50400001928E-02 0.  1.
    10030    2    1    2    0    0  0.00000000000E+00  0.00000000000E+00  0.10165786769E+04  0.11358173421E+04  0.50660519973E+03 0.  0.
        4    1    3    3  502    0  0.31432027350E+02 -0.23608241766E+03  0.70164575445E+03  0.74096643508E+03  0.12699999809E+01 0. -1.
       -4    1    3    3    0  502 -0.31432027350E+02  0.23608241766E+03  0.31493292243E+03  0.39485090705E+03  0.12699999809E+01 0.  1.
</event>
<event>
 5   0  0.2758681E-02  0.6961021E+03  0.7818609E-02  0.9723921E-01
       -1   -1    0    0    0  501  0.00000000000E+00  0.00000000000E+00  0.25823343259E+03  0.25823343264E+03  0.50400001928E-02 0. -1.
        1   -1    0    0  501    0  0.00000000000E+00  0.00000000000E+00 -0.46910866602E+03  0.46910866605E+03  0.50400001928E-02 0.  1.
    10030    2    1    2    0    0  0.00000000000E+00  0.00000000000E+00 -0.21087523343E+03  0.72734209868E+03  0.69610212214E+03 0.  0.
        3    1    3    3  502    0 -0.26945007408E+03  0.21956671352E+03 -0.12432209415E+03  0.36914614640E+03  0.10100000352E+00 0. -1.
       -3    1    3    3    0  502  0.26945007408E+03 -0.21956671352E+03 -0.86553139279E+02  0.35819595228E+03  0.10100000352E+00 0.  1.
</event>
<event>
 5   0  0.4365492E-02  0.6444755E+03  0.7818609E-02  0.9817201E-01
       -2   -1    0    0    0  501  0.00000000000E+00  0.00000000000E+00  0.81148712428E+02  0.81148712468E+02  0.25500000920E-02 0. -1.
        2   -1    0    0  501    0  0.00000000000E+00  0.00000000000E+00 -0.12795911504E+04  0.12795911504E+04  0.25500000920E-02 0.  1.
    10030    2    1    2    0    0  0.00000000000E+00  0.00000000000E+00 -0.11984424379E+04  0.13607398628E+04  0.64447552107E+03 0.  0.
        4    1    3    3  502    0  0.11947251063E+03 -0.24394032822E+03 -0.23318250154E+03  0.35798918483E+03  0.12699999809E+01 0. -1.
       -4    1    3    3    0  502 -0.11947251063E+03  0.24394032822E+03 -0.96525993640E+03  0.10027506780E+04  0.12699999809E+01 0.  1.
</event>
<event>
 5   0  0.4420645E-02  0.7158608E+03  0.7818609E-02  0.9690486E-01
        2   -1    0    0  501    0  0.00000000000E+00  0.00000000000E+00  0.42891126660E+03  0.42891126661E+03  0.25500000920E-02 0.  1.
       -2   -1    0    0    0  501  0.00000000000E+00  0.00000000000E+00 -0.29869621075E+03  0.29869621076E+03  0.25500000920E-02 0. -1.
    10030    2    1    2    0    0  0.00000000000E+00  0.00000000000E+00  0.13021505585E+03  0.72760747736E+03  0.71586079676E+03 0.  0.
        5    1    3    3  502    0 -0.23203799351E+03  0.13004921553E+02  0.34175259779E+03  0.41331306114E+03  0.46999998093E+01 0.  1.
       -5    1    3    3    0  502  0.23203799351E+03 -0.13004921553E+02 -0.21153754194E+03  0.31429441622E+03  0.46999998093E+01 0. -1.
</event>
<event>
 5   0  0.4503289E-02  0.7128137E+03  0.7818609E-02  0.9695566E-01
        2   -1    0    0  501    0  0.00000000000E+00  0.00000000000E+00  0.16006115832E+04  0.16006115832E+04  0.25500000920E-02 0.  1.
       -2   -1    0    0    0  501  0.00000000000E+00  0.00000000000E+00 -0.79360827774E+02  0.79360827815E+02  0.25500000920E-02 0. -1.
    10030    2    1    2    0    0  0.00000000000E+00  0.00000000000E+00  0.15212507554E+04  0.16799724110E+04  0.71281374909E+03 0.  0.
        2    1    3    3  502    0  0.19831539752E+03  0.14913385842E+03  0.15764849050E+03  0.29397780730E+03  0.25500000920E-02 0. -1.
       -2    1    3    3    0  502 -0.19831539752E+03 -0.14913385842E+03  0.13636022649E+04  0.13859946037E+04  0.25500000920E-02 0.  1.
</event>
<event>
 5   0  0.4299912E-02  0.6966917E+03  0.7818609E-02  0.9722907E-01
       -2   -1    0    0    0  501  0.00000000000E+00  0.00000000000E+00  0.17090179733E+03  0.17090179735E+03  0.25500000920E-02 0. -1.
        2   -1    0    0  501    0  0.00000000000E+00  0.00000000000E+00 -0.71002669440E+03  0.71002669441E+03  0.25500000920E-02 0.  1.
    10030    2    1    2    0    0  0.00000000000E+00  0.00000000000E+00 -0.53912489707E+03  0.88092849176E+03  0.69669172016E+03 0.  0.
        3    1    3    3  502    0 -0.34192281476E+03 -0.49662106289E+02 -0.21347903775E+03  0.40614141111E+03  0.10100000352E+00 0.  1.
       -3    1    3    3    0  502  0.34192281476E+03  0.49662106289E+02 -0.32564585932E+03  0.47478708065E+03  0.10100000352E+00 0. -1.
</event>
<event>
 5   0  0.4503289E-02  0.7060337E+03  0.7818609E-02  0.9706969E-01
       -2   -1    0    0    0  501  0.00000000000E+00  0.00000000000E+00  0.14728599317E+03  0.14728599319E+03  0.25500000920E-02 0.  1.
        2   -1    0    0  501    0  0.00000000000E+00  0.00000000000E+00 -0.84611494991E+03  0.84611494991E+03  0.25500000920E-02 0. -1.
    10030    2    1    2    0    0  0.00000000000E+00  0.00000000000E+00 -0.69882895674E+03  0.99340094310E+03  0.70603365570E+03 0.  0.
        2    1    3    3  502    0 -0.22629416840E+03 -0.12065474454E+03 -0.69075521855E+03  0.73682385276E+03  0.25500000920E-02 0. -1.
       -2    1    3    3    0  502  0.22629416840E+03  0.12065474454E+03 -0.80737381852E+01  0.25657709034E+03  0.25500000920E-02 0.  1.
</event>
<event>
 5   0  0.4299912E-02  0.6933493E+03  0.7818609E-02  0.9728674E-01
       -2   -1    0    0    0  501  0.00000000000E+00  0.00000000000E+00  0.67594392790E+02  0.67594392839E+02  0.25500000920E-02 0.  1.
        2   -1    0    0  501    0  0.00000000000E+00  0.00000000000E+00 -0.17780073348E+04  0.17780073348E+04  0.25500000920E-02 0. -1.
    10030    2    1    2    0    0  0.00000000000E+00  0.00000000000E+00 -0.17104129420E+04  0.18456017277E+04  0.69334933827E+03 0.  0.
        3    1    3    3  502    0 -0.12206395065E+03  0.31686432929E+03 -0.10411697318E+04  0.10951424711E+04  0.10100000352E+00 0. -1.
       -3    1    3    3    0  502  0.12206395065E+03 -0.31686432929E+03 -0.66924321020E+03  0.75045925660E+03  0.10100000352E+00 0.  1.
</event>
<event>
 5   0  0.4299912E-02  0.7009930E+03  0.7818609E-02  0.9715536E-01
        2   -1    0    0  501    0  0.00000000000E+00  0.00000000000E+00  0.14439315298E+04  0.14439315298E+04  0.25500000920E-02 0. -1.
       -2   -1    0    0    0  501  0.00000000000E+00  0.00000000000E+00 -0.85078683229E+02  0.85078683267E+02  0.25500000920E-02 0.  1.
    10030    2    1    2    0    0  0.00000000000E+00  0.00000000000E+00  0.13588528465E+04  0.15290102130E+04  0.70099299071E+03 0.  0.
        3    1    3    3  502    0 -0.33908361306E+03 -0.59802621926E+02  0.53649944262E+03  0.63748389184E+03  0.10100000352E+00 0.  1.
       -3    1    3    3    0  502  0.33908361306E+03  0.59802621926E+02  0.82235340393E+03  0.89152632120E+03  0.10100000352E+00 0. -1.
</event>
<event>
 5   0  0.4365492E-02  0.6380057E+03  0.7818609E-02  0.9829550E-01
        2   -1    0    0  501    0  0.00000000000E+00  0.00000000000E+00  0.63973651321E+03  0.63973651321E+03  0.25500000920E-02 0. -1.
       -2   -1    0    0    0  501  0.00000000000E+00  0.00000000000E+00 -0.15906991064E+03  0.15906991066E+03  0.25500000920E-02 0.  1.
    10030    2    1    2    0    0  0.00000000000E+00  0.00000000000E+00  0.48066660256E+03  0.79880642388E+03  0.63800573666E+03 0.  0.
        4    1    3    3  502    0  0.18035232882E+03 -0.15801032602E+03  0.50375828898E+03  0.55791419793E+03  0.12699999809E+01 0. -1.
       -4    1    3    3    0  502 -0.18035232882E+03  0.15801032602E+03 -0.23091686416E+02  0.24089222594E+03  0.12699999809E+01 0.  1.
</event>
<event>
 5   0  0.2758681E-02  0.7023013E+03  0.7818609E-02  0.9713305E-01
        1   -1    0    0  501    0  0.00000000000E+00  0.00000000000E+00  0.73382946488E+03  0.73382946490E+03  0.50400001928E-02 0.  1.
       -1   -1    0    0    0  501  0.00000000000E+00  0.00000000000E+00 -0.16803192476E+03  0.16803192483E+03  0.50400001928E-02 0. -1.
    10030    2    1    2    0    0  0.00000000000E+00  0.00000000000E+00  0.56579754013E+03  0.90186138973E+03  0.70230129565E+03 0.  0.
        3    1    3    3  502    0  0.21301347867E+03  0.23879043786E+03  0.46859594801E+03  0.56743086628E+03  0.10100000352E+00 0.  1.
       -3    1    3    3    0  502 -0.21301347867E+03 -0.23879043786E+03  0.97201592116E+02  0.33443052346E+03  0.10100000352E+00 0. -1.
</event>
<event>
 5   0  0.2750139E-02  0.6988213E+03  0.7818609E-02  0.9719250E-01
        1   -1    0    0  501    0  0.00000000000E+00  0.00000000000E+00  0.42570944552E+03  0.42570944555E+03  0.50400001928E-02 0. -1.
       -1   -1    0    0    0  501  0.00000000000E+00  0.00000000000E+00 -0.28678670334E+03  0.28678670339E+03  0.50400001928E-02 0.  1.
    10030    2    1    2    0    0  0.00000000000E+00  0.00000000000E+00  0.13892274218E+03  0.71249614894E+03  0.69882131762E+03 0.  0.
        2    1    3    3  502    0  0.33521096124E+03 -0.65713534832E+02  0.14440590113E+03  0.37086078450E+03  0.25500000920E-02 0.  1.
       -2    1    3    3    0  502 -0.33521096124E+03  0.65713534832E+02 -0.54831589549E+01  0.34163536443E+03  0.25500000920E-02 0. -1.
</event>
<event>
 5   0  0.2750139E-02  0.6647708E+03  0.7818609E-02  0.9779451E-01
        1   -1    0    0  501    0  0.00000000000E+00  0.00000000000E+00  0.76301880912E+03  0.76301880914E+03  0.50400001928E-02 0. -1.
       -1   -1    0    0    0  501  0.00000000000E+00  0.00000000000E+00 -0.14479336821E+03  0.14479336829E+03  0.50400001928E-02 0.  1.
    10030    2    1    2    0    0  0.00000000000E+00  0.00000000000E+00  0.61822544092E+03  0.90781217744E+03  0.66477082796E+03 0.  0.
        2    1    3    3  502    0  0.28563440943E+03 -0.16405922480E+03  0.36984160305E+03  0.49526281553E+03  0.25500000920E-02 0.  1.
       -2    1    3    3    0  502 -0.28563440943E+03  0.16405922480E+03  0.24838383787E+03  0.41254936191E+03  0.25500000920E-02 0. -1.
</event>
<event>
 5   0  0.2758681E-02  0.6978321E+03  0.7818609E-02  0.9720947E-01
       -1   -1    0    0    0  501  0.00000000000E+00  0.00000000000E+00  0.30319277910E+03  0.30319277914E+03  0.50400001928E-02 0.  1.
        1   -1    0    0  501    0  0.00000000000E+00  0.00000000000E+00 -0.40153461050E+03  0.40153461053E+03  0.50400001928E-02 0. -1.
    10030    2    1    2    0    0  0.00000000000E+00  0.00000000000E+00 -0.98341831396E+02  0.70472738967E+03  0.69783205569E+03 0.  0.
        3    1    3    3  502    0 -0.18185698369E+03  0.14342017448E+03 -0.31271132757E+03  0.38913968387E+03  0.10100000352E+00 0. -1.
       -3    1    3    3    0  502  0.18185698369E+03 -0.14342017448E+03  0.21436949618E+03  0.31558770581E+03  0.10100000352E+00 0.  1.
</event>
<event>
 5   0  0.4526837E-02  0.7162089E+03  0.7818609E-02  0.9689907E-01
       -2   -1    0    0    0  501  0.00000000000E+00  0.00000000000E+00  0.24298814932E+03  0.24298814933E+03  0.25500000920E-02 0.  1.
        2   -1    0    0  501    0  0.00000000000E+00  0.00000000000E+00 -0.52775746316E+03  0.52775746317E+03  0.25500000920E-02 0. -1.
    10030    2    1    2    0    0  0.00000000000E+00  0.00000000000E+00 -0.28476931384E+03  0.77074561250E+03  0.71620893396E+03 0.  0.
        1    1    3    3  502    0 -0.26977912522E+03 -0.69530667044E+02 -0.38451403883E+03  0.47483295604E+03  0.50400001928E-02 0. -1.
       -1    1    3    3    0  502  0.26977912522E+03  0.69530667044E+02  0.99744724988E+02  0.29591265646E+03  0.50400001928E-02 0.  1.
</event>
<event>
 5   0  0.2758681E-02  0.7000171E+03  0.7818609E-02  0.9717203E-01
       -1   -1    0    0    0  501  0.00000000000E+00  0.00000000000E+00  0.14508689201E+03  0.14508689210E+03  0.50400001928E-02 0.  1.
        1   -1    0    0  501    0  0.00000000000E+00  0.00000000000E+00 -0.84436285912E+03  0.84436285913E+03  0.50400001928E-02 0. -1.
    10030    2    1    2    0    0  0.00000000000E+00  0.00000000000E+00 -0.69927596711E+03  0.98944975123E+03  0.70001709410E+03 0.  0.
        3    1    3    3  502    0 -0.29249594799E+03  0.17017571769E+03 -0.47600143655E+03  0.58402999262E+03  0.10100000352E+00 0. -1.
       -3    1    3    3    0  502  0.29249594799E+03 -0.17017571769E+03 -0.22327453055E+03  0.40541975861E+03  0.10100000352E+00 0.  1.
</event>
<event>
 5   0  0.4299912E-02  0.6810600E+03  0.7818609E-02  0.9750182E-01
       -2   -1    0    0    0  501  0.00000000000E+00  0.00000000000E+00  0.14208156814E+03  0.14208156816E+03  0.25500000920E-02 0.  1.
        2   -1    0    0  501    0  0.00000000000E+00  0.00000000000E+00 -0.81615566266E+03  0.81615566266E+03  0.25500000920E-02 0. -1.
    10030    2    1    2    0    0  0.00000000000E+00  0.00000000000E+00 -0.67407409451E+03  0.95823723082E+03  0.68105998682E+03 0.  0.
        3    1    3    3  502    0  0.24579090635E+02  0.33498454371E+03 -0.41590183922E+03  0.53459622734E+03  0.10100000352E+00 0. -1.
       -3    1    3    3    0  502 -0.24579090635E+02 -0.33498454371E+03 -0.25817225530E+03  0.42364100348E+03  0.10100000352E+00 0.  1.
</event>
<event>
 5   0  0.2751729E-02  0.7067094E+03  0.7818609E-02  0.9705826E-01
       -1   -1    0    0    0  501  0.00000000000E+00  0.00000000000E+00  0.13738536480E+03  0.13738536489E+03  0.50400001928E-02 0. -1.
        1   -1    0    0  501    0  0.00000000000E+00  0.00000000000E+00 -0.90882719125E+03  0.90882719127E+03  0.50400001928E-02 0.  1.
    10030    2    1    2    0    0  0.00000000000E+00  0.00000000000E+00 -0.77144182645E+03  0.10462125562E+04  0.70670943185E+03 0.  0.
        1    1    3    3  502    0 -0.21435823734E+03  0.21973443791E+03 -0.12664299091E+03  0.33207096273E+03  0.50400001928E-02 0. -1.
       -1    1    3    3    0  502  0.21435823734E+03 -0.21973443791E+03 -0.64479883554E+03  0.71414159343E+03  0.50400001928E-02 0.  1.
</event>
<event>
 5   0  0.4365492E-02  0.7072988E+03  0.7818609E-02  0.9704831E-01
       -2   -1    0    0    0  501  0.00000000000E+00  0.00000000000E+00  0.24821459842E+03  0.24821459843E+03  0.25500000920E-02 0. -1.
        2   -1    0    0  501    0  0.00000000000E+00  0.00000000000E+00 -0.50386998312E+03  0.50386998313E+03  0.25500000920E-02 0.  1.
    10030    2    1    2    0    0  0.00000000000E+00  0.00000000000E+00 -0.25565538470E+03  0.75208458156E+03  0.70729876438E+03 0.  0.
        4    1    3    3  502    0 -0.33985012393E+03  0.77165126613E+02 -0.19174822452E+03  0.39777073548E+03  0.12699999809E+01 0.  1.
       -4    1    3    3    0  502  0.33985012393E+03 -0.77165126613E+02 -0.63907160183E+02  0.35431384608E+03  0.12699999809E+01 0. -1.
</event>
<event>
 5   0  0.4365492E-02  0.6888060E+03  0.7818609E-02  0.9736569E-01
       -2   -1    0    0    0  501  0.00000000000E+00  0.00000000000E+00  0.40618695755E+03  0.40618695756E+03  0.25500000920E-02 0.  1.
        2   -1    0    0  501    0  0.00000000000E+00  0.00000000000E+00 -0.29201683077E+03  0.29201683079E+03  0.25500000920E-02 0. -1.
    10030    2    1    2    0    0  0.00000000000E+00  0.00000000000E+00  0.11417012677E+03  0.69820378834E+03  0.68880600477E+03 0.  0.
        4    1    3    3  502    0  0.16995460010E+03 -0.14671485555E+03 -0.20763315563E+03  0.30581523041E+03  0.12699999809E+01 0. -1.
       -4    1    3    3    0  502 -0.16995460010E+03  0.14671485555E+03  0.32180328240E+03  0.39238855793E+03  0.12699999809E+01 0.  1.
</event>
<event>
 5   0  0.2777999E-02  0.6986539E+03  0.7818609E-02  0.9719537E-01
       -1   -1    0    0    0  501  0.00000000000E+00  0.00000000000E+00  0.42631173742E+03  0.42631173745E+03  0.50400001928E-02 0.  1.
        1   -1    0    0  501    0  0.00000000000E+00  0.00000000000E+00 -0.28624435137E+03  0.28624435141E+03  0.50400001928E-02 0. -1.
    10030    2    1    2    0    0  0.00000000000E+00  0.00000000000E+00  0.14006738606E+03  0.71255608886E+03  0.69865392516E+03 0.  0.
        5    1    3    3  502    0  0.90403050658E+02  0.53506297850E+02  0.40978636322E+03  0.42306333918E+03  0.46999998093E+01 0.  1.
       -5    1    3    3    0  502 -0.90403050658E+02 -0.53506297850E+02 -0.26971897716E+03  0.28949274968E+03  0.46999998093E+01 0. -1.
</event>
<event>
 5   0  0.2758681E-02  0.6955641E+03  0.7818609E-02  0.9724848E-01
       -1   -1    0    0    0  501  0.00000000000E+00  0.00000000000E+00  0.21373160881E+03  0.21373160887E+03  0.50400001928E-02 0. -1.
        1   -1    0    0  501    0  0.00000000000E+00  0.00000000000E+00 -0.56590761844E+03  0.56590761846E+03  0.50400001928E-02 0.  1.
    10030    2    1    2    0    0  0.00000000000E+00  0.00000000000E+00 -0.35217600964E+03  0.77963922733E+03  0.69556407543E+03 0.  0.
        3    1    3    3  502    0 -0.95553550250E+02  0.32520517770E+03 -0.88807684495E+02  0.35039364092E+03  0.10100000352E+00 0. -1.
       -3    1    3    3    0  502  0.95553550250E+02 -0.32520517770E+03 -0.26336832514E+03  0.42924558641E+03  0.10100000352E+00 0.  1.
</event>
<event>
 5   0  0.2750139E-02  0.7009580E+03  0.7818609E-02  0.9715595E-01
        1   -1    0    0  501    0  0.00000000000E+00  0.00000000000E+00  0.10607961828E+04  0.10607961828E+04  0.50400001928E-02 0. -1.
       -1   -1    0    0    0  501  0.00000000000E+00  0.00000000000E+00 -0.11579560223E+03  0.11579560234E+03  0.50400001928E-02 0.  1.
    10030    2    1    2    0    0  0.00000000000E+00  0.00000000000E+00  0.94500058055E+03  0.11765917851E+04  0.70095800988E+03 0.  0.
        2    1    3    3  502    0 -0.38990895656E+02  0.43859366532E+02  0.10524905408E+04  0.10541253590E+04  0.25500000920E-02 0. -1.
       -2    1    3    3    0  502  0.38990895656E+02 -0.43859366532E+02 -0.10748996024E+03  0.12246642616E+03  0.25500000920E-02 0.  1.
</event>
<event>
 5   0  0.4365492E-02  0.6837706E+03  0.7818609E-02  0.9745396E-01
        2   -1    0    0  501    0  0.00000000000E+00  0.00000000000E+00  0.92650514460E+02  0.92650514495E+02  0.25500000920E-02 0. -1.
       -2   -1    0    0    0  501  0.00000000000E+00  0.00000000000E+00 -0.12615747922E+04  0.12615747922E+04  0.25500000920E-02 0.  1.
    10030    2    1    2    0    0  0.00000000000E+00  0.00000000000E+00 -0.11689242778E+04  0.13542253067E+04  0.68377058595E+03 0.  0.
        4    1    3    3  502    0 -0.13397800118E+03  0.97550755503E+02  0.77703439507E+01  0.16591638208E+03  0.12699999809E+01 0. -1.
       -4    1    3    3    0  502  0.13397800118E+03 -0.97550755503E+02 -0.11766946217E+04  0.11883089246E+04  0.12699999809E+01 0.  1.
</event>
<event>
 5   0  0.2758681E-02  0.6959905E+03  0.7818609E-02  0.9724114E-01
       -1   -1    0    0    0  501  0.00000000000E+00  0.00000000000E+00  0.12308656675E+03  0.12308656685E+03  0.50400001928E-02 0. -1.
        1   -1    0    0  501    0  0.00000000000E+00  0.00000000000E+00 -0.98386602989E+03  0.98386602990E+03  0.50400001928E-02 0.  1.
    10030    2    1    2    0    0  0.00000000000E+00  0.00000000000E+00 -0.86077946314E+03  0.11069525968E+04  0.69599049369E+03 0.  0.
        3    1    3    3  502    0  0.20910500081E+02 -0.26217420346E+03 -0.79282213085E+03  0.83530802901E+03  0.10100000352E+00 0. -1.
       -3    1    3    3    0  502 -0.20910500081E+02  0.26217420346E+03 -0.67957332291E+02  0.27164456774E+03  0.10100000352E+00 0.  1.
</event>
<event>
 5   0  0.4503289E-02  0.7041357E+03  0.7818609E-02  0.9710186E-01
       -2   -1    0    0    0  501  0.00000000000E+00  0.00000000000E+00  0.15598754814E+03  0.15598754816E+03  0.25500000920E-02 0. -1.
        2   -1    0    0  501    0  0.00000000000E+00  0.00000000000E+00 -0.79462610743E+03  0.79462610744E+03  0.25500000920E-02 0.  1.
    10030    2    1    2    0    0  0.00000000000E+00  0.00000000000E+00 -0.63863855929E+03  0.95061365560E+03  0.70413572044E+03 0.  0.
        2    1    3    3  502    0  0.14885217854E+03  0.60834588942E+02 -0.74215221264E+03  0.75937324485E+03  0.25500000920E-02 0.  1.
       -2    1    3    3    0  502 -0.14885217854E+03 -0.60834588942E+02  0.10351365334E+03  0.19124041075E+03  0.25500000920E-02 0. -1.
</event>
<event>
 5   0  0.4365492E-02  0.6985030E+03  0.7818609E-02  0.9719796E-01
        2   -1    0    0  501    0  0.00000000000E+00  0.00000000000E+00  0.18262252490E+04  0.18262252490E+04  0.25500000920E-02 0. -1.
       -2   -1    0    0    0  501  0.00000000000E+00  0.00000000000E+00 -0.66791659767E+02  0.66791659815E+02  0.25500000920E-02 0.  1.
    10030    2    1    2    0    0  0.00000000000E+00  0.00000000000E+00  0.17594335892E+04  0.18930169088E+04  0.69850301512E+03 0.  0.
        4    1    3    3  502    0  0.24246013883E+03 -0.20964132571E+03  0.50381627930E+03  0.59713387155E+03  0.12699999809E+01 0. -1.
       -4    1    3    3    0  502 -0.24246013883E+03  0.20964132571E+03  0.12556173099E+04  0.12958830372E+04  0.12699999809E+01 0.  1.
</event>
<event>
 5   0  0.2777999E-02  0.5446425E+03  0.7818609E-02  0.1002742E+00
       -1   -1    0    0    0  501  0.00000000000E+00  0.00000000000E+00  0.16985780915E+03  0.16985780923E+03  0.50400001928E-02 0. -1.
        1   -1    0    0  501    0  0.00000000000E+00  0.00000000000E+00 -0.43659371743E+03  0.43659371746E+03  0.50400001928E-02 0.  1.
    10030    2    1    2    0    0  0.00000000000E+00  0.00000000000E+00 -0.26673590827E+03  0.60645152668E+03  0.54464246020E+03 0.  0.
        5    1    3    3  502    0 -0.13666178131E+03 -0.20397261960E+03 -0.26443561476E+03  0.36087332455E+03  0.46999998093E+01 0. -1.
       -5    1    3    3    0  502  0.13666178131E+03  0.20397261960E+03 -0.23002935124E+01  0.24557820214E+03  0.46999998093E+01 0.  1.
</event>
<event>
 5   0  0.1784625E-02  0.7147277E+03  0.7818609E-02  0.9692372E-01
       -4   -1    0    0    0  501  0.00000000000E+00  0.00000000000E+00  0.57686518817E+03  0.57686658615E+03  0.12699999809E+01 0. -1.
        4   -1    0    0  501    0  0.00000000000E+00  0.00000000000E+00 -0.22138083782E+03  0.22138448060E+03  0.12699999809E+01 0.  1.
    10030    2    1    2    0    0  0.00000000000E+00  0.00000000000E+00  0.35548435035E+03  0.79825106676E+03  0.71472766998E+03 0.  0.
        4    1    3    3  502    0 -0.26280470555E+03 -0.62124540112E+02  0.43914842967E+03  0.51553731963E+03  0.12699999809E+01 0. -1.
       -4    1    3    3    0  502  0.26280470555E+03  0.62124540112E+02 -0.83664079323E+02  0.28271374713E+03  0.12699999809E+01 0.  1.
</event>
<event>
 5   0  0.4503289E-02  0.6989776E+03  0.7818609E-02  0.9718982E-01
       -2   -1    0    0    0  501  0.00000000000E+00  0.00000000000E+00  0.80217581231E+02  0.80217581271E+02  0.25500000920E-02 0.  1.
        2   -1    0    0  501    0  0.00000000000E+00  0.00000000000E+00 -0.15226389724E+04  0.15226389724E+04  0.25500000920E-02 0. -1.
    10030    2    1    2    0    0  0.00000000000E+00  0.00000000000E+00 -0.14424213911E+04  0.16028565536E+04  0.69897758329E+03 0.  0.
        2    1    3    3  502    0 -0.78928668785E+02  0.24850220472E+03 -0.18754649425E+03  0.32118027340E+03  0.25500000920E-02 0.  1.
       -2    1    3    3    0  502  0.78928668785E+02 -0.24850220472E+03 -0.12548748969E+04  0.12816762802E+04  0.25500000920E-02 0. -1.
</event>
<event>
 5   0  0.4299912E-02  0.6977242E+03  0.7818609E-02  0.9721132E-01
       -2   -1    0    0    0  501  0.00000000000E+00  0.00000000000E+00  0.88245601573E+02  0.88245601610E+02  0.25500000920E-02 0.  1.
        2   -1    0    0  501    0  0.00000000000E+00  0.00000000000E+00 -0.13791593677E+04  0.13791593677E+04  0.25500000920E-02 0. -1.
    10030    2    1    2    0    0  0.00000000000E+00  0.00000000000E+00 -0.12909137661E+04  0.14674049693E+04  0.69772415206E+03 0.  0.
        3    1    3    3  502    0  0.31736168990E+03  0.65990109675E+02 -0.91668409456E+03  0.97230801509E+03  0.10100000352E+00 0. -1.
       -3    1    3    3    0  502 -0.31736168990E+03 -0.65990109675E+02 -0.37422967153E+03  0.49509695419E+03  0.10100000352E+00 0.  1.
</event>
<event>
 5   0  0.4420645E-02  0.6835272E+03  0.7818609E-02  0.9745825E-01
        2   -1    0    0  501    0  0.00000000000E+00  0.00000000000E+00  0.58781872306E+03  0.58781872307E+03  0.25500000920E-02 0.  1.
       -2   -1    0    0    0  501  0.00000000000E+00  0.00000000000E+00 -0.19870472015E+03  0.19870472017E+03  0.25500000920E-02 0. -1.
    10030    2    1    2    0    0  0.00000000000E+00  0.00000000000E+00  0.38911400291E+03  0.78652344323E+03  0.68352719002E+03 0.  0.
        5    1    3    3  502    0 -0.47344637719E+02 -0.52142197034E+02  0.57933967423E+03  0.58362391278E+03  0.46999998093E+01 0.  1.
       -5    1    3    3    0  502  0.47344637719E+02  0.52142197034E+02 -0.19022567132E+03  0.20289953046E+03  0.46999998093E+01 0. -1.
</event>
<event>
 5   0  0.2750139E-02  0.6465393E+03  0.7818609E-02  0.9813295E-01
        1   -1    0    0  501    0  0.00000000000E+00  0.00000000000E+00  0.35993709267E+03  0.35993709271E+03  0.50400001928E-02 0.  1.
       -1   -1    0    0    0  501  0.00000000000E+00  0.00000000000E+00 -0.29033762484E+03  0.29033762489E+03  0.50400001928E-02 0. -1.
    10030    2    1    2    0    0  0.00000000000E+00  0.00000000000E+00  0.69599467832E+02  0.65027471760E+03  0.64653934329E+03 0.  0.
        2    1    3    3  502    0 -0.62592513715E+02  0.13157844275E+02 -0.28391007614E+03  0.29102557101E+03  0.25500000920E-02 0. -1.
       -2    1    3    3    0  502  0.62592513715E+02 -0.13157844275E+02  0.35350954397E+03  0.35924914659E+03  0.25500000920E-02 0.  1.
</event>
<event>
 5   0  0.4503289E-02  0.6951798E+03  0.7818609E-02  0.9725511E-01
        2   -1    0    0  501    0  0.00000000000E+00  0.00000000000E+00  0.39685663542E+03  0.39685663542E+03  0.25500000920E-02 0.  1.
       -2   -1    0    0    0  501  0.00000000000E+00  0.00000000000E+00 -0.30443922347E+03  0.30443922348E+03  0.25500000920E-02 0. -1.
    10030    2    1    2    0    0  0.00000000000E+00  0.00000000000E+00  0.92417411944E+02  0.70129585891E+03  0.69517976358E+03 0.  0.
        2    1    3    3  502    0 -0.13123066684E+03  0.31839436723E+03 -0.13469380860E+01  0.34438100303E+03  0.25500000920E-02 0. -1.
       -2    1    3    3    0  502  0.13123066684E+03 -0.31839436723E+03  0.93764350030E+02  0.35691485587E+03  0.25500000920E-02 0.  1.
</event>
<event>
 5   0  0.1784625E-02  0.6869609E+03  0.7818609E-02  0.9739794E-01
        4   -1    0    0  501    0  0.00000000000E+00  0.00000000000E+00  0.70918012849E+03  0.70918126565E+03  0.12699999809E+01 0. -1.
       -4   -1    0    0    0  501  0.00000000000E+00  0.00000000000E+00 -0.16635574721E+03  0.16636059489E+03  0.12699999809E+01 0.  1.
    10030    2    1    2    0    0  0.00000000000E+00  0.00000000000E+00  0.54282438128E+03  0.87554186054E+03  0.68696087272E+03 0.  0.
        3    1    3    3  502    0  0.97280593350E+02  0.32324261119E+03  0.19050809335E+03  0.38761145928E+03  0.10100000352E+00 0.  1.
       -3    1    3    3    0  502 -0.97280593350E+02 -0.32324261119E+03  0.35231628792E+03  0.48793040126E+03  0.10100000352E+00 0. -1.
</event>
<event>
 5   0  0.4420645E-02  0.7174381E+03  0.7818609E-02  0.9687867E-01
       -2   -1    0    0    0  501  0.00000000000E+00  0.00000000000E+00  0.95572205159E+03  0.95572205160E+03  0.25500000920E-02 0. -1.
        2   -1    0    0  501    0  0.00000000000E+00  0.00000000000E+00 -0.13464099625E+03  0.13464099627E+03  0.25500000920E-02 0.  1.
    10030    2    1    2    0    0  0.00000000000E+00  0.00000000000E+00  0.82108105535E+03  0.10903630479E+04  0.71743813441E+03 0.  0.
        5    1    3    3  502    0  0.45526246862E+02 -0.24313784380E+03  0.15776464794E+02  0.24791054250E+03  0.46999998093E+01 0.  1.
       -5    1    3    3    0  502 -0.45526246862E+02  0.24313784380E+03  0.80530459055E+03  0.84245250537E+03  0.46999998093E+01 0. -1.
</event>
<event>
 5   0  0.2684924E-02  0.6974398E+03  0.7818609E-02  0.9721621E-01
       -1   -1    0    0    0  501  0.00000000000E+00  0.00000000000E+00  0.31470714658E+03  0.31470714662E+03  0.50400001928E-02 0. -1.
        1   -1    0    0  501    0  0.00000000000E+00  0.00000000000E+00 -0.38640866847E+03  0.38640866850E+03  0.50400001928E-02 0.  1.
    10030    2    1    2    0    0  0.00000000000E+00  0.00000000000E+00 -0.71701521891E+02  0.70111581512E+03  0.69743980239E+03 0.  0.
        4    1    3    3  502    0  0.18028723852E+01 -0.10952795678E+03 -0.36866116669E+03  0.38459367180E+03  0.12699999809E+01 0.  1.
       -4    1    3    3    0  502 -0.18028723852E+01  0.10952795678E+03  0.29695964480E+03  0.31652214331E+03  0.12699999809E+01 0. -1.
</event>
<event>
 5   0  0.2750139E-02  0.6979115E+03  0.7818609E-02  0.9720810E-01
       -1   -1    0    0    0  501  0.00000000000E+00  0.00000000000E+00  0.10113207586E+03  0.10113207599E+03  0.50400001928E-02 0. -1.
        1   -1    0    0  501    0  0.00000000000E+00  0.00000000000E+00 -0.12040703345E+04  0.12040703345E+04  0.50400001928E-02 0.  1.
    10030    2    1    2    0    0  0.00000000000E+00  0.00000000000E+00 -0.11029382586E+04  0.13052024105E+04  0.69791154884E+03 0.  0.
        2    1    3    3  502    0 -0.65984830353E+02  0.33356188020E+03 -0.40477691627E+03  0.52864153991E+03  0.25500000920E-02 0.  1.
       -2    1    3    3    0  502  0.65984830353E+02 -0.33356188020E+03 -0.69816134236E+03  0.77656087059E+03  0.25500000920E-02 0. -1.
</event>
<event>
 5   0  0.2751729E-02  0.6901295E+03  0.7818609E-02  0.9734263E-01
        1   -1    0    0  501    0  0.00000000000E+00  0.00000000000E+00  0.41592910133E+03  0.41592910136E+03  0.50400001928E-02 0.  1.
       -1   -1    0    0    0  501  0.00000000000E+00  0.00000000000E+00 -0.28627398391E+03  0.28627398396E+03  0.50400001928E-02 0. -1.
    10030    2    1    2    0    0  0.00000000000E+00  0.00000000000E+00  0.12965511742E+03  0.70220308532E+03  0.69012949767E+03 0.  0.
        1    1    3    3  502    0  0.58176299335E+02  0.28653379784E+03  0.25129183895E+03  0.38553039758E+03  0.50400001928E-02 0.  1.
       -1    1    3    3    0  502 -0.58176299335E+02 -0.28653379784E+03 -0.12163672154E+03  0.31667268774E+03  0.50400001928E-02 0. -1.
</event>
<event>
 5   0  0.4420645E-02  0.7116828E+03  0.7818609E-02  0.9697459E-01
       -2   -1    0    0    0  501  0.00000000000E+00  0.00000000000E+00  0.98784677360E+02  0.98784677393E+02  0.25500000920E-02 0. -1.
        2   -1    0    0  501    0  0.00000000000E+00  0.00000000000E+00 -0.12818089776E+04  0.12818089776E+04  0.25500000920E-02 0.  1.
    10030    2    1    2    0    0  0.00000000000E+00  0.00000000000E+00 -0.11830243002E+04  0.13805936550E+04  0.71168275604E+03 0.  0.
        5    1    3    3  502    0  0.70497292829E+02 -0.25370175907E+03 -0.10557386444E+04  0.10880903575E+04  0.46999998093E+01 0.  1.
       -5    1    3    3    0  502 -0.70497292829E+02  0.25370175907E+03 -0.12728565584E+03  0.29250329748E+03  0.46999998093E+01 0. -1.
</event>
<event>
 5   0  0.2777999E-02  0.6984158E+03  0.7818609E-02  0.9719945E-01
        1   -1    0    0  501    0  0.00000000000E+00  0.00000000000E+00  0.15069525743E+04  0.15069525743E+04  0.50400001928E-02 0. -1.
       -1   -1    0    0    0  501  0.00000000000E+00  0.00000000000E+00 -0.80922359401E+02  0.80922359558E+02  0.50400001928E-02 0.  1.
    10030    2    1    2    0    0  0.00000000000E+00  0.00000000000E+00  0.14260302149E+04  0.15878749339E+04  0.69841580151E+03 0.  0.
        5    1    3    3  502    0  0.21873535625E+03 -0.38456105590E+02  0.13256061834E+04  0.13440899790E+04  0.46999998093E+01 0. -1.
       -5    1    3    3    0  502 -0.21873535625E+03  0.38456105590E+02  0.10042403152E+03  0.24378495490E+03  0.46999998093E+01 0.  1.
</event>
<event>
 5   0  0.2758681E-02  0.7004529E+03  0.7818609E-02  0.9716458E-01
       -1   -1    0    0    0  501  0.00000000000E+00  0.00000000000E+00  0.45500309731E+03  0.45500309734E+03  0.50400001928E-02 0.  1.
        1   -1    0    0  501    0  0.00000000000E+00  0.00000000000E+00 -0.26957740025E+03  0.26957740030E+03  0.50400001928E-02 0. -1.
    10030    2    1    2    0    0  0.00000000000E+00  0.00000000000E+00  0.18542569706E+03  0.72458049763E+03  0.70045285953E+03 0.  0.
        3    1    3    3  502    0 -0.20624268585E+03 -0.22356464537E+03  0.27230570069E+03  0.40824943473E+03  0.10100000352E+00 0.  1.
       -3    1    3    3    0  502  0.20624268585E+03  0.22356464537E+03 -0.86880003635E+02  0.31633106290E+03  0.10100000352E+00 0. -1.
</event>
<event>
 5   0  0.4526837E-02  0.7027863E+03  0.7818609E-02  0.9712479E-01
       -2   -1    0    0    0  501  0.00000000000E+00  0.00000000000E+00  0.60277523346E+03  0.60277523346E+03  0.25500000920E-02 0.  1.
        2   -1    0    0  501    0  0.00000000000E+00  0.00000000000E+00 -0.20484773347E+03  0.20484773349E+03  0.25500000920E-02 0. -1.
    10030    2    1    2    0    0  0.00000000000E+00  0.00000000000E+00  0.39792749999E+03  0.80762296695E+03  0.70278628437E+03 0.  0.
        1    1    3    3  502    0  0.28420906557E+02  0.21002843152E+03 -0.12312760876E+03  0.24511241918E+03  0.50400001928E-02 0. -1.
       -1    1    3    3    0  502 -0.28420906557E+02 -0.21002843152E+03  0.52105510874E+03  0.56251054777E+03  0.50400001928E-02 0.  1.
</event>
<event>
 5   0  0.2751729E-02  0.7027000E+03  0.7818609E-02  0.9712626E-01
       -1   -1    0    0    0  501  0.00000000000E+00  0.00000000000E+00  0.17202778218E+03  0.17202778225E+03  0.50400001928E-02 0. -1.
        1   -1    0    0  501    0  0.00000000000E+00  0.00000000000E+00 -0.71759821704E+03  0.71759821706E+03  0.50400001928E-02 0.  1.
    10030    2    1    2    0    0  0.00000000000E+00  0.00000000000E+00 -0.54557043486E+03  0.88962599931E+03  0.70270002082E+03 0.  0.
        1    1    3    3  502    0  0.45489225354E+02 -0.17922517341E+02 -0.71327037211E+03  0.71494413068E+03  0.50400001928E-02 0.  1.
       -1    1    3    3    0  502 -0.45489225354E+02  0.17922517341E+02  0.16769993724E+03  0.17468186863E+03  0.50400001928E-02 0. -1.
</event>
<event>
 5   0  0.4299912E-02  0.7146248E+03  0.7818609E-02  0.9692544E-01
       -2   -1    0    0    0  501  0.00000000000E+00  0.00000000000E+00  0.52195487332E+03  0.52195487332E+03  0.25500000920E-02 0.  1.
        2   -1    0    0  501    0  0.00000000000E+00  0.00000000000E+00 -0.24460380402E+03  0.24460380403E+03  0.25500000920E-02 0. -1.
    10030    2    1    2    0    0  0.00000000000E+00  0.00000000000E+00  0.27735106930E+03  0.76655867735E+03  0.71462478979E+03 0.  0.
        3    1    3    3  502    0 -0.34647454966E+03 -0.73560313742E+02  0.18917558278E+03  0.40155092409E+03  0.10100000352E+00 0. -1.
       -3    1    3    3    0  502  0.34647454966E+03  0.73560313742E+02  0.88175486522E+02  0.36500775326E+03  0.10100000352E+00 0.  1.
</event>
<event>
 5   0  0.2751729E-02  0.7008663E+03  0.7818609E-02  0.9715752E-01
       -1   -1    0    0    0  501  0.00000000000E+00  0.00000000000E+00  0.17858130891E+03  0.17858130898E+03  0.50400001928E-02 0.  1.
        1   -1    0    0  501    0  0.00000000000E+00  0.00000000000E+00 -0.68766085655E+03  0.68766085656E+03  0.50400001928E-02 0. -1.
    10030    2    1    2    0    0  0.00000000000E+00  0.00000000000E+00 -0.50907954764E+03  0.86624216554E+03  0.70086625225E+03 0.  0.
        1    1    3    3  502    0  0.32827948998E+03  0.37405876506E+02 -0.39887078487E+03  0.51794258967E+03  0.50400001928E-02 0. -1.
       -1    1    3    3    0  502 -0.32827948998E+03 -0.37405876506E+02 -0.11020876276E+03  0.34829957588E+03  0.50400001928E-02 0.  1.
</event>
<event>
 5   0  0.2684924E-02  0.6952177E+03  0.7818609E-02  0.9725446E-01
       -1   -1    0    0    0  501  0.00000000000E+00  0.00000000000E+00  0.74273860593E+02  0.74273860764E+02  0.50400001928E-02 0.  1.
        1   -1    0    0  501    0  0.00000000000E+00  0.00000000000E+00 -0.16268432055E+04  0.16268432055E+04  0.50400001928E-02 0. -1.
    10030    2    1    2    0    0  0.00000000000E+00  0.00000000000E+00 -0.15525693449E+04  0.17011170663E+04  0.69521773742E+03 0.  0.
        4    1    3    3  502    0 -0.24024583650E+01  0.61811784250E+02 -0.16132614785E+04  0.16144474842E+04  0.12699999809E+01 0. -1.
       -4    1    3    3    0  502  0.24024583650E+01 -0.61811784250E+02  0.60692133559E+02  0.86669582059E+02  0.12699999809E+01 0.  1.
</event>
<event>
 5   0  0.4526837E-02  0.7063668E+03  0.7818609E-02  0.9706406E-01
        2   -1    0    0  501    0  0.00000000000E+00  0.00000000000E+00  0.60456931876E+03  0.60456931877E+03  0.25500000920E-02 0.  1.
       -2   -1    0    0    0  501  0.00000000000E+00  0.00000000000E+00 -0.20632625183E+03  0.20632625185E+03  0.25500000920E-02 0. -1.
    10030    2    1    2    0    0  0.00000000000E+00  0.00000000000E+00  0.39824306693E+03  0.81089557062E+03  0.70636682120E+03 0.  0.
        1    1    3    3  502    0 -0.93065960511E+02 -0.20305484255E+02 -0.19130155887E+03  0.21370510558E+03  0.50400001928E-02 0. -1.
       -1    1    3    3    0  502  0.93065960511E+02  0.20305484255E+02  0.58954462581E+03  0.59719046504E+03  0.50400001928E-02 0.  1.
</event>
<event>
 5   0  0.2751729E-02  0.6941033E+03  0.7818609E-02  0.9727370E-01
       -1   -1    0    0    0  501  0.00000000000E+00  0.00000000000E+00  0.75354264712E+02  0.75354264880E+02  0.50400001928E-02 0. -1.
        1   -1    0    0  501    0  0.00000000000E+00  0.00000000000E+00 -0.15983813637E+04  0.15983813637E+04  0.50400001928E-02 0.  1.
    10030    2    1    2    0    0  0.00000000000E+00  0.00000000000E+00 -0.15230270989E+04  0.16737356285E+04  0.69410331374E+03 0.  0.
        1    1    3    3  502    0 -0.12643945594E+03  0.25341419189E+03 -0.27780115359E+03  0.39671043549E+03  0.50400001928E-02 0. -1.
       -1    1    3    3    0  502  0.12643945594E+03 -0.25341419189E+03 -0.12452259454E+04  0.12770251931E+04  0.50400001928E-02 0.  1.
</event>
<event>
 5   0  0.2751729E-02  0.7031450E+03  0.7818609E-02  0.9711869E-01
        1   -1    0    0  501    0  0.00000000000E+00  0.00000000000E+00  0.12707806400E+04  0.12707806400E+04  0.50400001928E-02 0. -1.
       -1   -1    0    0    0  501  0.00000000000E+00  0.00000000000E+00 -0.97265598686E+02  0.97265598816E+02  0.50400001928E-02 0.  1.
    10030    2    1    2    0    0  0.00000000000E+00  0.00000000000E+00  0.11735150413E+04  0.13680462388E+04  0.70314504860E+03 0.  0.
        1    1    3    3  502    0  0.17920897163E+03  0.27204903387E+03  0.32954881608E+03  0.46338855677E+03  0.50400001928E-02 0.  1.
       -1    1    3    3    0  502 -0.17920897163E+03 -0.27204903387E+03  0.84396622522E+03  0.90465768204E+03  0.50400001928E-02 0. -1.
</event>
<event>
 5   0  0.4299912E-02  0.6900389E+03  0.7818609E-02  0.9734420E-01
       -2   -1    0    0    0  501  0.00000000000E+00  0.00000000000E+00  0.26224040156E+03  0.26224040157E+03  0.25500000920E-02 0.  1.
        2   -1    0    0  501    0  0.00000000000E+00  0.00000000000E+00 -0.45392861010E+03  0.45392861011E+03  0.25500000920E-02 0. -1.
    10030    2    1    2    0    0  0.00000000000E+00  0.00000000000E+00 -0.19168820854E+03  0.71616901168E+03  0.69003890035E+03 0.  0.
        3    1    3    3  502    0  0.20952135678E+03 -0.24896356865E+03 -0.21488870844E+03  0.38994772044E+03  0.10100000352E+00 0. -1.
       -3    1    3    3    0  502 -0.20952135678E+03  0.24896356865E+03  0.23200499908E+02  0.32622129124E+03  0.10100000352E+00 0.  1.
</event>
<event>
 5   0  0.4420645E-02  0.6904817E+03  0.7818609E-02  0.9733650E-01
       -2   -1    0    0    0  501  0.00000000000E+00  0.00000000000E+00  0.15010208490E+03  0.15010208493E+03  0.25500000920E-02 0.  1.
        2   -1    0    0  501    0  0.00000000000E+00  0.00000000000E+00 -0.79406792928E+03  0.79406792929E+03  0.25500000920E-02 0. -1.
    10030    2    1    2    0    0  0.00000000000E+00  0.00000000000E+00 -0.64396584438E+03  0.94417001421E+03  0.69048172098E+03 0.  0.
        5    1    3    3  502    0 -0.12361074051E+03  0.30580735081E+03 -0.18272595413E+03  0.37710557578E+03  0.46999998093E+01 0.  1.
       -5    1    3    3    0  502  0.12361074051E+03 -0.30580735081E+03 -0.46123989025E+03  0.56706443843E+03  0.46999998093E+01 0. -1.
</event>
<event>
 5   0  0.4503289E-02  0.7016350E+03  0.7818609E-02  0.9714440E-01
        2   -1    0    0  501    0  0.00000000000E+00  0.00000000000E+00  0.12409866223E+04  0.12409866223E+04  0.25500000920E-02 0. -1.
       -2   -1    0    0    0  501  0.00000000000E+00  0.00000000000E+00 -0.99173458567E+02  0.99173458600E+02  0.25500000920E-02 0.  1.
    10030    2    1    2    0    0  0.00000000000E+00  0.00000000000E+00  0.11418131638E+04  0.13401600809E+04  0.70163504872E+03 0.  0.
        2    1    3    3  502    0  0.34194485387E+03 -0.67277539126E+02  0.49401929894E+03  0.60457226044E+03  0.25500000920E-02 0. -1.
       -2    1    3    3    0  502 -0.34194485387E+03  0.67277539126E+02  0.64779386483E+03  0.73558782050E+03  0.25500000920E-02 0.  1.
</event>
<event>
 5   0  0.4503289E-02  0.7963394E+03  0.7818609E-02  0.9565331E-01
        2   -1    0    0  501    0  0.00000000000E+00  0.00000000000E+00  0.84423019542E+03  0.84423019543E+03  0.25500000920E-02 0.  1.
       -2   -1    0    0    0  501  0.00000000000E+00  0.00000000000E+00 -0.18779132249E+03  0.18779132251E+03  0.25500000920E-02 0. -1.
    10030    2    1    2    0    0  0.00000000000E+00  0.00000000000E+00  0.65643887293E+03  0.10320215179E+04  0.79633938719E+03 0.  0.
        2    1    3    3  502    0  0.51768915269E+02  0.15309090056E+03 -0.14337758609E+03  0.21604160854E+03  0.25500000920E-02 0. -1.
       -2    1    3    3    0  502 -0.51768915269E+02 -0.15309090056E+03  0.79981645901E+03  0.81597990940E+03  0.25500000920E-02 0.  1.
</event>
<event>
 5   0  0.4299912E-02  0.7052601E+03  0.7818609E-02  0.9708279E-01
       -2   -1    0    0    0  501  0.00000000000E+00  0.00000000000E+00  0.20332354104E+03  0.20332354105E+03  0.25500000920E-02 0. -1.
        2   -1    0    0  501    0  0.00000000000E+00  0.00000000000E+00 -0.61157679325E+03  0.61157679326E+03  0.25500000920E-02 0.  1.
    10030    2    1    2    0    0  0.00000000000E+00  0.00000000000E+00 -0.40825325222E+03  0.81490033431E+03  0.70526012004E+03 0.  0.
        3    1    3    3  502    0 -0.32843400812E+03  0.11099587149E+03 -0.12961089772E+03  0.37011886764E+03  0.10100000352E+00 0. -1.
       -3    1    3    3    0  502  0.32843400812E+03 -0.11099587149E+03 -0.27864235450E+03  0.44478146667E+03  0.10100000352E+00 0.  1.
</event>
<event>
 5   0  0.2750139E-02  0.5621255E+03  0.7818609E-02  0.9987257E-01
       -1   -1    0    0    0  501  0.00000000000E+00  0.00000000000E+00  0.23031455392E+03  0.23031455397E+03  0.50400001928E-02 0.  1.
        1   -1    0    0  501    0  0.00000000000E+00  0.00000000000E+00 -0.34299290249E+03  0.34299290253E+03  0.50400001928E-02 0. -1.
    10030    2    1    2    0    0  0.00000000000E+00  0.00000000000E+00 -0.11267834858E+03  0.57330745650E+03  0.56212545703E+03 0.  0.
        2    1    3    3  502    0 -0.25280170410E+03 -0.93013012274E+02 -0.13816057679E+03  0.30273497821E+03  0.25500000920E-02 0. -1.
       -2    1    3    3    0  502  0.25280170410E+03  0.93013012274E+02  0.25482228214E+02  0.27057247829E+03  0.25500000920E-02 0.  1.
</event>
<event>
 5   0  0.4526837E-02  0.7022988E+03  0.7818609E-02  0.9713309E-01
        2   -1    0    0  501    0  0.00000000000E+00  0.00000000000E+00  0.26322721613E+03  0.26322721615E+03  0.25500000920E-02 0.  1.
       -2   -1    0    0    0  501  0.00000000000E+00  0.00000000000E+00 -0.46843902401E+03  0.46843902402E+03  0.25500000920E-02 0. -1.
    10030    2    1    2    0    0  0.00000000000E+00  0.00000000000E+00 -0.20521180788E+03  0.73166624017E+03  0.70229879745E+03 0.  0.
        1    1    3    3  502    0  0.34393801986E+03  0.62383364387E+02 -0.13748504014E+03  0.37561573708E+03  0.50400001928E-02 0. -1.
       -1    1    3    3    0  502 -0.34393801986E+03 -0.62383364387E+02 -0.67726767742E+02  0.35605050309E+03  0.50400001928E-02 0.  1.
</event>
<event>
 5   0  0.2751729E-02  0.7022807E+03  0.7818609E-02  0.9713340E-01
        1   -1    0    0  501    0  0.00000000000E+00  0.00000000000E+00  0.38188676566E+03  0.38188676569E+03  0.50400001928E-02 0.  1.
       -1   -1    0    0    0  501  0.00000000000E+00  0.00000000000E+00 -0.32286934365E+03  0.32286934369E+03  0.50400001928E-02 0. -1.
    10030    2    1    2    0    0  0.00000000000E+00  0.00000000000E+00  0.59017422010E+02  0.70475610938E+03  0.70228065444E+03 0.  0.
        1    1    3    3  502    0  0.24285822432E+03 -0.15092535342E+03 -0.17502568660E+03  0.33525001181E+03  0.50400001928E-02 0. -1.
       -1    1    3    3    0  502 -0.24285822432E+03  0.15092535342E+03  0.23404310861E+03  0.36950609756E+03  0.50400001928E-02 0.  1.
</event>
<event>
 5   0  0.2758681E-02  0.6976384E+03  0.7818609E-02  0.9721279E-01
       -1   -1    0    0    0  501  0.00000000000E+00  0.00000000000E+00  0.10426708069E+03  0.10426708081E+03  0.50400001928E-02 0.  1.
        1   -1    0    0  501    0  0.00000000000E+00  0.00000000000E+00 -0.11669535535E+04  0.11669535535E+04  0.50400001928E-02 0. -1.
    10030    2    1    2    0    0  0.00000000000E+00  0.00000000000E+00 -0.10626864728E+04  0.12712206343E+04  0.69763841754E+03 0.  0.
        3    1    3    3  502    0 -0.13515231851E+03  0.22774449149E+03 -0.94502607348E+03  0.98143160351E+03  0.10100000352E+00 0. -1.
       -3    1    3    3    0  502  0.13515231851E+03 -0.22774449149E+03 -0.11766039931E+03  0.28978903080E+03  0.10100000352E+00 0.  1.
</event>
<event>
 5   0  0.2684924E-02  0.7057814E+03  0.7818609E-02  0.9707396E-01
       -1   -1    0    0    0  501  0.00000000000E+00  0.00000000000E+00  0.33516811468E+03  0.33516811471E+03  0.50400001928E-02 0. -1.
        1   -1    0    0  501    0  0.00000000000E+00  0.00000000000E+00 -0.37155044037E+03  0.37155044040E+03  0.50400001928E-02 0.  1.
    10030    2    1    2    0    0  0.00000000000E+00  0.00000000000E+00 -0.36382325694E+02  0.70671855512E+03  0.70578144104E+03 0.  0.
        4    1    3    3  502    0  0.12662255239E+01  0.35246698294E+03 -0.35409061294E+02  0.35424566604E+03  0.12699999809E+01 0.  1.
       -4    1    3    3    0  502 -0.12662255239E+01 -0.35246698294E+03 -0.97326439964E+00  0.35247288907E+03  0.12699999809E+01 0. -1.
</event>
<event>
 5   0  0.4365492E-02  0.6867554E+03  0.7818609E-02  0.9740154E-01
       -2   -1    0    0    0  501  0.00000000000E+00  0.00000000000E+00  0.10410564469E+03  0.10410564473E+03  0.25500000920E-02 0. -1.
        2   -1    0    0  501    0  0.00000000000E+00  0.00000000000E+00 -0.11325827928E+04  0.11325827929E+04  0.25500000920E-02 0.  1.
    10030    2    1    2    0    0  0.00000000000E+00  0.00000000000E+00 -0.10284771482E+04  0.12366884376E+04  0.68675544946E+03 0.  0.
        4    1    3    3  502    0  0.21518212442E+03  0.15756472146E+03 -0.12476966489E+03  0.29444705856E+03  0.12699999809E+01 0. -1.
       -4    1    3    3    0  502 -0.21518212442E+03 -0.15756472146E+03 -0.90370748327E+03  0.94224137902E+03  0.12699999809E+01 0.  1.
</event>
<event>
 5   0  0.2758681E-02  0.6850090E+03  0.7818609E-02  0.9743218E-01
       -1   -1    0    0    0  501  0.00000000000E+00  0.00000000000E+00  0.23001800014E+03  0.23001800020E+03  0.50400001928E-02 0. -1.
        1   -1    0    0  501    0  0.00000000000E+00  0.00000000000E+00 -0.51000068481E+03  0.51000068484E+03  0.50400001928E-02 0.  1.
    10030    2    1    2    0    0  0.00000000000E+00  0.00000000000E+00 -0.27998268467E+03  0.74001868504E+03  0.68500901490E+03 0.  0.
        3    1    3    3  502    0 -0.15074541398E+03  0.30632126814E+03 -0.11035811514E+03  0.35879774655E+03  0.10100000352E+00 0.  1.
       -3    1    3    3    0  502  0.15074541398E+03 -0.30632126814E+03 -0.16962456952E+03  0.38122093848E+03  0.10100000352E+00 0. -1.
</event>
<event>
 5   0  0.4420645E-02  0.7039562E+03  0.7818609E-02  0.9710490E-01
        2   -1    0    0  501    0  0.00000000000E+00  0.00000000000E+00  0.50950450744E+03  0.50950450744E+03  0.25500000920E-02 0.  1.
       -2   -1    0    0    0  501  0.00000000000E+00  0.00000000000E+00 -0.24315505161E+03  0.24315505162E+03  0.25500000920E-02 0. -1.
    10030    2    1    2    0    0  0.00000000000E+00  0.00000000000E+00  0.26634945583E+03  0.75265955906E+03  0.70395623389E+03 0.  0.
        5    1    3    3  502    0 -0.32492636156E+02  0.34666271852E+03  0.18806562562E+03  0.39575444578E+03  0.46999998093E+01 0.  1.
       -5    1    3    3    0  502  0.32492636156E+02 -0.34666271852E+03  0.78283830212E+02  0.35690511328E+03  0.46999998093E+01 0. -1.
</event>
<event>
 5   0  0.2758681E-02  0.7035155E+03  0.7818609E-02  0.9711239E-01
        1   -1    0    0  501    0  0.00000000000E+00  0.00000000000E+00  0.16313092696E+03  0.16313092703E+03  0.50400001928E-02 0. -1.
       -1   -1    0    0    0  501  0.00000000000E+00  0.00000000000E+00 -0.75849196818E+03  0.75849196819E+03  0.50400001928E-02 0.  1.
    10030    2    1    2    0    0  0.00000000000E+00  0.00000000000E+00 -0.59536104122E+03  0.92162289523E+03  0.70351545229E+03 0.  0.
        3    1    3    3  502    0 -0.34422622947E+03  0.24260042479E+02 -0.38704344788E+03  0.51853918604E+03  0.10100000352E+00 0.  1.
       -3    1    3    3    0  502  0.34422622947E+03 -0.24260042479E+02 -0.20831759334E+03  0.40308370919E+03  0.10100000352E+00 0. -1.
</event>
<event>
 5   0  0.4526837E-02  0.7010288E+03  0.7818609E-02  0.9715474E-01
        2   -1    0    0  501    0  0.00000000000E+00  0.00000000000E+00  0.15242875108E+04  0.15242875108E+04  0.25500000920E-02 0.  1.
       -2   -1    0    0    0  501  0.00000000000E+00  0.00000000000E+00 -0.80601818643E+02  0.80601818684E+02  0.25500000920E-02 0. -1.
    10030    2    1    2    0    0  0.00000000000E+00  0.00000000000E+00  0.14436856921E+04  0.16048893295E+04  0.70102880265E+03 0.  0.
        1    1    3    3  502    0  0.29985962504E+03 -0.83750869522E+02  0.10904920967E+04  0.11340648199E+04  0.50400001928E-02 0.  1.
       -1    1    3    3    0  502 -0.29985962504E+03  0.83750869522E+02  0.35319359545E+03  0.47082450952E+03  0.50400001928E-02 0. -1.
</event>
<event>
 5   0  0.2758681E-02  0.7251876E+03  0.7818609E-02  0.9675102E-01
        1   -1    0    0  501    0  0.00000000000E+00  0.00000000000E+00  0.30094618695E+03  0.30094618699E+03  0.50400001928E-02 0.  1.
       -1   -1    0    0    0  501  0.00000000000E+00  0.00000000000E+00 -0.43686969415E+03  0.43686969418E+03  0.50400001928E-02 0. -1.
    10030    2    1    2    0    0  0.00000000000E+00  0.00000000000E+00 -0.13592350720E+03  0.73781588118E+03  0.72518761345E+03 0.  0.
        3    1    3    3  502    0  0.97546042293E+02  0.22145043150E+03 -0.34269877337E+03  0.41952113588E+03  0.10100000352E+00 0. -1.
       -3    1    3    3    0  502 -0.97546042293E+02 -0.22145043150E+03  0.20677526617E+03  0.31829474529E+03  0.10100000352E+00 0.  1.
</event>
<event>
 5   0  0.4420645E-02  0.6979794E+03  0.7818609E-02  0.9720694E-01
        2   -1    0    0  501    0  0.00000000000E+00  0.00000000000E+00  0.43454676040E+03  0.43454676041E+03  0.25500000920E-02 0. -1.
       -2   -1    0    0    0  501  0.00000000000E+00  0.00000000000E+00 -0.28027777681E+03  0.28027777682E+03  0.25500000920E-02 0.  1.
    10030    2    1    2    0    0  0.00000000000E+00  0.00000000000E+00  0.15426898359E+03  0.71482453723E+03  0.69797936912E+03 0.  0.
        5    1    3    3  502    0 -0.14307695708E+03 -0.35067119921E+02  0.40110909527E+03  0.42733045159E+03  0.46999998093E+01 0. -1.
       -5    1    3    3    0  502  0.14307695708E+03  0.35067119921E+02 -0.24684011168E+03  0.28749408564E+03  0.46999998093E+01 0.  1.
</event>
<event>
 5   0  0.4299912E-02  0.7042666E+03  0.7818609E-02  0.9709963E-01
        2   -1    0    0  501    0  0.00000000000E+00  0.00000000000E+00  0.21289872540E+04  0.21289872540E+04  0.25500000920E-02 0.  1.
       -2   -1    0    0    0  501  0.00000000000E+00  0.00000000000E+00 -0.58242647543E+02  0.58242647599E+02  0.25500000920E-02 0. -1.
    10030    2    1    2    0    0  0.00000000000E+00  0.00000000000E+00  0.20707446064E+04  0.21872299016E+04  0.70426658112E+03 0.  0.
        3    1    3    3  502    0 -0.31896726532E+03 -0.10065350044E+03  0.13773729214E+04  0.14174016433E+04  0.10100000352E+00 0.  1.
       -3    1    3    3    0  502  0.31896726532E+03  0.10065350044E+03  0.69337168501E+03  0.76982825830E+03  0.10100000352E+00 0. -1.
</event>
<event>
 5   0  0.1784625E-02  0.7038990E+03  0.7818609E-02  0.9710588E-01
        3   -1    0    0  501    0  0.00000000000E+00  0.00000000000E+00  0.14237412173E+03  0.14237415755E+03  0.10100000352E+00 0. -1.
       -3   -1    0    0    0  501  0.00000000000E+00  0.00000000000E+00 -0.87002059048E+03  0.87002059634E+03  0.10100000352E+00 0.  1.
    10030    2    1    2    0    0  0.00000000000E+00  0.00000000000E+00 -0.72764646875E+03  0.10123947539E+04  0.70389896592E+03 0.  0.
        3    1    3    3  502    0 -0.42135673649E+01  0.78815514258E+02 -0.85712745503E+03  0.86075381138E+03  0.10100000352E+00 0.  1.
       -3    1    3    3    0  502  0.42135673649E+01 -0.78815514258E+02  0.12948098628E+03  0.15164094251E+03  0.10100000352E+00 0. -1.
</event>
<event>
 5   0  0.4299912E-02  0.7012276E+03  0.7818609E-02  0.9715135E-01
        2   -1    0    0  501    0  0.00000000000E+00  0.00000000000E+00  0.12309293583E+04  0.12309293583E+04  0.25500000920E-02 0. -1.
       -2   -1    0    0    0  501  0.00000000000E+00  0.00000000000E+00 -0.99867651954E+02  0.99867651987E+02  0.25500000920E-02 0.  1.
    10030    2    1    2    0    0  0.00000000000E+00  0.00000000000E+00  0.11310617063E+04  0.13307970103E+04  0.70122756580E+03 0.  0.
        3    1    3    3  502    0 -0.29458293241E+03 -0.16865326524E+03  0.73213857986E+03  0.80700058133E+03  0.10100000352E+00 0.  1.
       -3    1    3    3    0  502  0.29458293241E+03  0.16865326524E+03  0.39892312648E+03  0.52379642896E+03  0.10100000352E+00 0. -1.
</event>
<event>
 5   0  0.2684924E-02  0.6342468E+03  0.7818609E-02  0.9836796E-01
        1   -1    0    0  501    0  0.00000000000E+00  0.00000000000E+00  0.13322926234E+03  0.13322926243E+03  0.50400001928E-02 0.  1.
       -1   -1    0    0    0  501  0.00000000000E+00  0.00000000000E+00 -0.75484353196E+03  0.75484353198E+03  0.50400001928E-02 0. -1.
    10030    2    1    2    0    0  0.00000000000E+00  0.00000000000E+00 -0.62161426963E+03  0.88807279441E+03  0.63424678791E+03 0.  0.
        4    1    3    3  502    0 -0.24519158694E+03 -0.59616279482E+02 -0.41864266165E+02  0.25578749924E+03  0.12699999809E+01 0.  1.
       -4    1    3    3    0  502  0.24519158694E+03  0.59616279482E+02 -0.57975000346E+03  0.63228529518E+03  0.12699999809E+01 0. -1.
</event>
<event>
 5   0  0.2684924E-02  0.6743259E+03  0.7818609E-02  0.9762174E-01
       -1   -1    0    0    0  501  0.00000000000E+00  0.00000000000E+00  0.40586903720E+03  0.40586903723E+03  0.50400001928E-02 0. -1.
        1   -1    0    0  501    0  0.00000000000E+00  0.00000000000E+00 -0.28008752882E+03  0.28008752887E+03  0.50400001928E-02 0.  1.
    10030    2    1    2    0    0  0.00000000000E+00  0.00000000000E+00  0.12578150838E+03  0.68595656610E+03  0.67432590246E+03 0.  0.
        4    1    3    3  502    0  0.22459441677E+02 -0.33640874151E+03  0.64320302488E+02  0.34324041443E+03  0.12699999809E+01 0.  1.
       -4    1    3    3    0  502 -0.22459441677E+02  0.33640874151E+03  0.61461205890E+02  0.34271615167E+03  0.12699999809E+01 0. -1.
</event>
<event>
 5   0  0.2751729E-02  0.6922988E+03  0.7818609E-02  0.9730494E-01
        1   -1    0    0  501    0  0.00000000000E+00  0.00000000000E+00  0.75969468775E+03  0.75969468776E+03  0.50400001928E-02 0. -1.
       -1   -1    0    0    0  501  0.00000000000E+00  0.00000000000E+00 -0.15772046965E+03  0.15772046973E+03  0.50400001928E-02 0.  1.
    10030    2    1    2    0    0  0.00000000000E+00  0.00000000000E+00  0.60197421810E+03  0.91741515750E+03  0.69229878806E+03 0.  0.
        1    1    3    3  502    0  0.90858713405E+02 -0.30833498585E+03  0.47117572721E+03  0.57037911536E+03  0.50400001928E-02 0. -1.
       -1    1    3    3    0  502 -0.90858713405E+02  0.30833498585E+03  0.13079849089E+03  0.34703604214E+03  0.50400001928E-02 0.  1.
</event>
<event>
 5   0  0.2777999E-02  0.6989987E+03  0.7818609E-02  0.9718946E-01
        1   -1    0    0  501    0  0.00000000000E+00  0.00000000000E+00  0.31532667438E+03  0.31532667442E+03  0.50400001928E-02 0.  1.
       -1   -1    0    0    0  501  0.00000000000E+00  0.00000000000E+00 -0.38737534566E+03  0.38737534570E+03  0.50400001928E-02 0. -1.
    10030    2    1    2    0    0  0.00000000000E+00  0.00000000000E+00 -0.72048671285E+02  0.70270202011E+03  0.69899865382E+03 0.  0.
        5    1    3    3  502    0  0.26495402926E+02 -0.20504824223E+03 -0.31926322062E+03  0.38039174814E+03  0.46999998093E+01 0. -1.
       -5    1    3    3    0  502 -0.26495402926E+02  0.20504824223E+03  0.24721454933E+03  0.32231027197E+03  0.46999998093E+01 0.  1.
</event>
<event>
 5   0  0.2758681E-02  0.6854793E+03  0.7818609E-02  0.9742392E-01
        1   -1    0    0  501    0  0.00000000000E+00  0.00000000000E+00  0.10941341881E+04  0.10941341881E+04  0.50400001928E-02 0.  1.
       -1   -1    0    0    0  501  0.00000000000E+00  0.00000000000E+00 -0.10736385726E+03  0.10736385738E+03  0.50400001928E-02 0. -1.
    10030    2    1    2    0    0  0.00000000000E+00  0.00000000000E+00  0.98677033086E+03  0.12014980455E+04  0.68547929765E+03 0.  0.
        3    1    3    3  502    0 -0.17021619230E+03 -0.12122192350E+03  0.17213847772E+02  0.20967745137E+03  0.10100000352E+00 0. -1.
       -3    1    3    3    0  502  0.17021619230E+03  0.12122192350E+03  0.96955648309E+03  0.99182059414E+03  0.10100000352E+00 0.  1.
</event>
<event>
 5   0  0.2750139E-02  0.7107612E+03  0.7818609E-02  0.9699004E-01
       -1   -1    0    0    0  501  0.00000000000E+00  0.00000000000E+00  0.14049623372E+04  0.14049623372E+04  0.50400001928E-02 0. -1.
        1   -1    0    0  501    0  0.00000000000E+00  0.00000000000E+00 -0.89892358034E+02  0.89892358175E+02  0.50400001928E-02 0.  1.
    10030    2    1    2    0    0  0.00000000000E+00  0.00000000000E+00  0.13150699792E+04  0.14948546954E+04  0.71076121885E+03 0.  0.
        2    1    3    3  502    0  0.16185644313E+03  0.31638084094E+03  0.65539755045E+03  0.74554697628E+03  0.25500000920E-02 0.  1.
       -2    1    3    3    0  502 -0.16185644313E+03 -0.31638084094E+03  0.65967242874E+03  0.74930771912E+03  0.25500000920E-02 0. -1.
</event>
<event>
 5   0  0.1784625E-02  0.7154450E+03  0.7818609E-02  0.9691178E-01
        4   -1    0    0  501    0  0.00000000000E+00  0.00000000000E+00  0.20020986253E+03  0.20021389052E+03  0.12699999809E+01 0. -1.
       -4   -1    0    0    0  501  0.00000000000E+00  0.00000000000E+00 -0.63914510127E+03  0.63914636303E+03  0.12699999809E+01 0.  1.
    10030    2    1    2    0    0  0.00000000000E+00  0.00000000000E+00 -0.43893523873E+03  0.83936025354E+03  0.71544496045E+03 0.  0.
        5    1    3    3  502    0  0.20922394372E+03 -0.28617773562E+03 -0.16355963425E+03  0.39044359253E+03  0.46999998093E+01 0. -1.
       -5    1    3    3    0  502 -0.20922394372E+03  0.28617773562E+03 -0.27537560448E+03  0.44891666101E+03  0.46999998093E+01 0.  1.
</event>
<event>
 5   0  0.4503289E-02  0.7043846E+03  0.7818609E-02  0.9709763E-01
       -2   -1    0    0    0  501  0.00000000000E+00  0.00000000000E+00  0.12279826239E+04  0.12279826239E+04  0.25500000920E-02 0.  1.
        2   -1    0    0  501    0  0.00000000000E+00  0.00000000000E+00 -0.10101071429E+03  0.10101071432E+03  0.25500000920E-02 0. -1.
    10030    2    1    2    0    0  0.00000000000E+00  0.00000000000E+00  0.11269719096E+04  0.13289933382E+04  0.70438455973E+03 0.  0.
        2    1    3    3  502    0 -0.33741335715E+02 -0.33503928835E+03  0.75819208021E+03  0.82960534773E+03  0.25500000920E-02 0.  1.
       -2    1    3    3    0  502  0.33741335715E+02  0.33503928835E+03  0.36877982942E+03  0.49938799052E+03  0.25500000920E-02 0. -1.
</event>
<event>
 5   0  0.2758681E-02  0.7042594E+03  0.7818609E-02  0.9709976E-01
       -1   -1    0    0    0  501  0.00000000000E+00  0.00000000000E+00  0.82173931941E+02  0.82173932095E+02  0.50400001928E-02 0.  1.
        1   -1    0    0  501    0  0.00000000000E+00  0.00000000000E+00 -0.15089374264E+04  0.15089374264E+04  0.50400001928E-02 0. -1.
    10030    2    1    2    0    0  0.00000000000E+00  0.00000000000E+00 -0.14267634945E+04  0.15911113585E+04  0.70425938832E+03 0.  0.
        3    1    3    3  502    0 -0.11403858940E+03  0.33185920542E+03 -0.64712777712E+03  0.73614516382E+03  0.10100000352E+00 0.  1.
       -3    1    3    3    0  502  0.11403858940E+03 -0.33185920542E+03 -0.77963571734E+03  0.85496619468E+03  0.10100000352E+00 0. -1.
</event>
<event>
 5   0  0.2751729E-02  0.7008850E+03  0.7818609E-02  0.9715720E-01
        1   -1    0    0  501    0  0.00000000000E+00  0.00000000000E+00  0.44355190189E+03  0.44355190192E+03  0.50400001928E-02 0. -1.
       -1   -1    0    0    0  501  0.00000000000E+00  0.00000000000E+00 -0.27687844641E+03  0.27687844645E+03  0.50400001928E-02 0.  1.
    10030    2    1    2    0    0  0.00000000000E+00  0.00000000000E+00  0.16667345548E+03  0.72043034837E+03  0.70088504485E+03 0.  0.
        1    1    3    3  502    0  0.25608886704E+03  0.81333312689E+02 -0.14791113642E+03  0.30671537274E+03  0.50400001928E-02 0.  1.
       -1    1    3    3    0  502 -0.25608886704E+03 -0.81333312689E+02  0.31458459190E+03  0.41371497563E+03  0.50400001928E-02 0. -1.
</event>
<event>
 5   0  0.4503289E-02  0.7047268E+03  0.7818609E-02  0.9709183E-01
       -2   -1    0    0    0  501  0.00000000000E+00  0.00000000000E+00  0.29282566112E+03  0.29282566113E+03  0.25500000920E-02 0.  1.
        2   -1    0    0  501    0  0.00000000000E+00  0.00000000000E+00 -0.42400640267E+03  0.42400640268E+03  0.25500000920E-02 0. -1.
    10030    2    1    2    0    0  0.00000000000E+00  0.00000000000E+00 -0.13118074155E+03  0.71683206381E+03  0.70472677028E+03 0.  0.
        2    1    3    3  502    0  0.59383374920E+02 -0.34273288929E+03 -0.83409387033E+01  0.34793934799E+03  0.25500000920E-02 0.  1.
       -2    1    3    3    0  502 -0.59383374920E+02  0.34273288929E+03 -0.12283980284E+03  0.36889271582E+03  0.25500000920E-02 0. -1.
</event>
<event>
 5   0  0.2750139E-02  0.7759323E+03  0.7818609E-02  0.9595523E-01
       -1   -1    0    0    0  501  0.00000000000E+00  0.00000000000E+00  0.20896243094E+03  0.20896243100E+03  0.50400001928E-02 0.  1.
        1   -1    0    0  501    0  0.00000000000E+00  0.00000000000E+00 -0.72030997424E+03  0.72030997426E+03  0.50400001928E-02 0. -1.
    10030    2    1    2    0    0  0.00000000000E+00  0.00000000000E+00 -0.51134754330E+03  0.92927240525E+03  0.77593227354E+03 0.  0.
        2    1    3    3  502    0  0.41958892469E+02  0.19410746085E+03 -0.65482376012E+03  0.68427509953E+03  0.25500000920E-02 0. -1.
       -2    1    3    3    0  502 -0.41958892469E+02 -0.19410746085E+03  0.14347621681E+03  0.24499730572E+03  0.25500000920E-02 0.  1.
</event>
<event>
 5   0  0.2758681E-02  0.7208754E+03  0.7818609E-02  0.9682184E-01
       -1   -1    0    0    0  501  0.00000000000E+00  0.00000000000E+00  0.71846908833E+03  0.71846908835E+03  0.50400001928E-02 0. -1.
        1   -1    0    0  501    0  0.00000000000E+00  0.00000000000E+00 -0.18082245866E+03  0.18082245873E+03  0.50400001928E-02 0.  1.
    10030    2    1    2    0    0  0.00000000000E+00  0.00000000000E+00  0.53764662967E+03  0.89929154708E+03  0.72087543185E+03 0.  0.
        3    1    3    3  502    0  0.29005055645E+03 -0.54720088737E+02  0.52688300754E+03  0.60392824677E+03  0.10100000352E+00 0. -1.
       -3    1    3    3    0  502 -0.29005055645E+03  0.54720088737E+02  0.10763622132E+02  0.29536330031E+03  0.10100000352E+00 0.  1.
</event>
<event>
 5   0  0.4526837E-02  0.6517741E+03  0.7818609E-02  0.9803456E-01
       -2   -1    0    0    0  501  0.00000000000E+00  0.00000000000E+00  0.18454423076E+03  0.18454423077E+03  0.25500000920E-02 0. -1.
        2   -1    0    0  501    0  0.00000000000E+00  0.00000000000E+00 -0.57548458604E+03  0.57548458605E+03  0.25500000920E-02 0.  1.
    10030    2    1    2    0    0  0.00000000000E+00  0.00000000000E+00 -0.39094035529E+03  0.76002881682E+03  0.65177407206E+03 0.  0.
        1    1    3    3  502    0  0.13967696319E+03 -0.26174087778E+03 -0.38223059518E+02  0.29913031183E+03  0.50400001928E-02 0. -1.
       -1    1    3    3    0  502 -0.13967696319E+03  0.26174087778E+03 -0.35271729577E+03  0.46089850500E+03  0.50400001928E-02 0.  1.
</event>
<event>
 5   0  0.4503289E-02  0.7095723E+03  0.7818609E-02  0.9701001E-01
       -2   -1    0    0    0  501  0.00000000000E+00  0.00000000000E+00  0.18701472669E+03  0.18701472671E+03  0.25500000920E-02 0.  1.
        2   -1    0    0  501    0  0.00000000000E+00  0.00000000000E+00 -0.67306575261E+03  0.67306575262E+03  0.25500000920E-02 0. -1.
    10030    2    1    2    0    0  0.00000000000E+00  0.00000000000E+00 -0.48605102592E+03  0.86008047933E+03  0.70957228746E+03 0.  0.
        2    1    3    3  502    0 -0.30604940743E+02 -0.12914857260E+03  0.15578888006E+03  0.20466116231E+03  0.25500000920E-02 0.  1.
       -2    1    3    3    0  502  0.30604940743E+02  0.12914857260E+03 -0.64183990598E+03  0.65541931702E+03  0.25500000920E-02 0. -1.
</event>
<event>
 5   0  0.4365492E-02  0.6846522E+03  0.7818609E-02  0.9743845E-01
        2   -1    0    0  501    0  0.00000000000E+00  0.00000000000E+00  0.45657039292E+03  0.45657039293E+03  0.25500000920E-02 0. -1.
       -2   -1    0    0    0  501  0.00000000000E+00  0.00000000000E+00 -0.25666832342E+03  0.25666832343E+03  0.25500000920E-02 0.  1.
    10030    2    1    2    0    0  0.00000000000E+00  0.00000000000E+00  0.19990206950E+03  0.71323871636E+03  0.68465219574E+03 0.  0.
        4    1    3    3  502    0 -0.47743566335E+02 -0.28484760185E+03  0.29138420342E+03  0.41027304482E+03  0.12699999809E+01 0. -1.
       -4    1    3    3    0  502  0.47743566335E+02  0.28484760185E+03 -0.91482133915E+02  0.30296567154E+03  0.12699999809E+01 0.  1.
</event>
<event>
 5   0  0.4420645E-02  0.6916754E+03  0.7818609E-02  0.9731575E-01
        2   -1    0    0  501    0  0.00000000000E+00  0.00000000000E+00  0.26455799716E+03  0.26455799717E+03  0.25500000920E-02 0.  1.
       -2   -1    0    0    0  501  0.00000000000E+00  0.00000000000E+00 -0.45208877413E+03  0.45208877414E+03  0.25500000920E-02 0. -1.
    10030    2    1    2    0    0  0.00000000000E+00  0.00000000000E+00 -0.18753077698E+03  0.71664677131E+03  0.69167535919E+03 0.  0.
        5    1    3    3  502    0  0.49243815650E+02 -0.26211171816E+03 -0.32183537133E+03  0.41800430909E+03  0.46999998093E+01 0. -1.
       -5    1    3    3    0  502 -0.49243815650E+02  0.26211171816E+03  0.13430459436E+03  0.29864246222E+03  0.46999998093E+01 0.  1.
</event>
<event>
 5   0  0.4365492E-02  0.6686893E+03  0.7818609E-02  0.9772328E-01
        2   -1    0    0  501    0  0.00000000000E+00  0.00000000000E+00  0.72799810988E+03  0.72799810988E+03  0.25500000920E-02 0. -1.
       -2   -1    0    0    0  501  0.00000000000E+00  0.00000000000E+00 -0.15355309314E+03  0.15355309316E+03  0.25500000920E-02 0.  1.
    10030    2    1    2    0    0  0.00000000000E+00  0.00000000000E+00  0.57444501674E+03  0.88155120304E+03  0.66868934964E+03 0.  0.
        4    1    3    3  502    0 -0.94505250018E+02  0.86464664244E+02  0.69436441271E+03  0.70608139119E+03  0.12699999809E+01 0. -1.
       -4    1    3    3    0  502  0.94505250018E+02 -0.86464664244E+02 -0.11991939597E+03  0.17546981186E+03  0.12699999809E+01 0.  1.
</event>
<event>
 5   0  0.4526837E-02  0.7095380E+03  0.7818609E-02  0.9701059E-01
        2   -1    0    0  501    0  0.00000000000E+00  0.00000000000E+00  0.13789407750E+04  0.13789407750E+04  0.25500000920E-02 0.  1.
       -2   -1    0    0    0  501  0.00000000000E+00  0.00000000000E+00 -0.91273699454E+02  0.91273699490E+02  0.25500000920E-02 0. -1.
    10030    2    1    2    0    0  0.00000000000E+00  0.00000000000E+00  0.12876670755E+04  0.14702144745E+04  0.70953795075E+03 0.  0.
        1    1    3    3  502    0  0.76267021981E+02  0.27351648692E+03  0.10845235770E+04  0.11210795317E+04  0.50400001928E-02 0.  1.
       -1    1    3    3    0  502 -0.76267021981E+02 -0.27351648692E+03  0.20314349853E+03  0.34913494279E+03  0.50400001928E-02 0. -1.
</event>
<event>
 5   0  0.2750139E-02  0.7064868E+03  0.7818609E-02  0.9706203E-01
       -1   -1    0    0    0  501  0.00000000000E+00  0.00000000000E+00  0.20494693499E+03  0.20494693506E+03  0.50400001928E-02 0.  1.
        1   -1    0    0  501    0  0.00000000000E+00  0.00000000000E+00 -0.60884494641E+03  0.60884494643E+03  0.50400001928E-02 0. -1.
    10030    2    1    2    0    0  0.00000000000E+00  0.00000000000E+00 -0.40389801141E+03  0.81379188148E+03  0.70648681711E+03 0.  0.
        2    1    3    3  502    0  0.25483038541E+03  0.12210061213E+03 -0.44612106466E+03  0.52808246435E+03  0.25500000920E-02 0. -1.
       -2    1    3    3    0  502 -0.25483038541E+03 -0.12210061213E+03  0.42223053246E+02  0.28570941714E+03  0.25500000920E-02 0.  1.
</event>
<event>
 5   0  0.4503289E-02  0.7016165E+03  0.7818609E-02  0.9714472E-01
        2   -1    0    0  501    0  0.00000000000E+00  0.00000000000E+00  0.80657484554E+03  0.80657484554E+03  0.25500000920E-02 0. -1.
       -2   -1    0    0    0  501  0.00000000000E+00  0.00000000000E+00 -0.15257905060E+03  0.15257905062E+03  0.25500000920E-02 0.  1.
    10030    2    1    2    0    0  0.00000000000E+00  0.00000000000E+00  0.65399579494E+03  0.95915389616E+03  0.70161648835E+03 0.  0.
        2    1    3    3  502    0 -0.13853801069E+03  0.13996422735E+03  0.72387879748E+03  0.75018882876E+03  0.25500000920E-02 0. -1.
       -2    1    3    3    0  502  0.13853801069E+03 -0.13996422735E+03 -0.69883002547E+02  0.20896506740E+03  0.25500000920E-02 0.  1.
</event>
<event>
 5   0  0.4299912E-02  0.7052603E+03  0.7818609E-02  0.9708278E-01
        2   -1    0    0  501    0  0.00000000000E+00  0.00000000000E+00  0.13308820528E+04  0.13308820528E+04  0.25500000920E-02 0. -1.
       -2   -1    0    0    0  501  0.00000000000E+00  0.00000000000E+00 -0.93432794591E+02  0.93432794626E+02  0.25500000920E-02 0.  1.
    10030    2    1    2    0    0  0.00000000000E+00  0.00000000000E+00  0.12374492582E+04  0.14243148474E+04  0.70526031928E+03 0.  0.
        3    1    3    3  502    0  0.46110295740E+02  0.46274987558E+02 -0.81105715530E+02  0.10414260002E+03  0.10100000352E+00 0.  1.
       -3    1    3    3    0  502 -0.46110295740E+02 -0.46274987558E+02  0.13185549737E+04  0.13201722474E+04  0.10100000352E+00 0. -1.
</event>
<event>
 5   0  0.4420645E-02  0.6994755E+03  0.7818609E-02  0.9718130E-01
       -2   -1    0    0    0  501  0.00000000000E+00  0.00000000000E+00  0.43840559296E+03  0.43840559297E+03  0.25500000920E-02 0. -1.
        2   -1    0    0  501    0  0.00000000000E+00  0.00000000000E+00 -0.27900307449E+03  0.27900307450E+03  0.25500000920E-02 0.  1.
    10030    2    1    2    0    0  0.00000000000E+00  0.00000000000E+00  0.15940251847E+03  0.71740866747E+03  0.69947554158E+03 0.  0.
        5    1    3    3  502    0 -0.29382553819E+03  0.17522589694E+03  0.53382174920E+01  0.34218145539E+03  0.46999998093E+01 0.  1.
       -5    1    3    3    0  502  0.29382553819E+03 -0.17522589694E+03  0.15406430098E+03  0.37522721208E+03  0.46999998093E+01 0. -1.
</event>
<event>
 5   0  0.4526837E-02  0.6941598E+03  0.7818609E-02  0.9727272E-01
       -2   -1    0    0    0  501  0.00000000000E+00  0.00000000000E+00  0.28634638453E+03  0.28634638454E+03  0.25500000920E-02 0.  1.
        2   -1    0    0  501    0  0.00000000000E+00  0.00000000000E+00 -0.42069490648E+03  0.42069490649E+03  0.25500000920E-02 0. -1.
    10030    2    1    2    0    0  0.00000000000E+00  0.00000000000E+00 -0.13434852195E+03  0.70704129102E+03  0.69415982444E+03 0.  0.
        1    1    3    3  502    0 -0.19519201239E+03  0.21211360241E+03 -0.26408100200E+03  0.39093589969E+03  0.50400001928E-02 0. -1.
       -1    1    3    3    0  502  0.19519201239E+03 -0.21211360241E+03  0.12973248005E+03  0.31610539133E+03  0.50400001928E-02 0.  1.
</event>
<event>
 5   0  0.2751729E-02  0.6940730E+03  0.7818609E-02  0.9727422E-01
       -1   -1    0    0    0  501  0.00000000000E+00  0.00000000000E+00  0.30196566126E+03  0.30196566130E+03  0.50400001928E-02 0.  1.
        1   -1    0    0  501    0  0.00000000000E+00  0.00000000000E+00 -0.39883457405E+03  0.39883457409E+03  0.50400001928E-02 0. -1.
    10030    2    1    2    0    0  0.00000000000E+00  0.00000000000E+00 -0.96868912791E+02  0.70080023539E+03  0.69407303914E+03 0.  0.
        1    1    3    3  502    0  0.24076030496E+03  0.15663928383E+03 -0.24508602233E+03  0.37758250496E+03  0.50400001928E-02 0.  1.
       -1    1    3    3    0  502 -0.24076030496E+03 -0.15663928383E+03  0.14821710954E+03  0.32321773043E+03  0.50400001928E-02 0. -1.
</event>
<event>
 5   0  0.4503289E-02  0.7080215E+03  0.7818609E-02  0.9703612E-01
        2   -1    0    0  501    0  0.00000000000E+00  0.00000000000E+00  0.22401046905E+03  0.22401046906E+03  0.25500000920E-02 0. -1.
       -2   -1    0    0    0  501  0.00000000000E+00  0.00000000000E+00 -0.55945418425E+03  0.55945418425E+03  0.25500000920E-02 0.  1.
    10030    2    1    2    0    0  0.00000000000E+00  0.00000000000E+00 -0.33544371520E+03  0.78346465332E+03  0.70802145231E+03 0.  0.
        2    1    3    3  502    0  0.26388764762E+03 -0.16489488922E+03 -0.35451862468E+03  0.47171015498E+03  0.25500000920E-02 0.  1.
       -2    1    3    3    0  502 -0.26388764762E+03  0.16489488922E+03  0.19074909481E+02  0.31175449834E+03  0.25500000920E-02 0. -1.
</event>
<event>
 5   0  0.2758681E-02  0.6945464E+03  0.7818609E-02  0.9726604E-01
        1   -1    0    0  501    0  0.00000000000E+00  0.00000000000E+00  0.32493177613E+03  0.32493177617E+03  0.50400001928E-02 0.  1.
       -1   -1    0    0    0  501  0.00000000000E+00  0.00000000000E+00 -0.37115076293E+03  0.37115076296E+03  0.50400001928E-02 0. -1.
    10030    2    1    2    0    0  0.00000000000E+00  0.00000000000E+00 -0.46218986797E+02  0.69608253913E+03  0.69454640345E+03 0.  0.
        3    1    3    3  502    0 -0.41296678505E+02  0.21495459021E+03 -0.29331248958E+03  0.36598240156E+03  0.10100000352E+00 0. -1.
       -3    1    3    3    0  502  0.41296678505E+02 -0.21495459021E+03  0.24709350278E+03  0.33010013757E+03  0.10100000352E+00 0.  1.
</event>
<event>
 5   0  0.4420645E-02  0.7062161E+03  0.7818609E-02  0.9706661E-01
       -2   -1    0    0    0  501  0.00000000000E+00  0.00000000000E+00  0.12233090572E+03  0.12233090574E+03  0.25500000920E-02 0.  1.
        2   -1    0    0  501    0  0.00000000000E+00  0.00000000000E+00 -0.10192460450E+04  0.10192460450E+04  0.25500000920E-02 0. -1.
    10030    2    1    2    0    0  0.00000000000E+00  0.00000000000E+00 -0.89691513933E+03  0.11415769508E+04  0.70621609117E+03 0.  0.
        5    1    3    3  502    0  0.65677500264E+02  0.11228952584E+03  0.82130572631E+02  0.15391553727E+03  0.46999998093E+01 0.  1.
       -5    1    3    3    0  502 -0.65677500264E+02 -0.11228952584E+03 -0.97904571196E+03  0.98766141352E+03  0.46999998093E+01 0. -1.
</event>
<event>
 5   0  0.2750139E-02  0.6980790E+03  0.7818609E-02  0.9720523E-01
        1   -1    0    0  501    0  0.00000000000E+00  0.00000000000E+00  0.80453413253E+03  0.80453413254E+03  0.50400001928E-02 0. -1.
       -1   -1    0    0    0  501  0.00000000000E+00  0.00000000000E+00 -0.15142749619E+03  0.15142749628E+03  0.50400001928E-02 0.  1.
    10030    2    1    2    0    0  0.00000000000E+00  0.00000000000E+00  0.65310663634E+03  0.95596162882E+03  0.69807904807E+03 0.  0.
        2    1    3    3  502    0 -0.16312240846E+03 -0.15243394790E+03  0.69396462720E+03  0.72899378079E+03  0.25500000920E-02 0. -1.
       -2    1    3    3    0  502  0.16312240846E+03  0.15243394790E+03 -0.40857990863E+02  0.22696784803E+03  0.25500000920E-02 0.  1.
</event>
<event>
 5   0  0.4365492E-02  0.7052913E+03  0.7818609E-02  0.9708226E-01
       -2   -1    0    0    0  501  0.00000000000E+00  0.00000000000E+00  0.74687115103E+02  0.74687115147E+02  0.25500000920E-02 0. -1.
        2   -1    0    0  501    0  0.00000000000E+00  0.00000000000E+00 -0.16650656953E+04  0.16650656953E+04  0.25500000920E-02 0.  1.
    10030    2    1    2    0    0  0.00000000000E+00  0.00000000000E+00 -0.15903785802E+04  0.17397528105E+04  0.70529129665E+03 0.  0.
        4    1    3    3  502    0 -0.38665297940E+02 -0.31888313290E+03 -0.43623447532E+03  0.54174125565E+03  0.12699999809E+01 0. -1.
       -4    1    3    3    0  502  0.38665297940E+02  0.31888313290E+03 -0.11541441049E+04  0.11980115548E+04  0.12699999809E+01 0.  1.
</event>
<event>
 5   0  0.2751729E-02  0.7339381E+03  0.7818609E-02  0.9660891E-01
       -1   -1    0    0    0  501  0.00000000000E+00  0.00000000000E+00  0.32418017243E+03  0.32418017247E+03  0.50400001928E-02 0. -1.
        1   -1    0    0  501    0  0.00000000000E+00  0.00000000000E+00 -0.41540564445E+03  0.41540564448E+03  0.50400001928E-02 0.  1.
    10030    2    1    2    0    0  0.00000000000E+00  0.00000000000E+00 -0.91225472014E+02  0.73958581695E+03  0.73393807224E+03 0.  0.
        1    1    3    3  502    0 -0.27846330134E+02  0.20275758819E+03 -0.35255510900E+03  0.40765323816E+03  0.50400001928E-02 0.  1.
       -1    1    3    3    0  502  0.27846330134E+02 -0.20275758819E+03  0.26132963699E+03  0.33193257879E+03  0.50400001928E-02 0. -1.
</event>
<event>
 5   0  0.4526837E-02  0.7004808E+03  0.7818609E-02  0.9716410E-01
       -2   -1    0    0    0  501  0.00000000000E+00  0.00000000000E+00  0.12753289988E+03  0.12753289990E+03  0.25500000920E-02 0. -1.
        2   -1    0    0  501    0  0.00000000000E+00  0.00000000000E+00 -0.96185630587E+03  0.96185630587E+03  0.25500000920E-02 0.  1.
    10030    2    1    2    0    0  0.00000000000E+00  0.00000000000E+00 -0.83432340599E+03  0.10893892058E+04  0.70048076053E+03 0.  0.
        1    1    3    3  502    0 -0.24684267049E+03  0.95801176517E+02 -0.60619419477E+02  0.27163188959E+03  0.50400001928E-02 0. -1.
       -1    1    3    3    0  502  0.24684267049E+03 -0.95801176517E+02 -0.77370398651E+03  0.81775731618E+03  0.50400001928E-02 0.  1.
</event>
<event>
 5   0  0.2684924E-02  0.6892874E+03  0.7818609E-02  0.9735730E-01
       -1   -1    0    0    0  501  0.00000000000E+00  0.00000000000E+00  0.19550556415E+03  0.19550556422E+03  0.50400001928E-02 0. -1.
        1   -1    0    0  501    0  0.00000000000E+00  0.00000000000E+00 -0.60754939128E+03  0.60754939130E+03  0.50400001928E-02 0.  1.
    10030    2    1    2    0    0  0.00000000000E+00  0.00000000000E+00 -0.41204382713E+03  0.80305495552E+03  0.68928741909E+03 0.  0.
        4    1    3    3  502    0 -0.26299419135E+03  0.10930912902E+03 -0.43212358469E+03  0.51753921176E+03  0.12699999809E+01 0.  1.
       -4    1    3    3    0  502  0.26299419135E+03 -0.10930912902E+03  0.20079757563E+02  0.28551574376E+03  0.12699999809E+01 0. -1.
</event>
<event>
 5   0  0.1784625E-02  0.7146810E+03  0.7818609E-02  0.9692450E-01
       -3   -1    0    0    0  501  0.00000000000E+00  0.00000000000E+00  0.52987402161E+03  0.52987403124E+03  0.10100000352E+00 0. -1.
        3   -1    0    0  501    0  0.00000000000E+00  0.00000000000E+00 -0.24098602641E+03  0.24098604757E+03  0.10100000352E+00 0.  1.
    10030    2    1    2    0    0  0.00000000000E+00  0.00000000000E+00  0.28888799520E+03  0.77086007881E+03  0.71468103887E+03 0.  0.
        2    1    3    3  502    0 -0.10239198134E+03  0.28110864063E+02 -0.22357750233E+03  0.24751007671E+03  0.25500000920E-02 0.  1.
       -2    1    3    3    0  502  0.10239198134E+03 -0.28110864063E+02  0.51246549753E+03  0.52335000209E+03  0.25500000920E-02 0. -1.
</event>
<event>
 5   0  0.4299912E-02  0.7086100E+03  0.7818609E-02  0.9702620E-01
        2   -1    0    0  501    0  0.00000000000E+00  0.00000000000E+00  0.17215864917E+04  0.17215864917E+04  0.25500000920E-02 0. -1.
       -2   -1    0    0    0  501  0.00000000000E+00  0.00000000000E+00 -0.72916492758E+02  0.72916492802E+02  0.25500000920E-02 0.  1.
    10030    2    1    2    0    0  0.00000000000E+00  0.00000000000E+00  0.16486699990E+04  0.17945029845E+04  0.70861004508E+03 0.  0.
        3    1    3    3  502    0 -0.11396008611E+03  0.33462184472E+03  0.76369627623E+03  0.84154066611E+03  0.10100000352E+00 0. -1.
       -3    1    3    3    0  502  0.11396008611E+03 -0.33462184472E+03  0.88497372274E+03  0.95296231842E+03  0.10100000352E+00 0.  1.
</event>
<event>
 5   0  0.2758681E-02  0.7080514E+03  0.7818609E-02  0.9703561E-01
        1   -1    0    0  501    0  0.00000000000E+00  0.00000000000E+00  0.78762929325E+03  0.78762929327E+03  0.50400001928E-02 0. -1.
       -1   -1    0    0    0  501  0.00000000000E+00  0.00000000000E+00 -0.15912839839E+03  0.15912839847E+03  0.50400001928E-02 0.  1.
    10030    2    1    2    0    0  0.00000000000E+00  0.00000000000E+00  0.62850089486E+03  0.94675769174E+03  0.70805137668E+03 0.  0.
        3    1    3    3  502    0 -0.30893585061E+03 -0.39268656902E+02  0.89108375894E+02  0.32391928017E+03  0.10100000352E+00 0.  1.
       -3    1    3    3    0  502  0.30893585061E+03  0.39268656902E+02  0.53939251897E+03  0.62283841157E+03  0.10100000352E+00 0. -1.
</event>
<event>
 5   0  0.4526837E-02  0.6959318E+03  0.7818609E-02  0.9724215E-01
       -2   -1    0    0    0  501  0.00000000000E+00  0.00000000000E+00  0.33646759336E+03  0.33646759337E+03  0.25500000920E-02 0. -1.
        2   -1    0    0  501    0  0.00000000000E+00  0.00000000000E+00 -0.35985713731E+03  0.35985713732E+03  0.25500000920E-02 0.  1.
    10030    2    1    2    0    0  0.00000000000E+00  0.00000000000E+00 -0.23389543945E+02  0.69632473069E+03  0.69593179249E+03 0.  0.
        1    1    3    3  502    0 -0.44616849981E+02 -0.33042066068E+03 -0.11130895067E+03  0.35150840507E+03  0.50400001928E-02 0.  1.
       -1    1    3    3    0  502  0.44616849981E+02  0.33042066068E+03  0.87919406723E+02  0.34481632562E+03  0.50400001928E-02 0. -1.
</event>
<event>
 5   0  0.2684924E-02  0.7096706E+03  0.7818609E-02  0.9700836E-01
       -1   -1    0    0    0  501  0.00000000000E+00  0.00000000000E+00  0.82570710524E+02  0.82570710678E+02  0.50400001928E-02 0.  1.
        1   -1    0    0  501    0  0.00000000000E+00  0.00000000000E+00 -0.15248515572E+04  0.15248515572E+04  0.50400001928E-02 0. -1.
    10030    2    1    2    0    0  0.00000000000E+00  0.00000000000E+00 -0.14422808467E+04  0.16074222679E+04  0.70967056203E+03 0.  0.
        4    1    3    3  502    0 -0.14557440263E+03 -0.13780910373E+03 -0.13843066451E+04  0.13987457797E+04  0.12699999809E+01 0. -1.
       -4    1    3    3    0  502  0.14557440263E+03  0.13780910373E+03 -0.57974201624E+02  0.20867648819E+03  0.12699999809E+01 0.  1.
</event>
<event>
 5   0  0.4299912E-02  0.6970084E+03  0.7818609E-02  0.9722362E-01
       -2   -1    0    0    0  501  0.00000000000E+00  0.00000000000E+00  0.12870071288E+03  0.12870071290E+03  0.25500000920E-02 0.  1.
        2   -1    0    0  501    0  0.00000000000E+00  0.00000000000E+00 -0.94370255605E+03  0.94370255605E+03  0.25500000920E-02 0. -1.
    10030    2    1    2    0    0  0.00000000000E+00  0.00000000000E+00 -0.81500184317E+03  0.10724032690E+04  0.69700844104E+03 0.  0.
        3    1    3    3  502    0  0.26122061352E+03 -0.18211100479E+03 -0.18961628863E+03  0.37061431989E+03  0.10100000352E+00 0.  1.
       -3    1    3    3    0  502 -0.26122061352E+03  0.18211100479E+03 -0.62538555454E+03  0.70178894906E+03  0.10100000352E+00 0. -1.
</event>
<event>
 5   0  0.2684924E-02  0.7032740E+03  0.7818609E-02  0.9711650E-01
       -1   -1    0    0    0  501  0.00000000000E+00  0.00000000000E+00  0.11835177550E+03  0.11835177560E+03  0.50400001928E-02 0. -1.
        1   -1    0    0  501    0  0.00000000000E+00  0.00000000000E+00 -0.10447547468E+04  0.10447547468E+04  0.50400001928E-02 0.  1.
    10030    2    1    2    0    0  0.00000000000E+00  0.00000000000E+00 -0.92640297131E+03  0.11631065224E+04  0.70327399870E+03 0.  0.
        4    1    3    3  502    0 -0.27288589754E+03 -0.15003614836E+03 -0.19311577115E+03  0.36643263072E+03  0.12699999809E+01 0. -1.
       -4    1    3    3    0  502  0.27288589754E+03  0.15003614836E+03 -0.73328720016E+03  0.79667389170E+03  0.12699999809E+01 0.  1.
</event>
<event>
 5   0  0.2777999E-02  0.7259242E+03  0.7818609E-02  0.9673897E-01
       -1   -1    0    0    0  501  0.00000000000E+00  0.00000000000E+00  0.10610399374E+03  0.10610399386E+03  0.50400001928E-02 0. -1.
        1   -1    0    0  501    0  0.00000000000E+00  0.00000000000E+00 -0.12416260418E+04  0.12416260418E+04  0.50400001928E-02 0.  1.
    10030    2    1    2    0    0  0.00000000000E+00  0.00000000000E+00 -0.11355220480E+04  0.13477300356E+04  0.72592418846E+03 0.  0.
        5    1    3    3  502    0  0.15047870192E+03  0.87858974561E+01  0.45184137983E+02  0.15743166152E+03  0.46999998093E+01 0. -1.
       -5    1    3    3    0  502 -0.15047870192E+03 -0.87858974561E+01 -0.11807061860E+04  0.11902983741E+04  0.46999998093E+01 0.  1.
</event>
<event>
 5   0  0.2684924E-02  0.6663101E+03  0.7818609E-02  0.9776647E-01
       -1   -1    0    0    0  501  0.00000000000E+00  0.00000000000E+00  0.19212994597E+03  0.19212994604E+03  0.50400001928E-02 0.  1.
        1   -1    0    0  501    0  0.00000000000E+00  0.00000000000E+00 -0.57769387932E+03  0.57769387934E+03  0.50400001928E-02 0. -1.
    10030    2    1    2    0    0  0.00000000000E+00  0.00000000000E+00 -0.38556393335E+03  0.76982382537E+03  0.66631011955E+03 0.  0.
        4    1    3    3  502    0  0.26810307218E+03  0.47796039898E+02 -0.41449840169E+03  0.49595791822E+03  0.12699999809E+01 0. -1.
       -4    1    3    3    0  502 -0.26810307218E+03 -0.47796039898E+02  0.28934468339E+02  0.27386590715E+03  0.12699999809E+01 0.  1.
</event>
<event>
 5   0  0.2758681E-02  0.7317510E+03  0.7818609E-02  0.9664423E-01
        1   -1    0    0  501    0  0.00000000000E+00  0.00000000000E+00  0.50381929430E+03  0.50381929432E+03  0.50400001928E-02 0.  1.
       -1   -1    0    0    0  501  0.00000000000E+00  0.00000000000E+00 -0.26570020047E+03  0.26570020051E+03  0.50400001928E-02 0. -1.
    10030    2    1    2    0    0  0.00000000000E+00  0.00000000000E+00  0.23811909383E+03  0.76951949484E+03  0.73175101646E+03 0.  0.
        3    1    3    3  502    0 -0.23267686556E+03 -0.24853054792E+03 -0.21868165982E+02  0.34115126249E+03  0.10100000352E+00 0. -1.
       -3    1    3    3    0  502  0.23267686556E+03  0.24853054792E+03  0.25998725981E+03  0.42836823234E+03  0.10100000352E+00 0.  1.
</event>
<event>
 5   0  0.4503289E-02  0.7031266E+03  0.7818609E-02  0.9711900E-01
        2   -1    0    0  501    0  0.00000000000E+00  0.00000000000E+00  0.16657142678E+04  0.16657142678E+04  0.25500000920E-02 0. -1.
       -2   -1    0    0    0  501  0.00000000000E+00  0.00000000000E+00 -0.74200451652E+02  0.74200451696E+02  0.25500000920E-02 0.  1.
    10030    2    1    2    0    0  0.00000000000E+00  0.00000000000E+00  0.15915138161E+04  0.17399147195E+04  0.70312659182E+03 0.  0.
        2    1    3    3  502    0  0.18043385115E+03  0.14290526390E+03  0.13816938193E+03  0.26845682558E+03  0.25500000920E-02 0.  1.
       -2    1    3    3    0  502 -0.18043385115E+03 -0.14290526390E+03  0.14533444342E+04  0.14714578939E+04  0.25500000920E-02 0. -1.
</event>
<event>
 5   0  0.4365492E-02  0.6977749E+03  0.7818609E-02  0.9721045E-01
       -2   -1    0    0    0  501  0.00000000000E+00  0.00000000000E+00  0.28676982235E+03  0.28676982236E+03  0.25500000920E-02 0.  1.
        2   -1    0    0  501    0  0.00000000000E+00  0.00000000000E+00 -0.42446041925E+03  0.42446041925E+03  0.25500000920E-02 0. -1.
    10030    2    1    2    0    0  0.00000000000E+00  0.00000000000E+00 -0.13769059690E+03  0.71123024161E+03  0.69777486062E+03 0.  0.
        4    1    3    3  502    0  0.65443570833E+02  0.74672027158E+02  0.27206199271E+03  0.28961718419E+03  0.12699999809E+01 0.  1.
       -4    1    3    3    0  502 -0.65443570833E+02 -0.74672027158E+02 -0.40975258960E+03  0.42161305742E+03  0.12699999809E+01 0. -1.
</event>
<event>
 5   0  0.4420645E-02  0.7351006E+03  0.7818609E-02  0.9659020E-01
       -2   -1    0    0    0  501  0.00000000000E+00  0.00000000000E+00  0.20174813308E+03  0.20174813309E+03  0.25500000920E-02 0.  1.
        2   -1    0    0  501    0  0.00000000000E+00  0.00000000000E+00 -0.66961323179E+03  0.66961323179E+03  0.25500000920E-02 0. -1.
    10030    2    1    2    0    0  0.00000000000E+00  0.00000000000E+00 -0.46786509871E+03  0.87136136488E+03  0.73510059014E+03 0.  0.
        5    1    3    3  502    0 -0.11149099724E+03  0.34784006354E+03 -0.18580946315E+03  0.40984167536E+03  0.46999998093E+01 0.  1.
       -5    1    3    3    0  502  0.11149099724E+03 -0.34784006354E+03 -0.28205563556E+03  0.46151968952E+03  0.46999998093E+01 0. -1.
</event>
<event>
 5   0  0.4420645E-02  0.7576259E+03  0.7818609E-02  0.9623462E-01
       -2   -1    0    0    0  501  0.00000000000E+00  0.00000000000E+00  0.17734728573E+03  0.17734728574E+03  0.25500000920E-02 0.  1.
        2   -1    0    0  501    0  0.00000000000E+00  0.00000000000E+00 -0.80914274723E+03  0.80914274724E+03  0.25500000920E-02 0. -1.
    10030    2    1    2    0    0  0.00000000000E+00  0.00000000000E+00 -0.63179546151E+03  0.98649003298E+03  0.75762594992E+03 0.  0.
        5    1    3    3  502    0  0.31277062112E+03 -0.16857275942E+03 -0.14495808871E+03  0.38376708319E+03  0.46999998093E+01 0.  1.
       -5    1    3    3    0  502 -0.31277062112E+03  0.16857275942E+03 -0.48683737280E+03  0.60272294979E+03  0.46999998093E+01 0. -1.
</event>
<event>
 5   0  0.2750139E-02  0.6595684E+03  0.7818609E-02  0.9788989E-01
        1   -1    0    0  501    0  0.00000000000E+00  0.00000000000E+00  0.18170700990E+04  0.18170700990E+04  0.50400001928E-02 0.  1.
       -1   -1    0    0    0  501  0.00000000000E+00  0.00000000000E+00 -0.59853284876E+02  0.59853285088E+02  0.50400001928E-02 0. -1.
    10030    2    1    2    0    0  0.00000000000E+00  0.00000000000E+00  0.17572168141E+04  0.18769233841E+04  0.65956838760E+03 0.  0.
        2    1    3    3  502    0 -0.32004001158E+03 -0.23160026642E+02  0.66196942181E+03  0.73563952535E+03  0.25500000920E-02 0. -1.
       -2    1    3    3    0  502  0.32004001158E+03  0.23160026642E+02  0.10952473923E+04  0.11412838588E+04  0.25500000920E-02 0.  1.
</event>
<event>
 5   0  0.2684924E-02  0.7016148E+03  0.7818609E-02  0.9714475E-01
       -1   -1    0    0    0  501  0.00000000000E+00  0.00000000000E+00  0.18116702560E+03  0.18116702567E+03  0.50400001928E-02 0.  1.
        1   -1    0    0  501    0  0.00000000000E+00  0.00000000000E+00 -0.67929484304E+03  0.67929484306E+03  0.50400001928E-02 0. -1.
    10030    2    1    2    0    0  0.00000000000E+00  0.00000000000E+00 -0.49812781744E+03  0.86046186873E+03  0.70161478393E+03 0.  0.
        4    1    3    3  502    0 -0.12300907323E+02 -0.28701434183E+03 -0.21465809283E+01  0.28728864482E+03  0.12699999809E+01 0.  1.
       -4    1    3    3    0  502  0.12300907323E+02  0.28701434183E+03 -0.49598123651E+03  0.57317322391E+03  0.12699999809E+01 0. -1.
</event>
<event>
 5   0  0.4299912E-02  0.6868625E+03  0.7818609E-02  0.9739967E-01
        2   -1    0    0  501    0  0.00000000000E+00  0.00000000000E+00  0.10715024039E+04  0.10715024039E+04  0.25500000920E-02 0. -1.
       -2   -1    0    0    0  501  0.00000000000E+00  0.00000000000E+00 -0.11007445155E+03  0.11007445158E+03  0.25500000920E-02 0.  1.
    10030    2    1    2    0    0  0.00000000000E+00  0.00000000000E+00  0.96142795237E+03  0.11815768555E+04  0.68686254656E+03 0.  0.
        3    1    3    3  502    0 -0.28927497543E+03  0.14941666909E+03  0.29274402601E+03  0.43784064153E+03  0.10100000352E+00 0.  1.
       -3    1    3    3    0  502  0.28927497543E+03 -0.14941666909E+03  0.66868392636E+03  0.74373621397E+03  0.10100000352E+00 0. -1.
</event>
<event>
 5   0  0.4526837E-02  0.7056960E+03  0.7818609E-02  0.9707541E-01
       -2   -1    0    0    0  501  0.00000000000E+00  0.00000000000E+00  0.16328541395E+03  0.16328541397E+03  0.25500000920E-02 0.  1.
        2   -1    0    0  501    0  0.00000000000E+00  0.00000000000E+00 -0.76247913605E+03  0.76247913605E+03  0.25500000920E-02 0. -1.
    10030    2    1    2    0    0  0.00000000000E+00  0.00000000000E+00 -0.59919372210E+03  0.92576455002E+03  0.70569602909E+03 0.  0.
        1    1    3    3  502    0 -0.29085466703E+03  0.15742680287E+03 -0.13827667248E+03  0.35846906947E+03  0.50400001928E-02 0.  1.
       -1    1    3    3    0  502  0.29085466703E+03 -0.15742680287E+03 -0.46091704962E+03  0.56729548055E+03  0.50400001928E-02 0. -1.
</event>
<event>
 5   0  0.1784625E-02  0.6938129E+03  0.7818609E-02  0.9727872E-01
       -3   -1    0    0    0  501  0.00000000000E+00  0.00000000000E+00  0.48649365839E+03  0.48649366888E+03  0.10100000352E+00 0.  1.
        3   -1    0    0  501    0  0.00000000000E+00  0.00000000000E+00 -0.24737025202E+03  0.24737027264E+03  0.10100000352E+00 0. -1.
    10030    2    1    2    0    0  0.00000000000E+00  0.00000000000E+00  0.23912340637E+03  0.73386394152E+03  0.69381285746E+03 0.  0.
        2    1    3    3  502    0 -0.43660188847E+02 -0.34085265027E+03  0.16981570329E+03  0.38330681493E+03  0.25500000920E-02 0. -1.
       -2    1    3    3    0  502  0.43660188847E+02  0.34085265027E+03  0.69307703084E+02  0.35055712658E+03  0.25500000920E-02 0.  1.
</event>
<event>
 5   0  0.4420645E-02  0.7339852E+03  0.7818609E-02  0.9660815E-01
       -2   -1    0    0    0  501  0.00000000000E+00  0.00000000000E+00  0.31909223734E+03  0.31909223735E+03  0.25500000920E-02 0.  1.
        2   -1    0    0  501    0  0.00000000000E+00  0.00000000000E+00 -0.42208350159E+03  0.42208350159E+03  0.25500000920E-02 0. -1.
    10030    2    1    2    0    0  0.00000000000E+00  0.00000000000E+00 -0.10299126425E+03  0.74117573894E+03  0.73398520113E+03 0.  0.
        5    1    3    3  502    0  0.21181816191E+03  0.27223799044E+03  0.74955018895E+02  0.35301671633E+03  0.46999998093E+01 0.  1.
       -5    1    3    3    0  502 -0.21181816191E+03 -0.27223799044E+03 -0.17794628314E+03  0.38815902261E+03  0.46999998093E+01 0. -1.
</event>
<event>
 5   0  0.2758681E-02  0.7200853E+03  0.7818609E-02  0.9683487E-01
        1   -1    0    0  501    0  0.00000000000E+00  0.00000000000E+00  0.21920879734E+03  0.21920879740E+03  0.50400001928E-02 0.  1.
       -1   -1    0    0    0  501  0.00000000000E+00  0.00000000000E+00 -0.59135727202E+03  0.59135727204E+03  0.50400001928E-02 0. -1.
    10030    2    1    2    0    0  0.00000000000E+00  0.00000000000E+00 -0.37214847467E+03  0.81056606944E+03  0.72008531837E+03 0.  0.
        3    1    3    3  502    0 -0.49425515082E+02  0.81120568322E+02 -0.57699723639E+03  0.58476426802E+03  0.10100000352E+00 0. -1.
       -3    1    3    3    0  502  0.49425515082E+02 -0.81120568322E+02  0.20484876172E+03  0.22580180142E+03  0.10100000352E+00 0.  1.
</event>
<event>
 5   0  0.1784625E-02  0.7218510E+03  0.7818609E-02  0.9680577E-01
        3   -1    0    0  501    0  0.00000000000E+00  0.00000000000E+00  0.15574222916E+03  0.15574226191E+03  0.10100000352E+00 0. -1.
       -3   -1    0    0    0  501  0.00000000000E+00  0.00000000000E+00 -0.83642816337E+03  0.83642816946E+03  0.10100000352E+00 0.  1.
    10030    2    1    2    0    0  0.00000000000E+00  0.00000000000E+00 -0.68068593420E+03  0.99217043138E+03  0.72185097068E+03 0.  0.
        4    1    3    3  502    0  0.26731748496E+03 -0.35769712765E+02 -0.10675249424E+02  0.26991421594E+03  0.12699999809E+01 0. -1.
       -4    1    3    3    0  502 -0.26731748496E+03  0.35769712765E+02 -0.67001068478E+03  0.72225621544E+03  0.12699999809E+01 0.  1.
</event>
<event>
 5   0  0.4503289E-02  0.7039918E+03  0.7818609E-02  0.9710430E-01
        2   -1    0    0  501    0  0.00000000000E+00  0.00000000000E+00  0.17062907760E+04  0.17062907760E+04  0.25500000920E-02 0.  1.
       -2   -1    0    0    0  501  0.00000000000E+00  0.00000000000E+00 -0.72614310485E+02  0.72614310530E+02  0.25500000920E-02 0. -1.
    10030    2    1    2    0    0  0.00000000000E+00  0.00000000000E+00  0.16336764655E+04  0.17789050866E+04  0.70399184151E+03 0.  0.
        2    1    3    3  502    0 -0.24522864604E+03  0.16293463040E+02  0.18009095428E+03  0.30468888656E+03  0.25500000920E-02 0. -1.
       -2    1    3    3    0  502  0.24522864604E+03 -0.16293463040E+02  0.14535855113E+04  0.14742162000E+04  0.25500000920E-02 0.  1.
</event>
<event>
 5   0  0.2751729E-02  0.6839402E+03  0.7818609E-02  0.9745098E-01
        1   -1    0    0  501    0  0.00000000000E+00  0.00000000000E+00  0.20952426038E+03  0.20952426044E+03  0.50400001928E-02 0. -1.
       -1   -1    0    0    0  501  0.00000000000E+00  0.00000000000E+00 -0.55813852239E+03  0.55813852241E+03  0.50400001928E-02 0.  1.
    10030    2    1    2    0    0  0.00000000000E+00  0.00000000000E+00 -0.34861426201E+03  0.76766278285E+03  0.68394023460E+03 0.  0.
        1    1    3    3  502    0 -0.16529866220E+03 -0.30552850310E+02  0.15995019610E+03  0.23203704369E+03  0.50400001928E-02 0. -1.
       -1    1    3    3    0  502  0.16529866220E+03  0.30552850310E+02 -0.50856445810E+03  0.53562573917E+03  0.50400001928E-02 0.  1.
</event>
<event>
 5   0  0.4299912E-02  0.6994296E+03  0.7818609E-02  0.9718208E-01
       -2   -1    0    0    0  501  0.00000000000E+00  0.00000000000E+00  0.46160376363E+03  0.46160376364E+03  0.25500000920E-02 0. -1.
        2   -1    0    0  501    0  0.00000000000E+00  0.00000000000E+00 -0.26494683811E+03  0.26494683812E+03  0.25500000920E-02 0.  1.
    10030    2    1    2    0    0  0.00000000000E+00  0.00000000000E+00  0.19665692552E+03  0.72655060176E+03  0.69942964661E+03 0.  0.
        3    1    3    3  502    0  0.33177706805E+03 -0.69661620843E+02  0.91407226257E+01  0.33913467430E+03  0.10100000352E+00 0. -1.
       -3    1    3    3    0  502 -0.33177706805E+03  0.69661620843E+02  0.18751620290E+03  0.38741592746E+03  0.10100000352E+00 0.  1.
</event>
<event>
 5   0  0.4503289E-02  0.6989181E+03  0.7818609E-02  0.9719084E-01
       -2   -1    0    0    0  501  0.00000000000E+00  0.00000000000E+00  0.13029032845E+03  0.13029032848E+03  0.25500000920E-02 0.  1.
        2   -1    0    0  501    0  0.00000000000E+00  0.00000000000E+00 -0.93730392465E+03  0.93730392466E+03  0.25500000920E-02 0. -1.
    10030    2    1    2    0    0  0.00000000000E+00  0.00000000000E+00 -0.80701359620E+03  0.10675942531E+04  0.69891812458E+03 0.  0.
        2    1    3    3  502    0 -0.25080140273E+03 -0.20573170501E+03 -0.20496318816E+03  0.38371445968E+03  0.25500000920E-02 0.  1.
       -2    1    3    3    0  502  0.25080140273E+03  0.20573170501E+03 -0.60205040804E+03  0.68387979345E+03  0.25500000920E-02 0. -1.
</event>
<event>
 5   0  0.2751729E-02  0.7093145E+03  0.7818609E-02  0.9701435E-01
       -1   -1    0    0    0  501  0.00000000000E+00  0.00000000000E+00  0.11797561056E+03  0.11797561067E+03  0.50400001928E-02 0. -1.
        1   -1    0    0  501    0  0.00000000000E+00  0.00000000000E+00 -0.10661674122E+04  0.10661674122E+04  0.50400001928E-02 0.  1.
    10030    2    1    2    0    0  0.00000000000E+00  0.00000000000E+00 -0.94819180165E+03  0.11841430229E+04  0.70931446197E+03 0.  0.
        1    1    3    3  502    0 -0.24635638063E+03 -0.23971837161E+03 -0.32831645168E+03  0.47533993776E+03  0.50400001928E-02 0.  1.
       -1    1    3    3    0  502  0.24635638063E+03  0.23971837161E+03 -0.61987534997E+03  0.70880308513E+03  0.50400001928E-02 0. -1.
</event>
<event>
 5   0  0.4420645E-02  0.6963011E+03  0.7818609E-02  0.9723579E-01
       -2   -1    0    0    0  501  0.00000000000E+00  0.00000000000E+00  0.21902943485E+03  0.21902943487E+03  0.25500000920E-02 0. -1.
        2   -1    0    0  501    0  0.00000000000E+00  0.00000000000E+00 -0.55339051692E+03  0.55339051692E+03  0.25500000920E-02 0.  1.
    10030    2    1    2    0    0  0.00000000000E+00  0.00000000000E+00 -0.33436108206E+03  0.77241995179E+03  0.69630111929E+03 0.  0.
        5    1    3    3  502    0 -0.11065282713E+03 -0.24232971687E+03  0.81413288045E+02  0.27859998797E+03  0.46999998093E+01 0. -1.
       -5    1    3    3    0  502  0.11065282713E+03  0.24232971687E+03 -0.41577437011E+03  0.49381996382E+03  0.46999998093E+01 0.  1.
</event>
<event>
 5   0  0.4503289E-02  0.7148201E+03  0.7818609E-02  0.9692218E-01
        2   -1    0    0  501    0  0.00000000000E+00  0.00000000000E+00  0.73516541221E+03  0.73516541221E+03  0.25500000920E-02 0.  1.
       -2   -1    0    0    0  501  0.00000000000E+00  0.00000000000E+00 -0.17375944522E+03  0.17375944524E+03  0.25500000920E-02 0. -1.
    10030    2    1    2    0    0  0.00000000000E+00  0.00000000000E+00  0.56140596699E+03  0.90892485745E+03  0.71482007297E+03 0.  0.
        2    1    3    3  502    0 -0.10764222461E+02  0.35524231829E+03  0.32876936475E+03  0.48415108013E+03  0.25500000920E-02 0. -1.
       -2    1    3    3    0  502  0.10764222461E+02 -0.35524231829E+03  0.23263660224E+03  0.42477377732E+03  0.25500000920E-02 0.  1.
</event>
<event>
 5   0  0.4420645E-02  0.6986649E+03  0.7818609E-02  0.9719518E-01
        2   -1    0    0  501    0  0.00000000000E+00  0.00000000000E+00  0.90408125587E+03  0.90408125587E+03  0.25500000920E-02 0.  1.
       -2   -1    0    0    0  501  0.00000000000E+00  0.00000000000E+00 -0.13498030922E+03  0.13498030925E+03  0.25500000920E-02 0. -1.
    10030    2    1    2    0    0  0.00000000000E+00  0.00000000000E+00  0.76910094665E+03  0.10390615651E+04  0.69866491967E+03 0.  0.
        5    1    3    3  502    0  0.82939069401E+02  0.25213158884E+03  0.72225477226E+03  0.76949546677E+03  0.46999998093E+01 0.  1.
       -5    1    3    3    0  502 -0.82939069401E+02 -0.25213158884E+03  0.46846174383E+02  0.26956609835E+03  0.46999998093E+01 0. -1.
</event>
<event>
 5   0  0.2684924E-02  0.7014173E+03  0.7818609E-02  0.9714811E-01
        1   -1    0    0  501    0  0.00000000000E+00  0.00000000000E+00  0.56712772760E+03  0.56712772762E+03  0.50400001928E-02 0.  1.
       -1   -1    0    0    0  501  0.00000000000E+00  0.00000000000E+00 -0.21687629761E+03  0.21687629767E+03  0.50400001928E-02 0. -1.
    10030    2    1    2    0    0  0.00000000000E+00  0.00000000000E+00  0.35025142998E+03  0.78400402529E+03  0.70141731335E+03 0.  0.
        4    1    3    3  502    0  0.23280481336E+03 -0.25878825237E+03  0.22288234959E+03  0.41333714489E+03  0.12699999809E+01 0.  1.
       -4    1    3    3    0  502 -0.23280481336E+03  0.25878825237E+03  0.12736908039E+03  0.37066688040E+03  0.12699999809E+01 0. -1.
</event>
<event>
 5   0  0.4365492E-02  0.7241546E+03  0.7818609E-02  0.9676793E-01
        2   -1    0    0  501    0  0.00000000000E+00  0.00000000000E+00  0.61697459241E+02  0.61697459294E+02  0.25500000920E-02 0. -1.
       -2   -1    0    0    0  501  0.00000000000E+00  0.00000000000E+00 -0.21248845972E+04  0.21248845972E+04  0.25500000920E-02 0.  1.
    10030    2    1    2    0    0  0.00000000000E+00  0.00000000000E+00 -0.20631871379E+04  0.21865820565E+04  0.72415462682E+03 0.  0.
        4    1    3    3  502    0  0.20130732177E+03 -0.20134613991E+02 -0.12489803382E+03  0.23776284872E+03  0.12699999809E+01 0. -1.
       -4    1    3    3    0  502 -0.20130732177E+03  0.20134613991E+02 -0.19382891041E+04  0.19488192078E+04  0.12699999809E+01 0.  1.
</event>
<event>
 5   0  0.4299912E-02  0.7294714E+03  0.7818609E-02  0.9668119E-01
       -2   -1    0    0    0  501  0.00000000000E+00  0.00000000000E+00  0.89626501171E+02  0.89626501207E+02  0.25500000920E-02 0. -1.
        2   -1    0    0  501    0  0.00000000000E+00  0.00000000000E+00 -0.14842945912E+04  0.14842945912E+04  0.25500000920E-02 0.  1.
    10030    2    1    2    0    0  0.00000000000E+00  0.00000000000E+00 -0.13946680900E+04  0.15739210924E+04  0.72947140025E+03 0.  0.
        3    1    3    3  502    0 -0.32171543274E+03  0.55038557859E+02 -0.10485825527E+04  0.10982055557E+04  0.10100000352E+00 0.  1.
       -3    1    3    3    0  502  0.32171543274E+03 -0.55038557859E+02 -0.34608553727E+03  0.47571553666E+03  0.10100000352E+00 0. -1.
</event>
<event>
 5   0  0.4420645E-02  0.6930649E+03  0.7818609E-02  0.9729166E-01
        2   -1    0    0  501    0  0.00000000000E+00  0.00000000000E+00  0.68546838701E+03  0.68546838701E+03  0.25500000920E-02 0.  1.
       -2   -1    0    0    0  501  0.00000000000E+00  0.00000000000E+00 -0.17518642336E+03  0.17518642338E+03  0.25500000920E-02 0. -1.
    10030    2    1    2    0    0  0.00000000000E+00  0.00000000000E+00  0.51028196365E+03  0.86065481039E+03  0.69306494662E+03 0.  0.
        5    1    3    3  502    0 -0.16941465149E+03  0.37448354672E+02  0.62759896177E+03  0.65115762317E+03  0.46999998093E+01 0.  1.
       -5    1    3    3    0  502  0.16941465149E+03 -0.37448354672E+02 -0.11731699812E+03  0.20949718722E+03  0.46999998093E+01 0. -1.
</event>
<event>
 5   0  0.4299912E-02  0.6918133E+03  0.7818609E-02  0.9731336E-01
       -2   -1    0    0    0  501  0.00000000000E+00  0.00000000000E+00  0.72015854274E+02  0.72015854319E+02  0.25500000920E-02 0.  1.
        2   -1    0    0  501    0  0.00000000000E+00  0.00000000000E+00 -0.16614592991E+04  0.16614592991E+04  0.25500000920E-02 0. -1.
    10030    2    1    2    0    0  0.00000000000E+00  0.00000000000E+00 -0.15894434449E+04  0.17334751535E+04  0.69181330085E+03 0.  0.
        3    1    3    3  502    0  0.27953698842E+03 -0.19380081796E+03 -0.95223659215E+03  0.10111647851E+04  0.10100000352E+00 0. -1.
       -3    1    3    3    0  502 -0.27953698842E+03  0.19380081796E+03 -0.63720685272E+03  0.72231036839E+03  0.10100000352E+00 0.  1.
</event>
<event>
 5   0  0.2758681E-02  0.7035658E+03  0.7818609E-02  0.9711153E-01
        1   -1    0    0  501    0  0.00000000000E+00  0.00000000000E+00  0.39693646295E+03  0.39693646298E+03  0.50400001928E-02 0.  1.
       -1   -1    0    0    0  501  0.00000000000E+00  0.00000000000E+00 -0.31176582663E+03  0.31176582667E+03  0.50400001928E-02 0. -1.
    10030    2    1    2    0    0  0.00000000000E+00  0.00000000000E+00  0.85170636326E+02  0.70870228965E+03  0.70356584487E+03 0.  0.
        3    1    3    3  502    0  0.76729338835E+02  0.22283330958E+03  0.30566079819E+03  0.38596710877E+03  0.10100000352E+00 0.  1.
       -3    1    3    3    0  502 -0.76729338835E+02 -0.22283330958E+03 -0.22049016187E+03  0.32273518088E+03  0.10100000352E+00 0. -1.
</event>
<event>
 5   0  0.2758681E-02  0.6808038E+03  0.7818609E-02  0.9750635E-01
       -1   -1    0    0    0  501  0.00000000000E+00  0.00000000000E+00  0.12206749207E+03  0.12206749217E+03  0.50400001928E-02 0. -1.
        1   -1    0    0  501    0  0.00000000000E+00  0.00000000000E+00 -0.94925730954E+03  0.94925730956E+03  0.50400001928E-02 0.  1.
    10030    2    1    2    0    0  0.00000000000E+00  0.00000000000E+00 -0.82718981748E+03  0.10713248017E+04  0.68080381657E+03 0.  0.
        3    1    3    3  502    0  0.13417411922E+03 -0.14179419334E+03 -0.85242026732E+03  0.87448762705E+03  0.10100000352E+00 0.  1.
       -3    1    3    3    0  502 -0.13417411922E+03  0.14179419334E+03  0.25230449842E+02  0.19683717467E+03  0.10100000352E+00 0. -1.
</event>
<event>
 5   0  0.4365492E-02  0.6573521E+03  0.7818609E-02  0.9793080E-01
        2   -1    0    0  501    0  0.00000000000E+00  0.00000000000E+00  0.86417525438E+03  0.86417525438E+03  0.25500000920E-02 0. -1.
       -2   -1    0    0    0  501  0.00000000000E+00  0.00000000000E+00 -0.12500700168E+03  0.12500700171E+03  0.25500000920E-02 0.  1.
    10030    2    1    2    0    0  0.00000000000E+00  0.00000000000E+00  0.73916825270E+03  0.98918225609E+03  0.65735213543E+03 0.  0.
        4    1    3    3  502    0  0.17748019342E+03 -0.25270986239E+03  0.20023682455E+03  0.36804604659E+03  0.12699999809E+01 0. -1.
       -4    1    3    3    0  502 -0.17748019342E+03  0.25270986239E+03  0.53893142814E+03  0.62113620949E+03  0.12699999809E+01 0.  1.
</event>
<event>
 5   0  0.2777999E-02  0.7012218E+03  0.7818609E-02  0.9715145E-01
        1   -1    0    0  501    0  0.00000000000E+00  0.00000000000E+00  0.36539360839E+03  0.36539360842E+03  0.50400001928E-02 0. -1.
       -1   -1    0    0    0  501  0.00000000000E+00  0.00000000000E+00 -0.33642623468E+03  0.33642623471E+03  0.50400001928E-02 0.  1.
    10030    2    1    2    0    0  0.00000000000E+00  0.00000000000E+00  0.28967373712E+02  0.70181984314E+03  0.70122177910E+03 0.  0.
        5    1    3    3  502    0  0.11795101674E+03 -0.15880054594E+03 -0.27520375505E+03  0.33895317160E+03  0.46999998093E+01 0.  1.
       -5    1    3    3    0  502 -0.11795101674E+03  0.15880054594E+03  0.30417112877E+03  0.36286667154E+03  0.46999998093E+01 0. -1.
</event>
<event>
 5   0  0.1784625E-02  0.6839722E+03  0.7818609E-02  0.9745041E-01
       -3   -1    0    0    0  501  0.00000000000E+00  0.00000000000E+00  0.14361810649E+03  0.14361814200E+03  0.10100000352E+00 0.  1.
        3   -1    0    0  501    0  0.00000000000E+00  0.00000000000E+00 -0.81434345425E+03  0.81434346051E+03  0.10100000352E+00 0. -1.
    10030    2    1    2    0    0  0.00000000000E+00  0.00000000000E+00 -0.67072534776E+03  0.95796160251E+03  0.68397217762E+03 0.  0.
        2    1    3    3  502    0  0.31132733249E+03 -0.12992796701E+03 -0.41395163355E+03  0.53400556129E+03  0.25500000920E-02 0. -1.
       -2    1    3    3    0  502 -0.31132733249E+03  0.12992796701E+03 -0.25677371421E+03  0.42395604122E+03  0.25500000920E-02 0.  1.
</event>
<event>
 5   0  0.2758681E-02  0.6938636E+03  0.7818609E-02  0.9727784E-01
        1   -1    0    0  501    0  0.00000000000E+00  0.00000000000E+00  0.14880757188E+03  0.14880757197E+03  0.50400001928E-02 0.  1.
       -1   -1    0    0    0  501  0.00000000000E+00  0.00000000000E+00 -0.80884097983E+03  0.80884097984E+03  0.50400001928E-02 0. -1.
    10030    2    1    2    0    0  0.00000000000E+00  0.00000000000E+00 -0.66003340794E+03  0.95764855181E+03  0.69386356669E+03 0.  0.
        3    1    3    3  502    0  0.18284248901E+03 -0.10200963466E+03 -0.71181306553E+03  0.74196710965E+03  0.10100000352E+00 0. -1.
       -3    1    3    3    0  502 -0.18284248901E+03  0.10200963466E+03  0.51779657583E+02  0.21568144216E+03  0.10100000352E+00 0.  1.
</event>
<event>
 5   0  0.2777999E-02  0.6976482E+03  0.7818609E-02  0.9721263E-01
        1   -1    0    0  501    0  0.00000000000E+00  0.00000000000E+00  0.12795237659E+04  0.12795237659E+04  0.50400001928E-02 0.  1.
       -1   -1    0    0    0  501  0.00000000000E+00  0.00000000000E+00 -0.95096524666E+02  0.95096524800E+02  0.50400001928E-02 0. -1.
    10030    2    1    2    0    0  0.00000000000E+00  0.00000000000E+00  0.11844272413E+04  0.13746202907E+04  0.69764823075E+03 0.  0.
        5    1    3    3  502    0  0.11881260611E+02 -0.12135369500E+01 -0.94631129786E+02  0.95497527446E+02  0.46999998093E+01 0. -1.
       -5    1    3    3    0  502 -0.11881260611E+02  0.12135369500E+01  0.12790583711E+04  0.12791227633E+04  0.46999998093E+01 0.  1.
</event>
<event>
 5   0  0.2751729E-02  0.6947145E+03  0.7818609E-02  0.9726314E-01
        1   -1    0    0  501    0  0.00000000000E+00  0.00000000000E+00  0.18754926480E+04  0.18754926481E+04  0.50400001928E-02 0. -1.
       -1   -1    0    0    0  501  0.00000000000E+00  0.00000000000E+00 -0.64333536753E+02  0.64333536951E+02  0.50400001928E-02 0.  1.
    10030    2    1    2    0    0  0.00000000000E+00  0.00000000000E+00  0.18111591113E+04  0.19398261850E+04  0.69471454685E+03 0.  0.
        1    1    3    3  502    0  0.16821370714E+02  0.21523399615E+03  0.16654059792E+04  0.16793408550E+04  0.50400001928E-02 0. -1.
       -1    1    3    3    0  502 -0.16821370714E+02 -0.21523399615E+03  0.14575313205E+03  0.26048532998E+03  0.50400001928E-02 0.  1.
</event>
<event>
 5   0  0.4526837E-02  0.7024426E+03  0.7818609E-02  0.9713064E-01
        2   -1    0    0  501    0  0.00000000000E+00  0.00000000000E+00  0.72928696945E+03  0.72928696946E+03  0.25500000920E-02 0. -1.
       -2   -1    0    0    0  501  0.00000000000E+00  0.00000000000E+00 -0.16914657535E+03  0.16914657537E+03  0.25500000920E-02 0.  1.
    10030    2    1    2    0    0  0.00000000000E+00  0.00000000000E+00  0.56014039410E+03  0.89843354483E+03  0.70244257657E+03 0.  0.
        1    1    3    3  502    0 -0.13116056144E+03  0.65272912818E+02  0.68833953791E+03  0.70375774632E+03  0.50400001928E-02 0. -1.
       -1    1    3    3    0  502  0.13116056144E+03 -0.65272912818E+02 -0.12819914382E+03  0.19467579851E+03  0.50400001928E-02 0.  1.
</event>
<event>
 5   0  0.2750139E-02  0.6831485E+03  0.7818609E-02  0.9746493E-01
        1   -1    0    0  501    0  0.00000000000E+00  0.00000000000E+00  0.23571591258E+04  0.23571591258E+04  0.50400001928E-02 0.  1.
       -1   -1    0    0    0  501  0.00000000000E+00  0.00000000000E+00 -0.49497277756E+02  0.49497278013E+02  0.50400001928E-02 0. -1.
    10030    2    1    2    0    0  0.00000000000E+00  0.00000000000E+00  0.23076618480E+04  0.24066564038E+04  0.68314847662E+03 0.  0.
        2    1    3    3  502    0 -0.16704469448E+03 -0.98606584388E+02  0.16336780474E+03  0.25360644327E+03  0.25500000920E-02 0. -1.
       -2    1    3    3    0  502  0.16704469448E+03  0.98606584388E+02  0.21442940433E+04  0.21530499605E+04  0.25500000920E-02 0.  1.
</event>
<event>
 5   0  0.2758681E-02  0.6873451E+03  0.7818609E-02  0.9739122E-01
        1   -1    0    0  501    0  0.00000000000E+00  0.00000000000E+00  0.37327717262E+03  0.37327717266E+03  0.50400001928E-02 0.  1.
       -1   -1    0    0    0  501  0.00000000000E+00  0.00000000000E+00 -0.31641591490E+03  0.31641591494E+03  0.50400001928E-02 0. -1.
    10030    2    1    2    0    0  0.00000000000E+00  0.00000000000E+00  0.56861257721E+02  0.68969308760E+03  0.68734514798E+03 0.  0.
        3    1    3    3  502    0 -0.86325387471E+01  0.18786571744E+03 -0.26020241847E+03  0.32105039681E+03  0.10100000352E+00 0. -1.
       -3    1    3    3    0  502  0.86325387471E+01 -0.18786571744E+03  0.31706367619E+03  0.36864269079E+03  0.10100000352E+00 0.  1.
</event>
<event>
 5   0  0.2750139E-02  0.7065407E+03  0.7818609E-02  0.9706112E-01
       -1   -1    0    0    0  501  0.00000000000E+00  0.00000000000E+00  0.54545134478E+03  0.54545134480E+03  0.50400001928E-02 0.  1.
        1   -1    0    0  501    0  0.00000000000E+00  0.00000000000E+00 -0.22880124395E+03  0.22880124400E+03  0.50400001928E-02 0. -1.
    10030    2    1    2    0    0  0.00000000000E+00  0.00000000000E+00  0.31665010083E+03  0.77425258880E+03  0.70654071709E+03 0.  0.
        2    1    3    3  502    0 -0.11632265775E+02  0.13151224820E+03  0.51740012518E+03  0.53397909189E+03  0.25500000920E-02 0.  1.
       -2    1    3    3    0  502  0.11632265775E+02 -0.13151224820E+03 -0.20075002435E+03  0.24027349691E+03  0.25500000920E-02 0. -1.
</event>
<event>
 5   0  0.2758681E-02  0.6913072E+03  0.7818609E-02  0.9732215E-01
       -1   -1    0    0    0  501  0.00000000000E+00  0.00000000000E+00  0.13635719459E+03  0.13635719468E+03  0.50400001928E-02 0. -1.
        1   -1    0    0  501    0  0.00000000000E+00  0.00000000000E+00 -0.87620182856E+03  0.87620182857E+03  0.50400001928E-02 0.  1.
    10030    2    1    2    0    0  0.00000000000E+00  0.00000000000E+00 -0.73984463397E+03  0.10125590233E+04  0.69130723500E+03 0.  0.
        3    1    3    3  502    0 -0.88684130117E+02  0.10030423862E+03  0.96834305298E+02  0.16523531131E+03  0.10100000352E+00 0. -1.
       -3    1    3    3    0  502  0.88684130117E+02 -0.10030423862E+03 -0.83667893927E+03  0.84732371195E+03  0.10100000352E+00 0.  1.
</event>
<event>
 5   0  0.4420645E-02  0.6881134E+03  0.7818609E-02  0.9737779E-01
        2   -1    0    0  501    0  0.00000000000E+00  0.00000000000E+00  0.69706240777E+03  0.69706240778E+03  0.25500000920E-02 0.  1.
       -2   -1    0    0    0  501  0.00000000000E+00  0.00000000000E+00 -0.16981979764E+03  0.16981979766E+03  0.25500000920E-02 0. -1.
    10030    2    1    2    0    0  0.00000000000E+00  0.00000000000E+00  0.52724261013E+03  0.86688220543E+03  0.68811335415E+03 0.  0.
        5    1    3    3  502    0 -0.26990538263E+03  0.21132431611E+03  0.30026435985E+03  0.45572761376E+03  0.46999998093E+01 0.  1.
       -5    1    3    3    0  502  0.26990538263E+03 -0.21132431611E+03  0.22697825029E+03  0.41115459167E+03  0.46999998093E+01 0. -1.
</event>
<event>
 5   0  0.4526837E-02  0.7084777E+03  0.7818609E-02  0.9702843E-01
        2   -1    0    0  501    0  0.00000000000E+00  0.00000000000E+00  0.42612078020E+03  0.42612078021E+03  0.25500000920E-02 0. -1.
       -2   -1    0    0    0  501  0.00000000000E+00  0.00000000000E+00 -0.29448264074E+03  0.29448264075E+03  0.25500000920E-02 0.  1.
    10030    2    1    2    0    0  0.00000000000E+00  0.00000000000E+00  0.13163813946E+03  0.72060342096E+03  0.70847772762E+03 0.  0.
        1    1    3    3  502    0 -0.28182765699E+03 -0.21338915230E+03  0.89088877951E+02  0.36455258436E+03  0.50400001928E-02 0. -1.
       -1    1    3    3    0  502  0.28182765699E+03  0.21338915230E+03  0.42549261511E+02  0.35605083660E+03  0.50400001928E-02 0.  1.
</event>
<event>
 5   0  0.2751729E-02  0.7993389E+03  0.7818609E-02  0.9560974E-01
        1   -1    0    0  501    0  0.00000000000E+00  0.00000000000E+00  0.14666485637E+04  0.14666485637E+04  0.50400001928E-02 0. -1.
       -1   -1    0    0    0  501  0.00000000000E+00  0.00000000000E+00 -0.10891203404E+03  0.10891203416E+03  0.50400001928E-02 0.  1.
    10030    2    1    2    0    0  0.00000000000E+00  0.00000000000E+00  0.13577365297E+04  0.15755605979E+04  0.79933892286E+03 0.  0.
        1    1    3    3  502    0 -0.42186468369E+02  0.24646590203E+03  0.64313165221E+02  0.25818854007E+03  0.50400001928E-02 0.  1.
       -1    1    3    3    0  502  0.42186468369E+02 -0.24646590203E+03  0.12934233645E+04  0.13173720578E+04  0.50400001928E-02 0. -1.
</event>
<event>
 5   0  0.4503289E-02  0.7078449E+03  0.7818609E-02  0.9703910E-01
       -2   -1    0    0    0  501  0.00000000000E+00  0.00000000000E+00  0.21278666784E+03  0.21278666785E+03  0.25500000920E-02 0. -1.
        2   -1    0    0  501    0  0.00000000000E+00  0.00000000000E+00 -0.58866983377E+03  0.58866983378E+03  0.25500000920E-02 0.  1.
    10030    2    1    2    0    0  0.00000000000E+00  0.00000000000E+00 -0.37588316594E+03  0.80145650163E+03  0.70784487677E+03 0.  0.
        2    1    3    3  502    0  0.26097522458E+03  0.18399926352E+03 -0.15121337335E+02  0.31967554124E+03  0.25500000920E-02 0. -1.
       -2    1    3    3    0  502 -0.26097522458E+03 -0.18399926352E+03 -0.36076182860E+03  0.48178096040E+03  0.25500000920E-02 0.  1.
</event>
<event>
 5   0  0.4420645E-02  0.6953411E+03  0.7818609E-02  0.9725233E-01
        2   -1    0    0  501    0  0.00000000000E+00  0.00000000000E+00  0.62537290870E+03  0.62537290871E+03  0.25500000920E-02 0.  1.
       -2   -1    0    0    0  501  0.00000000000E+00  0.00000000000E+00 -0.19328437369E+03  0.19328437371E+03  0.25500000920E-02 0. -1.
    10030    2    1    2    0    0  0.00000000000E+00  0.00000000000E+00  0.43208853501E+03  0.81865728242E+03  0.69534109901E+03 0.  0.
        5    1    3    3  502    0 -0.95989451245E+01 -0.17816601622E+03 -0.13522633782E+03  0.22392749166E+03  0.46999998093E+01 0. -1.
       -5    1    3    3    0  502  0.95989451245E+01  0.17816601622E+03  0.56731487283E+03  0.59472979076E+03  0.46999998093E+01 0.  1.
</event>
<event>
 5   0  0.2750139E-02  0.6986433E+03  0.7818609E-02  0.9719555E-01
       -1   -1    0    0    0  501  0.00000000000E+00  0.00000000000E+00  0.38556254323E+03  0.38556254326E+03  0.50400001928E-02 0.  1.
        1   -1    0    0  501    0  0.00000000000E+00  0.00000000000E+00 -0.31648721220E+03  0.31648721224E+03  0.50400001928E-02 0. -1.
    10030    2    1    2    0    0  0.00000000000E+00  0.00000000000E+00  0.69075331029E+02  0.70204975550E+03  0.69864329801E+03 0.  0.
        2    1    3    3  502    0 -0.26740969924E+03  0.22260575242E+03  0.33323281828E+01  0.34795455547E+03  0.25500000920E-02 0. -1.
       -2    1    3    3    0  502  0.26740969924E+03 -0.22260575242E+03  0.65743002847E+02  0.35409520003E+03  0.25500000920E-02 0.  1.
</event>
<event>
 5   0  0.4503289E-02  0.6795292E+03  0.7818609E-02  0.9752895E-01
        2   -1    0    0  501    0  0.00000000000E+00  0.00000000000E+00  0.47201245423E+03  0.47201245423E+03  0.25500000920E-02 0. -1.
       -2   -1    0    0    0  501  0.00000000000E+00  0.00000000000E+00 -0.24456981798E+03  0.24456981799E+03  0.25500000920E-02 0.  1.
    10030    2    1    2    0    0  0.00000000000E+00  0.00000000000E+00  0.22744263625E+03  0.71658227223E+03  0.67952924888E+03 0.  0.
        2    1    3    3  502    0 -0.11605699685E+03 -0.27739266112E+03 -0.53094415141E+02  0.30534395669E+03  0.25500000920E-02 0.  1.
       -2    1    3    3    0  502  0.11605699685E+03  0.27739266112E+03  0.28053705139E+03  0.41123831554E+03  0.25500000920E-02 0. -1.
</event>
<event>
 5   0  0.4299912E-02  0.7222511E+03  0.7818609E-02  0.9679919E-01
       -2   -1    0    0    0  501  0.00000000000E+00  0.00000000000E+00  0.19978118300E+03  0.19978118302E+03  0.25500000920E-02 0.  1.
        2   -1    0    0  501    0  0.00000000000E+00  0.00000000000E+00 -0.65277247979E+03  0.65277247979E+03  0.25500000920E-02 0. -1.
    10030    2    1    2    0    0  0.00000000000E+00  0.00000000000E+00 -0.45299129679E+03  0.85255366281E+03  0.72225108723E+03 0.  0.
        3    1    3    3  502    0 -0.32678168740E+03 -0.12740185873E+03 -0.12499298234E+03  0.37234494849E+03  0.10100000352E+00 0. -1.
       -3    1    3    3    0  502  0.32678168740E+03  0.12740185873E+03 -0.32799831445E+03  0.48020871432E+03  0.10100000352E+00 0.  1.
</event>
<event>
 5   0  0.2777999E-02  0.5602529E+03  0.7818609E-02  0.9991483E-01
       -1   -1    0    0    0  501  0.00000000000E+00  0.00000000000E+00  0.18805730515E+03  0.18805730522E+03  0.50400001928E-02 0.  1.
        1   -1    0    0  501    0  0.00000000000E+00  0.00000000000E+00 -0.41727076958E+03  0.41727076961E+03  0.50400001928E-02 0. -1.
    10030    2    1    2    0    0  0.00000000000E+00  0.00000000000E+00 -0.22921346443E+03  0.60532807483E+03  0.56025285890E+03 0.  0.
        5    1    3    3  502    0  0.14231078116E+03  0.15901687630E+03 -0.31061332700E+03  0.37688387375E+03  0.46999998093E+01 0. -1.
       -5    1    3    3    0  502 -0.14231078116E+03 -0.15901687630E+03  0.81399862568E+02  0.22844420108E+03  0.46999998093E+01 0.  1.
</event>
<event>
 5   0  0.2758681E-02  0.7016377E+03  0.7818609E-02  0.9714436E-01
        1   -1    0    0  501    0  0.00000000000E+00  0.00000000000E+00  0.48109446430E+03  0.48109446432E+03  0.50400001928E-02 0. -1.
       -1   -1    0    0    0  501  0.00000000000E+00  0.00000000000E+00 -0.25582055968E+03  0.25582055973E+03  0.50400001928E-02 0.  1.
    10030    2    1    2    0    0  0.00000000000E+00  0.00000000000E+00  0.22527390462E+03  0.73691502406E+03  0.70163767044E+03 0.  0.
        3    1    3    3  502    0 -0.17949567801E+03  0.17297884871E+03  0.37189512066E+03  0.44771237586E+03  0.10100000352E+00 0. -1.
       -3    1    3    3    0  502  0.17949567801E+03 -0.17297884871E+03 -0.14662121604E+03  0.28920264819E+03  0.10100000352E+00 0.  1.
</event>
<event>
 5   0  0.4526837E-02  0.7008508E+03  0.7818609E-02  0.9715778E-01
       -2   -1    0    0    0  501  0.00000000000E+00  0.00000000000E+00  0.76327825222E+02  0.76327825265E+02  0.25500000920E-02 0.  1.
        2   -1    0    0  501    0  0.00000000000E+00  0.00000000000E+00 -0.16088230046E+04  0.16088230046E+04  0.25500000920E-02 0. -1.
    10030    2    1    2    0    0  0.00000000000E+00  0.00000000000E+00 -0.15324951794E+04  0.16851508299E+04  0.70085080052E+03 0.  0.
        1    1    3    3  502    0 -0.20912256544E+03 -0.27790985644E+03 -0.66333814191E+03  0.74898840193E+03  0.50400001928E-02 0.  1.
       -1    1    3    3    0  502  0.20912256544E+03  0.27790985644E+03 -0.86915703746E+03  0.93616242793E+03  0.50400001928E-02 0. -1.
</event>
<event>
 5   0  0.2684924E-02  0.6734219E+03  0.7818609E-02  0.9763796E-01
        1   -1    0    0  501    0  0.00000000000E+00  0.00000000000E+00  0.88208089890E+03  0.88208089891E+03  0.50400001928E-02 0.  1.
       -1   -1    0    0    0  501  0.00000000000E+00  0.00000000000E+00 -0.12853045558E+03  0.12853045568E+03  0.50400001928E-02 0. -1.
    10030    2    1    2    0    0  0.00000000000E+00  0.00000000000E+00  0.75355044332E+03  0.10106113546E+04  0.67342188812E+03 0.  0.
        4    1    3    3  502    0 -0.78256698658E+02 -0.25584510324E+03  0.69984243868E+02  0.27655060120E+03  0.12699999809E+01 0. -1.
       -4    1    3    3    0  502  0.78256698658E+02  0.25584510324E+03  0.68356619945E+03  0.73406075339E+03  0.12699999809E+01 0.  1.
</event>
<event>
 5   0  0.2750139E-02  0.7017302E+03  0.7818609E-02  0.9714278E-01
        1   -1    0    0  501    0  0.00000000000E+00  0.00000000000E+00  0.33218644594E+03  0.33218644598E+03  0.50400001928E-02 0. -1.
       -1   -1    0    0    0  501  0.00000000000E+00  0.00000000000E+00 -0.37059400682E+03  0.37059400685E+03  0.50400001928E-02 0.  1.
    10030    2    1    2    0    0  0.00000000000E+00  0.00000000000E+00 -0.38407560882E+02  0.70278045283E+03  0.70173016477E+03 0.  0.
        2    1    3    3  502    0 -0.85070218089E+02  0.22258335860E+03 -0.27712761217E+03  0.36548598737E+03  0.25500000920E-02 0.  1.
       -2    1    3    3    0  502  0.85070218089E+02 -0.22258335860E+03  0.23872005129E+03  0.33729446546E+03  0.25500000920E-02 0. -1.
</event>
<event>
 5   0  0.4365492E-02  0.7120988E+03  0.7818609E-02  0.9696762E-01
       -2   -1    0    0    0  501  0.00000000000E+00  0.00000000000E+00  0.19444346290E+03  0.19444346292E+03  0.25500000920E-02 0.  1.
        2   -1    0    0  501    0  0.00000000000E+00  0.00000000000E+00 -0.65196932429E+03  0.65196932430E+03  0.25500000920E-02 0. -1.
    10030    2    1    2    0    0  0.00000000000E+00  0.00000000000E+00 -0.45752586139E+03  0.84641278722E+03  0.71209879408E+03 0.  0.
        4    1    3    3  502    0 -0.27687826292E+03 -0.22348553458E+03 -0.24390105946E+03  0.43138926313E+03  0.12699999809E+01 0. -1.
       -4    1    3    3    0  502  0.27687826292E+03  0.22348553458E+03 -0.21362480193E+03  0.41502352408E+03  0.12699999809E+01 0.  1.
</event>
<event>
 5   0  0.4503289E-02  0.7019189E+03  0.7818609E-02  0.9713956E-01
        2   -1    0    0  501    0  0.00000000000E+00  0.00000000000E+00  0.75098566370E+03  0.75098566371E+03  0.25500000920E-02 0.  1.
       -2   -1    0    0    0  501  0.00000000000E+00  0.00000000000E+00 -0.16401449621E+03  0.16401449623E+03  0.25500000920E-02 0. -1.
    10030    2    1    2    0    0  0.00000000000E+00  0.00000000000E+00  0.58697116749E+03  0.91500015994E+03  0.70191889932E+03 0.  0.
        2    1    3    3  502    0  0.10703830103E+03 -0.23253176725E+03  0.60646262018E+03  0.65827435796E+03  0.25500000920E-02 0.  1.
       -2    1    3    3    0  502 -0.10703830103E+03  0.23253176725E+03 -0.19491452688E+02  0.25672580198E+03  0.25500000920E-02 0. -1.
</event>
<event>
 5   0  0.4299912E-02  0.6951764E+03  0.7818609E-02  0.9725517E-01
       -2   -1    0    0    0  501  0.00000000000E+00  0.00000000000E+00  0.73152179051E+03  0.73152179051E+03  0.25500000920E-02 0. -1.
        2   -1    0    0  501    0  0.00000000000E+00  0.00000000000E+00 -0.16515918925E+03  0.16515918927E+03  0.25500000920E-02 0.  1.
    10030    2    1    2    0    0  0.00000000000E+00  0.00000000000E+00  0.56636260125E+03  0.89668097978E+03  0.69517636856E+03 0.  0.
        3    1    3    3  502    0  0.24595590438E+03  0.23180230829E+03  0.38789799684E+03  0.51448176176E+03  0.10100000352E+00 0. -1.
       -3    1    3    3    0  502 -0.24595590438E+03 -0.23180230829E+03  0.17846460442E+03  0.38219921803E+03  0.10100000352E+00 0.  1.
</event>
<event>
 5   0  0.1784625E-02  0.6998395E+03  0.7818609E-02  0.9717507E-01
       -4   -1    0    0    0  501  0.00000000000E+00  0.00000000000E+00  0.32088319476E+03  0.32088570797E+03  0.12699999809E+01 0. -1.
        4   -1    0    0  501    0  0.00000000000E+00  0.00000000000E+00 -0.38157876792E+03  0.38158088137E+03  0.12699999809E+01 0.  1.
    10030    2    1    2    0    0  0.00000000000E+00  0.00000000000E+00 -0.60695573160E+02  0.70246658933E+03  0.69983952198E+03 0.  0.
        2    1    3    3  502    0  0.89155717932E+02  0.35967193836E+02  0.30736944367E+03  0.32205334338E+03  0.25500000920E-02 0. -1.
       -2    1    3    3    0  502 -0.89155717932E+02 -0.35967193836E+02 -0.36806501683E+03  0.38041324595E+03  0.25500000920E-02 0.  1.
</event>
<event>
 5   0  0.4365492E-02  0.7056952E+03  0.7818609E-02  0.9707542E-01
       -2   -1    0    0    0  501  0.00000000000E+00  0.00000000000E+00  0.66700687986E+03  0.66700687986E+03  0.25500000920E-02 0. -1.
        2   -1    0    0  501    0  0.00000000000E+00  0.00000000000E+00 -0.18665691268E+03  0.18665691270E+03  0.25500000920E-02 0.  1.
    10030    2    1    2    0    0  0.00000000000E+00  0.00000000000E+00  0.48034996718E+03  0.85366379256E+03  0.70569524566E+03 0.  0.
        4    1    3    3  502    0  0.20313442780E+03  0.41451549191E+02 -0.10520442558E+03  0.23248959278E+03  0.12699999809E+01 0.  1.
       -4    1    3    3    0  502 -0.20313442780E+03 -0.41451549191E+02  0.58555439276E+03  0.62117419978E+03  0.12699999809E+01 0. -1.
</event>
<event>
 5   0  0.4299912E-02  0.6979187E+03  0.7818609E-02  0.9720798E-01
       -2   -1    0    0    0  501  0.00000000000E+00  0.00000000000E+00  0.11386890542E+03  0.11386890545E+03  0.25500000920E-02 0.  1.
        2   -1    0    0  501    0  0.00000000000E+00  0.00000000000E+00 -0.10694107297E+04  0.10694107297E+04  0.25500000920E-02 0. -1.
    10030    2    1    2    0    0  0.00000000000E+00  0.00000000000E+00 -0.95554182426E+03  0.11832796351E+04  0.69791870372E+03 0.  0.
        3    1    3    3  502    0 -0.19107395740E+03 -0.21161871508E+03 -0.81889118642E+03  0.86710698485E+03  0.10100000352E+00 0. -1.
       -3    1    3    3    0  502  0.19107395740E+03  0.21161871508E+03 -0.13665063784E+03  0.31617265029E+03  0.10100000352E+00 0.  1.
</event>
<event>
 5   0  0.2758681E-02  0.6364601E+03  0.7818609E-02  0.9832523E-01
       -1   -1    0    0    0  501  0.00000000000E+00  0.00000000000E+00  0.30186051110E+03  0.30186051114E+03  0.50400001928E-02 0. -1.
        1   -1    0    0  501    0  0.00000000000E+00  0.00000000000E+00 -0.33548724126E+03  0.33548724130E+03  0.50400001928E-02 0.  1.
    10030    2    1    2    0    0  0.00000000000E+00  0.00000000000E+00 -0.33626730161E+02  0.63734775244E+03  0.63646005418E+03 0.  0.
        3    1    3    3  502    0  0.31784063918E+03  0.15735529314E+02 -0.16565747617E+02  0.31866081182E+03  0.10100000352E+00 0.  1.
       -3    1    3    3    0  502 -0.31784063918E+03 -0.15735529314E+02 -0.17060982544E+02  0.31868694062E+03  0.10100000352E+00 0. -1.
</event>
<event>
 5   0  0.4299912E-02  0.7194746E+03  0.7818609E-02  0.9684496E-01
       -2   -1    0    0    0  501  0.00000000000E+00  0.00000000000E+00  0.19612666213E+03  0.19612666215E+03  0.25500000920E-02 0.  1.
        2   -1    0    0  501    0  0.00000000000E+00  0.00000000000E+00 -0.65983333538E+03  0.65983333538E+03  0.25500000920E-02 0. -1.
    10030    2    1    2    0    0  0.00000000000E+00  0.00000000000E+00 -0.46370667325E+03  0.85595999753E+03  0.71947455727E+03 0.  0.
        3    1    3    3  502    0  0.11279341380E+03  0.83352886328E+02  0.16226094373E+03  0.21447303308E+03  0.10100000352E+00 0.  1.
       -3    1    3    3    0  502 -0.11279341380E+03 -0.83352886328E+02 -0.62596761698E+03  0.64148696445E+03  0.10100000352E+00 0. -1.
</event>
<event>
 5   0  0.2750139E-02  0.6999430E+03  0.7818609E-02  0.9717330E-01
        1   -1    0    0  501    0  0.00000000000E+00  0.00000000000E+00  0.39748688170E+03  0.39748688173E+03  0.50400001928E-02 0.  1.
       -1   -1    0    0    0  501  0.00000000000E+00  0.00000000000E+00 -0.30813604572E+03  0.30813604576E+03  0.50400001928E-02 0. -1.
    10030    2    1    2    0    0  0.00000000000E+00  0.00000000000E+00  0.89350835976E+02  0.70562292749E+03  0.69994295762E+03 0.  0.
        2    1    3    3  502    0 -0.28412955394E+03  0.45789670332E+02  0.24542382388E+03  0.37823160982E+03  0.25500000920E-02 0.  1.
       -2    1    3    3    0  502  0.28412955394E+03 -0.45789670332E+02 -0.15607298791E+03  0.32739131768E+03  0.25500000920E-02 0. -1.
</event>
<event>
 5   0  0.2751729E-02  0.6833407E+03  0.7818609E-02  0.9746154E-01
       -1   -1    0    0    0  501  0.00000000000E+00  0.00000000000E+00  0.68714551681E+02  0.68714551866E+02  0.50400001928E-02 0. -1.
        1   -1    0    0  501    0  0.00000000000E+00  0.00000000000E+00 -0.16988922952E+04  0.16988922952E+04  0.50400001928E-02 0.  1.
    10030    2    1    2    0    0  0.00000000000E+00  0.00000000000E+00 -0.16301777435E+04  0.17676068470E+04  0.68334068395E+03 0.  0.
        1    1    3    3  502    0 -0.14595320149E+03  0.23540215283E+03 -0.29760311767E+03  0.40655150504E+03  0.50400001928E-02 0. -1.
       -1    1    3    3    0  502  0.14595320149E+03 -0.23540215283E+03 -0.13325746258E+04  0.13610553420E+04  0.50400001928E-02 0.  1.
</event>
<event>
 5   0  0.4365492E-02  0.7033738E+03  0.7818609E-02  0.9711480E-01
       -2   -1    0    0    0  501  0.00000000000E+00  0.00000000000E+00  0.78818230028E+03  0.78818230028E+03  0.25500000920E-02 0.  1.
        2   -1    0    0  501    0  0.00000000000E+00  0.00000000000E+00 -0.15692268051E+03  0.15692268053E+03  0.25500000920E-02 0. -1.
    10030    2    1    2    0    0  0.00000000000E+00  0.00000000000E+00  0.63125961977E+03  0.94510498081E+03  0.70337381043E+03 0.  0.
        4    1    3    3  502    0  0.26010608721E+03  0.15471135363E+03  0.55633609180E+03  0.63332632938E+03  0.12699999809E+01 0. -1.
       -4    1    3    3    0  502 -0.26010608721E+03 -0.15471135363E+03  0.74923527966E+02  0.31177865143E+03  0.12699999809E+01 0.  1.
</event>
<event>
 5   0  0.4365492E-02  0.7005321E+03  0.7818609E-02  0.9716323E-01
       -2   -1    0    0    0  501  0.00000000000E+00  0.00000000000E+00  0.88087770530E+02  0.88087770567E+02  0.25500000920E-02 0.  1.
        2   -1    0    0  501    0  0.00000000000E+00  0.00000000000E+00 -0.13927733440E+04  0.13927733440E+04  0.25500000920E-02 0. -1.
    10030    2    1    2    0    0  0.00000000000E+00  0.00000000000E+00 -0.13046855735E+04  0.14808611146E+04  0.70053207994E+03 0.  0.
        4    1    3    3  502    0  0.21706892645E+03  0.17094647984E+03 -0.19727227724E+03  0.33949901630E+03  0.12699999809E+01 0.  1.
       -4    1    3    3    0  502 -0.21706892645E+03 -0.17094647984E+03 -0.11074132962E+04  0.11413620983E+04  0.12699999809E+01 0. -1.
</event>
<event>
 5   0  0.4365492E-02  0.7054034E+03  0.7818609E-02  0.9708036E-01
       -2   -1    0    0    0  501  0.00000000000E+00  0.00000000000E+00  0.43644829209E+03  0.43644829210E+03  0.25500000920E-02 0.  1.
        2   -1    0    0  501    0  0.00000000000E+00  0.00000000000E+00 -0.28502459850E+03  0.28502459852E+03  0.25500000920E-02 0. -1.
    10030    2    1    2    0    0  0.00000000000E+00  0.00000000000E+00  0.15142369358E+03  0.72147289061E+03  0.70540342848E+03 0.  0.
        4    1    3    3  502    0  0.18104288370E+03 -0.79672776668E+02  0.37437883810E+03  0.42342107222E+03  0.12699999809E+01 0.  1.
       -4    1    3    3    0  502 -0.18104288370E+03  0.79672776668E+02 -0.22295514452E+03  0.29805181839E+03  0.12699999809E+01 0. -1.
</event>
<event>
 5   0  0.1784625E-02  0.7064409E+03  0.7818609E-02  0.9706280E-01
       -3   -1    0    0    0  501  0.00000000000E+00  0.00000000000E+00  0.24257878183E+03  0.24257880286E+03  0.10100000352E+00 0. -1.
        3   -1    0    0  501    0  0.00000000000E+00  0.00000000000E+00 -0.51432644821E+03  0.51432645813E+03  0.10100000352E+00 0.  1.
    10030    2    1    2    0    0  0.00000000000E+00  0.00000000000E+00 -0.27174766638E+03  0.75690526098E+03  0.70644092458E+03 0.  0.
        2    1    3    3  502    0  0.11262997411E+03 -0.31730207273E+03 -0.25026461329E+03  0.41952174330E+03  0.25500000920E-02 0.  1.
       -2    1    3    3    0  502 -0.11262997411E+03  0.31730207273E+03 -0.21483053084E+02  0.33738351768E+03  0.25500000920E-02 0. -1.
</event>
<event>
 5   0  0.2751729E-02  0.7068744E+03  0.7818609E-02  0.9705548E-01
       -1   -1    0    0    0  501  0.00000000000E+00  0.00000000000E+00  0.63759804650E+03  0.63759804652E+03  0.50400001928E-02 0.  1.
        1   -1    0    0  501    0  0.00000000000E+00  0.00000000000E+00 -0.19591943425E+03  0.19591943432E+03  0.50400001928E-02 0. -1.
    10030    2    1    2    0    0  0.00000000000E+00  0.00000000000E+00  0.44167861225E+03  0.83351748084E+03  0.70687438371E+03 0.  0.
        1    1    3    3  502    0 -0.52943376256E+02  0.25304925925E+03  0.50501649366E+03  0.56734344765E+03  0.50400001928E-02 0.  1.
       -1    1    3    3    0  502  0.52943376256E+02 -0.25304925925E+03 -0.63337881415E+02  0.26617403319E+03  0.50400001928E-02 0. -1.
</event>
<event>
 5   0  0.1784625E-02  0.7030902E+03  0.7818609E-02  0.9711962E-01
       -3   -1    0    0    0  501  0.00000000000E+00  0.00000000000E+00  0.10696887040E+03  0.10696891808E+03  0.10100000352E+00 0. -1.
        3   -1    0    0  501    0  0.00000000000E+00  0.00000000000E+00 -0.11553261531E+04  0.11553261575E+04  0.10100000352E+00 0.  1.
    10030    2    1    2    0    0  0.00000000000E+00  0.00000000000E+00 -0.10483572827E+04  0.12622950756E+04  0.70309022584E+03 0.  0.
        2    1    3    3  502    0  0.15432750159E+03  0.16313605361E+03 -0.38590884212E+02  0.22785874152E+03  0.25500000920E-02 0. -1.
       -2    1    3    3    0  502 -0.15432750159E+03 -0.16313605361E+03 -0.10097663985E+04  0.10344363341E+04  0.25500000920E-02 0.  1.
</event>
<event>
 5   0  0.4299912E-02  0.7095749E+03  0.7818609E-02  0.9700997E-01
       -2   -1    0    0    0  501  0.00000000000E+00  0.00000000000E+00  0.22830926767E+03  0.22830926768E+03  0.25500000920E-02 0.  1.
        2   -1    0    0  501    0  0.00000000000E+00  0.00000000000E+00 -0.55133165737E+03  0.55133165737E+03  0.25500000920E-02 0. -1.
    10030    2    1    2    0    0  0.00000000000E+00  0.00000000000E+00 -0.32302238970E+03  0.77964092505E+03  0.70957487820E+03 0.  0.
        3    1    3    3  502    0  0.88838239432E+02 -0.49151002289E+02 -0.53502921234E+03  0.54457719570E+03  0.10100000352E+00 0. -1.
       -3    1    3    3    0  502 -0.88838239432E+02  0.49151002289E+02  0.21200682264E+03  0.23506372936E+03  0.10100000352E+00 0.  1.
</event>
<event>
 5   0  0.1784625E-02  0.6995735E+03  0.7818609E-02  0.9717962E-01
       -3   -1    0    0    0  501  0.00000000000E+00  0.00000000000E+00  0.74535199271E+02  0.74535267701E+02  0.10100000352E+00 0.  1.
        3   -1    0    0  501    0  0.00000000000E+00  0.00000000000E+00 -0.16415158342E+04  0.16415158373E+04  0.10100000352E+00 0. -1.
    10030    2    1    2    0    0  0.00000000000E+00  0.00000000000E+00 -0.15669806349E+04  0.17160511050E+04  0.69957350204E+03 0.  0.
        1    1    3    3  502    0  0.22135222071E+03  0.21550976590E+03 -0.38109795278E+03  0.49058833501E+03  0.50400001928E-02 0.  1.
       -1    1    3    3    0  502 -0.22135222071E+03 -0.21550976590E+03 -0.11858826822E+04  0.12254627700E+04  0.50400001928E-02 0. -1.
</event>
<event>
 5   0  0.4526837E-02  0.6864375E+03  0.7818609E-02  0.9740711E-01
       -2   -1    0    0    0  501  0.00000000000E+00  0.00000000000E+00  0.36786029073E+03  0.36786029074E+03  0.25500000920E-02 0.  1.
        2   -1    0    0  501    0  0.00000000000E+00  0.00000000000E+00 -0.32022783562E+03  0.32022783563E+03  0.25500000920E-02 0. -1.
    10030    2    1    2    0    0  0.00000000000E+00  0.00000000000E+00  0.47632455110E+02  0.68808812636E+03  0.68643748358E+03 0.  0.
        1    1    3    3  502    0  0.32561300541E+02 -0.33465137281E+03 -0.45250289987E+02  0.33926297822E+03  0.50400001928E-02 0. -1.
       -1    1    3    3    0  502 -0.32561300541E+02  0.33465137281E+03  0.92882745097E+02  0.34882514815E+03  0.50400001928E-02 0.  1.
</event>
<event>
 5   0  0.1784625E-02  0.7179561E+03  0.7818609E-02  0.9687008E-01
       -4   -1    0    0    0  501  0.00000000000E+00  0.00000000000E+00  0.35669135240E+03  0.35669361331E+03  0.12699999809E+01 0.  1.
        4   -1    0    0  501    0  0.00000000000E+00  0.00000000000E+00 -0.36127485172E+03  0.36127708395E+03  0.12699999809E+01 0. -1.
    10030    2    1    2    0    0  0.00000000000E+00  0.00000000000E+00 -0.45834993202E+01  0.71797069726E+03  0.71795606666E+03 0.  0.
        4    1    3    3  502    0  0.27020470818E+03  0.69693810901E+00  0.23404449773E+03  0.35747658646E+03  0.12699999809E+01 0.  1.
       -4    1    3    3    0  502 -0.27020470818E+03 -0.69693810901E+00 -0.23862799705E+03  0.36049411080E+03  0.12699999809E+01 0. -1.
</event>
<event>
 5   0  0.2751729E-02  0.6947120E+03  0.7818609E-02  0.9726318E-01
       -1   -1    0    0    0  501  0.00000000000E+00  0.00000000000E+00  0.19816093369E+03  0.19816093375E+03  0.50400001928E-02 0. -1.
        1   -1    0    0  501    0  0.00000000000E+00  0.00000000000E+00 -0.60887981359E+03  0.60887981361E+03  0.50400001928E-02 0.  1.
    10030    2    1    2    0    0  0.00000000000E+00  0.00000000000E+00 -0.41071887990E+03  0.80704074736E+03  0.69471200479E+03 0.  0.
        1    1    3    3  502    0 -0.22091327744E+03 -0.24730434139E+03 -0.85226431778E+02  0.34238232741E+03  0.50400001928E-02 0. -1.
       -1    1    3    3    0  502  0.22091327744E+03  0.24730434139E+03 -0.32549244813E+03  0.46465841995E+03  0.50400001928E-02 0.  1.
</event>
<event>
 5   0  0.1784625E-02  0.6992260E+03  0.7818609E-02  0.9718557E-01
        4   -1    0    0  501    0  0.00000000000E+00  0.00000000000E+00  0.94148798700E+03  0.94148884357E+03  0.12699999809E+01 0.  1.
       -4   -1    0    0    0  501  0.00000000000E+00  0.00000000000E+00 -0.12982159762E+03  0.12982780946E+03  0.12699999809E+01 0. -1.
    10030    2    1    2    0    0  0.00000000000E+00  0.00000000000E+00  0.81166638938E+03  0.10713166530E+04  0.69922603171E+03 0.  0.
        5    1    3    3  502    0 -0.20973553516E+03 -0.90683645838E+01  0.83411112038E+03  0.86013643167E+03  0.46999998093E+01 0.  1.
       -5    1    3    3    0  502  0.20973553516E+03  0.90683645838E+01 -0.22444731002E+02  0.21118022136E+03  0.46999998093E+01 0. -1.
</event>
<event>
 5   0  0.4299912E-02  0.7036514E+03  0.7818609E-02  0.9711008E-01
        2   -1    0    0  501    0  0.00000000000E+00  0.00000000000E+00  0.10778245988E+04  0.10778245988E+04  0.25500000920E-02 0. -1.
       -2   -1    0    0    0  501  0.00000000000E+00  0.00000000000E+00 -0.11484367628E+03  0.11484367631E+03  0.25500000920E-02 0.  1.
    10030    2    1    2    0    0  0.00000000000E+00  0.00000000000E+00  0.96298092247E+03  0.11926682751E+04  0.70365144590E+03 0.  0.
        3    1    3    3  502    0  0.17590715971E+03  0.24594558601E+03  0.17663711796E+03  0.35019029364E+03  0.10100000352E+00 0.  1.
       -3    1    3    3    0  502 -0.17590715971E+03 -0.24594558601E+03  0.78634380450E+03  0.84247798143E+03  0.10100000352E+00 0. -1.
</event>
<event>
 5   0  0.2750139E-02  0.7036130E+03  0.7818609E-02  0.9711073E-01
        1   -1    0    0  501    0  0.00000000000E+00  0.00000000000E+00  0.11042438219E+04  0.11042438219E+04  0.50400001928E-02 0.  1.
       -1   -1    0    0    0  501  0.00000000000E+00  0.00000000000E+00 -0.11208375799E+03  0.11208375811E+03  0.50400001928E-02 0. -1.
    10030    2    1    2    0    0  0.00000000000E+00  0.00000000000E+00  0.99216006390E+03  0.12163275800E+04  0.70361295433E+03 0.  0.
        2    1    3    3  502    0  0.55776721610E+02 -0.28668367587E+03  0.83513760142E+03  0.88473351128E+03  0.25500000920E-02 0. -1.
       -2    1    3    3    0  502 -0.55776721610E+02  0.28668367587E+03  0.15702246248E+03  0.33159406872E+03  0.25500000920E-02 0.  1.
</event>
<event>
 5   0  0.4365492E-02  0.6758620E+03  0.7818609E-02  0.9759426E-01
        2   -1    0    0  501    0  0.00000000000E+00  0.00000000000E+00  0.11941662863E+04  0.11941662863E+04  0.25500000920E-02 0. -1.
       -2   -1    0    0    0  501  0.00000000000E+00  0.00000000000E+00 -0.95629371097E+02  0.95629371131E+02  0.25500000920E-02 0.  1.
    10030    2    1    2    0    0  0.00000000000E+00  0.00000000000E+00  0.10985369152E+04  0.12897956574E+04  0.67586203021E+03 0.  0.
        4    1    3    3  502    0  0.27004123680E+03 -0.16021333027E+03  0.31087341752E+03  0.44185345465E+03  0.12699999809E+01 0.  1.
       -4    1    3    3    0  502 -0.27004123680E+03  0.16021333027E+03  0.78766349769E+03  0.84794220279E+03  0.12699999809E+01 0. -1.
</event>
<event>
 5   0  0.2758681E-02  0.6989106E+03  0.7818609E-02  0.9719097E-01
        1   -1    0    0  501    0  0.00000000000E+00  0.00000000000E+00  0.31572215952E+03  0.31572215956E+03  0.50400001928E-02 0.  1.
       -1   -1    0    0    0  501  0.00000000000E+00  0.00000000000E+00 -0.38679261842E+03  0.38679261846E+03  0.50400001928E-02 0. -1.
    10030    2    1    2    0    0  0.00000000000E+00  0.00000000000E+00 -0.71070458901E+02  0.70251477802E+03  0.69891058313E+03 0.  0.
        3    1    3    3  502    0  0.37625700878E+02 -0.34404835055E+03  0.13025705353E+02  0.34634468393E+03  0.10100000352E+00 0.  1.
       -3    1    3    3    0  502 -0.37625700878E+02  0.34404835055E+03 -0.84096164254E+02  0.35617009409E+03  0.10100000352E+00 0. -1.
</event>
<event>
 5   0  0.2751729E-02  0.6976054E+03  0.7818609E-02  0.9721336E-01
       -1   -1    0    0    0  501  0.00000000000E+00  0.00000000000E+00  0.10203126025E+03  0.10203126038E+03  0.50400001928E-02 0. -1.
        1   -1    0    0  501    0  0.00000000000E+00  0.00000000000E+00 -0.11924122551E+04  0.11924122551E+04  0.50400001928E-02 0.  1.
    10030    2    1    2    0    0  0.00000000000E+00  0.00000000000E+00 -0.10903809949E+04  0.12944435155E+04  0.69760540485E+03 0.  0.
        1    1    3    3  502    0 -0.26119906015E+03  0.83826232009E+02 -0.14544254084E+03  0.31049205933E+03  0.50400001928E-02 0. -1.
       -1    1    3    3    0  502  0.26119906015E+03 -0.83826232009E+02 -0.94493845402E+03  0.98395145617E+03  0.50400001928E-02 0.  1.
</event>
<event>
 5   0  0.4365492E-02  0.6919168E+03  0.7818609E-02  0.9731156E-01
       -2   -1    0    0    0  501  0.00000000000E+00  0.00000000000E+00  0.21112331868E+03  0.21112331869E+03  0.25500000920E-02 0. -1.
        2   -1    0    0  501    0  0.00000000000E+00  0.00000000000E+00 -0.56690662703E+03  0.56690662704E+03  0.25500000920E-02 0.  1.
    10030    2    1    2    0    0  0.00000000000E+00  0.00000000000E+00 -0.35578330835E+03  0.77802994573E+03  0.69191678253E+03 0.  0.
        4    1    3    3  502    0 -0.29538244133E+02  0.31341533685E+03 -0.16564886900E+02  0.31524227131E+03  0.12699999809E+01 0. -1.
       -4    1    3    3    0  502  0.29538244133E+02 -0.31341533685E+03 -0.33921842145E+03  0.46278767442E+03  0.12699999809E+01 0.  1.
</event>
<event>
 5   0  0.4420645E-02  0.6970248E+03  0.7818609E-02  0.9722334E-01
        2   -1    0    0  501    0  0.00000000000E+00  0.00000000000E+00  0.21686248360E+03  0.21686248362E+03  0.25500000920E-02 0. -1.
       -2   -1    0    0    0  501  0.00000000000E+00  0.00000000000E+00 -0.56008247284E+03  0.56008247284E+03  0.25500000920E-02 0.  1.
    10030    2    1    2    0    0  0.00000000000E+00  0.00000000000E+00 -0.34321998923E+03  0.77694495646E+03  0.69702475161E+03 0.  0.
        5    1    3    3  502    0 -0.15310927217E+02  0.26280883495E+03  0.82903255447E+02  0.27603975797E+03  0.46999998093E+01 0. -1.
       -5    1    3    3    0  502  0.15310927217E+02 -0.26280883495E+03 -0.42612324468E+03  0.50090519849E+03  0.46999998093E+01 0.  1.
</event>
<event>
 5   0  0.1784625E-02  0.7107469E+03  0.7818609E-02  0.9699028E-01
       -4   -1    0    0    0  501  0.00000000000E+00  0.00000000000E+00  0.12207775812E+04  0.12207782418E+04  0.12699999809E+01 0.  1.
        4   -1    0    0  501    0  0.00000000000E+00  0.00000000000E+00 -0.10344612272E+03  0.10345391827E+03  0.12699999809E+01 0. -1.
    10030    2    1    2    0    0  0.00000000000E+00  0.00000000000E+00  0.11173314585E+04  0.13242321601E+04  0.71074694912E+03 0.  0.
        3    1    3    3  502    0 -0.34878158739E+03  0.38961687122E+02  0.66279741849E+03  0.74997802429E+03  0.10100000352E+00 0.  1.
       -3    1    3    3    0  502  0.34878158739E+03 -0.38961687122E+02  0.45453404000E+03  0.57425413580E+03  0.10100000352E+00 0. -1.
</event>
<event>
 5   0  0.2750139E-02  0.7156973E+03  0.7818609E-02  0.9690758E-01
        1   -1    0    0  501    0  0.00000000000E+00  0.00000000000E+00  0.78154849258E+03  0.78154849260E+03  0.50400001928E-02 0. -1.
       -1   -1    0    0    0  501  0.00000000000E+00  0.00000000000E+00 -0.16384862086E+03  0.16384862093E+03  0.50400001928E-02 0.  1.
    10030    2    1    2    0    0  0.00000000000E+00  0.00000000000E+00  0.61769987172E+03  0.94539711353E+03  0.71569726193E+03 0.  0.
        2    1    3    3  502    0  0.13976685026E+03  0.27697380268E+03  0.54443191042E+03  0.62662218672E+03  0.25500000920E-02 0. -1.
       -2    1    3    3    0  502 -0.13976685026E+03 -0.27697380268E+03  0.73267961301E+02  0.31877492681E+03  0.25500000920E-02 0.  1.
</event>
<event>
 5   0  0.2751729E-02  0.6901128E+03  0.7818609E-02  0.9734292E-01
        1   -1    0    0  501    0  0.00000000000E+00  0.00000000000E+00  0.27401241348E+03  0.27401241353E+03  0.50400001928E-02 0. -1.
       -1   -1    0    0    0  501  0.00000000000E+00  0.00000000000E+00 -0.43452010634E+03  0.43452010637E+03  0.50400001928E-02 0.  1.
    10030    2    1    2    0    0  0.00000000000E+00  0.00000000000E+00 -0.16050769286E+03  0.70853251990E+03  0.69011275332E+03 0.  0.
        1    1    3    3  502    0 -0.24774091353E+03 -0.22840883380E+03 -0.39896595641E+01  0.33698972241E+03  0.50400001928E-02 0. -1.
       -1    1    3    3    0  502  0.24774091353E+03  0.22840883380E+03 -0.15651803329E+03  0.37154279750E+03  0.50400001928E-02 0.  1.
</event>
<event>
 5   0  0.2777999E-02  0.6867952E+03  0.7818609E-02  0.9740085E-01
        1   -1    0    0  501    0  0.00000000000E+00  0.00000000000E+00  0.13938944390E+04  0.13938944390E+04  0.50400001928E-02 0.  1.
       -1   -1    0    0    0  501  0.00000000000E+00  0.00000000000E+00 -0.84598874025E+02  0.84598874175E+02  0.50400001928E-02 0. -1.
    10030    2    1    2    0    0  0.00000000000E+00  0.00000000000E+00  0.13092955650E+04  0.14784933132E+04  0.68679516645E+03 0.  0.
        5    1    3    3  502    0 -0.10940802160E+03 -0.32409853775E+03  0.71886423955E+03  0.79611422689E+03  0.46999998093E+01 0.  1.
       -5    1    3    3    0  502  0.10940802160E+03  0.32409853775E+03  0.59043132540E+03  0.68237908627E+03  0.46999998093E+01 0. -1.
</event>
<event>
 5   0  0.2758681E-02  0.6951593E+03  0.7818609E-02  0.9725546E-01
       -1   -1    0    0    0  501  0.00000000000E+00  0.00000000000E+00  0.29634430313E+03  0.29634430317E+03  0.50400001928E-02 0.  1.
        1   -1    0    0  501    0  0.00000000000E+00  0.00000000000E+00 -0.40767315519E+03  0.40767315522E+03  0.50400001928E-02 0. -1.
    10030    2    1    2    0    0  0.00000000000E+00  0.00000000000E+00 -0.11132885206E+03  0.70401745839E+03  0.69515931154E+03 0.  0.
        3    1    3    3  502    0  0.17960086235E+03 -0.22359762430E+02  0.24485775680E+03  0.30448605879E+03  0.10100000352E+00 0.  1.
       -3    1    3    3    0  502 -0.17960086235E+03  0.22359762430E+02 -0.35618660886E+03  0.39953139960E+03  0.10100000352E+00 0. -1.
</event>
<event>
 5   0  0.4526837E-02  0.7015460E+03  0.7818609E-02  0.9714592E-01
        2   -1    0    0  501    0  0.00000000000E+00  0.00000000000E+00  0.45332087807E+03  0.45332087808E+03  0.25500000920E-02 0. -1.
       -2   -1    0    0    0  501  0.00000000000E+00  0.00000000000E+00 -0.27142299284E+03  0.27142299286E+03  0.25500000920E-02 0.  1.
    10030    2    1    2    0    0  0.00000000000E+00  0.00000000000E+00  0.18189788522E+03  0.72474387093E+03  0.70154603399E+03 0.  0.
        1    1    3    3  502    0  0.82429551210E+01 -0.34794838097E+03  0.13604662225E+03  0.37369065492E+03  0.50400001928E-02 0. -1.
       -1    1    3    3    0  502 -0.82429551210E+01  0.34794838097E+03  0.45851262978E+02  0.35105321601E+03  0.50400001928E-02 0.  1.
</event>
<event>
 5   0  0.2758681E-02  0.7037634E+03  0.7818609E-02  0.9710818E-01
        1   -1    0    0  501    0  0.00000000000E+00  0.00000000000E+00  0.50587935517E+03  0.50587935519E+03  0.50400001928E-02 0. -1.
       -1   -1    0    0    0  501  0.00000000000E+00  0.00000000000E+00 -0.24476333386E+03  0.24476333391E+03  0.50400001928E-02 0.  1.
    10030    2    1    2    0    0  0.00000000000E+00  0.00000000000E+00  0.26111602131E+03  0.75064268910E+03  0.70376336230E+03 0.  0.
        3    1    3    3  502    0 -0.95868917427E+02 -0.33001321235E+03  0.21123465105E+03  0.40338524720E+03  0.10100000352E+00 0. -1.
       -3    1    3    3    0  502  0.95868917427E+02  0.33001321235E+03  0.49881370254E+02  0.34725744190E+03  0.10100000352E+00 0.  1.
</event>
<event>
 5   0  0.2751729E-02  0.7075793E+03  0.7818609E-02  0.9704358E-01
       -1   -1    0    0    0  501  0.00000000000E+00  0.00000000000E+00  0.18901016315E+03  0.18901016321E+03  0.50400001928E-02 0. -1.
        1   -1    0    0  501    0  0.00000000000E+00  0.00000000000E+00 -0.66222419827E+03  0.66222419829E+03  0.50400001928E-02 0.  1.
    10030    2    1    2    0    0  0.00000000000E+00  0.00000000000E+00 -0.47321403513E+03  0.85123436151E+03  0.70757926423E+03 0.  0.
        1    1    3    3  502    0 -0.22885624333E+03 -0.23336804379E+03 -0.39948802322E+03  0.51616519129E+03  0.50400001928E-02 0.  1.
       -1    1    3    3    0  502  0.22885624333E+03  0.23336804379E+03 -0.73726011903E+02  0.33506917022E+03  0.50400001928E-02 0. -1.
</event>
<event>
 5   0  0.2751729E-02  0.6687160E+03  0.7818609E-02  0.9772280E-01
        1   -1    0    0  501    0  0.00000000000E+00  0.00000000000E+00  0.12108000588E+04  0.12108000589E+04  0.50400001928E-02 0.  1.
       -1   -1    0    0    0  501  0.00000000000E+00  0.00000000000E+00 -0.92331744785E+02  0.92331744923E+02  0.50400001928E-02 0. -1.
    10030    2    1    2    0    0  0.00000000000E+00  0.00000000000E+00  0.11184683141E+04  0.13031318038E+04  0.66871602976E+03 0.  0.
        1    1    3    3  502    0  0.62831209583E+02  0.11702932897E+03 -0.38709956784E+02  0.13835492588E+03  0.50400001928E-02 0. -1.
       -1    1    3    3    0  502 -0.62831209583E+02 -0.11702932897E+03  0.11571782708E+04  0.11647768779E+04  0.50400001928E-02 0.  1.
</event>
<event>
 5   0  0.2750139E-02  0.6876682E+03  0.7818609E-02  0.9738557E-01
       -1   -1    0    0    0  501  0.00000000000E+00  0.00000000000E+00  0.25623873954E+03  0.25623873959E+03  0.50400001928E-02 0.  1.
        1   -1    0    0  501    0  0.00000000000E+00  0.00000000000E+00 -0.46137395134E+03  0.46137395137E+03  0.50400001928E-02 0. -1.
    10030    2    1    2    0    0  0.00000000000E+00  0.00000000000E+00 -0.20513521180E+03  0.71761269096E+03  0.68766817515E+03 0.  0.
        2    1    3    3  502    0 -0.29674970264E+03  0.14338586405E+03 -0.20482430240E+03  0.38803722358E+03  0.25500000920E-02 0. -1.
       -2    1    3    3    0  502  0.29674970264E+03 -0.14338586405E+03 -0.31090940238E+00  0.32957546738E+03  0.25500000920E-02 0.  1.
</event>
<event>
 5   0  0.2758681E-02  0.7006151E+03  0.7818609E-02  0.9716181E-01
       -1   -1    0    0    0  501  0.00000000000E+00  0.00000000000E+00  0.16512746196E+03  0.16512746204E+03  0.50400001928E-02 0. -1.
        1   -1    0    0  501    0  0.00000000000E+00  0.00000000000E+00 -0.74315546110E+03  0.74315546111E+03  0.50400001928E-02 0.  1.
    10030    2    1    2    0    0  0.00000000000E+00  0.00000000000E+00 -0.57802799914E+03  0.90828292315E+03  0.70061508741E+03 0.  0.
        3    1    3    3  502    0 -0.31511214255E+03 -0.13897652583E+03 -0.37207751306E+03  0.50700278406E+03  0.10100000352E+00 0. -1.
       -3    1    3    3    0  502  0.31511214255E+03  0.13897652583E+03 -0.20595048608E+03  0.40128013910E+03  0.10100000352E+00 0.  1.
</event>
<event>
 5   0  0.4526837E-02  0.7070683E+03  0.7818609E-02  0.9705220E-01
        2   -1    0    0  501    0  0.00000000000E+00  0.00000000000E+00  0.47940273218E+03  0.47940273218E+03  0.25500000920E-02 0.  1.
       -2   -1    0    0    0  501  0.00000000000E+00  0.00000000000E+00 -0.26071273311E+03  0.26071273312E+03  0.25500000920E-02 0. -1.
    10030    2    1    2    0    0  0.00000000000E+00  0.00000000000E+00  0.21868999907E+03  0.74011546530E+03  0.70706830383E+03 0.  0.
        1    1    3    3  502    0  0.25700578429E+03 -0.20000179247E+03  0.25337598398E+03  0.41261614054E+03  0.50400001928E-02 0.  1.
       -1    1    3    3    0  502 -0.25700578429E+03  0.20000179247E+03 -0.34685984912E+02  0.32749932476E+03  0.50400001928E-02 0. -1.
</event>
<event>
 5   0  0.4299912E-02  0.6970623E+03  0.7818609E-02  0.9722269E-01
       -2   -1    0    0    0  501  0.00000000000E+00  0.00000000000E+00  0.11678666466E+03  0.11678666469E+03  0.25500000920E-02 0. -1.
        2   -1    0    0  501    0  0.00000000000E+00  0.00000000000E+00 -0.10401357037E+04  0.10401357037E+04  0.25500000920E-02 0.  1.
    10030    2    1    2    0    0  0.00000000000E+00  0.00000000000E+00 -0.92334903901E+03  0.11569223684E+04  0.69706234912E+03 0.  0.
        3    1    3    3  502    0 -0.26883982249E+03 -0.30240920497E+01 -0.93570220436E+02  0.28467418507E+03  0.10100000352E+00 0. -1.
       -3    1    3    3    0  502  0.26883982249E+03  0.30240920497E+01 -0.82977881858E+03  0.87224818329E+03  0.10100000352E+00 0.  1.
</event>
<event>
 5   0  0.2758681E-02  0.7055881E+03  0.7818609E-02  0.9707723E-01
       -1   -1    0    0    0  501  0.00000000000E+00  0.00000000000E+00  0.12424920885E+03  0.12424920895E+03  0.50400001928E-02 0. -1.
        1   -1    0    0  501    0  0.00000000000E+00  0.00000000000E+00 -0.10017259646E+04  0.10017259646E+04  0.50400001928E-02 0.  1.
    10030    2    1    2    0    0  0.00000000000E+00  0.00000000000E+00 -0.87747675573E+03  0.11259751735E+04  0.70558814800E+03 0.  0.
        3    1    3    3  502    0 -0.18535458946E+03 -0.22885057173E+03 -0.12874799449E+03  0.32141089636E+03  0.10100000352E+00 0. -1.
       -3    1    3    3    0  502  0.18535458946E+03  0.22885057173E+03 -0.74872876124E+03  0.80456427719E+03  0.10100000352E+00 0.  1.
</event>
<event>
 5   0  0.4420645E-02  0.7073210E+03  0.7818609E-02  0.9704794E-01
       -2   -1    0    0    0  501  0.00000000000E+00  0.00000000000E+00  0.18174620410E+03  0.18174620412E+03  0.25500000920E-02 0. -1.
        2   -1    0    0  501    0  0.00000000000E+00  0.00000000000E+00 -0.68818910325E+03  0.68818910326E+03  0.25500000920E-02 0.  1.
    10030    2    1    2    0    0  0.00000000000E+00  0.00000000000E+00 -0.50644289915E+03  0.86993530738E+03  0.70732102254E+03 0.  0.
        5    1    3    3  502    0  0.26437883939E+03  0.45545240567E+02 -0.53658803891E+03  0.59993279053E+03  0.46999998093E+01 0.  1.
       -5    1    3    3    0  502 -0.26437883939E+03 -0.45545240567E+02  0.30145139762E+02  0.27000251685E+03  0.46999998093E+01 0. -1.
</event>
<event>
 5   0  0.2750139E-02  0.6953189E+03  0.7818609E-02  0.9725271E-01
       -1   -1    0    0    0  501  0.00000000000E+00  0.00000000000E+00  0.23519907412E+03  0.23519907417E+03  0.50400001928E-02 0. -1.
        1   -1    0    0  501    0  0.00000000000E+00  0.00000000000E+00 -0.51389266881E+03  0.51389266883E+03  0.50400001928E-02 0.  1.
    10030    2    1    2    0    0  0.00000000000E+00  0.00000000000E+00 -0.27869359469E+03  0.74909174300E+03  0.69531886190E+03 0.  0.
        2    1    3    3  502    0 -0.20251574768E+03 -0.28145519886E+03 -0.16654654219E+03  0.38466531914E+03  0.25500000920E-02 0. -1.
       -2    1    3    3    0  502  0.20251574768E+03  0.28145519886E+03 -0.11214705250E+03  0.36442642387E+03  0.25500000920E-02 0.  1.
</event>
<event>
 5   0  0.2750139E-02  0.7046254E+03  0.7818609E-02  0.9709355E-01
       -1   -1    0    0    0  501  0.00000000000E+00  0.00000000000E+00  0.26560205713E+03  0.26560205718E+03  0.50400001928E-02 0.  1.
        1   -1    0    0  501    0  0.00000000000E+00  0.00000000000E+00 -0.46733158092E+03  0.46733158094E+03  0.50400001928E-02 0. -1.
    10030    2    1    2    0    0  0.00000000000E+00  0.00000000000E+00 -0.20172952378E+03  0.73293363812E+03  0.70462537360E+03 0.  0.
        2    1    3    3  502    0  0.21750182132E+03 -0.17673514789E+03  0.12121166774E+03  0.30534345118E+03  0.25500000920E-02 0.  1.
       -2    1    3    3    0  502 -0.21750182132E+03  0.17673514789E+03 -0.32294119153E+03  0.42759018694E+03  0.25500000920E-02 0. -1.
</event>
<event>
 5   0  0.2751729E-02  0.7081024E+03  0.7818609E-02  0.9703475E-01
        1   -1    0    0  501    0  0.00000000000E+00  0.00000000000E+00  0.26694181673E+03  0.26694181677E+03  0.50400001928E-02 0. -1.
       -1   -1    0    0    0  501  0.00000000000E+00  0.00000000000E+00 -0.46958644841E+03  0.46958644843E+03  0.50400001928E-02 0.  1.
    10030    2    1    2    0    0  0.00000000000E+00  0.00000000000E+00 -0.20264463168E+03  0.73652826521E+03  0.70810242105E+03 0.  0.
        1    1    3    3  502    0 -0.45524687247E+02 -0.18545514767E+03 -0.41142847238E+03  0.45358515943E+03  0.50400001928E-02 0.  1.
       -1    1    3    3    0  502  0.45524687247E+02  0.18545514767E+03  0.20878384070E+03  0.28294310578E+03  0.50400001928E-02 0. -1.
</event>
<event>
 5   0  0.2758681E-02  0.5954944E+03  0.7818609E-02  0.9914798E-01
       -1   -1    0    0    0  501  0.00000000000E+00  0.00000000000E+00  0.34534238619E+03  0.34534238622E+03  0.50400001928E-02 0.  1.
        1   -1    0    0  501    0  0.00000000000E+00  0.00000000000E+00 -0.25671155290E+03  0.25671155295E+03  0.50400001928E-02 0. -1.
    10030    2    1    2    0    0  0.00000000000E+00  0.00000000000E+00  0.88630833289E+02  0.60205393917E+03  0.59549435015E+03 0.  0.
        3    1    3    3  502    0  0.42790811341E+02  0.68728800852E+02  0.33400028708E+03  0.34367266923E+03  0.10100000352E+00 0.  1.
       -3    1    3    3    0  502 -0.42790811341E+02 -0.68728800852E+02 -0.24536945379E+03  0.25838126994E+03  0.10100000352E+00 0. -1.
</event>
<event>
 5   0  0.4420645E-02  0.6738114E+03  0.7818609E-02  0.9763097E-01
        2   -1    0    0  501    0  0.00000000000E+00  0.00000000000E+00  0.13490006116E+04  0.13490006116E+04  0.25500000920E-02 0. -1.
       -2   -1    0    0    0  501  0.00000000000E+00  0.00000000000E+00 -0.84140398352E+02  0.84140398390E+02  0.25500000920E-02 0.  1.
    10030    2    1    2    0    0  0.00000000000E+00  0.00000000000E+00  0.12648602133E+04  0.14331410100E+04  0.67381139458E+03 0.  0.
        5    1    3    3  502    0  0.22685621836E+03 -0.24253248022E+03  0.75270179128E+03  0.82271977269E+03  0.46999998093E+01 0. -1.
       -5    1    3    3    0  502 -0.22685621836E+03  0.24253248022E+03  0.51215842197E+03  0.61042123732E+03  0.46999998093E+01 0.  1.
</event>
<event>
 5   0  0.4365492E-02  0.6939278E+03  0.7818609E-02  0.9727673E-01
        2   -1    0    0  501    0  0.00000000000E+00  0.00000000000E+00  0.37197938193E+03  0.37197938193E+03  0.25500000920E-02 0.  1.
       -2   -1    0    0    0  501  0.00000000000E+00  0.00000000000E+00 -0.32363067900E+03  0.32363067901E+03  0.25500000920E-02 0. -1.
    10030    2    1    2    0    0  0.00000000000E+00  0.00000000000E+00  0.48348702928E+02  0.69561006094E+03  0.69392777709E+03 0.  0.
        4    1    3    3  502    0 -0.58132516991E+01 -0.13280344703E+03  0.34543808742E+03  0.37013461684E+03  0.12699999809E+01 0.  1.
       -4    1    3    3    0  502  0.58132516991E+01  0.13280344703E+03 -0.29708938449E+03  0.32547544411E+03  0.12699999809E+01 0. -1.
</event>
<event>
 5   0  0.2777999E-02  0.7064715E+03  0.7818609E-02  0.9706229E-01
       -1   -1    0    0    0  501  0.00000000000E+00  0.00000000000E+00  0.15263372290E+03  0.15263372298E+03  0.50400001928E-02 0. -1.
        1   -1    0    0  501    0  0.00000000000E+00  0.00000000000E+00 -0.81748306255E+03  0.81748306256E+03  0.50400001928E-02 0.  1.
    10030    2    1    2    0    0  0.00000000000E+00  0.00000000000E+00 -0.66484933965E+03  0.97011678555E+03  0.70647146664E+03 0.  0.
        5    1    3    3  502    0 -0.57499915403E+02 -0.23822453829E+03  0.16851418466E+02  0.24568929813E+03  0.46999998093E+01 0. -1.
       -5    1    3    3    0  502  0.57499915403E+02  0.23822453829E+03 -0.68170075811E+03  0.72442748742E+03  0.46999998093E+01 0.  1.
</event>
<event>
 5   0  0.2777999E-02  0.7053014E+03  0.7818609E-02  0.9708209E-01
       -1   -1    0    0    0  501  0.00000000000E+00  0.00000000000E+00  0.32059353010E+03  0.32059353014E+03  0.50400001928E-02 0.  1.
        1   -1    0    0  501    0  0.00000000000E+00  0.00000000000E+00 -0.38791338135E+03  0.38791338138E+03  0.50400001928E-02 0. -1.
    10030    2    1    2    0    0  0.00000000000E+00  0.00000000000E+00 -0.67319851250E+02  0.70850691152E+03  0.70530141167E+03 0.  0.
        5    1    3    3  502    0 -0.46448961176E+02  0.17041550280E+03 -0.34023786939E+03  0.38338342081E+03  0.46999998093E+01 0. -1.
       -5    1    3    3    0  502  0.46448961176E+02 -0.17041550280E+03  0.27291801814E+03  0.32512349071E+03  0.46999998093E+01 0.  1.
</event>
<event>
 5   0  0.4526837E-02  0.7018649E+03  0.7818609E-02  0.9714048E-01
        2   -1    0    0  501    0  0.00000000000E+00  0.00000000000E+00  0.33259512287E+03  0.33259512288E+03  0.25500000920E-02 0.  1.
       -2   -1    0    0    0  501  0.00000000000E+00  0.00000000000E+00 -0.37028079617E+03  0.37028079618E+03  0.25500000920E-02 0. -1.
    10030    2    1    2    0    0  0.00000000000E+00  0.00000000000E+00 -0.37685673300E+02  0.70287591906E+03  0.70186490696E+03 0.  0.
        1    1    3    3  502    0 -0.33757838624E+03 -0.94563138373E+02 -0.29381181616E+01  0.35058520585E+03  0.50400001928E-02 0.  1.
       -1    1    3    3    0  502  0.33757838624E+03  0.94563138373E+02 -0.34747555138E+02  0.35229071321E+03  0.50400001928E-02 0. -1.
</event>
<event>
 5   0  0.4365492E-02  0.7004661E+03  0.7818609E-02  0.9716435E-01
        2   -1    0    0  501    0  0.00000000000E+00  0.00000000000E+00  0.43135902977E+03  0.43135902978E+03  0.25500000920E-02 0. -1.
       -2   -1    0    0    0  501  0.00000000000E+00  0.00000000000E+00 -0.28436452456E+03  0.28436452457E+03  0.25500000920E-02 0.  1.
    10030    2    1    2    0    0  0.00000000000E+00  0.00000000000E+00  0.14699450522E+03  0.71572355435E+03  0.70046614599E+03 0.  0.
        4    1    3    3  502    0  0.20345906812E+03 -0.74655005247E+02 -0.20761835488E+03  0.30012656729E+03  0.12699999809E+01 0.  1.
       -4    1    3    3    0  502 -0.20345906812E+03  0.74655005247E+02  0.35461286009E+03  0.41559698706E+03  0.12699999809E+01 0. -1.
</event>
<event>
 5   0  0.4365492E-02  0.6849948E+03  0.7818609E-02  0.9743243E-01
        2   -1    0    0  501    0  0.00000000000E+00  0.00000000000E+00  0.27729153830E+03  0.27729153831E+03  0.25500000920E-02 0. -1.
       -2   -1    0    0    0  501  0.00000000000E+00  0.00000000000E+00 -0.42303661090E+03  0.42303661091E+03  0.25500000920E-02 0.  1.
    10030    2    1    2    0    0  0.00000000000E+00  0.00000000000E+00 -0.14574507260E+03  0.70032814922E+03  0.68499481049E+03 0.  0.
        4    1    3    3  502    0 -0.21315400175E+03  0.10810435365E+03 -0.32368346425E+03  0.40236025856E+03  0.12699999809E+01 0.  1.
       -4    1    3    3    0  502  0.21315400175E+03 -0.10810435365E+03  0.17793839165E+03  0.29796789066E+03  0.12699999809E+01 0. -1.
</event>
<event>
 5   0  0.2684924E-02  0.6929658E+03  0.7818609E-02  0.9729338E-01
        1   -1    0    0  501    0  0.00000000000E+00  0.00000000000E+00  0.90595696507E+03  0.90595696508E+03  0.50400001928E-02 0.  1.
       -1   -1    0    0    0  501  0.00000000000E+00  0.00000000000E+00 -0.13251224217E+03  0.13251224227E+03  0.50400001928E-02 0. -1.
    10030    2    1    2    0    0  0.00000000000E+00  0.00000000000E+00  0.77344472289E+03  0.10384692073E+04  0.69296576773E+03 0.  0.
        4    1    3    3  502    0  0.34518242673E+03  0.29463608331E+02  0.39489810525E+03  0.52532384142E+03  0.12699999809E+01 0.  1.
       -4    1    3    3    0  502 -0.34518242673E+03 -0.29463608331E+02  0.37854661765E+03  0.51314536593E+03  0.12699999809E+01 0. -1.
</event>
<event>
 5   0  0.2758681E-02  0.6991350E+03  0.7818609E-02  0.9718713E-01
       -1   -1    0    0    0  501  0.00000000000E+00  0.00000000000E+00  0.63521546366E+03  0.63521546368E+03  0.50400001928E-02 0.  1.
        1   -1    0    0  501    0  0.00000000000E+00  0.00000000000E+00 -0.19237163939E+03  0.19237163945E+03  0.50400001928E-02 0. -1.
    10030    2    1    2    0    0  0.00000000000E+00  0.00000000000E+00  0.44284382427E+03  0.82758710313E+03  0.69913500883E+03 0.  0.
        3    1    3    3  502    0  0.13158328964E+03  0.31564919753E+03  0.13566190173E+03  0.36790316633E+03  0.10100000352E+00 0. -1.
       -3    1    3    3    0  502 -0.13158328964E+03 -0.31564919753E+03  0.30718192253E+03  0.45968393680E+03  0.10100000352E+00 0.  1.
</event>
<event>
 5   0  0.2751729E-02  0.6979438E+03  0.7818609E-02  0.9720755E-01
       -1   -1    0    0    0  501  0.00000000000E+00  0.00000000000E+00  0.22612773193E+03  0.22612773199E+03  0.50400001928E-02 0.  1.
        1   -1    0    0  501    0  0.00000000000E+00  0.00000000000E+00 -0.53855124088E+03  0.53855124090E+03  0.50400001928E-02 0. -1.
    10030    2    1    2    0    0  0.00000000000E+00  0.00000000000E+00 -0.31242350895E+03  0.76467897289E+03  0.69794375320E+03 0.  0.
        1    1    3    3  502    0  0.14239239956E+02  0.29803227596E+03  0.42077886234E+02  0.30132464553E+03  0.50400001928E-02 0.  1.
       -1    1    3    3    0  502 -0.14239239956E+02 -0.29803227596E+03 -0.35450139518E+03  0.46335432736E+03  0.50400001928E-02 0. -1.
</event>
<event>
 5   0  0.4365492E-02  0.6917113E+03  0.7818609E-02  0.9731513E-01
       -2   -1    0    0    0  501  0.00000000000E+00  0.00000000000E+00  0.18728162401E+03  0.18728162403E+03  0.25500000920E-02 0. -1.
        2   -1    0    0  501    0  0.00000000000E+00  0.00000000000E+00 -0.63869657804E+03  0.63869657804E+03  0.25500000920E-02 0.  1.
    10030    2    1    2    0    0  0.00000000000E+00  0.00000000000E+00 -0.45141495403E+03  0.82597820207E+03  0.69171130508E+03 0.  0.
        4    1    3    3  502    0  0.33063951980E+03 -0.10085389175E+03 -0.23881658680E+03  0.42015351309E+03  0.12699999809E+01 0. -1.
       -4    1    3    3    0  502 -0.33063951980E+03  0.10085389175E+03 -0.21259836723E+03  0.40582468897E+03  0.12699999809E+01 0.  1.
</event>
<event>
 5   0  0.2684924E-02  0.7045095E+03  0.7818609E-02  0.9709551E-01
        1   -1    0    0  501    0  0.00000000000E+00  0.00000000000E+00  0.25637178837E+03  0.25637178842E+03  0.50400001928E-02 0. -1.
       -1   -1    0    0    0  501  0.00000000000E+00  0.00000000000E+00 -0.48399789687E+03  0.48399789689E+03  0.50400001928E-02 0.  1.
    10030    2    1    2    0    0  0.00000000000E+00  0.00000000000E+00 -0.22762610850E+03  0.74036968531E+03  0.70450949295E+03 0.  0.
        4    1    3    3  502    0 -0.44470408217E+02 -0.68494138932E+02 -0.47390994405E+03  0.48089636331E+03  0.12699999809E+01 0.  1.
       -4    1    3    3    0  502  0.44470408217E+02  0.68494138932E+02  0.24628383555E+03  0.25947332200E+03  0.12699999809E+01 0. -1.
</event>
<event>
 5   0  0.1784625E-02  0.6987758E+03  0.7818609E-02  0.9719328E-01
       -3   -1    0    0    0  501  0.00000000000E+00  0.00000000000E+00  0.18705515774E+03  0.18705518501E+03  0.10100000352E+00 0. -1.
        3   -1    0    0  501    0  0.00000000000E+00  0.00000000000E+00 -0.65259828454E+03  0.65259829236E+03  0.10100000352E+00 0.  1.
    10030    2    1    2    0    0  0.00000000000E+00  0.00000000000E+00 -0.46554312680E+03  0.83965347736E+03  0.69877575740E+03 0.  0.
        3    1    3    3  502    0  0.24658282704E+03 -0.24423999756E+03 -0.18447337122E+03  0.39304796385E+03  0.10100000352E+00 0. -1.
       -3    1    3    3    0  502 -0.24658282704E+03  0.24423999756E+03 -0.28106975559E+03  0.44660551351E+03  0.10100000352E+00 0.  1.
</event>
<event>
 5   0  0.4526837E-02  0.8032637E+03  0.7818609E-02  0.9555305E-01
       -2   -1    0    0    0  501  0.00000000000E+00  0.00000000000E+00  0.34670888892E+03  0.34670888893E+03  0.25500000920E-02 0.  1.
        2   -1    0    0  501    0  0.00000000000E+00  0.00000000000E+00 -0.46525526857E+03  0.46525526858E+03  0.25500000920E-02 0. -1.
    10030    2    1    2    0    0  0.00000000000E+00  0.00000000000E+00 -0.11854637965E+03  0.81196415751E+03  0.80326368582E+03 0.  0.
        1    1    3    3  502    0  0.21700485757E+03  0.14937109087E+03 -0.36571570493E+03  0.45072253977E+03  0.50400001928E-02 0. -1.
       -1    1    3    3    0  502 -0.21700485757E+03 -0.14937109087E+03  0.24716932529E+03  0.36124161774E+03  0.50400001928E-02 0.  1.
</event>
<event>
 5   0  0.2758681E-02  0.6973984E+03  0.7818609E-02  0.9721692E-01
       -1   -1    0    0    0  501  0.00000000000E+00  0.00000000000E+00  0.82393854421E+03  0.82393854422E+03  0.50400001928E-02 0. -1.
        1   -1    0    0  501    0  0.00000000000E+00  0.00000000000E+00 -0.14757306066E+03  0.14757306075E+03  0.50400001928E-02 0.  1.
    10030    2    1    2    0    0  0.00000000000E+00  0.00000000000E+00  0.67636548355E+03  0.97151160497E+03  0.69739840210E+03 0.  0.
        3    1    3    3  502    0 -0.36877247463E+02  0.19026599585E+03 -0.65634013840E+02  0.20461894959E+03  0.10100000352E+00 0.  1.
       -3    1    3    3    0  502  0.36877247463E+02 -0.19026599585E+03  0.74199949739E+03  0.76689265538E+03  0.10100000352E+00 0. -1.
</event>
<event>
 5   0  0.4299912E-02  0.6967560E+03  0.7818609E-02  0.9722796E-01
        2   -1    0    0  501    0  0.00000000000E+00  0.00000000000E+00  0.24046853513E+04  0.24046853513E+04  0.25500000920E-02 0.  1.
       -2   -1    0    0    0  501  0.00000000000E+00  0.00000000000E+00 -0.50471148638E+02  0.50471148703E+02  0.25500000920E-02 0. -1.
    10030    2    1    2    0    0  0.00000000000E+00  0.00000000000E+00  0.23542142027E+04  0.24551565000E+04  0.69675600285E+03 0.  0.
        3    1    3    3  502    0 -0.10768597062E+03 -0.33126225292E+03  0.11983293483E+04  0.12479279569E+04  0.10100000352E+00 0. -1.
       -3    1    3    3    0  502  0.10768597062E+03  0.33126225292E+03  0.11558848544E+04  0.12072285431E+04  0.10100000352E+00 0.  1.
</event>
<event>
 5   0  0.4526837E-02  0.7737319E+03  0.7818609E-02  0.9598837E-01
        2   -1    0    0  501    0  0.00000000000E+00  0.00000000000E+00  0.36635571280E+03  0.36635571281E+03  0.25500000920E-02 0. -1.
       -2   -1    0    0    0  501  0.00000000000E+00  0.00000000000E+00 -0.40852444250E+03  0.40852444251E+03  0.25500000920E-02 0.  1.
    10030    2    1    2    0    0  0.00000000000E+00  0.00000000000E+00 -0.42168729699E+02  0.77488015532E+03  0.77373190017E+03 0.  0.
        1    1    3    3  502    0 -0.20928709438E+03 -0.18382208869E+03 -0.28994807617E+03  0.40207155466E+03  0.50400001928E-02 0.  1.
       -1    1    3    3    0  502  0.20928709438E+03  0.18382208869E+03  0.24777934647E+03  0.37280860066E+03  0.50400001928E-02 0. -1.
</event>
<event>
 5   0  0.2777999E-02  0.7031865E+03  0.7818609E-02  0.9711798E-01
        1   -1    0    0  501    0  0.00000000000E+00  0.00000000000E+00  0.49673305817E+03  0.49673305819E+03  0.50400001928E-02 0. -1.
       -1   -1    0    0    0  501  0.00000000000E+00  0.00000000000E+00 -0.24886166707E+03  0.24886166712E+03  0.50400001928E-02 0.  1.
    10030    2    1    2    0    0  0.00000000000E+00  0.00000000000E+00  0.24787139110E+03  0.74559472531E+03  0.70318651003E+03 0.  0.
        5    1    3    3  502    0  0.33020479071E+03  0.11809107949E+03  0.15023092440E+03  0.38153915593E+03  0.46999998093E+01 0.  1.
       -5    1    3    3    0  502 -0.33020479071E+03 -0.11809107949E+03  0.97640466706E+02  0.36405556938E+03  0.46999998093E+01 0. -1.
</event>
<event>
 5   0  0.2750139E-02  0.6792352E+03  0.7818609E-02  0.9753417E-01
       -1   -1    0    0    0  501  0.00000000000E+00  0.00000000000E+00  0.43062591428E+03  0.43062591431E+03  0.50400001928E-02 0. -1.
        1   -1    0    0  501    0  0.00000000000E+00  0.00000000000E+00 -0.26784292578E+03  0.26784292583E+03  0.50400001928E-02 0.  1.
    10030    2    1    2    0    0  0.00000000000E+00  0.00000000000E+00  0.16278298850E+03  0.69846884014E+03  0.67923517231E+03 0.  0.
        2    1    3    3  502    0  0.13108411473E+03  0.99050157702E+02  0.38703883722E+03  0.42046764489E+03  0.25500000920E-02 0. -1.
       -2    1    3    3    0  502 -0.13108411473E+03 -0.99050157702E+02 -0.22425584872E+03  0.27800119526E+03  0.25500000920E-02 0.  1.
</event>
<event>
 5   0  0.4503289E-02  0.6938352E+03  0.7818609E-02  0.9727833E-01
       -2   -1    0    0    0  501  0.00000000000E+00  0.00000000000E+00  0.11219007987E+03  0.11219007990E+03  0.25500000920E-02 0.  1.
        2   -1    0    0  501    0  0.00000000000E+00  0.00000000000E+00 -0.10727492035E+04  0.10727492035E+04  0.25500000920E-02 0. -1.
    10030    2    1    2    0    0  0.00000000000E+00  0.00000000000E+00 -0.96055912366E+03  0.11849392834E+04  0.69383519325E+03 0.  0.
        2    1    3    3  502    0  0.16964656119E+02  0.11478883343E+03 -0.10386254471E+04  0.10450871233E+04  0.25500000920E-02 0. -1.
       -2    1    3    3    0  502 -0.16964656119E+02 -0.11478883343E+03  0.78066323455E+02  0.13985216016E+03  0.25500000920E-02 0.  1.
</event>
<event>
 5   0  0.4503289E-02  0.7058766E+03  0.7818609E-02  0.9707235E-01
        2   -1    0    0  501    0  0.00000000000E+00  0.00000000000E+00  0.85917122363E+03  0.85917122363E+03  0.25500000920E-02 0. -1.
       -2   -1    0    0    0  501  0.00000000000E+00  0.00000000000E+00 -0.14498326916E+03  0.14498326918E+03  0.25500000920E-02 0.  1.
    10030    2    1    2    0    0  0.00000000000E+00  0.00000000000E+00  0.71418795446E+03  0.10041544928E+04  0.70587662600E+03 0.  0.
        2    1    3    3  502    0 -0.17544348102E+03 -0.92437546391E+02 -0.58236991973E+02  0.20668009642E+03  0.25500000920E-02 0.  1.
       -2    1    3    3    0  502  0.17544348102E+03  0.92437546391E+02  0.77242494644E+03  0.79747439639E+03  0.25500000920E-02 0. -1.
</event>
<event>
 5   0  0.2751729E-02  0.6998766E+03  0.7818609E-02  0.9717443E-01
        1   -1    0    0  501    0  0.00000000000E+00  0.00000000000E+00  0.54459769882E+03  0.54459769884E+03  0.50400001928E-02 0.  1.
       -1   -1    0    0    0  501  0.00000000000E+00  0.00000000000E+00 -0.22485736694E+03  0.22485736699E+03  0.50400001928E-02 0. -1.
    10030    2    1    2    0    0  0.00000000000E+00  0.00000000000E+00  0.31974033188E+03  0.76945506583E+03  0.69987657376E+03 0.  0.
        1    1    3    3  502    0 -0.26722584124E+03 -0.17516352871E+03  0.31676291329E+03  0.44992294372E+03  0.50400001928E-02 0.  1.
       -1    1    3    3    0  502  0.26722584124E+03  0.17516352871E+03  0.29774185886E+01  0.31953212212E+03  0.50400001928E-02 0. -1.
</event>
<event>
 5   0  0.2750139E-02  0.7027660E+03  0.7818609E-02  0.9712514E-01
        1   -1    0    0  501    0  0.00000000000E+00  0.00000000000E+00  0.18125459441E+04  0.18125459441E+04  0.50400001928E-02 0.  1.
       -1   -1    0    0    0  501  0.00000000000E+00  0.00000000000E+00 -0.68119652681E+02  0.68119652868E+02  0.50400001928E-02 0. -1.
    10030    2    1    2    0    0  0.00000000000E+00  0.00000000000E+00  0.17444262914E+04  0.18806655969E+04  0.70276596491E+03 0.  0.
        2    1    3    3  502    0 -0.11243553690E+02  0.13085586260E+03  0.36055214835E-01  0.13133802032E+03  0.25500000920E-02 0. -1.
       -2    1    3    3    0  502  0.11243553690E+02 -0.13085586260E+03  0.17443902362E+04  0.17493275766E+04  0.25500000920E-02 0.  1.
</event>
<event>
 5   0  0.4526837E-02  0.6848554E+03  0.7818609E-02  0.9743488E-01
       -2   -1    0    0    0  501  0.00000000000E+00  0.00000000000E+00  0.10234125814E+03  0.10234125817E+03  0.25500000920E-02 0. -1.
        2   -1    0    0  501    0  0.00000000000E+00  0.00000000000E+00 -0.11457423676E+04  0.11457423676E+04  0.25500000920E-02 0.  1.
    10030    2    1    2    0    0  0.00000000000E+00  0.00000000000E+00 -0.10434011095E+04  0.12480836258E+04  0.68485535823E+03 0.  0.
        1    1    3    3  502    0  0.18708161330E+03 -0.27764873677E+03 -0.65271566538E+03  0.73357078113E+03  0.50400001928E-02 0.  1.
       -1    1    3    3    0  502 -0.18708161330E+03  0.27764873677E+03 -0.39068544411E+03  0.51451284467E+03  0.50400001928E-02 0. -1.
</event>
<event>
 5   0  0.2684924E-02  0.6955192E+03  0.7818609E-02  0.9724926E-01
       -1   -1    0    0    0  501  0.00000000000E+00  0.00000000000E+00  0.56917859908E+03  0.56917859910E+03  0.50400001928E-02 0. -1.
        1   -1    0    0  501    0  0.00000000000E+00  0.00000000000E+00 -0.21247588458E+03  0.21247588464E+03  0.50400001928E-02 0.  1.
    10030    2    1    2    0    0  0.00000000000E+00  0.00000000000E+00  0.35670271450E+03  0.78165448374E+03  0.69551916251E+03 0.  0.
        4    1    3    3  502    0  0.20465407206E+03 -0.10849275076E+03  0.46986065938E+03  0.52385553191E+03  0.12699999809E+01 0. -1.
       -4    1    3    3    0  502 -0.20465407206E+03  0.10849275076E+03 -0.11315794488E+03  0.25779895183E+03  0.12699999809E+01 0.  1.
</event>
<event>
 5   0  0.4526837E-02  0.6912251E+03  0.7818609E-02  0.9732357E-01
        2   -1    0    0  501    0  0.00000000000E+00  0.00000000000E+00  0.66285412603E+03  0.66285412603E+03  0.25500000920E-02 0. -1.
       -2   -1    0    0    0  501  0.00000000000E+00  0.00000000000E+00 -0.18020258877E+03  0.18020258879E+03  0.25500000920E-02 0.  1.
    10030    2    1    2    0    0  0.00000000000E+00  0.00000000000E+00  0.48265153726E+03  0.84305671482E+03  0.69122508490E+03 0.  0.
        1    1    3    3  502    0  0.53331403601E+02 -0.21935215739E+03  0.56051327292E+03  0.60426379728E+03  0.50400001928E-02 0. -1.
       -1    1    3    3    0  502 -0.53331403601E+02  0.21935215739E+03 -0.77861735657E+02  0.23879291754E+03  0.50400001928E-02 0.  1.
</event>
<event>
 5   0  0.2751729E-02  0.7004355E+03  0.7818609E-02  0.9716488E-01
        1   -1    0    0  501    0  0.00000000000E+00  0.00000000000E+00  0.63309645312E+03  0.63309645314E+03  0.50400001928E-02 0.  1.
       -1   -1    0    0    0  501  0.00000000000E+00  0.00000000000E+00 -0.19373428161E+03  0.19373428168E+03  0.50400001928E-02 0. -1.
    10030    2    1    2    0    0  0.00000000000E+00  0.00000000000E+00  0.43936217151E+03  0.82683073482E+03  0.70043554042E+03 0.  0.
        1    1    3    3  502    0  0.28162896526E+03 -0.18150299394E+02 -0.25125989487E+02  0.28332953043E+03  0.50400001928E-02 0. -1.
       -1    1    3    3    0  502 -0.28162896526E+03  0.18150299394E+02  0.46448816100E+03  0.54350120439E+03  0.50400001928E-02 0.  1.
</event>
<event>
 5   0  0.4365492E-02  0.6872908E+03  0.7818609E-02  0.9739217E-01
        2   -1    0    0  501    0  0.00000000000E+00  0.00000000000E+00  0.97007912969E+03  0.97007912969E+03  0.25500000920E-02 0.  1.
       -2   -1    0    0    0  501  0.00000000000E+00  0.00000000000E+00 -0.12173456801E+03  0.12173456804E+03  0.25500000920E-02 0. -1.
    10030    2    1    2    0    0  0.00000000000E+00  0.00000000000E+00  0.84834456168E+03  0.10918136977E+04  0.68729080834E+03 0.  0.
        4    1    3    3  502    0  0.19515639788E+03  0.13803243156E+02  0.87296680143E+03  0.89462237757E+03  0.12699999809E+01 0.  1.
       -4    1    3    3    0  502 -0.19515639788E+03 -0.13803243156E+02 -0.24622239755E+02  0.19719132016E+03  0.12699999809E+01 0. -1.
</event>
<event>
 5   0  0.2777999E-02  0.7040720E+03  0.7818609E-02  0.9710294E-01
       -1   -1    0    0    0  501  0.00000000000E+00  0.00000000000E+00  0.63361217296E+02  0.63361217496E+02  0.50400001928E-02 0. -1.
        1   -1    0    0  501    0  0.00000000000E+00  0.00000000000E+00 -0.19559180909E+04  0.19559180909E+04  0.50400001928E-02 0.  1.
    10030    2    1    2    0    0  0.00000000000E+00  0.00000000000E+00 -0.18925568736E+04  0.20192793084E+04  0.70407201727E+03 0.  0.
        5    1    3    3  502    0 -0.70839096989E+02  0.15620437786E+03 -0.18278763872E+04  0.18359118068E+04  0.46999998093E+01 0.  1.
       -5    1    3    3    0  502  0.70839096989E+02 -0.15620437786E+03 -0.64680486347E+02  0.18336750158E+03  0.46999998093E+01 0. -1.
</event>
<event>
 5   0  0.4299912E-02  0.7302064E+03  0.7818609E-02  0.9666925E-01
       -2   -1    0    0    0  501  0.00000000000E+00  0.00000000000E+00  0.14502531551E+03  0.14502531553E+03  0.25500000920E-02 0. -1.
        2   -1    0    0  501    0  0.00000000000E+00  0.00000000000E+00 -0.91915230894E+03  0.91915230894E+03  0.25500000920E-02 0.  1.
    10030    2    1    2    0    0  0.00000000000E+00  0.00000000000E+00 -0.77412699343E+03  0.10641776245E+04  0.73020641909E+03 0.  0.
        3    1    3    3  502    0  0.46197750577E+01 -0.32135220805E+03 -0.63953606932E+03  0.71574784533E+03  0.10100000352E+00 0.  1.
       -3    1    3    3    0  502 -0.46197750577E+01  0.32135220805E+03 -0.13459092411E+03  0.34842977914E+03  0.10100000352E+00 0. -1.
</event>
<event>
 5   0  0.4503289E-02  0.6797985E+03  0.7818609E-02  0.9752417E-01
        2   -1    0    0  501    0  0.00000000000E+00  0.00000000000E+00  0.10464655125E+04  0.10464655125E+04  0.25500000920E-02 0.  1.
       -2   -1    0    0    0  501  0.00000000000E+00  0.00000000000E+00 -0.11040163175E+03  0.11040163178E+03  0.25500000920E-02 0. -1.
    10030    2    1    2    0    0  0.00000000000E+00  0.00000000000E+00  0.93606388075E+03  0.11568671443E+04  0.67979850005E+03 0.  0.
        2    1    3    3  502    0  0.59911235665E+02 -0.28534056630E+03  0.76534652863E+03  0.81900177279E+03  0.25500000920E-02 0.  1.
       -2    1    3    3    0  502 -0.59911235665E+02  0.28534056630E+03  0.17071735212E+03  0.33786537150E+03  0.25500000920E-02 0. -1.
</event>
<event>
 5   0  0.4526837E-02  0.7128748E+03  0.7818609E-02  0.9695464E-01
       -2   -1    0    0    0  501  0.00000000000E+00  0.00000000000E+00  0.68501703054E+02  0.68501703101E+02  0.25500000920E-02 0.  1.
        2   -1    0    0  501    0  0.00000000000E+00  0.00000000000E+00 -0.18546635411E+04  0.18546635411E+04  0.25500000920E-02 0. -1.
    10030    2    1    2    0    0  0.00000000000E+00  0.00000000000E+00 -0.17861618380E+04  0.19231652442E+04  0.71287477499E+03 0.  0.
        1    1    3    3  502    0  0.72292633465E+02  0.18553138950E+03 -0.95531132671E+02  0.22084908575E+03  0.50400001928E-02 0.  1.
       -1    1    3    3    0  502 -0.72292633465E+02 -0.18553138950E+03 -0.16906307054E+04  0.17023161584E+04  0.50400001928E-02 0. -1.
</event>
<event>
 5   0  0.2750139E-02  0.7056305E+03  0.7818609E-02  0.9707651E-01
        1   -1    0    0  501    0  0.00000000000E+00  0.00000000000E+00  0.69822353812E+03  0.69822353813E+03  0.50400001928E-02 0.  1.
       -1   -1    0    0    0  501  0.00000000000E+00  0.00000000000E+00 -0.17827900460E+03  0.17827900467E+03  0.50400001928E-02 0. -1.
    10030    2    1    2    0    0  0.00000000000E+00  0.00000000000E+00  0.51994453351E+03  0.87650254281E+03  0.70563049085E+03 0.  0.
        2    1    3    3  502    0  0.19471662555E+03 -0.22516642508E+03  0.24735124022E+02  0.29870773277E+03  0.25500000920E-02 0. -1.
       -2    1    3    3    0  502 -0.19471662555E+03  0.22516642508E+03  0.49520940949E+03  0.57779481004E+03  0.25500000920E-02 0.  1.
</event>
<event>
 5   0  0.4503289E-02  0.7132247E+03  0.7818609E-02  0.9694880E-01
       -2   -1    0    0    0  501  0.00000000000E+00  0.00000000000E+00  0.87021081381E+02  0.87021081418E+02  0.25500000920E-02 0.  1.
        2   -1    0    0  501    0  0.00000000000E+00  0.00000000000E+00 -0.14613973995E+04  0.14613973995E+04  0.25500000920E-02 0. -1.
    10030    2    1    2    0    0  0.00000000000E+00  0.00000000000E+00 -0.13743763181E+04  0.15484184809E+04  0.71322473895E+03 0.  0.
        2    1    3    3  502    0 -0.31976476367E+03  0.14252435177E+02 -0.34585070103E+03  0.47123809630E+03  0.25500000920E-02 0. -1.
       -2    1    3    3    0  502  0.31976476367E+03 -0.14252435177E+02 -0.10285256171E+04  0.10771803846E+04  0.25500000920E-02 0.  1.
</event>
<event>
 5   0  0.2758681E-02  0.7023904E+03  0.7818609E-02  0.9713153E-01
        1   -1    0    0  501    0  0.00000000000E+00  0.00000000000E+00  0.46697689754E+03  0.46697689757E+03  0.50400001928E-02 0. -1.
       -1   -1    0    0    0  501  0.00000000000E+00  0.00000000000E+00 -0.26412031599E+03  0.26412031604E+03  0.50400001928E-02 0.  1.
    10030    2    1    2    0    0  0.00000000000E+00  0.00000000000E+00  0.20285658155E+03  0.73109721361E+03  0.70239044915E+03 0.  0.
        3    1    3    3  502    0 -0.20349360074E+03  0.28577325590E+03  0.84577885374E+02  0.36087314700E+03  0.10100000352E+00 0.  1.
       -3    1    3    3    0  502  0.20349360074E+03 -0.28577325590E+03  0.11827869618E+03  0.37022406661E+03  0.10100000352E+00 0. -1.
</event>
<event>
 5   0  0.2750139E-02  0.6844657E+03  0.7818609E-02  0.9744173E-01
       -1   -1    0    0    0  501  0.00000000000E+00  0.00000000000E+00  0.74905119795E+03  0.74905119797E+03  0.50400001928E-02 0. -1.
        1   -1    0    0  501    0  0.00000000000E+00  0.00000000000E+00 -0.15636223426E+03  0.15636223435E+03  0.50400001928E-02 0.  1.
    10030    2    1    2    0    0  0.00000000000E+00  0.00000000000E+00  0.59268896368E+03  0.90541343231E+03  0.68446568631E+03 0.  0.
        2    1    3    3  502    0 -0.12218556841E+03  0.41788081843E+02 -0.12289809803E+03  0.17826805495E+03  0.25500000920E-02 0.  1.
       -2    1    3    3    0  502  0.12218556841E+03 -0.41788081843E+02  0.71558706171E+03  0.72714537736E+03  0.25500000920E-02 0. -1.
</event>
<event>
 5   0  0.2750139E-02  0.7024600E+03  0.7818609E-02  0.9713035E-01
        1   -1    0    0  501    0  0.00000000000E+00  0.00000000000E+00  0.12799169740E+04  0.12799169740E+04  0.50400001928E-02 0. -1.
       -1   -1    0    0    0  501  0.00000000000E+00  0.00000000000E+00 -0.96383212073E+02  0.96383212205E+02  0.50400001928E-02 0.  1.
    10030    2    1    2    0    0  0.00000000000E+00  0.00000000000E+00  0.11835337619E+04  0.13763001862E+04  0.70245998958E+03 0.  0.
        2    1    3    3  502    0 -0.18375572746E+03 -0.29858855378E+03  0.55061232723E+03  0.65275970060E+03  0.25500000920E-02 0.  1.
       -2    1    3    3    0  502  0.18375572746E+03  0.29858855378E+03  0.63292143471E+03  0.72354048563E+03  0.25500000920E-02 0. -1.
</event>
<event>
 5   0  0.2777999E-02  0.7087737E+03  0.7818609E-02  0.9702345E-01
        1   -1    0    0  501    0  0.00000000000E+00  0.00000000000E+00  0.53254480029E+03  0.53254480031E+03  0.50400001928E-02 0. -1.
       -1   -1    0    0    0  501  0.00000000000E+00  0.00000000000E+00 -0.23582998473E+03  0.23582998478E+03  0.50400001928E-02 0.  1.
    10030    2    1    2    0    0  0.00000000000E+00  0.00000000000E+00  0.29671481556E+03  0.76837478510E+03  0.70877367939E+03 0.  0.
        5    1    3    3  502    0  0.51610426501E+02 -0.88242620026E+02  0.51617820790E+03  0.52622469385E+03  0.46999998093E+01 0. -1.
       -5    1    3    3    0  502 -0.51610426501E+02  0.88242620026E+02 -0.21946339234E+03  0.24215009124E+03  0.46999998093E+01 0.  1.
</event>
<event>
 5   0  0.4526837E-02  0.6963401E+03  0.7818609E-02  0.9723512E-01
        2   -1    0    0  501    0  0.00000000000E+00  0.00000000000E+00  0.63594342232E+03  0.63594342233E+03  0.25500000920E-02 0.  1.
       -2   -1    0    0    0  501  0.00000000000E+00  0.00000000000E+00 -0.19061819160E+03  0.19061819162E+03  0.25500000920E-02 0. -1.
    10030    2    1    2    0    0  0.00000000000E+00  0.00000000000E+00  0.44532523072E+03  0.82656161395E+03  0.69634010407E+03 0.  0.
        1    1    3    3  502    0 -0.45130297089E+02  0.66610494300E+01  0.63238051749E+03  0.63402384199E+03  0.50400001928E-02 0.  1.
       -1    1    3    3    0  502  0.45130297089E+02 -0.66610494300E+01 -0.18705528677E+03  0.19253777195E+03  0.50400001928E-02 0. -1.
</event>
<event>
 5   0  0.4365492E-02  0.6970915E+03  0.7818609E-02  0.9722219E-01
       -2   -1    0    0    0  501  0.00000000000E+00  0.00000000000E+00  0.22578453610E+03  0.22578453612E+03  0.25500000920E-02 0.  1.
        2   -1    0    0  501    0  0.00000000000E+00  0.00000000000E+00 -0.53805344145E+03  0.53805344146E+03  0.25500000920E-02 0. -1.
    10030    2    1    2    0    0  0.00000000000E+00  0.00000000000E+00 -0.31226890535E+03  0.76383797758E+03  0.69709151963E+03 0.  0.
        4    1    3    3  502    0  0.46958111176E+02  0.15260140349E+03 -0.49562296260E+03  0.52070719844E+03  0.12699999809E+01 0. -1.
       -4    1    3    3    0  502 -0.46958111176E+02 -0.15260140349E+03  0.18335405725E+03  0.24313077913E+03  0.12699999809E+01 0.  1.
</event>
<event>
 5   0  0.4299912E-02  0.6978494E+03  0.7818609E-02  0.9720917E-01
        2   -1    0    0  501    0  0.00000000000E+00  0.00000000000E+00  0.76084153532E+03  0.76084153532E+03  0.25500000920E-02 0. -1.
       -2   -1    0    0    0  501  0.00000000000E+00  0.00000000000E+00 -0.16001815866E+03  0.16001815868E+03  0.25500000920E-02 0.  1.
    10030    2    1    2    0    0  0.00000000000E+00  0.00000000000E+00  0.60082337666E+03  0.92085969400E+03  0.69784944372E+03 0.  0.
        3    1    3    3  502    0 -0.32393495385E+03  0.10882362520E+03  0.39345774428E+03  0.52113860197E+03  0.10100000352E+00 0. -1.
       -3    1    3    3    0  502  0.32393495385E+03 -0.10882362520E+03  0.20736563238E+03  0.39972109204E+03  0.10100000352E+00 0.  1.
</event>
<event>
 5   0  0.1784625E-02  0.6963519E+03  0.7818609E-02  0.9723491E-01
        4   -1    0    0  501    0  0.00000000000E+00  0.00000000000E+00  0.19035430982E+03  0.19035854634E+03  0.12699999809E+01 0. -1.
       -4   -1    0    0    0  501  0.00000000000E+00  0.00000000000E+00 -0.63683468331E+03  0.63683594965E+03  0.12699999809E+01 0.  1.
    10030    2    1    2    0    0  0.00000000000E+00  0.00000000000E+00 -0.44648037349E+03  0.82719449599E+03  0.69635192990E+03 0.  0.
        5    1    3    3  502    0  0.23502041329E+03  0.83092079523E+02 -0.51193958848E+03  0.56942349846E+03  0.46999998093E+01 0.  1.
       -5    1    3    3    0  502 -0.23502041329E+03 -0.83092079523E+02  0.65459214987E+02  0.25777099753E+03  0.46999998093E+01 0. -1.
</event>
<event>
 5   0  0.1784625E-02  0.7589901E+03  0.7818609E-02  0.9621351E-01
       -4   -1    0    0    0  501  0.00000000000E+00  0.00000000000E+00  0.37049404779E+03  0.37049622447E+03  0.12699999809E+01 0. -1.
        4   -1    0    0  501    0  0.00000000000E+00  0.00000000000E+00 -0.38871040280E+03  0.38871247747E+03  0.12699999809E+01 0.  1.
    10030    2    1    2    0    0  0.00000000000E+00  0.00000000000E+00 -0.18216355011E+02  0.75920870194E+03  0.75899013005E+03 0.  0.
        2    1    3    3  502    0  0.69154964851E+02 -0.12247298436E+03  0.34346242111E+03  0.37114481781E+03  0.25500000920E-02 0. -1.
       -2    1    3    3    0  502 -0.69154964851E+02  0.12247298436E+03 -0.36167877612E+03  0.38806388413E+03  0.25500000920E-02 0.  1.
</event>
<event>
 5   0  0.2777999E-02  0.5372324E+03  0.7818609E-02  0.1004493E+00
        1   -1    0    0  501    0  0.00000000000E+00  0.00000000000E+00  0.38944691822E+03  0.38944691825E+03  0.50400001928E-02 0.  1.
       -1   -1    0    0    0  501  0.00000000000E+00  0.00000000000E+00 -0.18527470489E+03  0.18527470496E+03  0.50400001928E-02 0. -1.
    10030    2    1    2    0    0  0.00000000000E+00  0.00000000000E+00  0.20417221333E+03  0.57472162321E+03  0.53723239989E+03 0.  0.
        5    1    3    3  502    0  0.91225025455E+02  0.24952378212E+03  0.14418240419E+03  0.30231569392E+03  0.46999998093E+01 0.  1.
       -5    1    3    3    0  502 -0.91225025455E+02 -0.24952378212E+03  0.59989809139E+02  0.27240592929E+03  0.46999998093E+01 0. -1.
</event>
<event>
 5   0  0.2777999E-02  0.6891600E+03  0.7818609E-02  0.9735952E-01
        1   -1    0    0  501    0  0.00000000000E+00  0.00000000000E+00  0.13544607186E+04  0.13544607186E+04  0.50400001928E-02 0.  1.
       -1   -1    0    0    0  501  0.00000000000E+00  0.00000000000E+00 -0.87662460388E+02  0.87662460533E+02  0.50400001928E-02 0. -1.
    10030    2    1    2    0    0  0.00000000000E+00  0.00000000000E+00  0.12667982582E+04  0.14421231792E+04  0.68915995010E+03 0.  0.
        5    1    3    3  502    0 -0.88543727769E+02 -0.33656283881E+02 -0.59812527773E+02  0.11212656085E+03  0.46999998093E+01 0. -1.
       -5    1    3    3    0  502  0.88543727769E+02  0.33656283881E+02  0.13266107860E+04  0.13299966183E+04  0.46999998093E+01 0.  1.
</event>
<event>
 5   0  0.2684924E-02  0.6845297E+03  0.7818609E-02  0.9744060E-01
       -1   -1    0    0    0  501  0.00000000000E+00  0.00000000000E+00  0.10919452244E+03  0.10919452256E+03  0.50400001928E-02 0.  1.
        1   -1    0    0  501    0  0.00000000000E+00  0.00000000000E+00 -0.10728124554E+04  0.10728124554E+04  0.50400001928E-02 0. -1.
    10030    2    1    2    0    0  0.00000000000E+00  0.00000000000E+00 -0.96361793291E+03  0.11820069779E+04  0.68452974751E+03 0.  0.
        4    1    3    3  502    0  0.31222035107E+03  0.13918975856E+03 -0.51112774117E+03  0.61490529124E+03  0.12699999809E+01 0.  1.
       -4    1    3    3    0  502 -0.31222035107E+03 -0.13918975856E+03 -0.45249019175E+03  0.56710168668E+03  0.12699999809E+01 0. -1.
</event>
<event>
 5   0  0.2751729E-02  0.6981116E+03  0.7818609E-02  0.9720467E-01
       -1   -1    0    0    0  501  0.00000000000E+00  0.00000000000E+00  0.18190975907E+03  0.18190975914E+03  0.50400001928E-02 0.  1.
        1   -1    0    0  501    0  0.00000000000E+00  0.00000000000E+00 -0.66978240726E+03  0.66978240728E+03  0.50400001928E-02 0. -1.
    10030    2    1    2    0    0  0.00000000000E+00  0.00000000000E+00 -0.48787264819E+03  0.85169216642E+03  0.69811161392E+03 0.  0.
        1    1    3    3  502    0  0.32881971869E+03  0.43990727480E+02 -0.11151009179E+03  0.34998870281E+03  0.50400001928E-02 0.  1.
       -1    1    3    3    0  502 -0.32881971869E+03 -0.43990727480E+02 -0.37636255640E+03  0.50170346360E+03  0.50400001928E-02 0. -1.
</event>
<event>
 5   0  0.4365492E-02  0.6787338E+03  0.7818609E-02  0.9754308E-01
        2   -1    0    0  501    0  0.00000000000E+00  0.00000000000E+00  0.77825370599E+03  0.77825370600E+03  0.25500000920E-02 0. -1.
       -2   -1    0    0    0  501  0.00000000000E+00  0.00000000000E+00 -0.14798504160E+03  0.14798504162E+03  0.25500000920E-02 0.  1.
    10030    2    1    2    0    0  0.00000000000E+00  0.00000000000E+00  0.63026866440E+03  0.92623874762E+03  0.67873384199E+03 0.  0.
        4    1    3    3  502    0  0.84191592817E+01 -0.17293420631E+03  0.71344389950E+03  0.73415320785E+03  0.12699999809E+01 0. -1.
       -4    1    3    3    0  502 -0.84191592817E+01  0.17293420631E+03 -0.83175235105E+02  0.19208553977E+03  0.12699999809E+01 0.  1.
</event>
<event>
 5   0  0.4420645E-02  0.6914248E+03  0.7818609E-02  0.9732010E-01
        2   -1    0    0  501    0  0.00000000000E+00  0.00000000000E+00  0.58881094352E+03  0.58881094353E+03  0.25500000920E-02 0.  1.
       -2   -1    0    0    0  501  0.00000000000E+00  0.00000000000E+00 -0.20298039913E+03  0.20298039914E+03  0.25500000920E-02 0. -1.
    10030    2    1    2    0    0  0.00000000000E+00  0.00000000000E+00  0.38583054440E+03  0.79179134267E+03  0.69142484866E+03 0.  0.
        5    1    3    3  502    0  0.54566013523E+02  0.11242605916E+03 -0.17617057454E+03  0.21604450917E+03  0.46999998093E+01 0. -1.
       -5    1    3    3    0  502 -0.54566013523E+02 -0.11242605916E+03  0.56200111893E+03  0.57574683351E+03  0.46999998093E+01 0.  1.
</event>
<event>
 5   0  0.2777999E-02  0.7248740E+03  0.7818609E-02  0.9675615E-01
       -1   -1    0    0    0  501  0.00000000000E+00  0.00000000000E+00  0.17640405617E+03  0.17640405624E+03  0.50400001928E-02 0.  1.
        1   -1    0    0  501    0  0.00000000000E+00  0.00000000000E+00 -0.74465726917E+03  0.74465726919E+03  0.50400001928E-02 0. -1.
    10030    2    1    2    0    0  0.00000000000E+00  0.00000000000E+00 -0.56825321300E+03  0.92106132543E+03  0.72487395534E+03 0.  0.
        5    1    3    3  502    0 -0.17988433055E+03 -0.31391569610E+03 -0.25756314106E+03  0.44414220500E+03  0.46999998093E+01 0. -1.
       -5    1    3    3    0  502  0.17988433055E+03  0.31391569610E+03 -0.31069007194E+03  0.47691912043E+03  0.46999998093E+01 0.  1.
</event>
<event>
 5   0  0.4526837E-02  0.7038574E+03  0.7818609E-02  0.9710658E-01
       -2   -1    0    0    0  501  0.00000000000E+00  0.00000000000E+00  0.81523274342E+02  0.81523274382E+02  0.25500000920E-02 0. -1.
        2   -1    0    0  501    0  0.00000000000E+00  0.00000000000E+00 -0.15192447353E+04  0.15192447353E+04  0.25500000920E-02 0.  1.
    10030    2    1    2    0    0  0.00000000000E+00  0.00000000000E+00 -0.14377214610E+04  0.16007680097E+04  0.70385738722E+03 0.  0.
        1    1    3    3  502    0 -0.65521298993E+02 -0.33475652372E+03 -0.91580375801E+03  0.97726736055E+03  0.50400001928E-02 0.  1.
       -1    1    3    3    0  502  0.65521298993E+02  0.33475652372E+03 -0.52191770298E+03  0.62350064916E+03  0.50400001928E-02 0. -1.
</event>
<event>
 5   0  0.4503289E-02  0.6987033E+03  0.7818609E-02  0.9719452E-01
        2   -1    0    0  501    0  0.00000000000E+00  0.00000000000E+00  0.12163731270E+04  0.12163731270E+04  0.25500000920E-02 0. -1.
       -2   -1    0    0    0  501  0.00000000000E+00  0.00000000000E+00 -0.10033647017E+03  0.10033647020E+03  0.25500000920E-02 0.  1.
    10030    2    1    2    0    0  0.00000000000E+00  0.00000000000E+00  0.11160366568E+04  0.13167095972E+04  0.69870333045E+03 0.  0.
        2    1    3    3  502    0 -0.75334703312E+02 -0.14031031557E+03  0.11439879884E+04  0.11550198353E+04  0.25500000920E-02 0. -1.
       -2    1    3    3    0  502  0.75334703312E+02  0.14031031557E+03 -0.27951331583E+02  0.16168976196E+03  0.25500000920E-02 0.  1.
</event>
<event>
 5   0  0.4503289E-02  0.7041334E+03  0.7818609E-02  0.9710190E-01
        2   -1    0    0  501    0  0.00000000000E+00  0.00000000000E+00  0.39180061016E+03  0.39180061016E+03  0.25500000920E-02 0.  1.
       -2   -1    0    0    0  501  0.00000000000E+00  0.00000000000E+00 -0.31636236214E+03  0.31636236215E+03  0.25500000920E-02 0. -1.
    10030    2    1    2    0    0  0.00000000000E+00  0.00000000000E+00  0.75438248017E+02  0.70816297231E+03  0.70413341498E+03 0.  0.
        2    1    3    3  502    0  0.11621702431E+03  0.81127075795E+02 -0.28640296081E+03  0.31955383761E+03  0.25500000920E-02 0. -1.
       -2    1    3    3    0  502 -0.11621702431E+03 -0.81127075795E+02  0.36184120882E+03  0.38860913470E+03  0.25500000920E-02 0.  1.
</event>
<event>
 5   0  0.2684924E-02  0.7001121E+03  0.7818609E-02  0.9717041E-01
       -1   -1    0    0    0  501  0.00000000000E+00  0.00000000000E+00  0.35537108373E+03  0.35537108376E+03  0.50400001928E-02 0.  1.
        1   -1    0    0  501    0  0.00000000000E+00  0.00000000000E+00 -0.34482050678E+03  0.34482050681E+03  0.50400001928E-02 0. -1.
    10030    2    1    2    0    0  0.00000000000E+00  0.00000000000E+00  0.10550576950E+02  0.70019159058E+03  0.70011209734E+03 0.  0.
        4    1    3    3  502    0  0.53337851132E+02  0.15049902974E+03  0.31682749663E+03  0.35479030404E+03  0.12699999809E+01 0.  1.
       -4    1    3    3    0  502 -0.53337851132E+02 -0.15049902974E+03 -0.30627691968E+03  0.34540128654E+03  0.12699999809E+01 0. -1.
</event>
<event>
 5   0  0.2751729E-02  0.7089014E+03  0.7818609E-02  0.9702129E-01
       -1   -1    0    0    0  501  0.00000000000E+00  0.00000000000E+00  0.34969692048E+03  0.34969692052E+03  0.50400001928E-02 0. -1.
        1   -1    0    0  501    0  0.00000000000E+00  0.00000000000E+00 -0.35926914639E+03  0.35926914643E+03  0.50400001928E-02 0.  1.
    10030    2    1    2    0    0  0.00000000000E+00  0.00000000000E+00 -0.95722259098E+01  0.70896606695E+03  0.70890144348E+03 0.  0.
        1    1    3    3  502    0  0.17914222469E+03  0.29762645218E+03  0.65660867865E+02  0.35353188158E+03  0.50400001928E-02 0. -1.
       -1    1    3    3    0  502 -0.17914222469E+03 -0.29762645218E+03 -0.75233093775E+02  0.35543418536E+03  0.50400001928E-02 0.  1.
</event>
<event>
 5   0  0.4420645E-02  0.7015782E+03  0.7818609E-02  0.9714537E-01
        2   -1    0    0  501    0  0.00000000000E+00  0.00000000000E+00  0.12701395535E+04  0.12701395535E+04  0.25500000920E-02 0. -1.
       -2   -1    0    0    0  501  0.00000000000E+00  0.00000000000E+00 -0.96881472657E+02  0.96881472690E+02  0.25500000920E-02 0.  1.
    10030    2    1    2    0    0  0.00000000000E+00  0.00000000000E+00  0.11732580808E+04  0.13670210262E+04  0.70157819363E+03 0.  0.
        5    1    3    3  502    0 -0.11226743643E+03  0.12414390953E+03 -0.13985283698E+02  0.16802787183E+03  0.46999998093E+01 0.  1.
       -5    1    3    3    0  502  0.11226743643E+03 -0.12414390953E+03  0.11872433645E+04  0.11989931543E+04  0.46999998093E+01 0. -1.
</event>
<event>
 5   0  0.2777999E-02  0.6949913E+03  0.7818609E-02  0.9725836E-01
        1   -1    0    0  501    0  0.00000000000E+00  0.00000000000E+00  0.39067693594E+03  0.39067693597E+03  0.50400001928E-02 0. -1.
       -1   -1    0    0    0  501  0.00000000000E+00  0.00000000000E+00 -0.30908720637E+03  0.30908720642E+03  0.50400001928E-02 0.  1.
    10030    2    1    2    0    0  0.00000000000E+00  0.00000000000E+00  0.81589729568E+02  0.69976414239E+03  0.69499134599E+03 0.  0.
        5    1    3    3  502    0  0.29468607190E+03  0.65779181116E+02 -0.13232886908E+03  0.32969652899E+03  0.46999998093E+01 0. -1.
       -5    1    3    3    0  502 -0.29468607190E+03 -0.65779181116E+02  0.21391859864E+03  0.37006761340E+03  0.46999998093E+01 0.  1.
</event>
<event>
 5   0  0.4503289E-02  0.6978125E+03  0.7818609E-02  0.9720980E-01
       -2   -1    0    0    0  501  0.00000000000E+00  0.00000000000E+00  0.94930501232E+02  0.94930501266E+02  0.25500000920E-02 0.  1.
        2   -1    0    0  501    0  0.00000000000E+00  0.00000000000E+00 -0.12823652106E+04  0.12823652106E+04  0.25500000920E-02 0. -1.
    10030    2    1    2    0    0  0.00000000000E+00  0.00000000000E+00 -0.11874347094E+04  0.13772957119E+04  0.69781250271E+03 0.  0.
        2    1    3    3  502    0 -0.11875960481E+03  0.54252605391E+02  0.44895557633E+02  0.13806809924E+03  0.25500000920E-02 0.  1.
       -2    1    3    3    0  502  0.11875960481E+03 -0.54252605391E+02 -0.12323302670E+04  0.12392276127E+04  0.25500000920E-02 0. -1.
</event>
<event>
 5   0  0.4365492E-02  0.6931359E+03  0.7818609E-02  0.9729043E-01
       -2   -1    0    0    0  501  0.00000000000E+00  0.00000000000E+00  0.10024617849E+03  0.10024617852E+03  0.25500000920E-02 0.  1.
        2   -1    0    0  501    0  0.00000000000E+00  0.00000000000E+00 -0.11981439587E+04  0.11981439587E+04  0.25500000920E-02 0. -1.
    10030    2    1    2    0    0  0.00000000000E+00  0.00000000000E+00 -0.10978977802E+04  0.12983901373E+04  0.69313592655E+03 0.  0.
        4    1    3    3  502    0  0.19518891885E+03  0.15337001628E+03 -0.10019666463E+04  0.10322595842E+04  0.12699999809E+01 0. -1.
       -4    1    3    3    0  502 -0.19518891885E+03 -0.15337001628E+03 -0.95931133977E+02  0.26613055311E+03  0.12699999809E+01 0.  1.
</event>
<event>
 5   0  0.2684924E-02  0.7627177E+03  0.7818609E-02  0.9615607E-01
       -1   -1    0    0    0  501  0.00000000000E+00  0.00000000000E+00  0.44460555243E+03  0.44460555245E+03  0.50400001928E-02 0. -1.
        1   -1    0    0  501    0  0.00000000000E+00  0.00000000000E+00 -0.32710920681E+03  0.32710920685E+03  0.50400001928E-02 0.  1.
    10030    2    1    2    0    0  0.00000000000E+00  0.00000000000E+00  0.11749634561E+03  0.77171475931E+03  0.76271769253E+03 0.  0.
        4    1    3    3  502    0 -0.30817439941E+03  0.18020848541E+03  0.19444356043E+03  0.40651749010E+03  0.12699999809E+01 0. -1.
       -4    1    3    3    0  502  0.30817439941E+03 -0.18020848541E+03 -0.76947214820E+02  0.36519726920E+03  0.12699999809E+01 0.  1.
</event>
<event>
 5   0  0.4420645E-02  0.6909844E+03  0.7818609E-02  0.9732775E-01
       -2   -1    0    0    0  501  0.00000000000E+00  0.00000000000E+00  0.74044024040E+02  0.74044024084E+02  0.25500000920E-02 0. -1.
        2   -1    0    0  501    0  0.00000000000E+00  0.00000000000E+00 -0.16120796417E+04  0.16120796417E+04  0.25500000920E-02 0.  1.
    10030    2    1    2    0    0  0.00000000000E+00  0.00000000000E+00 -0.15380356177E+04  0.16861236658E+04  0.69098441020E+03 0.  0.
        5    1    3    3  502    0 -0.35031127397E+02 -0.14185464396E+02  0.68906010296E+02  0.78730778860E+02  0.46999998093E+01 0. -1.
       -5    1    3    3    0  502  0.35031127397E+02  0.14185464396E+02 -0.16069416280E+04  0.16073928869E+04  0.46999998093E+01 0.  1.
</event>
<event>
 5   0  0.4299912E-02  0.6874084E+03  0.7818609E-02  0.9739011E-01
       -2   -1    0    0    0  501  0.00000000000E+00  0.00000000000E+00  0.80882726600E+02  0.80882726641E+02  0.25500000920E-02 0.  1.
        2   -1    0    0  501    0  0.00000000000E+00  0.00000000000E+00 -0.14605413078E+04  0.14605413078E+04  0.25500000920E-02 0. -1.
    10030    2    1    2    0    0  0.00000000000E+00  0.00000000000E+00 -0.13796585812E+04  0.15414240344E+04  0.68740835991E+03 0.  0.
        3    1    3    3  502    0 -0.17162100752E+03 -0.18218162333E+03 -0.12180426163E+04  0.12434917528E+04  0.10100000352E+00 0. -1.
       -3    1    3    3    0  502  0.17162100752E+03  0.18218162333E+03 -0.16161596491E+03  0.29793228160E+03  0.10100000352E+00 0.  1.
</event>
<event>
 5   0  0.4365492E-02  0.7053037E+03  0.7818609E-02  0.9708205E-01
       -2   -1    0    0    0  501  0.00000000000E+00  0.00000000000E+00  0.51913249359E+03  0.51913249359E+03  0.25500000920E-02 0. -1.
        2   -1    0    0  501    0  0.00000000000E+00  0.00000000000E+00 -0.23955986977E+03  0.23955986978E+03  0.25500000920E-02 0.  1.
    10030    2    1    2    0    0  0.00000000000E+00  0.00000000000E+00  0.27957262382E+03  0.75869236338E+03  0.70530365819E+03 0.  0.
        4    1    3    3  502    0 -0.67982609118E+02 -0.19395542477E+03  0.44804664035E+03  0.49293787313E+03  0.12699999809E+01 0. -1.
       -4    1    3    3    0  502  0.67982609118E+02  0.19395542477E+03 -0.16847401653E+03  0.26575449024E+03  0.12699999809E+01 0.  1.
</event>
<event>
 5   0  0.2750139E-02  0.6832080E+03  0.7818609E-02  0.9746388E-01
        1   -1    0    0  501    0  0.00000000000E+00  0.00000000000E+00  0.25748233624E+03  0.25748233629E+03  0.50400001928E-02 0.  1.
       -1   -1    0    0    0  501  0.00000000000E+00  0.00000000000E+00 -0.45320892915E+03  0.45320892918E+03  0.50400001928E-02 0. -1.
    10030    2    1    2    0    0  0.00000000000E+00  0.00000000000E+00 -0.19572659291E+03  0.71069126546E+03  0.68320800320E+03 0.  0.
        2    1    3    3  502    0  0.32760187677E+03 -0.96619819290E+02 -0.91716730250E+02  0.35365284921E+03  0.25500000920E-02 0. -1.
       -2    1    3    3    0  502 -0.32760187677E+03  0.96619819290E+02 -0.10400986266E+03  0.35703841625E+03  0.25500000920E-02 0.  1.
</event>
<event>
 5   0  0.4299912E-02  0.6941781E+03  0.7818609E-02  0.9727240E-01
        2   -1    0    0  501    0  0.00000000000E+00  0.00000000000E+00  0.78659483031E+03  0.78659483031E+03  0.25500000920E-02 0. -1.
       -2   -1    0    0    0  501  0.00000000000E+00  0.00000000000E+00 -0.15315485641E+03  0.15315485643E+03  0.25500000920E-02 0.  1.
    10030    2    1    2    0    0  0.00000000000E+00  0.00000000000E+00  0.63343997390E+03  0.93974968674E+03  0.69417812786E+03 0.  0.
        3    1    3    3  502    0  0.20490770274E+03 -0.19023118385E+03  0.38306949691E+02  0.28221003268E+03  0.10100000352E+00 0.  1.
       -3    1    3    3    0  502 -0.20490770274E+03  0.19023118385E+03  0.59513302421E+03  0.65753965406E+03  0.10100000352E+00 0. -1.
</event>
<event>
 5   0  0.2758681E-02  0.7001297E+03  0.7818609E-02  0.9717010E-01
        1   -1    0    0  501    0  0.00000000000E+00  0.00000000000E+00  0.35432439853E+03  0.35432439857E+03  0.50400001928E-02 0.  1.
       -1   -1    0    0    0  501  0.00000000000E+00  0.00000000000E+00 -0.34585655073E+03  0.34585655077E+03  0.50400001928E-02 0. -1.
    10030    2    1    2    0    0  0.00000000000E+00  0.00000000000E+00  0.84678478019E+01  0.70018094933E+03  0.70012974323E+03 0.  0.
        3    1    3    3  502    0  0.11254790496E+03  0.68360363544E+02  0.32861120962E+03  0.35401342842E+03  0.10100000352E+00 0.  1.
       -3    1    3    3    0  502 -0.11254790496E+03 -0.68360363544E+02 -0.32014336182E+03  0.34616752091E+03  0.10100000352E+00 0. -1.
</event>
<event>
 5   0  0.4365492E-02  0.6977571E+03  0.7818609E-02  0.9721076E-01
       -2   -1    0    0    0  501  0.00000000000E+00  0.00000000000E+00  0.39311077819E+03  0.39311077820E+03  0.25500000920E-02 0.  1.
        2   -1    0    0  501    0  0.00000000000E+00  0.00000000000E+00 -0.30962327231E+03  0.30962327232E+03  0.25500000920E-02 0. -1.
    10030    2    1    2    0    0  0.00000000000E+00  0.00000000000E+00  0.83487505882E+02  0.70273405052E+03  0.69775710826E+03 0.  0.
        4    1    3    3  502    0  0.25274572051E+03 -0.15196765178E+03  0.22946008039E+03  0.37366844638E+03  0.12699999809E+01 0.  1.
       -4    1    3    3    0  502 -0.25274572051E+03  0.15196765178E+03 -0.14597257451E+03  0.32906560415E+03  0.12699999809E+01 0. -1.
</event>
<event>
 5   0  0.2751729E-02  0.6896663E+03  0.7818609E-02  0.9735069E-01
       -1   -1    0    0    0  501  0.00000000000E+00  0.00000000000E+00  0.48878900470E+03  0.48878900472E+03  0.50400001928E-02 0.  1.
        1   -1    0    0  501    0  0.00000000000E+00  0.00000000000E+00 -0.24327450519E+03  0.24327450525E+03  0.50400001928E-02 0. -1.
    10030    2    1    2    0    0  0.00000000000E+00  0.00000000000E+00  0.24551449950E+03  0.73206350997E+03  0.68966630566E+03 0.  0.
        1    1    3    3  502    0 -0.10291263603E+03 -0.30047130426E+03  0.26531095670E+03  0.41384045128E+03  0.50400001928E-02 0.  1.
       -1    1    3    3    0  502  0.10291263603E+03  0.30047130426E+03 -0.19796457199E+02  0.31822305869E+03  0.50400001928E-02 0. -1.
</event>
<event>
 5   0  0.4420645E-02  0.6828709E+03  0.7818609E-02  0.9746982E-01
       -2   -1    0    0    0  501  0.00000000000E+00  0.00000000000E+00  0.16469988874E+03  0.16469988876E+03  0.25500000920E-02 0. -1.
        2   -1    0    0  501    0  0.00000000000E+00  0.00000000000E+00 -0.70782173351E+03  0.70782173352E+03  0.25500000920E-02 0.  1.
    10030    2    1    2    0    0  0.00000000000E+00  0.00000000000E+00 -0.54312184477E+03  0.87252162228E+03  0.68287088317E+03 0.  0.
        5    1    3    3  502    0 -0.11060687583E+03 -0.29539682992E+03 -0.10465795445E+03  0.33236808742E+03  0.46999998093E+01 0. -1.
       -5    1    3    3    0  502  0.11060687583E+03  0.29539682992E+03 -0.43846389032E+03  0.54015353486E+03  0.46999998093E+01 0.  1.
</event>
<event>
 5   0  0.2777999E-02  0.6819639E+03  0.7818609E-02  0.9748583E-01
       -1   -1    0    0    0  501  0.00000000000E+00  0.00000000000E+00  0.13867707138E+03  0.13867707147E+03  0.50400001928E-02 0. -1.
        1   -1    0    0  501    0  0.00000000000E+00  0.00000000000E+00 -0.83841327976E+03  0.83841327978E+03  0.50400001928E-02 0.  1.
    10030    2    1    2    0    0  0.00000000000E+00  0.00000000000E+00 -0.69973620838E+03  0.97709035125E+03  0.68196392367E+03 0.  0.
        5    1    3    3  502    0  0.15094799343E+03 -0.47348949198E+02 -0.78259800220E+03  0.79844157128E+03  0.46999998093E+01 0.  1.
       -5    1    3    3    0  502 -0.15094799343E+03  0.47348949198E+02  0.82861793821E+02  0.17864877997E+03  0.46999998093E+01 0. -1.
</event>
<event>
 5   0  0.2777999E-02  0.6878032E+03  0.7818609E-02  0.9738321E-01
        1   -1    0    0  501    0  0.00000000000E+00  0.00000000000E+00  0.19021058203E+03  0.19021058210E+03  0.50400001928E-02 0. -1.
       -1   -1    0    0    0  501  0.00000000000E+00  0.00000000000E+00 -0.62177562857E+03  0.62177562859E+03  0.50400001928E-02 0.  1.
    10030    2    1    2    0    0  0.00000000000E+00  0.00000000000E+00 -0.43156504654E+03  0.81198621070E+03  0.68780318185E+03 0.  0.
        5    1    3    3  502    0  0.13095155117E+03  0.11030718112E+03 -0.56783644323E+03  0.59310732521E+03  0.46999998093E+01 0.  1.
       -5    1    3    3    0  502 -0.13095155117E+03 -0.11030718112E+03  0.13627139669E+03  0.21887888549E+03  0.46999998093E+01 0. -1.
</event>
<event>
 5   0  0.4420645E-02  0.6830746E+03  0.7818609E-02  0.9746623E-01
       -2   -1    0    0    0  501  0.00000000000E+00  0.00000000000E+00  0.11384925199E+03  0.11384925202E+03  0.25500000920E-02 0. -1.
        2   -1    0    0  501    0  0.00000000000E+00  0.00000000000E+00 -0.10245804176E+04  0.10245804176E+04  0.25500000920E-02 0.  1.
    10030    2    1    2    0    0  0.00000000000E+00  0.00000000000E+00 -0.91073116564E+03  0.11384296696E+04  0.68307456157E+03 0.  0.
        5    1    3    3  502    0 -0.35550741626E+02 -0.10858846165E+03 -0.99172479246E+03  0.99829628027E+03  0.46999998093E+01 0.  1.
       -5    1    3    3    0  502  0.35550741626E+02  0.10858846165E+03  0.80993626820E+02  0.14013338937E+03  0.46999998093E+01 0. -1.
</event>
<event>
 5   0  0.2684924E-02  0.6990857E+03  0.7818609E-02  0.9718797E-01
       -1   -1    0    0    0  501  0.00000000000E+00  0.00000000000E+00  0.19595278723E+03  0.19595278729E+03  0.50400001928E-02 0.  1.
        1   -1    0    0  501    0  0.00000000000E+00  0.00000000000E+00 -0.62351865867E+03  0.62351865869E+03  0.50400001928E-02 0. -1.
    10030    2    1    2    0    0  0.00000000000E+00  0.00000000000E+00 -0.42756587144E+03  0.81947144598E+03  0.69908574321E+03 0.  0.
        4    1    3    3  502    0 -0.15617966000E+03  0.21308222413E+03  0.54502089048E+02  0.26975583599E+03  0.12699999809E+01 0.  1.
       -4    1    3    3    0  502  0.15617966000E+03 -0.21308222413E+03 -0.48206796049E+03  0.54971560999E+03  0.12699999809E+01 0. -1.
</event>
<event>
 5   0  0.2684924E-02  0.6978784E+03  0.7818609E-02  0.9720867E-01
        1   -1    0    0  501    0  0.00000000000E+00  0.00000000000E+00  0.47634456889E+02  0.47634457156E+02  0.50400001928E-02 0. -1.
       -1   -1    0    0    0  501  0.00000000000E+00  0.00000000000E+00 -0.25561029051E+04  0.25561029051E+04  0.50400001928E-02 0.  1.
    10030    2    1    2    0    0  0.00000000000E+00  0.00000000000E+00 -0.25084684482E+04  0.26037373622E+04  0.69787842491E+03 0.  0.
        4    1    3    3  502    0  0.27725486993E+03  0.29235721413E+02 -0.47134292783E+03  0.54762282533E+03  0.12699999809E+01 0. -1.
       -4    1    3    3    0  502 -0.27725486993E+03 -0.29235721413E+02 -0.20371255203E+04  0.20561145369E+04  0.12699999809E+01 0.  1.
</event>
<event>
 5   0  0.2777999E-02  0.7024994E+03  0.7818609E-02  0.9712967E-01
        1   -1    0    0  501    0  0.00000000000E+00  0.00000000000E+00  0.23046335396E+04  0.23046335396E+04  0.50400001928E-02 0.  1.
       -1   -1    0    0    0  501  0.00000000000E+00  0.00000000000E+00 -0.53534041801E+02  0.53534042039E+02  0.50400001928E-02 0. -1.
    10030    2    1    2    0    0  0.00000000000E+00  0.00000000000E+00  0.22510994978E+04  0.23581675816E+04  0.70249939083E+03 0.  0.
        5    1    3    3  502    0 -0.32255107401E+03  0.13066683639E+03  0.96663178299E+03  0.10273811909E+04  0.46999998093E+01 0.  1.
       -5    1    3    3    0  502  0.32255107401E+03 -0.13066683639E+03  0.12844677148E+04  0.13307863907E+04  0.46999998093E+01 0. -1.
</event>
<event>
 5   0  0.2750139E-02  0.7696169E+03  0.7818609E-02  0.9605067E-01
       -1   -1    0    0    0  501  0.00000000000E+00  0.00000000000E+00  0.58652137928E+02  0.58652138145E+02  0.50400001928E-02 0. -1.
        1   -1    0    0  501    0  0.00000000000E+00  0.00000000000E+00 -0.25246745311E+04  0.25246745311E+04  0.50400001928E-02 0.  1.
    10030    2    1    2    0    0  0.00000000000E+00  0.00000000000E+00 -0.24660223931E+04  0.25833266692E+04  0.76961694136E+03 0.  0.
        2    1    3    3  502    0  0.11992833098E+03 -0.36125072526E+03 -0.10433486447E+04  0.11106130224E+04  0.25500000920E-02 0.  1.
       -2    1    3    3    0  502 -0.11992833098E+03  0.36125072526E+03 -0.14226737484E+04  0.14727136468E+04  0.25500000920E-02 0. -1.
</event>
<event>
 5   0  0.2684924E-02  0.7135026E+03  0.7818609E-02  0.9694416E-01
        1   -1    0    0  501    0  0.00000000000E+00  0.00000000000E+00  0.36746212552E+03  0.36746212556E+03  0.50400001928E-02 0.  1.
       -1   -1    0    0    0  501  0.00000000000E+00  0.00000000000E+00 -0.34635270817E+03  0.34635270820E+03  0.50400001928E-02 0. -1.
    10030    2    1    2    0    0  0.00000000000E+00  0.00000000000E+00  0.21109417355E+02  0.71381483376E+03  0.71350263447E+03 0.  0.
        4    1    3    3  502    0  0.13241692608E+03  0.30528266215E+03 -0.11810227446E+03  0.35310268514E+03  0.12699999809E+01 0. -1.
       -4    1    3    3    0  502 -0.13241692608E+03 -0.30528266215E+03  0.13921169181E+03  0.36071214862E+03  0.12699999809E+01 0.  1.
</event>
<event>
 5   0  0.2684924E-02  0.6911948E+03  0.7818609E-02  0.9732410E-01
       -1   -1    0    0    0  501  0.00000000000E+00  0.00000000000E+00  0.38747002479E+03  0.38747002482E+03  0.50400001928E-02 0. -1.
        1   -1    0    0  501    0  0.00000000000E+00  0.00000000000E+00 -0.30824980881E+03  0.30824980885E+03  0.50400001928E-02 0.  1.
    10030    2    1    2    0    0  0.00000000000E+00  0.00000000000E+00  0.79220215980E+02  0.69571983367E+03  0.69119479479E+03 0.  0.
        4    1    3    3  502    0  0.33520022494E+03  0.19235796785E+02 -0.42820728978E+02  0.33847368348E+03  0.12699999809E+01 0.  1.
       -4    1    3    3    0  502 -0.33520022494E+03 -0.19235796785E+02  0.12204094496E+03  0.35724615019E+03  0.12699999809E+01 0. -1.
</event>
<event>
 5   0  0.2751729E-02  0.6961890E+03  0.7818609E-02  0.9723772E-01
       -1   -1    0    0    0  501  0.00000000000E+00  0.00000000000E+00  0.10179787969E+03  0.10179787982E+03  0.50400001928E-02 0.  1.
        1   -1    0    0  501    0  0.00000000000E+00  0.00000000000E+00 -0.11902977692E+04  0.11902977692E+04  0.50400001928E-02 0. -1.
    10030    2    1    2    0    0  0.00000000000E+00  0.00000000000E+00 -0.10884998895E+04  0.12920956490E+04  0.69618902374E+03 0.  0.
        1    1    3    3  502    0 -0.16324326492E+03 -0.26190550082E+03 -0.24540695297E+03  0.39429358033E+03  0.50400001928E-02 0.  1.
       -1    1    3    3    0  502  0.16324326492E+03  0.26190550082E+03 -0.84309293652E+03  0.89780206868E+03  0.50400001928E-02 0. -1.
</event>
<event>
 5   0  0.4503289E-02  0.7006957E+03  0.7818609E-02  0.9716043E-01
       -2   -1    0    0    0  501  0.00000000000E+00  0.00000000000E+00  0.70043729732E+02  0.70043729778E+02  0.25500000920E-02 0. -1.
        2   -1    0    0  501    0  0.00000000000E+00  0.00000000000E+00 -0.17523852675E+04  0.17523852675E+04  0.25500000920E-02 0.  1.
    10030    2    1    2    0    0  0.00000000000E+00  0.00000000000E+00 -0.16823415378E+04  0.18224289973E+04  0.70069565464E+03 0.  0.
        2    1    3    3  502    0  0.16008877681E+03 -0.31160381890E+03 -0.83006170435E+03  0.90095937169E+03  0.25500000920E-02 0. -1.
       -2    1    3    3    0  502 -0.16008877681E+03  0.31160381890E+03 -0.85227983342E+03  0.92146962558E+03  0.25500000920E-02 0.  1.
</event>
<event>
 5   0  0.2751729E-02  0.7245179E+03  0.7818609E-02  0.9676198E-01
        1   -1    0    0  501    0  0.00000000000E+00  0.00000000000E+00  0.12134440236E+04  0.12134440236E+04  0.50400001928E-02 0.  1.
       -1   -1    0    0    0  501  0.00000000000E+00  0.00000000000E+00 -0.10814801539E+03  0.10814801551E+03  0.50400001928E-02 0. -1.
    10030    2    1    2    0    0  0.00000000000E+00  0.00000000000E+00  0.11052960082E+04  0.13215920391E+04  0.72451794465E+03 0.  0.
        1    1    3    3  502    0 -0.16959510060E+02  0.13282037639E+03 -0.61351993699E+02  0.14728524882E+03  0.50400001928E-02 0. -1.
       -1    1    3    3    0  502  0.16959510060E+02 -0.13282037639E+03  0.11666480019E+04  0.11743067903E+04  0.50400001928E-02 0.  1.
</event>
<event>
 5   0  0.2684924E-02  0.6974172E+03  0.7818609E-02  0.9721659E-01
       -1   -1    0    0    0  501  0.00000000000E+00  0.00000000000E+00  0.57052717265E+03  0.57052717268E+03  0.50400001928E-02 0.  1.
        1   -1    0    0  501    0  0.00000000000E+00  0.00000000000E+00 -0.21313214495E+03  0.21313214501E+03  0.50400001928E-02 0. -1.
    10030    2    1    2    0    0  0.00000000000E+00  0.00000000000E+00  0.35739502770E+03  0.78365931769E+03  0.69741717815E+03 0.  0.
        4    1    3    3  502    0 -0.22273965986E+03  0.26187720294E+03  0.11314432554E+03  0.36193352538E+03  0.12699999809E+01 0.  1.
       -4    1    3    3    0  502  0.22273965986E+03 -0.26187720294E+03  0.24425070216E+03  0.42172579231E+03  0.12699999809E+01 0. -1.
</event>
<event>
 5   0  0.4420645E-02  0.6949134E+03  0.7818609E-02  0.9725971E-01
        2   -1    0    0  501    0  0.00000000000E+00  0.00000000000E+00  0.19742482321E+04  0.19742482321E+04  0.25500000920E-02 0. -1.
       -2   -1    0    0    0  501  0.00000000000E+00  0.00000000000E+00 -0.61150449341E+02  0.61150449394E+02  0.25500000920E-02 0.  1.
    10030    2    1    2    0    0  0.00000000000E+00  0.00000000000E+00  0.19130977828E+04  0.20353986815E+04  0.69491342356E+03 0.  0.
        5    1    3    3  502    0 -0.10902491587E+03  0.10325272275E+03  0.18742016261E+04  0.18802131215E+04  0.46999998093E+01 0. -1.
       -5    1    3    3    0  502  0.10902491587E+03 -0.10325272275E+03  0.38896156694E+02  0.15518556002E+03  0.46999998093E+01 0.  1.
</event>
<event>
 5   0  0.4420645E-02  0.7006721E+03  0.7818609E-02  0.9716084E-01
        2   -1    0    0  501    0  0.00000000000E+00  0.00000000000E+00  0.10616969808E+04  0.10616969808E+04  0.25500000920E-02 0. -1.
       -2   -1    0    0    0  501  0.00000000000E+00  0.00000000000E+00 -0.11560298624E+03  0.11560298627E+03  0.25500000920E-02 0.  1.
    10030    2    1    2    0    0  0.00000000000E+00  0.00000000000E+00  0.94609399457E+03  0.11772999671E+04  0.70067208159E+03 0.  0.
        5    1    3    3  502    0  0.29429881022E+03  0.14184884169E+03  0.68545247143E+03  0.75934186252E+03  0.46999998093E+01 0. -1.
       -5    1    3    3    0  502 -0.29429881022E+03 -0.14184884169E+03  0.26064152314E+03  0.41795810456E+03  0.46999998093E+01 0.  1.
</event>
<event>
 5   0  0.2758681E-02  0.6938363E+03  0.7818609E-02  0.9727831E-01
       -1   -1    0    0    0  501  0.00000000000E+00  0.00000000000E+00  0.11830143740E+03  0.11830143750E+03  0.50400001928E-02 0.  1.
        1   -1    0    0  501    0  0.00000000000E+00  0.00000000000E+00 -0.10173349777E+04  0.10173349777E+04  0.50400001928E-02 0. -1.
    10030    2    1    2    0    0  0.00000000000E+00  0.00000000000E+00 -0.89903354029E+03  0.11356364152E+04  0.69383626380E+03 0.  0.
        3    1    3    3  502    0  0.10120793803E+03 -0.18759250019E+03 -0.89751463627E+03  0.92247846879E+03  0.10100000352E+00 0. -1.
       -3    1    3    3    0  502 -0.10120793803E+03  0.18759250019E+03 -0.15189040128E+01  0.21315794641E+03  0.10100000352E+00 0.  1.
</event>
<event>
 5   0  0.2684924E-02  0.6961048E+03  0.7818609E-02  0.9723917E-01
       -1   -1    0    0    0  501  0.00000000000E+00  0.00000000000E+00  0.45278722440E+03  0.45278722443E+03  0.50400001928E-02 0.  1.
        1   -1    0    0  501    0  0.00000000000E+00  0.00000000000E+00 -0.26754389976E+03  0.26754389981E+03  0.50400001928E-02 0. -1.
    10030    2    1    2    0    0  0.00000000000E+00  0.00000000000E+00  0.18524332464E+03  0.72033112424E+03  0.69610476167E+03 0.  0.
        4    1    3    3  502    0 -0.28814919268E+03  0.17511817257E+03  0.33492143593E+01  0.33720789098E+03  0.12699999809E+01 0.  1.
       -4    1    3    3    0  502  0.28814919268E+03 -0.17511817257E+03  0.18189411028E+03  0.38312323325E+03  0.12699999809E+01 0. -1.
</event>
<event>
 5   0  0.2750139E-02  0.6854653E+03  0.7818609E-02  0.9742416E-01
       -1   -1    0    0    0  501  0.00000000000E+00  0.00000000000E+00  0.20346621424E+03  0.20346621430E+03  0.50400001928E-02 0. -1.
        1   -1    0    0  501    0  0.00000000000E+00  0.00000000000E+00 -0.57732279030E+03  0.57732279032E+03  0.50400001928E-02 0.  1.
    10030    2    1    2    0    0  0.00000000000E+00  0.00000000000E+00 -0.37385657606E+03  0.78078900462E+03  0.68546533849E+03 0.  0.
        2    1    3    3  502    0 -0.90147580214E+02 -0.85608820581E+02 -0.55073444533E+03  0.56459178674E+03  0.25500000920E-02 0.  1.
       -2    1    3    3    0  502  0.90147580214E+02  0.85608820581E+02  0.17687786926E+03  0.21619721788E+03  0.25500000920E-02 0. -1.
</event>
<event>
 5   0  0.4365492E-02  0.6951306E+03  0.7818609E-02  0.9725596E-01
        2   -1    0    0  501    0  0.00000000000E+00  0.00000000000E+00  0.16800588295E+04  0.16800588295E+04  0.25500000920E-02 0. -1.
       -2   -1    0    0    0  501  0.00000000000E+00  0.00000000000E+00 -0.71903228835E+02  0.71903228880E+02  0.25500000920E-02 0.  1.
    10030    2    1    2    0    0  0.00000000000E+00  0.00000000000E+00  0.16081556007E+04  0.17519620584E+04  0.69513064820E+03 0.  0.
        4    1    3    3  502    0  0.30739492041E+03 -0.57017804723E+02  0.42137363763E+03  0.52469040638E+03  0.12699999809E+01 0.  1.
       -4    1    3    3    0  502 -0.30739492041E+03  0.57017804723E+02  0.11867819631E+04  0.12272716520E+04  0.12699999809E+01 0. -1.
</event>
<event>
 5   0  0.2777999E-02  0.6906157E+03  0.7818609E-02  0.9733416E-01
        1   -1    0    0  501    0  0.00000000000E+00  0.00000000000E+00  0.31250217745E+03  0.31250217749E+03  0.50400001928E-02 0. -1.
       -1   -1    0    0    0  501  0.00000000000E+00  0.00000000000E+00 -0.38155742233E+03  0.38155742236E+03  0.50400001928E-02 0.  1.
    10030    2    1    2    0    0  0.00000000000E+00  0.00000000000E+00 -0.69055244882E+02  0.69405959985E+03  0.69061574070E+03 0.  0.
        5    1    3    3  502    0  0.15014207386E+03 -0.80374185875E+02 -0.33637981428E+03  0.37706249025E+03  0.46999998093E+01 0.  1.
       -5    1    3    3    0  502 -0.15014207386E+03  0.80374185875E+02  0.26732456940E+03  0.31699710961E+03  0.46999998093E+01 0. -1.
</event>
<event>
 5   0  0.2758681E-02  0.7031716E+03  0.7818609E-02  0.9711824E-01
        1   -1    0    0  501    0  0.00000000000E+00  0.00000000000E+00  0.67071329624E+03  0.67071329626E+03  0.50400001928E-02 0. -1.
       -1   -1    0    0    0  501  0.00000000000E+00  0.00000000000E+00 -0.18430016050E+03  0.18430016057E+03  0.50400001928E-02 0.  1.
    10030    2    1    2    0    0  0.00000000000E+00  0.00000000000E+00  0.48641313574E+03  0.85501345684E+03  0.70317158130E+03 0.  0.
        3    1    3    3  502    0 -0.69083755295E+02 -0.28127804527E+03  0.48554972887E+03  0.56537461333E+03  0.10100000352E+00 0. -1.
       -3    1    3    3    0  502  0.69083755295E+02  0.28127804527E+03  0.86340687141E+00  0.28963884350E+03  0.10100000352E+00 0.  1.
</event>
<event>
 5   0  0.4503289E-02  0.6982949E+03  0.7818609E-02  0.9720153E-01
       -2   -1    0    0    0  501  0.00000000000E+00  0.00000000000E+00  0.11488805815E+03  0.11488805818E+03  0.25500000920E-02 0. -1.
        2   -1    0    0  501    0  0.00000000000E+00  0.00000000000E+00 -0.10610672295E+04  0.10610672295E+04  0.25500000920E-02 0.  1.
    10030    2    1    2    0    0  0.00000000000E+00  0.00000000000E+00 -0.94617917139E+03  0.11759552877E+04  0.69829493363E+03 0.  0.
        2    1    3    3  502    0  0.34934650794E+02 -0.33836724496E+03 -0.60559600707E+03  0.69459293552E+03  0.25500000920E-02 0.  1.
       -2    1    3    3    0  502 -0.34934650794E+02  0.33836724496E+03 -0.34058316432E+03  0.48136235219E+03  0.25500000920E-02 0. -1.
</event>
<event>
 5   0  0.4420645E-02  0.6443811E+03  0.7818609E-02  0.9817380E-01
        2   -1    0    0  501    0  0.00000000000E+00  0.00000000000E+00  0.20222916921E+03  0.20222916923E+03  0.25500000920E-02 0. -1.
       -2   -1    0    0    0  501  0.00000000000E+00  0.00000000000E+00 -0.51331248614E+03  0.51331248614E+03  0.25500000920E-02 0.  1.
    10030    2    1    2    0    0  0.00000000000E+00  0.00000000000E+00 -0.31108331693E+03  0.71554165537E+03  0.64438112208E+03 0.  0.
        5    1    3    3  502    0 -0.18876998594E+03 -0.17743867045E+03  0.57088245558E+02  0.26532950673E+03  0.46999998093E+01 0. -1.
       -5    1    3    3    0  502  0.18876998594E+03  0.17743867045E+03 -0.36817156248E+03  0.45021214864E+03  0.46999998093E+01 0.  1.
</event>
<event>
 5   0  0.4299912E-02  0.6998515E+03  0.7818609E-02  0.9717486E-01
       -2   -1    0    0    0  501  0.00000000000E+00  0.00000000000E+00  0.79423710136E+02  0.79423710177E+02  0.25500000920E-02 0. -1.
        2   -1    0    0  501    0  0.00000000000E+00  0.00000000000E+00 -0.15417062686E+04  0.15417062686E+04  0.25500000920E-02 0.  1.
    10030    2    1    2    0    0  0.00000000000E+00  0.00000000000E+00 -0.14622825585E+04  0.16211299788E+04  0.69985150376E+03 0.  0.
        3    1    3    3  502    0 -0.10065480252E+03  0.11363071500E+03 -0.14614649570E+04  0.14693274514E+04  0.10100000352E+00 0.  1.
       -3    1    3    3    0  502  0.10065480252E+03 -0.11363071500E+03 -0.81760150841E+00  0.15180252744E+03  0.10100000352E+00 0. -1.
</event>
<event>
 5   0  0.1784625E-02  0.6992668E+03  0.7818609E-02  0.9718487E-01
        4   -1    0    0  501    0  0.00000000000E+00  0.00000000000E+00  0.13948584413E+03  0.13949162560E+03  0.12699999809E+01 0.  1.
       -4   -1    0    0    0  501  0.00000000000E+00  0.00000000000E+00 -0.87636222527E+03  0.87636314550E+03  0.12699999809E+01 0. -1.
    10030    2    1    2    0    0  0.00000000000E+00  0.00000000000E+00 -0.73687638115E+03  0.10158547711E+04  0.69926684096E+03 0.  0.
        1    1    3    3  502    0 -0.25981654250E+03  0.45217686595E+02 -0.70191859483E+03  0.74982597230E+03  0.50400001928E-02 0. -1.
       -1    1    3    3    0  502  0.25981654250E+03 -0.45217686595E+02 -0.34957786317E+02  0.26602879879E+03  0.50400001928E-02 0.  1.
</event>
<event>
 5   0  0.4299912E-02  0.6907973E+03  0.7818609E-02  0.9733101E-01
        2   -1    0    0  501    0  0.00000000000E+00  0.00000000000E+00  0.37932883365E+03  0.37932883366E+03  0.25500000920E-02 0.  1.
       -2   -1    0    0    0  501  0.00000000000E+00  0.00000000000E+00 -0.31450342192E+03  0.31450342193E+03  0.25500000920E-02 0. -1.
    10030    2    1    2    0    0  0.00000000000E+00  0.00000000000E+00  0.64825411727E+02  0.69383225559E+03  0.69079726758E+03 0.  0.
        3    1    3    3  502    0  0.63196726232E+02 -0.24980687731E+03 -0.19860412961E+03  0.32533200374E+03  0.10100000352E+00 0. -1.
       -3    1    3    3    0  502 -0.63196726232E+02  0.24980687731E+03  0.26342954134E+03  0.36850025185E+03  0.10100000352E+00 0.  1.
</event>
<event>
 5   0  0.2777999E-02  0.6984076E+03  0.7818609E-02  0.9719959E-01
       -1   -1    0    0    0  501  0.00000000000E+00  0.00000000000E+00  0.11083937181E+03  0.11083937193E+03  0.50400001928E-02 0. -1.
        1   -1    0    0  501    0  0.00000000000E+00  0.00000000000E+00 -0.11001802569E+04  0.11001802569E+04  0.50400001928E-02 0.  1.
    10030    2    1    2    0    0  0.00000000000E+00  0.00000000000E+00 -0.98934088512E+03  0.12110196289E+04  0.69840758482E+03 0.  0.
        5    1    3    3  502    0  0.10324561372E+03 -0.33337963843E+03 -0.47571069391E+03  0.59002067284E+03  0.46999998093E+01 0. -1.
       -5    1    3    3    0  502 -0.10324561372E+03  0.33337963843E+03 -0.51363019121E+03  0.62099895603E+03  0.46999998093E+01 0.  1.
</event>
<event>
 5   0  0.2758681E-02  0.7168808E+03  0.7818609E-02  0.9688791E-01
        1   -1    0    0  501    0  0.00000000000E+00  0.00000000000E+00  0.27414030312E+03  0.27414030316E+03  0.50400001928E-02 0.  1.
       -1   -1    0    0    0  501  0.00000000000E+00  0.00000000000E+00 -0.46866337150E+03  0.46866337153E+03  0.50400001928E-02 0. -1.
    10030    2    1    2    0    0  0.00000000000E+00  0.00000000000E+00 -0.19452306839E+03  0.74280367469E+03  0.71688079553E+03 0.  0.
        3    1    3    3  502    0  0.99510250507E+02  0.31773411697E+03 -0.23481063964E+03  0.40742276045E+03  0.10100000352E+00 0. -1.
       -3    1    3    3    0  502 -0.99510250507E+02 -0.31773411697E+03  0.40287571254E+02  0.33538091425E+03  0.10100000352E+00 0.  1.
</event>
<event>
 5   0  0.1784625E-02  0.6918869E+03  0.7818609E-02  0.9731208E-01
        3   -1    0    0  501    0  0.00000000000E+00  0.00000000000E+00  0.19779220732E+03  0.19779223311E+03  0.10100000352E+00 0.  1.
       -3   -1    0    0    0  501  0.00000000000E+00  0.00000000000E+00 -0.60506359679E+03  0.60506360522E+03  0.10100000352E+00 0. -1.
    10030    2    1    2    0    0  0.00000000000E+00  0.00000000000E+00 -0.40727138946E+03  0.80285583833E+03  0.69188692173E+03 0.  0.
        1    1    3    3  502    0 -0.22023779802E+03 -0.26345903167E+03 -0.25233775711E+03  0.42613342128E+03  0.50400001928E-02 0. -1.
       -1    1    3    3    0  502  0.22023779802E+03  0.26345903167E+03 -0.15493363236E+03  0.37672241705E+03  0.50400001928E-02 0.  1.
</event>
<event>
 5   0  0.2684924E-02  0.6718650E+03  0.7818609E-02  0.9766594E-01
       -1   -1    0    0    0  501  0.00000000000E+00  0.00000000000E+00  0.14787557151E+03  0.14787557160E+03  0.50400001928E-02 0. -1.
        1   -1    0    0  501    0  0.00000000000E+00  0.00000000000E+00 -0.76314603559E+03  0.76314603561E+03  0.50400001928E-02 0.  1.
    10030    2    1    2    0    0  0.00000000000E+00  0.00000000000E+00 -0.61527046408E+03  0.91102160720E+03  0.67186503468E+03 0.  0.
        4    1    3    3  502    0 -0.19013938984E+03  0.27016113888E+03 -0.22505503416E+03  0.39973917725E+03  0.12699999809E+01 0. -1.
       -4    1    3    3    0  502  0.19013938984E+03 -0.27016113888E+03 -0.39021542992E+03  0.51128242995E+03  0.12699999809E+01 0.  1.
</event>
<event>
 5   0  0.4365492E-02  0.6987978E+03  0.7818609E-02  0.9719290E-01
        2   -1    0    0  501    0  0.00000000000E+00  0.00000000000E+00  0.80954295179E+03  0.80954295179E+03  0.25500000920E-02 0. -1.
       -2   -1    0    0    0  501  0.00000000000E+00  0.00000000000E+00 -0.15080063068E+03  0.15080063070E+03  0.25500000920E-02 0.  1.
    10030    2    1    2    0    0  0.00000000000E+00  0.00000000000E+00  0.65874232111E+03  0.96034358250E+03  0.69879778965E+03 0.  0.
        4    1    3    3  502    0 -0.23896802968E+03 -0.72850090696E+01 -0.20784896229E+02  0.23998419818E+03  0.12699999809E+01 0.  1.
       -4    1    3    3    0  502  0.23896802968E+03  0.72850090696E+01  0.67952721734E+03  0.72035938431E+03  0.12699999809E+01 0. -1.
</event>
<event>
 5   0  0.2684924E-02  0.6545557E+03  0.7818609E-02  0.9798268E-01
       -1   -1    0    0    0  501  0.00000000000E+00  0.00000000000E+00  0.32429853321E+03  0.32429853324E+03  0.50400001928E-02 0.  1.
        1   -1    0    0  501    0  0.00000000000E+00  0.00000000000E+00 -0.33028449603E+03  0.33028449607E+03  0.50400001928E-02 0. -1.
    10030    2    1    2    0    0  0.00000000000E+00  0.00000000000E+00 -0.59859628230E+01  0.65458302931E+03  0.65455565883E+03 0.  0.
        4    1    3    3  502    0  0.23903145242E+03  0.21065744213E+03 -0.77806346602E+02  0.32797566014E+03  0.12699999809E+01 0. -1.
       -4    1    3    3    0  502 -0.23903145242E+03 -0.21065744213E+03  0.71820383779E+02  0.32660736917E+03  0.12699999809E+01 0.  1.
</event>
<event>
 5   0  0.4420645E-02  0.6896380E+03  0.7818609E-02  0.9735118E-01
        2   -1    0    0  501    0  0.00000000000E+00  0.00000000000E+00  0.53810008409E+03  0.53810008410E+03  0.25500000920E-02 0. -1.
       -2   -1    0    0    0  501  0.00000000000E+00  0.00000000000E+00 -0.22096289507E+03  0.22096289509E+03  0.25500000920E-02 0.  1.
    10030    2    1    2    0    0  0.00000000000E+00  0.00000000000E+00  0.31713718902E+03  0.75906297919E+03  0.68963802803E+03 0.  0.
        5    1    3    3  502    0 -0.11331699680E+03 -0.32503950765E+03  0.13692599049E+03  0.37048919035E+03  0.46999998093E+01 0. -1.
       -5    1    3    3    0  502  0.11331699680E+03  0.32503950765E+03  0.18021119853E+03  0.38857378883E+03  0.46999998093E+01 0.  1.
</event>
<event>
 5   0  0.2758681E-02  0.6959702E+03  0.7818609E-02  0.9724149E-01
       -1   -1    0    0    0  501  0.00000000000E+00  0.00000000000E+00  0.12979796438E+03  0.12979796448E+03  0.50400001928E-02 0.  1.
        1   -1    0    0  501    0  0.00000000000E+00  0.00000000000E+00 -0.93293941242E+03  0.93293941243E+03  0.50400001928E-02 0. -1.
    10030    2    1    2    0    0  0.00000000000E+00  0.00000000000E+00 -0.80314144804E+03  0.10627373769E+04  0.69597021971E+03 0.  0.
        3    1    3    3  502    0  0.11758420018E+03 -0.31373834201E+03 -0.54510614900E+03  0.63984257068E+03  0.10100000352E+00 0.  1.
       -3    1    3    3    0  502 -0.11758420018E+03  0.31373834201E+03 -0.25803529904E+03  0.42289480623E+03  0.10100000352E+00 0. -1.
</event>
<event>
 5   0  0.4503289E-02  0.6927643E+03  0.7818609E-02  0.9729687E-01
        2   -1    0    0  501    0  0.00000000000E+00  0.00000000000E+00  0.11865941728E+04  0.11865941728E+04  0.25500000920E-02 0.  1.
       -2   -1    0    0    0  501  0.00000000000E+00  0.00000000000E+00 -0.10111342830E+03  0.10111342833E+03  0.25500000920E-02 0. -1.
    10030    2    1    2    0    0  0.00000000000E+00  0.00000000000E+00  0.10854807445E+04  0.12877076012E+04  0.69276433176E+03 0.  0.
        2    1    3    3  502    0 -0.92273817692E+02  0.30402373405E+03  0.79919843342E+03  0.86003664124E+03  0.25500000920E-02 0.  1.
       -2    1    3    3    0  502  0.92273817692E+02 -0.30402373405E+03  0.28628231110E+03  0.42767095991E+03  0.25500000920E-02 0. -1.
</event>
<event>
 5   0  0.4365492E-02  0.6652904E+03  0.7818609E-02  0.9778503E-01
        2   -1    0    0  501    0  0.00000000000E+00  0.00000000000E+00  0.14742763497E+03  0.14742763499E+03  0.25500000920E-02 0. -1.
       -2   -1    0    0    0  501  0.00000000000E+00  0.00000000000E+00 -0.75055693649E+03  0.75055693650E+03  0.25500000920E-02 0.  1.
    10030    2    1    2    0    0  0.00000000000E+00  0.00000000000E+00 -0.60312930152E+03  0.89798457149E+03  0.66529041499E+03 0.  0.
        4    1    3    3  502    0  0.11151039573E+03  0.46650655095E+02 -0.71986142835E+03  0.72994036805E+03  0.12699999809E+01 0.  1.
       -4    1    3    3    0  502 -0.11151039573E+03 -0.46650655095E+02  0.11673212683E+03  0.16804420344E+03  0.12699999809E+01 0. -1.
</event>
<event>
 5   0  0.4503289E-02  0.6939150E+03  0.7818609E-02  0.9727695E-01
        2   -1    0    0  501    0  0.00000000000E+00  0.00000000000E+00  0.16202688733E+04  0.16202688733E+04  0.25500000920E-02 0.  1.
       -2   -1    0    0    0  501  0.00000000000E+00  0.00000000000E+00 -0.74296001041E+02  0.74296001085E+02  0.25500000920E-02 0. -1.
    10030    2    1    2    0    0  0.00000000000E+00  0.00000000000E+00  0.15459728722E+04  0.16945648744E+04  0.69391497443E+03 0.  0.
        2    1    3    3  502    0  0.21809248144E+03  0.20818562287E+03  0.35373858465E+03  0.46479734327E+03  0.25500000920E-02 0. -1.
       -2    1    3    3    0  502 -0.21809248144E+03 -0.20818562287E+03  0.11922342876E+04  0.12297675311E+04  0.25500000920E-02 0.  1.
</event>
<event>
 5   0  0.2684924E-02  0.6876584E+03  0.7818609E-02  0.9738574E-01
       -1   -1    0    0    0  501  0.00000000000E+00  0.00000000000E+00  0.11235961179E+03  0.11235961190E+03  0.50400001928E-02 0.  1.
        1   -1    0    0  501    0  0.00000000000E+00  0.00000000000E+00 -0.10521442571E+04  0.10521442571E+04  0.50400001928E-02 0. -1.
    10030    2    1    2    0    0  0.00000000000E+00  0.00000000000E+00 -0.93978464532E+03  0.11645038690E+04  0.68765840457E+03 0.  0.
        4    1    3    3  502    0  0.27431465047E+03  0.86617530273E+02 -0.78880586342E+03  0.83962338407E+03  0.12699999809E+01 0. -1.
       -4    1    3    3    0  502 -0.27431465047E+03 -0.86617530273E+02 -0.15097878190E+03  0.32488048494E+03  0.12699999809E+01 0.  1.
</event>
<event>
 5   0  0.4420645E-02  0.7005129E+03  0.7818609E-02  0.9716355E-01
        2   -1    0    0  501    0  0.00000000000E+00  0.00000000000E+00  0.71783444846E+03  0.71783444846E+03  0.25500000920E-02 0.  1.
       -2   -1    0    0    0  501  0.00000000000E+00  0.00000000000E+00 -0.17090234254E+03  0.17090234256E+03  0.25500000920E-02 0. -1.
    10030    2    1    2    0    0  0.00000000000E+00  0.00000000000E+00  0.54693210591E+03  0.88873679103E+03  0.70051292297E+03 0.  0.
        5    1    3    3  502    0  0.40757882011E+02 -0.10702721547E+03 -0.14643434662E+03  0.18596004319E+03  0.46999998093E+01 0. -1.
       -5    1    3    3    0  502 -0.40757882011E+02  0.10702721547E+03  0.69336645253E+03  0.70277674783E+03  0.46999998093E+01 0.  1.
</event>
<event>
 5   0  0.1784625E-02  0.7035259E+03  0.7818609E-02  0.9711221E-01
       -4   -1    0    0    0  501  0.00000000000E+00  0.00000000000E+00  0.98045082589E+02  0.98053307541E+02  0.12699999809E+01 0. -1.
        4   -1    0    0  501    0  0.00000000000E+00  0.00000000000E+00 -0.12619821766E+04  0.12619828156E+04  0.12699999809E+01 0.  1.
    10030    2    1    2    0    0  0.00000000000E+00  0.00000000000E+00 -0.11639370940E+04  0.13600361231E+04  0.70352590394E+03 0.  0.
        5    1    3    3  502    0  0.31096999635E+03  0.12944984864E+03 -0.77773956459E+03  0.84756151533E+03  0.46999998093E+01 0.  1.
       -5    1    3    3    0  502 -0.31096999635E+03 -0.12944984864E+03 -0.38619752938E+03  0.51247460781E+03  0.46999998093E+01 0. -1.
</event>
<event>
 5   0  0.2684924E-02  0.7019608E+03  0.7818609E-02  0.9713885E-01
        1   -1    0    0  501    0  0.00000000000E+00  0.00000000000E+00  0.34998811295E+03  0.34998811299E+03  0.50400001928E-02 0.  1.
       -1   -1    0    0    0  501  0.00000000000E+00  0.00000000000E+00 -0.35197547880E+03  0.35197547884E+03  0.50400001928E-02 0. -1.
    10030    2    1    2    0    0  0.00000000000E+00  0.00000000000E+00 -0.19873658525E+01  0.70196359183E+03  0.70196077855E+03 0.  0.
        4    1    3    3  502    0 -0.25653633609E+03  0.30486485130E+02  0.23658947238E+03  0.35030916181E+03  0.12699999809E+01 0.  1.
       -4    1    3    3    0  502  0.25653633609E+03 -0.30486485130E+02 -0.23857683823E+03  0.35165443001E+03  0.12699999809E+01 0. -1.
</event>
<event>
 5   0  0.2777999E-02  0.6954067E+03  0.7818609E-02  0.9725120E-01
       -1   -1    0    0    0  501  0.00000000000E+00  0.00000000000E+00  0.48323070649E+03  0.48323070652E+03  0.50400001928E-02 0.  1.
        1   -1    0    0  501    0  0.00000000000E+00  0.00000000000E+00 -0.25018609705E+03  0.25018609710E+03  0.50400001928E-02 0. -1.
    10030    2    1    2    0    0  0.00000000000E+00  0.00000000000E+00  0.23304460944E+03  0.73341680361E+03  0.69540665645E+03 0.  0.
        5    1    3    3  502    0  0.45130977939E+02  0.33788600630E+03  0.18860849774E+03  0.38961392922E+03  0.46999998093E+01 0.  1.
       -5    1    3    3    0  502 -0.45130977939E+02 -0.33788600630E+03  0.44436111706E+02  0.34380287440E+03  0.46999998093E+01 0. -1.
</event>
<event>
 5   0  0.2750139E-02  0.6953641E+03  0.7818609E-02  0.9725193E-01
        1   -1    0    0  501    0  0.00000000000E+00  0.00000000000E+00  0.82740677970E+03  0.82740677971E+03  0.50400001928E-02 0.  1.
       -1   -1    0    0    0  501  0.00000000000E+00  0.00000000000E+00 -0.14609841643E+03  0.14609841652E+03  0.50400001928E-02 0. -1.
    10030    2    1    2    0    0  0.00000000000E+00  0.00000000000E+00  0.68130836326E+03  0.97350519623E+03  0.69536413572E+03 0.  0.
        2    1    3    3  502    0  0.33812806963E+03 -0.20715496057E+02  0.45020397383E+03  0.56342110477E+03  0.25500000920E-02 0.  1.
       -2    1    3    3    0  502 -0.33812806963E+03  0.20715496057E+02  0.23110438943E+03  0.41008409146E+03  0.25500000920E-02 0. -1.
</event>
<event>
 5   0  0.4526837E-02  0.7068713E+03  0.7818609E-02  0.9705553E-01
        2   -1    0    0  501    0  0.00000000000E+00  0.00000000000E+00  0.39842171295E+03  0.39842171295E+03  0.25500000920E-02 0.  1.
       -2   -1    0    0    0  501  0.00000000000E+00  0.00000000000E+00 -0.31352896733E+03  0.31352896734E+03  0.25500000920E-02 0. -1.
    10030    2    1    2    0    0  0.00000000000E+00  0.00000000000E+00  0.84892745616E+02  0.71195068029E+03  0.70687127040E+03 0.  0.
        1    1    3    3  502    0  0.21376350557E+03 -0.25147503601E+03  0.16977560074E+03  0.37115803195E+03  0.50400001928E-02 0. -1.
       -1    1    3    3    0  502 -0.21376350557E+03  0.25147503601E+03 -0.84882855129E+02  0.34079264835E+03  0.50400001928E-02 0.  1.
</event>
<event>
 5   0  0.2684924E-02  0.7801782E+03  0.7818609E-02  0.9589160E-01
        1   -1    0    0  501    0  0.00000000000E+00  0.00000000000E+00  0.67692313572E+03  0.67692313574E+03  0.50400001928E-02 0.  1.
       -1   -1    0    0    0  501  0.00000000000E+00  0.00000000000E+00 -0.22479583187E+03  0.22479583193E+03  0.50400001928E-02 0. -1.
    10030    2    1    2    0    0  0.00000000000E+00  0.00000000000E+00  0.45212730385E+03  0.90171896767E+03  0.78017818335E+03 0.  0.
        4    1    3    3  502    0 -0.33070817380E+03  0.10137596108E+03  0.43449933396E+03  0.55537038615E+03  0.12699999809E+01 0.  1.
       -4    1    3    3    0  502  0.33070817380E+03 -0.10137596108E+03  0.17627969890E+02  0.34634858152E+03  0.12699999809E+01 0. -1.
</event>
<event>
 5   0  0.4299912E-02  0.7920972E+03  0.7818609E-02  0.9571527E-01
       -2   -1    0    0    0  501  0.00000000000E+00  0.00000000000E+00  0.21620780233E+03  0.21620780234E+03  0.25500000920E-02 0. -1.
        2   -1    0    0  501    0  0.00000000000E+00  0.00000000000E+00 -0.72548019523E+03  0.72548019524E+03  0.25500000920E-02 0.  1.
    10030    2    1    2    0    0  0.00000000000E+00  0.00000000000E+00 -0.50927239291E+03  0.94168799758E+03  0.79209716235E+03 0.  0.
        3    1    3    3  502    0  0.22812267201E+03  0.49575503191E+02 -0.63498923900E+03  0.67654196311E+03  0.10100000352E+00 0.  1.
       -3    1    3    3    0  502 -0.22812267201E+03 -0.49575503191E+02  0.12571684609E+03  0.26514603447E+03  0.10100000352E+00 0. -1.
</event>
<event>
 5   0  0.4526837E-02  0.6940684E+03  0.7818609E-02  0.9727430E-01
       -2   -1    0    0    0  501  0.00000000000E+00  0.00000000000E+00  0.27161360124E+03  0.27161360125E+03  0.25500000920E-02 0.  1.
        2   -1    0    0  501    0  0.00000000000E+00  0.00000000000E+00 -0.44339725401E+03  0.44339725402E+03  0.25500000920E-02 0. -1.
    10030    2    1    2    0    0  0.00000000000E+00  0.00000000000E+00 -0.17178365277E+03  0.71501085527E+03  0.69406836824E+03 0.  0.
        1    1    3    3  502    0  0.16805239231E+03 -0.20147219049E+03 -0.31990243647E+03  0.41372722775E+03  0.50400001928E-02 0. -1.
       -1    1    3    3    0  502 -0.16805239231E+03  0.20147219049E+03  0.14811878370E+03  0.30128362752E+03  0.50400001928E-02 0.  1.
</event>
<event>
 5   0  0.4526837E-02  0.7083569E+03  0.7818609E-02  0.9703047E-01
        2   -1    0    0  501    0  0.00000000000E+00  0.00000000000E+00  0.39219462835E+03  0.39219462836E+03  0.25500000920E-02 0.  1.
       -2   -1    0    0    0  501  0.00000000000E+00  0.00000000000E+00 -0.31984728604E+03  0.31984728605E+03  0.25500000920E-02 0. -1.
    10030    2    1    2    0    0  0.00000000000E+00  0.00000000000E+00  0.72347342310E+02  0.71204191441E+03  0.70835693682E+03 0.  0.
        1    1    3    3  502    0 -0.14855087376E+03 -0.74255332798E+02  0.35062874879E+03  0.38797130827E+03  0.50400001928E-02 0.  1.
       -1    1    3    3    0  502  0.14855087376E+03  0.74255332798E+02 -0.27828140648E+03  0.32407060613E+03  0.50400001928E-02 0. -1.
</event>
<event>
 5   0  0.4420645E-02  0.6973949E+03  0.7818609E-02  0.9721698E-01
       -2   -1    0    0    0  501  0.00000000000E+00  0.00000000000E+00  0.42785967103E+03  0.42785967104E+03  0.25500000920E-02 0.  1.
        2   -1    0    0  501    0  0.00000000000E+00  0.00000000000E+00 -0.28418174266E+03  0.28418174267E+03  0.25500000920E-02 0. -1.
    10030    2    1    2    0    0  0.00000000000E+00  0.00000000000E+00  0.14367792837E+03  0.71204141371E+03  0.69739488651E+03 0.  0.
        5    1    3    3  502    0  0.64273436027E+02 -0.18773557094E+03  0.36455163849E+03  0.41508517957E+03  0.46999998093E+01 0.  1.
       -5    1    3    3    0  502 -0.64273436027E+02  0.18773557094E+03 -0.22087371012E+03  0.29695623414E+03  0.46999998093E+01 0. -1.
</event>
<event>
 5   0  0.2777999E-02  0.6734466E+03  0.7818609E-02  0.9763752E-01
       -1   -1    0    0    0  501  0.00000000000E+00  0.00000000000E+00  0.23704774377E+03  0.23704774382E+03  0.50400001928E-02 0.  1.
        1   -1    0    0  501    0  0.00000000000E+00  0.00000000000E+00 -0.47831108752E+03  0.47831108755E+03  0.50400001928E-02 0. -1.
    10030    2    1    2    0    0  0.00000000000E+00  0.00000000000E+00 -0.24126334375E+03  0.71535883137E+03  0.67344655065E+03 0.  0.
        5    1    3    3  502    0  0.23144900741E+03  0.15694228059E+03  0.78550801451E+02  0.29050273816E+03  0.46999998093E+01 0.  1.
       -5    1    3    3    0  502 -0.23144900741E+03 -0.15694228059E+03 -0.31981414521E+03  0.42485609321E+03  0.46999998093E+01 0. -1.
</event>
<event>
 5   0  0.4299912E-02  0.6401916E+03  0.7818609E-02  0.9825360E-01
        2   -1    0    0  501    0  0.00000000000E+00  0.00000000000E+00  0.23956159478E+03  0.23956159479E+03  0.25500000920E-02 0.  1.
       -2   -1    0    0    0  501  0.00000000000E+00  0.00000000000E+00 -0.42770339061E+03  0.42770339061E+03  0.25500000920E-02 0. -1.
    10030    2    1    2    0    0  0.00000000000E+00  0.00000000000E+00 -0.18814179583E+03  0.66726498541E+03  0.64019155369E+03 0.  0.
        3    1    3    3  502    0  0.16738296190E+03  0.61676258919E+02  0.18295131857E+03  0.25552340796E+03  0.10100000352E+00 0.  1.
       -3    1    3    3    0  502 -0.16738296190E+03 -0.61676258919E+02 -0.37109311440E+03  0.41174157745E+03  0.10100000352E+00 0. -1.
</event>
<event>
 5   0  0.2750139E-02  0.7077855E+03  0.7818609E-02  0.9704010E-01
       -1   -1    0    0    0  501  0.00000000000E+00  0.00000000000E+00  0.21495506659E+03  0.21495506665E+03  0.50400001928E-02 0.  1.
        1   -1    0    0  501    0  0.00000000000E+00  0.00000000000E+00 -0.58263374479E+03  0.58263374482E+03  0.50400001928E-02 0. -1.
    10030    2    1    2    0    0  0.00000000000E+00  0.00000000000E+00 -0.36767867820E+03  0.79758881147E+03  0.70778549136E+03 0.  0.
        2    1    3    3  502    0  0.30653180593E+03  0.17495524414E+03 -0.21298589134E+03  0.41223060951E+03  0.25500000920E-02 0.  1.
       -2    1    3    3    0  502 -0.30653180593E+03 -0.17495524414E+03 -0.15469278686E+03  0.38535820196E+03  0.25500000920E-02 0. -1.
</event>
<event>
 5   0  0.2751729E-02  0.6977104E+03  0.7818609E-02  0.9721156E-01
        1   -1    0    0  501    0  0.00000000000E+00  0.00000000000E+00  0.23536605851E+03  0.23536605856E+03  0.50400001928E-02 0. -1.
       -1   -1    0    0    0  501  0.00000000000E+00  0.00000000000E+00 -0.51706669297E+03  0.51706669299E+03  0.50400001928E-02 0.  1.
    10030    2    1    2    0    0  0.00000000000E+00  0.00000000000E+00 -0.28170063446E+03  0.75243275156E+03  0.69771039705E+03 0.  0.
        1    1    3    3  502    0 -0.50471696644E+02 -0.12109856860E+03  0.20774782530E+03  0.24570595113E+03  0.50400001928E-02 0. -1.
       -1    1    3    3    0  502  0.50471696644E+02  0.12109856860E+03 -0.48944845976E+03  0.50672680042E+03  0.50400001928E-02 0.  1.
</event>
<event>
 5   0  0.2758681E-02  0.7004493E+03  0.7818609E-02  0.9716464E-01
        1   -1    0    0  501    0  0.00000000000E+00  0.00000000000E+00  0.52871278549E+03  0.52871278551E+03  0.50400001928E-02 0.  1.
       -1   -1    0    0    0  501  0.00000000000E+00  0.00000000000E+00 -0.23199231150E+03  0.23199231156E+03  0.50400001928E-02 0. -1.
    10030    2    1    2    0    0  0.00000000000E+00  0.00000000000E+00  0.29672047399E+03  0.76070509707E+03  0.70044928798E+03 0.  0.
        3    1    3    3  502    0 -0.26801616967E+03  0.21436256701E+03  0.22417465633E+03  0.40992470538E+03  0.10100000352E+00 0.  1.
       -3    1    3    3    0  502  0.26801616967E+03 -0.21436256701E+03  0.72545817660E+02  0.35078039170E+03  0.10100000352E+00 0. -1.
</event>
<event>
 5   0  0.2758681E-02  0.6970714E+03  0.7818609E-02  0.9722254E-01
       -1   -1    0    0    0  501  0.00000000000E+00  0.00000000000E+00  0.41784523318E+03  0.41784523321E+03  0.50400001928E-02 0. -1.
        1   -1    0    0  501    0  0.00000000000E+00  0.00000000000E+00 -0.29072276630E+03  0.29072276635E+03  0.50400001928E-02 0.  1.
    10030    2    1    2    0    0  0.00000000000E+00  0.00000000000E+00  0.12712246687E+03  0.70856799955E+03  0.69707136536E+03 0.  0.
        3    1    3    3  502    0 -0.25545307888E+03  0.19588154149E+03 -0.72250942189E+02  0.32991826662E+03  0.10100000352E+00 0.  1.
       -3    1    3    3    0  502  0.25545307888E+03 -0.19588154149E+03  0.19937340906E+03  0.37864973293E+03  0.10100000352E+00 0. -1.
</event>
<event>
 5   0  0.4503289E-02  0.7008476E+03  0.7818609E-02  0.9715784E-01
        2   -1    0    0  501    0  0.00000000000E+00  0.00000000000E+00  0.47371143642E+03  0.47371143643E+03  0.25500000920E-02 0. -1.
       -2   -1    0    0    0  501  0.00000000000E+00  0.00000000000E+00 -0.25922286962E+03  0.25922286963E+03  0.25500000920E-02 0.  1.
    10030    2    1    2    0    0  0.00000000000E+00  0.00000000000E+00  0.21448856680E+03  0.73293430606E+03  0.70084759521E+03 0.  0.
        2    1    3    3  502    0 -0.30950800931E+03 -0.15486921755E+03  0.16468770661E+03  0.38327760577E+03  0.25500000920E-02 0. -1.
       -2    1    3    3    0  502  0.30950800931E+03  0.15486921755E+03  0.49800860191E+02  0.34965670028E+03  0.25500000920E-02 0.  1.
</event>
<event>
 5   0  0.2777999E-02  0.7043902E+03  0.7818609E-02  0.9709754E-01
        1   -1    0    0  501    0  0.00000000000E+00  0.00000000000E+00  0.48100555026E+03  0.48100555028E+03  0.50400001928E-02 0.  1.
       -1   -1    0    0    0  501  0.00000000000E+00  0.00000000000E+00 -0.25787936100E+03  0.25787936105E+03  0.50400001928E-02 0. -1.
    10030    2    1    2    0    0  0.00000000000E+00  0.00000000000E+00  0.22312618926E+03  0.73888491133E+03  0.70439024401E+03 0.  0.
        5    1    3    3  502    0 -0.16385572658E+03  0.31112002081E+03  0.13187490747E+03  0.37557615433E+03  0.46999998093E+01 0. -1.
       -5    1    3    3    0  502  0.16385572658E+03 -0.31112002081E+03  0.91251281790E+02  0.36330875700E+03  0.46999998093E+01 0.  1.
</event>
<event>
 5   0  0.4420645E-02  0.7014103E+03  0.7818609E-02  0.9714823E-01
        2   -1    0    0  501    0  0.00000000000E+00  0.00000000000E+00  0.72408979732E+03  0.72408979733E+03  0.25500000920E-02 0.  1.
       -2   -1    0    0    0  501  0.00000000000E+00  0.00000000000E+00 -0.16986027558E+03  0.16986027560E+03  0.25500000920E-02 0. -1.
    10030    2    1    2    0    0  0.00000000000E+00  0.00000000000E+00  0.55422952174E+03  0.89395007293E+03  0.70141027233E+03 0.  0.
        5    1    3    3  502    0 -0.13467377809E+03  0.15429880772E+03 -0.85675508978E+02  0.22205299234E+03  0.46999998093E+01 0. -1.
       -5    1    3    3    0  502  0.13467377809E+03 -0.15429880772E+03  0.63990503072E+03  0.67189708059E+03  0.46999998093E+01 0.  1.
</event>
<event>
 5   0  0.1784625E-02  0.6974297E+03  0.7818609E-02  0.9721638E-01
       -4   -1    0    0    0  501  0.00000000000E+00  0.00000000000E+00  0.75628466313E+03  0.75628572946E+03  0.12699999809E+01 0.  1.
        4   -1    0    0  501    0  0.00000000000E+00  0.00000000000E+00 -0.16078501444E+03  0.16079003007E+03  0.12699999809E+01 0. -1.
    10030    2    1    2    0    0  0.00000000000E+00  0.00000000000E+00  0.59549964868E+03  0.91707575952E+03  0.69742965030E+03 0.  0.
        1    1    3    3  502    0  0.44478575664E+02  0.28986569451E+03  0.49642634255E+02  0.29743042163E+03  0.50400001928E-02 0. -1.
       -1    1    3    3    0  502 -0.44478575664E+02 -0.28986569451E+03  0.54585701443E+03  0.61964533790E+03  0.50400001928E-02 0.  1.
</event>
<event>
 5   0  0.1784625E-02  0.6949681E+03  0.7818609E-02  0.9725876E-01
       -4   -1    0    0    0  501  0.00000000000E+00  0.00000000000E+00  0.49420216301E+03  0.49420379483E+03  0.12699999809E+01 0.  1.
        4   -1    0    0  501    0  0.00000000000E+00  0.00000000000E+00 -0.24431975394E+03  0.24432305471E+03  0.12699999809E+01 0. -1.
    10030    2    1    2    0    0  0.00000000000E+00  0.00000000000E+00  0.24988240907E+03  0.73852684954E+03  0.69496812094E+03 0.  0.
        2    1    3    3  502    0  0.96058627363E+02 -0.13243408973E+03 -0.20083330710E+03  0.25903680290E+03  0.25500000920E-02 0. -1.
       -2    1    3    3    0  502 -0.96058627363E+02  0.13243408973E+03  0.45071571617E+03  0.47949004663E+03  0.25500000920E-02 0.  1.
</event>
<event>
 5   0  0.2751729E-02  0.6993678E+03  0.7818609E-02  0.9718314E-01
       -1   -1    0    0    0  501  0.00000000000E+00  0.00000000000E+00  0.23888030784E+03  0.23888030789E+03  0.50400001928E-02 0. -1.
        1   -1    0    0  501    0  0.00000000000E+00  0.00000000000E+00 -0.51188322629E+03  0.51188322631E+03  0.50400001928E-02 0.  1.
    10030    2    1    2    0    0  0.00000000000E+00  0.00000000000E+00 -0.27300291845E+03  0.75076353420E+03  0.69936777936E+03 0.  0.
        1    1    3    3  502    0  0.70145013948E+02 -0.85177868174E+02  0.21970154732E+03  0.24585435146E+03  0.50400001928E-02 0. -1.
       -1    1    3    3    0  502 -0.70145013948E+02  0.85177868174E+02 -0.49270446577E+03  0.50490918275E+03  0.50400001928E-02 0.  1.
</event>
<event>
 5   0  0.2750139E-02  0.6952775E+03  0.7818609E-02  0.9725343E-01
       -1   -1    0    0    0  501  0.00000000000E+00  0.00000000000E+00  0.21760941730E+03  0.21760941736E+03  0.50400001928E-02 0. -1.
        1   -1    0    0  501    0  0.00000000000E+00  0.00000000000E+00 -0.55536519234E+03  0.55536519236E+03  0.50400001928E-02 0.  1.
    10030    2    1    2    0    0  0.00000000000E+00  0.00000000000E+00 -0.33775577504E+03  0.77297460972E+03  0.69527748683E+03 0.  0.
        2    1    3    3  502    0  0.21875162404E+03 -0.76785725459E+02  0.11911547616E+03  0.26064692080E+03  0.25500000920E-02 0. -1.
       -2    1    3    3    0  502 -0.21875162404E+03  0.76785725459E+02 -0.45687125121E+03  0.51232768892E+03  0.25500000920E-02 0.  1.
</event>
<event>
 5   0  0.4526837E-02  0.7065751E+03  0.7818609E-02  0.9706054E-01
       -2   -1    0    0    0  501  0.00000000000E+00  0.00000000000E+00  0.56317329639E+02  0.56317329697E+02  0.25500000920E-02 0.  1.
        2   -1    0    0  501    0  0.00000000000E+00  0.00000000000E+00 -0.22162288441E+04  0.22162288441E+04  0.25500000920E-02 0. -1.
    10030    2    1    2    0    0  0.00000000000E+00  0.00000000000E+00 -0.21599115145E+04  0.22725461738E+04  0.70657509279E+03 0.  0.
        1    1    3    3  502    0 -0.14465810161E+03 -0.31099505889E+03 -0.80764840337E+03  0.87746215673E+03  0.50400001928E-02 0.  1.
       -1    1    3    3    0  502  0.14465810161E+03  0.31099505889E+03 -0.13522631111E+04  0.13950840171E+04  0.50400001928E-02 0. -1.
</event>
<event>
 5   0  0.4526837E-02  0.6988656E+03  0.7818609E-02  0.9719174E-01
       -2   -1    0    0    0  501  0.00000000000E+00  0.00000000000E+00  0.19380140924E+03  0.19380140926E+03  0.25500000920E-02 0.  1.
        2   -1    0    0  501    0  0.00000000000E+00  0.00000000000E+00 -0.63004326601E+03  0.63004326601E+03  0.25500000920E-02 0. -1.
    10030    2    1    2    0    0  0.00000000000E+00  0.00000000000E+00 -0.43624185676E+03  0.82384467527E+03  0.69886557462E+03 0.  0.
        1    1    3    3  502    0 -0.17977205359E+03  0.58225736499E+02 -0.56461523984E+03  0.59539784743E+03  0.50400001928E-02 0. -1.
       -1    1    3    3    0  502  0.17977205359E+03 -0.58225736499E+02  0.12837338307E+03  0.22844682784E+03  0.50400001928E-02 0.  1.
</event>
<event>
 5   0  0.2777999E-02  0.6959300E+03  0.7818609E-02  0.9724218E-01
        1   -1    0    0  501    0  0.00000000000E+00  0.00000000000E+00  0.12765037730E+03  0.12765037740E+03  0.50400001928E-02 0.  1.
       -1   -1    0    0    0  501  0.00000000000E+00  0.00000000000E+00 -0.94852556023E+03  0.94852556025E+03  0.50400001928E-02 0. -1.
    10030    2    1    2    0    0  0.00000000000E+00  0.00000000000E+00 -0.82087518293E+03  0.10761759376E+04  0.69593001287E+03 0.  0.
        5    1    3    3  502    0 -0.29207590715E+03  0.17197018733E+03 -0.28891615649E+03  0.44539501159E+03  0.46999998093E+01 0.  1.
       -5    1    3    3    0  502  0.29207590715E+03 -0.17197018733E+03 -0.53195902644E+03  0.63078092606E+03  0.46999998093E+01 0. -1.
</event>
<event>
 5   0  0.2750139E-02  0.7032949E+03  0.7818609E-02  0.9711614E-01
       -1   -1    0    0    0  501  0.00000000000E+00  0.00000000000E+00  0.46653634209E+03  0.46653634212E+03  0.50400001928E-02 0.  1.
        1   -1    0    0  501    0  0.00000000000E+00  0.00000000000E+00 -0.26505101883E+03  0.26505101888E+03  0.50400001928E-02 0. -1.
    10030    2    1    2    0    0  0.00000000000E+00  0.00000000000E+00  0.20148532326E+03  0.73158736099E+03  0.70329491060E+03 0.  0.
        2    1    3    3  502    0 -0.10245392790E+03 -0.23367295543E+03 -0.15097558609E+03  0.29646835420E+03  0.25500000920E-02 0. -1.
       -2    1    3    3    0  502  0.10245392790E+03  0.23367295543E+03  0.35246090935E+03  0.43511900679E+03  0.25500000920E-02 0.  1.
</event>
<event>
 5   0  0.4420645E-02  0.6983266E+03  0.7818609E-02  0.9720098E-01
       -2   -1    0    0    0  501  0.00000000000E+00  0.00000000000E+00  0.12751491304E+03  0.12751491307E+03  0.25500000920E-02 0.  1.
        2   -1    0    0  501    0  0.00000000000E+00  0.00000000000E+00 -0.95608443767E+03  0.95608443768E+03  0.25500000920E-02 0. -1.
    10030    2    1    2    0    0  0.00000000000E+00  0.00000000000E+00 -0.82856952463E+03  0.10835993507E+04  0.69832663975E+03 0.  0.
        5    1    3    3  502    0 -0.72370961874E+02 -0.26033571023E+03 -0.71217864041E+02  0.27947506561E+03  0.46999998093E+01 0.  1.
       -5    1    3    3    0  502  0.72370961874E+02  0.26033571023E+03 -0.75735166059E+03  0.80412428513E+03  0.46999998093E+01 0. -1.
</event>
<event>
 5   0  0.2777999E-02  0.6884200E+03  0.7818609E-02  0.9737243E-01
        1   -1    0    0  501    0  0.00000000000E+00  0.00000000000E+00  0.12849618331E+04  0.12849618331E+04  0.50400001928E-02 0. -1.
       -1   -1    0    0    0  501  0.00000000000E+00  0.00000000000E+00 -0.92205476493E+02  0.92205476631E+02  0.50400001928E-02 0.  1.
    10030    2    1    2    0    0  0.00000000000E+00  0.00000000000E+00  0.11927563566E+04  0.13771673097E+04  0.68841998285E+03 0.  0.
        5    1    3    3  502    0 -0.94053053858E+02 -0.29754973004E+02  0.12560107996E+04  0.12598875164E+04  0.46999998093E+01 0. -1.
       -5    1    3    3    0  502  0.94053053858E+02  0.29754973004E+02 -0.63254443001E+02  0.11727979330E+03  0.46999998093E+01 0.  1.
</event>
<event>
 5   0  0.2750139E-02  0.6972242E+03  0.7818609E-02  0.9721991E-01
        1   -1    0    0  501    0  0.00000000000E+00  0.00000000000E+00  0.86146193695E+03  0.86146193697E+03  0.50400001928E-02 0. -1.
       -1   -1    0    0    0  501  0.00000000000E+00  0.00000000000E+00 -0.14107460855E+03  0.14107460864E+03  0.50400001928E-02 0.  1.
    10030    2    1    2    0    0  0.00000000000E+00  0.00000000000E+00  0.72038732840E+03  0.10025365456E+04  0.69722422675E+03 0.  0.
        2    1    3    3  502    0  0.85788864620E+01  0.32942527960E+03  0.52373377207E+03  0.61878241422E+03  0.25500000920E-02 0. -1.
       -2    1    3    3    0  502 -0.85788864620E+01 -0.32942527960E+03  0.19665355633E+03  0.38375413139E+03  0.25500000920E-02 0.  1.
</event>
<event>
 5   0  0.4420645E-02  0.6735395E+03  0.7818609E-02  0.9763585E-01
        2   -1    0    0  501    0  0.00000000000E+00  0.00000000000E+00  0.67911554389E+03  0.67911554389E+03  0.25500000920E-02 0.  1.
       -2   -1    0    0    0  501  0.00000000000E+00  0.00000000000E+00 -0.16700229495E+03  0.16700229497E+03  0.25500000920E-02 0. -1.
    10030    2    1    2    0    0  0.00000000000E+00  0.00000000000E+00  0.51211324894E+03  0.84611783886E+03  0.67353946989E+03 0.  0.
        5    1    3    3  502    0  0.81882276796E+02 -0.29143306424E+03  0.44133964745E+03  0.53520156259E+03  0.46999998093E+01 0.  1.
       -5    1    3    3    0  502 -0.81882276796E+02  0.29143306424E+03  0.70773601493E+02  0.31091627627E+03  0.46999998093E+01 0. -1.
</event>
<event>
 5   0  0.4526837E-02  0.6983591E+03  0.7818609E-02  0.9720042E-01
       -2   -1    0    0    0  501  0.00000000000E+00  0.00000000000E+00  0.10776368248E+03  0.10776368251E+03  0.25500000920E-02 0.  1.
        2   -1    0    0  501    0  0.00000000000E+00  0.00000000000E+00 -0.11314235713E+04  0.11314235713E+04  0.25500000920E-02 0. -1.
    10030    2    1    2    0    0  0.00000000000E+00  0.00000000000E+00 -0.10236598888E+04  0.12391872538E+04  0.69835913545E+03 0.  0.
        1    1    3    3  502    0 -0.15493518612E+03 -0.75312253920E+02  0.27109764685E+02  0.17438975559E+03  0.50400001928E-02 0.  1.
       -1    1    3    3    0  502  0.15493518612E+03  0.75312253920E+02 -0.10507696535E+04  0.10647974983E+04  0.50400001928E-02 0. -1.
</event>
<event>
 5   0  0.2750139E-02  0.6592338E+03  0.7818609E-02  0.9789605E-01
       -1   -1    0    0    0  501  0.00000000000E+00  0.00000000000E+00  0.75720035836E+02  0.75720036004E+02  0.50400001928E-02 0.  1.
        1   -1    0    0  501    0  0.00000000000E+00  0.00000000000E+00 -0.14348552987E+04  0.14348552987E+04  0.50400001928E-02 0. -1.
    10030    2    1    2    0    0  0.00000000000E+00  0.00000000000E+00 -0.13591352628E+04  0.15105753347E+04  0.65923378180E+03 0.  0.
        2    1    3    3  502    0 -0.28303846250E+03  0.13499252332E+03 -0.44686201844E+03  0.54591154607E+03  0.25500000920E-02 0.  1.
       -2    1    3    3    0  502  0.28303846250E+03 -0.13499252332E+03 -0.91227324439E+03  0.96466378860E+03  0.25500000920E-02 0. -1.
</event>
<event>
 5   0  0.2777999E-02  0.6997593E+03  0.7818609E-02  0.9717644E-01
        1   -1    0    0  501    0  0.00000000000E+00  0.00000000000E+00  0.24636027336E+03  0.24636027342E+03  0.50400001928E-02 0.  1.
       -1   -1    0    0    0  501  0.00000000000E+00  0.00000000000E+00 -0.49689740173E+03  0.49689740176E+03  0.50400001928E-02 0. -1.
    10030    2    1    2    0    0  0.00000000000E+00  0.00000000000E+00 -0.25053712837E+03  0.74325767518E+03  0.69975932935E+03 0.  0.
        5    1    3    3  502    0 -0.13925192546E+03  0.23633118753E+03  0.10537019582E+03  0.29388517674E+03  0.46999998093E+01 0.  1.
       -5    1    3    3    0  502  0.13925192546E+03 -0.23633118753E+03 -0.35590732419E+03  0.44937249844E+03  0.46999998093E+01 0. -1.
</event>
<event>
 5   0  0.2758681E-02  0.7082335E+03  0.7818609E-02  0.9703254E-01
        1   -1    0    0  501    0  0.00000000000E+00  0.00000000000E+00  0.69563345766E+03  0.69563345768E+03  0.50400001928E-02 0.  1.
       -1   -1    0    0    0  501  0.00000000000E+00  0.00000000000E+00 -0.18026545002E+03  0.18026545009E+03  0.50400001928E-02 0. -1.
    10030    2    1    2    0    0  0.00000000000E+00  0.00000000000E+00  0.51536800764E+03  0.87589890777E+03  0.70823351610E+03 0.  0.
        3    1    3    3  502    0 -0.31024046059E+03  0.11252135731E+03  0.41649028439E+03  0.53138909137E+03  0.10100000352E+00 0.  1.
       -3    1    3    3    0  502  0.31024046059E+03 -0.11252135731E+03  0.98877723251E+02  0.34450981640E+03  0.10100000352E+00 0. -1.
</event>
<event>
 5   0  0.2758681E-02  0.6070898E+03  0.7818609E-02  0.9890805E-01
       -1   -1    0    0    0  501  0.00000000000E+00  0.00000000000E+00  0.12201946427E+03  0.12201946437E+03  0.50400001928E-02 0.  1.
        1   -1    0    0  501    0  0.00000000000E+00  0.00000000000E+00 -0.75512144130E+03  0.75512144131E+03  0.50400001928E-02 0. -1.
    10030    2    1    2    0    0  0.00000000000E+00  0.00000000000E+00 -0.63310197703E+03  0.87714090569E+03  0.60708982458E+03 0.  0.
        3    1    3    3  502    0  0.15318001285E+03 -0.10257069552E+03  0.31873439464E+02  0.18708498139E+03  0.10100000352E+00 0.  1.
       -3    1    3    3    0  502 -0.15318001285E+03  0.10257069552E+03 -0.66497541649E+03  0.69005592430E+03  0.10100000352E+00 0. -1.
</event>
<event>
 5   0  0.2777999E-02  0.6735985E+03  0.7818609E-02  0.9763479E-01
        1   -1    0    0  501    0  0.00000000000E+00  0.00000000000E+00  0.21058958157E+03  0.21058958163E+03  0.50400001928E-02 0. -1.
       -1   -1    0    0    0  501  0.00000000000E+00  0.00000000000E+00 -0.53864837966E+03  0.53864837969E+03  0.50400001928E-02 0.  1.
    10030    2    1    2    0    0  0.00000000000E+00  0.00000000000E+00 -0.32805879809E+03  0.74923796132E+03  0.67359850629E+03 0.  0.
        5    1    3    3  502    0  0.18186038004E+03 -0.31352445736E+01  0.15121966749E+03  0.23658509129E+03  0.46999998093E+01 0. -1.
       -5    1    3    3    0  502 -0.18186038004E+03  0.31352445736E+01 -0.47927846558E+03  0.51265287003E+03  0.46999998093E+01 0.  1.
</event>
<event>
 5   0  0.2684924E-02  0.6927830E+03  0.7818609E-02  0.9729654E-01
       -1   -1    0    0    0  501  0.00000000000E+00  0.00000000000E+00  0.87964939737E+03  0.87964939739E+03  0.50400001928E-02 0.  1.
        1   -1    0    0  501    0  0.00000000000E+00  0.00000000000E+00 -0.13640329190E+03  0.13640329200E+03  0.50400001928E-02 0. -1.
    10030    2    1    2    0    0  0.00000000000E+00  0.00000000000E+00  0.74324610547E+03  0.10160526894E+04  0.69278300666E+03 0.  0.
        4    1    3    3  502    0  0.52903786404E+02  0.10374198991E+03  0.85007607442E+03  0.85801640794E+03  0.12699999809E+01 0.  1.
       -4    1    3    3    0  502 -0.52903786404E+02 -0.10374198991E+03 -0.10682996896E+03  0.15803628145E+03  0.12699999809E+01 0. -1.
</event>
<event>
 5   0  0.2758681E-02  0.7310611E+03  0.7818609E-02  0.9665540E-01
        1   -1    0    0  501    0  0.00000000000E+00  0.00000000000E+00  0.59945970244E+03  0.59945970246E+03  0.50400001928E-02 0.  1.
       -1   -1    0    0    0  501  0.00000000000E+00  0.00000000000E+00 -0.22288835706E+03  0.22288835712E+03  0.50400001928E-02 0. -1.
    10030    2    1    2    0    0  0.00000000000E+00  0.00000000000E+00  0.37657134538E+03  0.82234805958E+03  0.73106111437E+03 0.  0.
        3    1    3    3  502    0  0.23825710410E+02 -0.27787595449E+01  0.59857339666E+03  0.59905384346E+03  0.10100000352E+00 0.  1.
       -3    1    3    3    0  502 -0.23825710410E+02  0.27787595449E+01 -0.22200205128E+03  0.22329421612E+03  0.10100000352E+00 0. -1.
</event>
<event>
 5   0  0.4365492E-02  0.7049268E+03  0.7818609E-02  0.9708844E-01
        2   -1    0    0  501    0  0.00000000000E+00  0.00000000000E+00  0.85535486311E+03  0.85535486312E+03  0.25500000920E-02 0. -1.
       -2   -1    0    0    0  501  0.00000000000E+00  0.00000000000E+00 -0.14523849546E+03  0.14523849548E+03  0.25500000920E-02 0.  1.
    10030    2    1    2    0    0  0.00000000000E+00  0.00000000000E+00  0.71011636765E+03  0.10005933586E+04  0.70492681440E+03 0.  0.
        4    1    3    3  502    0  0.68787167986E+02  0.13043444089E+03  0.80946168301E+03  0.82278469055E+03  0.12699999809E+01 0. -1.
       -4    1    3    3    0  502 -0.68787167986E+02 -0.13043444089E+03 -0.99345315354E+02  0.17780866805E+03  0.12699999809E+01 0.  1.
</event>
<event>
 5   0  0.2758681E-02  0.7037989E+03  0.7818609E-02  0.9710758E-01
        1   -1    0    0  501    0  0.00000000000E+00  0.00000000000E+00  0.62425355417E+03  0.62425355419E+03  0.50400001928E-02 0. -1.
       -1   -1    0    0    0  501  0.00000000000E+00  0.00000000000E+00 -0.19837005403E+03  0.19837005409E+03  0.50400001928E-02 0.  1.
    10030    2    1    2    0    0  0.00000000000E+00  0.00000000000E+00  0.42588350014E+03  0.82262360828E+03  0.70379886701E+03 0.  0.
        3    1    3    3  502    0  0.11696082316E+03 -0.11325265978E+02 -0.17476066127E+03  0.21059295983E+03  0.10100000352E+00 0.  1.
       -3    1    3    3    0  502 -0.11696082316E+03  0.11325265978E+02  0.60064416141E+03  0.61203064845E+03  0.10100000352E+00 0. -1.
</event>
<event>
 5   0  0.4299912E-02  0.6940275E+03  0.7818609E-02  0.9727501E-01
        2   -1    0    0  501    0  0.00000000000E+00  0.00000000000E+00  0.44665667455E+03  0.44665667456E+03  0.25500000920E-02 0.  1.
       -2   -1    0    0    0  501  0.00000000000E+00  0.00000000000E+00 -0.26959977918E+03  0.26959977919E+03  0.25500000920E-02 0. -1.
    10030    2    1    2    0    0  0.00000000000E+00  0.00000000000E+00  0.17705689537E+03  0.71625645375E+03  0.69402749465E+03 0.  0.
        3    1    3    3  502    0 -0.10264519969E+03 -0.59970044742E+02 -0.24792895053E+03  0.27495675660E+03  0.10100000352E+00 0. -1.
       -3    1    3    3    0  502  0.10264519969E+03  0.59970044742E+02  0.42498584590E+03  0.44129969715E+03  0.10100000352E+00 0.  1.
</event>
<event>
 5   0  0.4299912E-02  0.7194286E+03  0.7818609E-02  0.9684572E-01
        2   -1    0    0  501    0  0.00000000000E+00  0.00000000000E+00  0.81337448352E+03  0.81337448352E+03  0.25500000920E-02 0.  1.
       -2   -1    0    0    0  501  0.00000000000E+00  0.00000000000E+00 -0.15908340065E+03  0.15908340067E+03  0.25500000920E-02 0. -1.
    10030    2    1    2    0    0  0.00000000000E+00  0.00000000000E+00  0.65429108287E+03  0.97245788419E+03  0.71942860341E+03 0.  0.
        3    1    3    3  502    0  0.25280108437E+03 -0.25146117293E+03  0.26298195236E+03  0.44305826616E+03  0.10100000352E+00 0. -1.
       -3    1    3    3    0  502 -0.25280108437E+03  0.25146117293E+03  0.39130913051E+03  0.52939961803E+03  0.10100000352E+00 0.  1.
</event>
<event>
 5   0  0.1784625E-02  0.6676084E+03  0.7818609E-02  0.9774288E-01
       -4   -1    0    0    0  501  0.00000000000E+00  0.00000000000E+00  0.51572045276E+03  0.51572201649E+03  0.12699999809E+01 0.  1.
        4   -1    0    0  501    0  0.00000000000E+00  0.00000000000E+00 -0.21605367551E+03  0.21605740812E+03  0.12699999809E+01 0. -1.
    10030    2    1    2    0    0  0.00000000000E+00  0.00000000000E+00  0.29966677725E+03  0.73177942461E+03  0.66760837989E+03 0.  0.
        2    1    3    3  502    0  0.23336180194E+02  0.24488199427E+03 -0.97495450151E+02  0.26460750411E+03  0.25500000920E-02 0. -1.
       -2    1    3    3    0  502 -0.23336180194E+02 -0.24488199427E+03  0.39716222740E+03  0.46717192050E+03  0.25500000920E-02 0.  1.
</event>
<event>
 5   0  0.4420645E-02  0.7097859E+03  0.7818609E-02  0.9700642E-01
       -2   -1    0    0    0  501  0.00000000000E+00  0.00000000000E+00  0.64363638209E+02  0.64363638259E+02  0.25500000920E-02 0. -1.
        2   -1    0    0  501    0  0.00000000000E+00  0.00000000000E+00 -0.19568349024E+04  0.19568349024E+04  0.25500000920E-02 0.  1.
    10030    2    1    2    0    0  0.00000000000E+00  0.00000000000E+00 -0.18924712642E+04  0.20211985407E+04  0.70978592194E+03 0.  0.
        5    1    3    3  502    0  0.17829847157E+03  0.16539062157E+03 -0.21034546535E+03  0.32157690753E+03  0.46999998093E+01 0. -1.
       -5    1    3    3    0  502 -0.17829847157E+03 -0.16539062157E+03 -0.16821257989E+04  0.16996216332E+04  0.46999998093E+01 0.  1.
</event>
<event>
 5   0  0.2777999E-02  0.6930119E+03  0.7818609E-02  0.9729258E-01
        1   -1    0    0  501    0  0.00000000000E+00  0.00000000000E+00  0.12690588433E+03  0.12690588443E+03  0.50400001928E-02 0. -1.
       -1   -1    0    0    0  501  0.00000000000E+00  0.00000000000E+00 -0.94610557037E+03  0.94610557038E+03  0.50400001928E-02 0.  1.
    10030    2    1    2    0    0  0.00000000000E+00  0.00000000000E+00 -0.81919968603E+03  0.10730114548E+04  0.69301187332E+03 0.  0.
        5    1    3    3  502    0 -0.92357768188E+02 -0.11183621129E+03 -0.89678784752E+03  0.90845353704E+03  0.46999998093E+01 0.  1.
       -5    1    3    3    0  502  0.92357768188E+02  0.11183621129E+03  0.77588161488E+02  0.16455791777E+03  0.46999998093E+01 0. -1.
</event>
<event>
 5   0  0.2750139E-02  0.6853813E+03  0.7818609E-02  0.9742564E-01
       -1   -1    0    0    0  501  0.00000000000E+00  0.00000000000E+00  0.58531784143E+03  0.58531784145E+03  0.50400001928E-02 0.  1.
        1   -1    0    0  501    0  0.00000000000E+00  0.00000000000E+00 -0.20063777268E+03  0.20063777275E+03  0.50400001928E-02 0. -1.
    10030    2    1    2    0    0  0.00000000000E+00  0.00000000000E+00  0.38468006874E+03  0.78595561419E+03  0.68538126046E+03 0.  0.
        2    1    3    3  502    0  0.12195501291E+03 -0.13578080351E+03  0.52494947368E+03  0.55577099754E+03  0.25500000920E-02 0.  1.
       -2    1    3    3    0  502 -0.12195501291E+03  0.13578080351E+03 -0.14026940494E+03  0.23018461666E+03  0.25500000920E-02 0. -1.
</event>
<event>
 5   0  0.4420645E-02  0.7087007E+03  0.7818609E-02  0.9702467E-01
        2   -1    0    0  501    0  0.00000000000E+00  0.00000000000E+00  0.34728757860E+03  0.34728757861E+03  0.25500000920E-02 0.  1.
       -2   -1    0    0    0  501  0.00000000000E+00  0.00000000000E+00 -0.36155677038E+03  0.36155677039E+03  0.25500000920E-02 0. -1.
    10030    2    1    2    0    0  0.00000000000E+00  0.00000000000E+00 -0.14269191781E+02  0.70884434900E+03  0.70870071348E+03 0.  0.
        5    1    3    3  502    0 -0.29200282227E+03 -0.14303851330E+03  0.13366474430E+03  0.35158785299E+03  0.46999998093E+01 0.  1.
       -5    1    3    3    0  502  0.29200282227E+03  0.14303851330E+03 -0.14793393608E+03  0.35725649602E+03  0.46999998093E+01 0. -1.
</event>
<event>
 5   0  0.4526837E-02  0.6955889E+03  0.7818609E-02  0.9724806E-01
       -2   -1    0    0    0  501  0.00000000000E+00  0.00000000000E+00  0.13164083015E+03  0.13164083018E+03  0.25500000920E-02 0.  1.
        2   -1    0    0  501    0  0.00000000000E+00  0.00000000000E+00 -0.91887124988E+03  0.91887124989E+03  0.25500000920E-02 0. -1.
    10030    2    1    2    0    0  0.00000000000E+00  0.00000000000E+00 -0.78723041973E+03  0.10505120801E+04  0.69558888477E+03 0.  0.
        1    1    3    3  502    0 -0.29876891769E+03  0.13970548064E+03 -0.56029415260E+03  0.65016153759E+03  0.50400001928E-02 0. -1.
       -1    1    3    3    0  502  0.29876891769E+03 -0.13970548064E+03 -0.22693626713E+03  0.40035054248E+03  0.50400001928E-02 0.  1.
</event>
<event>
 5   0  0.2750139E-02  0.7022962E+03  0.7818609E-02  0.9713313E-01
       -1   -1    0    0    0  501  0.00000000000E+00  0.00000000000E+00  0.10929729676E+03  0.10929729688E+03  0.50400001928E-02 0. -1.
        1   -1    0    0  501    0  0.00000000000E+00  0.00000000000E+00 -0.11281612706E+04  0.11281612706E+04  0.50400001928E-02 0.  1.
    10030    2    1    2    0    0  0.00000000000E+00  0.00000000000E+00 -0.10188639738E+04  0.12374585675E+04  0.70229616905E+03 0.  0.
        2    1    3    3  502    0 -0.11963297728E+03  0.14958054823E+03 -0.10280121696E+04  0.10457033090E+04  0.25500000920E-02 0.  1.
       -2    1    3    3    0  502  0.11963297728E+03 -0.14958054823E+03  0.91481957447E+01  0.19175525847E+03  0.25500000920E-02 0. -1.
</event>
<event>
 5   0  0.4526837E-02  0.7343366E+03  0.7818609E-02  0.9660249E-01
        2   -1    0    0  501    0  0.00000000000E+00  0.00000000000E+00  0.14227661721E+04  0.14227661721E+04  0.25500000920E-02 0.  1.
       -2   -1    0    0    0  501  0.00000000000E+00  0.00000000000E+00 -0.94753836612E+02  0.94753836647E+02  0.25500000920E-02 0. -1.
    10030    2    1    2    0    0  0.00000000000E+00  0.00000000000E+00  0.13280123354E+04  0.15175200087E+04  0.73433658068E+03 0.  0.
        1    1    3    3  502    0  0.17137843563E+03  0.17532285326E+03  0.12288271858E+04  0.12530462576E+04  0.50400001928E-02 0.  1.
       -1    1    3    3    0  502 -0.17137843563E+03 -0.17532285326E+03  0.99185149591E+02  0.26447375106E+03  0.50400001928E-02 0. -1.
</event>
<event>
 5   0  0.2684924E-02  0.6975745E+03  0.7818609E-02  0.9721389E-01
        1   -1    0    0  501    0  0.00000000000E+00  0.00000000000E+00  0.98802194238E+03  0.98802194239E+03  0.50400001928E-02 0.  1.
       -1   -1    0    0    0  501  0.00000000000E+00  0.00000000000E+00 -0.12312738327E+03  0.12312738338E+03  0.50400001928E-02 0. -1.
    10030    2    1    2    0    0  0.00000000000E+00  0.00000000000E+00  0.86489455910E+03  0.11111493258E+04  0.69757453063E+03 0.  0.
        4    1    3    3  502    0 -0.14604736474E+03 -0.28531199956E+03  0.65153670476E+03  0.72610912430E+03  0.12699999809E+01 0.  1.
       -4    1    3    3    0  502  0.14604736474E+03  0.28531199956E+03  0.21335785434E+03  0.38504020147E+03  0.12699999809E+01 0. -1.
</event>
<event>
 5   0  0.1784625E-02  0.7055905E+03  0.7818609E-02  0.9707719E-01
        3   -1    0    0  501    0  0.00000000000E+00  0.00000000000E+00  0.12815101588E+03  0.12815105568E+03  0.10100000352E+00 0. -1.
       -3   -1    0    0    0  501  0.00000000000E+00  0.00000000000E+00 -0.97123277428E+03  0.97123277953E+03  0.10100000352E+00 0.  1.
    10030    2    1    2    0    0  0.00000000000E+00  0.00000000000E+00 -0.84308175840E+03  0.10993838352E+04  0.70559050856E+03 0.  0.
        1    1    3    3  502    0  0.32748751063E+03  0.69876682917E+02 -0.59457940098E+03  0.68238954016E+03  0.50400001928E-02 0.  1.
       -1    1    3    3    0  502 -0.32748751063E+03 -0.69876682917E+02 -0.24850235742E+03  0.41699429505E+03  0.50400001928E-02 0. -1.
</event>
<event>
 5   0  0.4299912E-02  0.6880732E+03  0.7818609E-02  0.9737849E-01
        2   -1    0    0  501    0  0.00000000000E+00  0.00000000000E+00  0.19333833943E+04  0.19333833943E+04  0.25500000920E-02 0.  1.
       -2   -1    0    0    0  501  0.00000000000E+00  0.00000000000E+00 -0.61219724731E+02  0.61219724784E+02  0.25500000920E-02 0. -1.
    10030    2    1    2    0    0  0.00000000000E+00  0.00000000000E+00  0.18721636696E+04  0.19946031191E+04  0.68807324975E+03 0.  0.
        3    1    3    3  502    0  0.48251633381E+02  0.59225363848E+02  0.19084863307E+04  0.19100146462E+04  0.10100000352E+00 0.  1.
       -3    1    3    3    0  502 -0.48251633381E+02 -0.59225363848E+02 -0.36322661105E+02  0.84588472959E+02  0.10100000352E+00 0. -1.
</event>
<event>
 5   0  0.2684924E-02  0.7157858E+03  0.7818609E-02  0.9690611E-01
        1   -1    0    0  501    0  0.00000000000E+00  0.00000000000E+00  0.15242312470E+03  0.15242312478E+03  0.50400001928E-02 0. -1.
       -1   -1    0    0    0  501  0.00000000000E+00  0.00000000000E+00 -0.84034045443E+03  0.84034045444E+03  0.50400001928E-02 0.  1.
    10030    2    1    2    0    0  0.00000000000E+00  0.00000000000E+00 -0.68791732973E+03  0.99276357923E+03  0.71578577221E+03 0.  0.
        4    1    3    3  502    0 -0.33245080577E+03 -0.33172980644E+02 -0.52190964377E+03  0.61968965948E+03  0.12699999809E+01 0.  1.
       -4    1    3    3    0  502  0.33245080577E+03  0.33172980644E+02 -0.16600768596E+03  0.37307391975E+03  0.12699999809E+01 0. -1.
</event>
<event>
 5   0  0.4299912E-02  0.6919444E+03  0.7818609E-02  0.9731108E-01
       -2   -1    0    0    0  501  0.00000000000E+00  0.00000000000E+00  0.65187650734E+03  0.65187650734E+03  0.25500000920E-02 0. -1.
        2   -1    0    0  501    0  0.00000000000E+00  0.00000000000E+00 -0.18361878842E+03  0.18361878844E+03  0.25500000920E-02 0.  1.
    10030    2    1    2    0    0  0.00000000000E+00  0.00000000000E+00  0.46825771892E+03  0.83549529578E+03  0.69194443270E+03 0.  0.
        3    1    3    3  502    0 -0.94448807930E+02 -0.13967313985E+03  0.59890893341E+03  0.62219055283E+03  0.10100000352E+00 0. -1.
       -3    1    3    3    0  502  0.94448807930E+02  0.13967313985E+03 -0.13065121449E+03  0.21330474294E+03  0.10100000352E+00 0.  1.
</event>
<event>
 5   0  0.4365492E-02  0.7002090E+03  0.7818609E-02  0.9716875E-01
        2   -1    0    0  501    0  0.00000000000E+00  0.00000000000E+00  0.15332618327E+04  0.15332618327E+04  0.25500000920E-02 0.  1.
       -2   -1    0    0    0  501  0.00000000000E+00  0.00000000000E+00 -0.79942749735E+02  0.79942749775E+02  0.25500000920E-02 0. -1.
    10030    2    1    2    0    0  0.00000000000E+00  0.00000000000E+00  0.14533190830E+04  0.16132045825E+04  0.70020901737E+03 0.  0.
        4    1    3    3  502    0  0.61578647148E+02  0.57774190107E+01 -0.67251225048E+02  0.91376411209E+02  0.12699999809E+01 0. -1.
       -4    1    3    3    0  502 -0.61578647148E+02 -0.57774190107E+01  0.15205703080E+04  0.15218281713E+04  0.12699999809E+01 0.  1.
</event>
<event>
 5   0  0.4503289E-02  0.7026678E+03  0.7818609E-02  0.9712681E-01
       -2   -1    0    0    0  501  0.00000000000E+00  0.00000000000E+00  0.52083908420E+03  0.52083908420E+03  0.25500000920E-02 0. -1.
        2   -1    0    0  501    0  0.00000000000E+00  0.00000000000E+00 -0.23699358335E+03  0.23699358336E+03  0.25500000920E-02 0.  1.
    10030    2    1    2    0    0  0.00000000000E+00  0.00000000000E+00  0.28384550085E+03  0.75783266757E+03  0.70266783310E+03 0.  0.
        2    1    3    3  502    0 -0.31739321979E+03  0.11293643097E+03  0.24946261024E+03  0.41919528542E+03  0.25500000920E-02 0. -1.
       -2    1    3    3    0  502  0.31739321979E+03 -0.11293643097E+03  0.34382890616E+02  0.33863738214E+03  0.25500000920E-02 0.  1.
</event>
<event>
 5   0  0.4503289E-02  0.5490012E+03  0.7818609E-02  0.1001725E+00
       -2   -1    0    0    0  501  0.00000000000E+00  0.00000000000E+00  0.23315569631E+03  0.23315569632E+03  0.25500000920E-02 0. -1.
        2   -1    0    0  501    0  0.00000000000E+00  0.00000000000E+00 -0.32317714730E+03  0.32317714731E+03  0.25500000920E-02 0.  1.
    10030    2    1    2    0    0  0.00000000000E+00  0.00000000000E+00 -0.90021450992E+02  0.55633284363E+03  0.54900124887E+03 0.  0.
        2    1    3    3  502    0  0.64414913460E+02  0.25895490651E+03  0.20220246475E+02  0.26761125360E+03  0.25500000920E-02 0. -1.
       -2    1    3    3    0  502 -0.64414913460E+02 -0.25895490651E+03 -0.11024169747E+03  0.28872159003E+03  0.25500000920E-02 0.  1.
</event>
<event>
 5   0  0.2750139E-02  0.6693936E+03  0.7818609E-02  0.9771054E-01
       -1   -1    0    0    0  501  0.00000000000E+00  0.00000000000E+00  0.43092124143E+03  0.43092124146E+03  0.50400001928E-02 0.  1.
        1   -1    0    0  501    0  0.00000000000E+00  0.00000000000E+00 -0.25995921296E+03  0.25995921301E+03  0.50400001928E-02 0. -1.
    10030    2    1    2    0    0  0.00000000000E+00  0.00000000000E+00  0.17096202847E+03  0.69088045447E+03  0.66939359662E+03 0.  0.
        2    1    3    3  502    0  0.24796045926E+03  0.13376065187E+03 -0.10099972518E+03  0.29929458037E+03  0.25500000920E-02 0. -1.
       -2    1    3    3    0  502 -0.24796045926E+03 -0.13376065187E+03  0.27196175365E+03  0.39158587411E+03  0.25500000920E-02 0.  1.
</event>
<event>
 5   0  0.4503289E-02  0.7087106E+03  0.7818609E-02  0.9702451E-01
        2   -1    0    0  501    0  0.00000000000E+00  0.00000000000E+00  0.57940134447E+03  0.57940134448E+03  0.25500000920E-02 0. -1.
       -2   -1    0    0    0  501  0.00000000000E+00  0.00000000000E+00 -0.21671966133E+03  0.21671966134E+03  0.25500000920E-02 0.  1.
    10030    2    1    2    0    0  0.00000000000E+00  0.00000000000E+00  0.36268168314E+03  0.79612100582E+03  0.70871055630E+03 0.  0.
        2    1    3    3  502    0  0.13221712764E+02  0.24327396159E+03 -0.10770986708E+03  0.26638027244E+03  0.25500000920E-02 0.  1.
       -2    1    3    3    0  502 -0.13221712764E+02 -0.24327396159E+03  0.47039155022E+03  0.52974073338E+03  0.25500000920E-02 0. -1.
</event>
<event>
 5   0  0.4420645E-02  0.7067220E+03  0.7818609E-02  0.9705805E-01
        2   -1    0    0  501    0  0.00000000000E+00  0.00000000000E+00  0.84245899601E+03  0.84245899602E+03  0.25500000920E-02 0.  1.
       -2   -1    0    0    0  501  0.00000000000E+00  0.00000000000E+00 -0.14821373156E+03  0.14821373158E+03  0.25500000920E-02 0. -1.
    10030    2    1    2    0    0  0.00000000000E+00  0.00000000000E+00  0.69424526446E+03  0.99067272760E+03  0.70672198635E+03 0.  0.
        5    1    3    3  502    0 -0.16241699013E+03  0.74351796459E+02 -0.80213812025E+02  0.19586682710E+03  0.46999998093E+01 0. -1.
       -5    1    3    3    0  502  0.16241699013E+03 -0.74351796459E+02  0.77445907648E+03  0.79480590050E+03  0.46999998093E+01 0.  1.
</event>
<event>
 5   0  0.4420645E-02  0.6925099E+03  0.7818609E-02  0.9730128E-01
       -2   -1    0    0    0  501  0.00000000000E+00  0.00000000000E+00  0.31813184425E+03  0.31813184426E+03  0.25500000920E-02 0. -1.
        2   -1    0    0  501    0  0.00000000000E+00  0.00000000000E+00 -0.37686415629E+03  0.37686415630E+03  0.25500000920E-02 0.  1.
    10030    2    1    2    0    0  0.00000000000E+00  0.00000000000E+00 -0.58732312042E+02  0.69499600056E+03  0.69250989619E+03 0.  0.
        5    1    3    3  502    0 -0.27125516007E+03  0.85839875356E+02 -0.22736241329E+03  0.36423015119E+03  0.46999998093E+01 0.  1.
       -5    1    3    3    0  502  0.27125516007E+03 -0.85839875356E+02  0.16863010124E+03  0.33076584937E+03  0.46999998093E+01 0. -1.
</event>
<event>
 5   0  0.4299912E-02  0.7041501E+03  0.7818609E-02  0.9710161E-01
       -2   -1    0    0    0  501  0.00000000000E+00  0.00000000000E+00  0.24166852185E+03  0.24166852187E+03  0.25500000920E-02 0. -1.
        2   -1    0    0  501    0  0.00000000000E+00  0.00000000000E+00 -0.51292087624E+03  0.51292087624E+03  0.25500000920E-02 0.  1.
    10030    2    1    2    0    0  0.00000000000E+00  0.00000000000E+00 -0.27125235438E+03  0.75458939811E+03  0.70415006922E+03 0.  0.
        3    1    3    3  502    0  0.10567027835E+03  0.28301515739E+03 -0.32939017108E+03  0.44694706850E+03  0.10100000352E+00 0.  1.
       -3    1    3    3    0  502 -0.10567027835E+03 -0.28301515739E+03  0.58137816693E+02  0.30764232961E+03  0.10100000352E+00 0. -1.
</event>
<event>
 5   0  0.2777999E-02  0.6990405E+03  0.7818609E-02  0.9718874E-01
       -1   -1    0    0    0  501  0.00000000000E+00  0.00000000000E+00  0.37291698788E+03  0.37291698791E+03  0.50400001928E-02 0.  1.
        1   -1    0    0  501    0  0.00000000000E+00  0.00000000000E+00 -0.32759142651E+03  0.32759142655E+03  0.50400001928E-02 0. -1.
    10030    2    1    2    0    0  0.00000000000E+00  0.00000000000E+00  0.45325561369E+02  0.70050841446E+03  0.69904050828E+03 0.  0.
        5    1    3    3  502    0  0.13863214661E+03 -0.56567035640E+02 -0.29379080656E+03  0.32977845535E+03  0.46999998093E+01 0. -1.
       -5    1    3    3    0  502 -0.13863214661E+03  0.56567035640E+02  0.33911636793E+03  0.37072995912E+03  0.46999998093E+01 0.  1.
</event>
<event>
 5   0  0.2751729E-02  0.5380453E+03  0.7818609E-02  0.1004299E+00
       -1   -1    0    0    0  501  0.00000000000E+00  0.00000000000E+00  0.18004062252E+03  0.18004062259E+03  0.50400001928E-02 0.  1.
        1   -1    0    0  501    0  0.00000000000E+00  0.00000000000E+00 -0.40198249382E+03  0.40198249386E+03  0.50400001928E-02 0. -1.
    10030    2    1    2    0    0  0.00000000000E+00  0.00000000000E+00 -0.22194187130E+03  0.58202311645E+03  0.53804527119E+03 0.  0.
        1    1    3    3  502    0  0.13588308035E+03  0.15048548147E+03 -0.30223674534E+03  0.36394661960E+03  0.50400001928E-02 0. -1.
       -1    1    3    3    0  502 -0.13588308035E+03 -0.15048548147E+03  0.80294874035E+02  0.21807649685E+03  0.50400001928E-02 0.  1.
</event>
<event>
 5   0  0.4299912E-02  0.6932342E+03  0.7818609E-02  0.9728873E-01
       -2   -1    0    0    0  501  0.00000000000E+00  0.00000000000E+00  0.65197732282E+02  0.65197732332E+02  0.25500000920E-02 0.  1.
        2   -1    0    0  501    0  0.00000000000E+00  0.00000000000E+00 -0.18427546509E+04  0.18427546509E+04  0.25500000920E-02 0. -1.
    10030    2    1    2    0    0  0.00000000000E+00  0.00000000000E+00 -0.17775569187E+04  0.19079523833E+04  0.69323423009E+03 0.  0.
        3    1    3    3  502    0 -0.65850013416E+02  0.57211422425E+02 -0.18120500963E+04  0.18141485421E+04  0.10100000352E+00 0. -1.
       -3    1    3    3    0  502  0.65850013416E+02 -0.57211422425E+02  0.34493177605E+02  0.93803841206E+02  0.10100000352E+00 0.  1.
</event>
<event>
 5   0  0.1784625E-02  0.6941315E+03  0.7818609E-02  0.9727321E-01
       -4   -1    0    0    0  501  0.00000000000E+00  0.00000000000E+00  0.34480260324E+03  0.34480494210E+03  0.12699999809E+01 0.  1.
        4   -1    0    0  501    0  0.00000000000E+00  0.00000000000E+00 -0.34933907750E+03  0.34934138599E+03  0.12699999809E+01 0. -1.
    10030    2    1    2    0    0  0.00000000000E+00  0.00000000000E+00 -0.45364742601E+01  0.69414632809E+03  0.69413150426E+03 0.  0.
        4    1    3    3  502    0 -0.32891428347E+03 -0.80459665299E+02  0.73856051329E+02  0.34657566682E+03  0.12699999809E+01 0.  1.
       -4    1    3    3    0  502  0.32891428347E+03  0.80459665299E+02 -0.78392525589E+02  0.34757066128E+03  0.12699999809E+01 0. -1.
</event>
<event>
 5   0  0.4365492E-02  0.7007128E+03  0.7818609E-02  0.9716014E-01
       -2   -1    0    0    0  501  0.00000000000E+00  0.00000000000E+00  0.71658548479E+02  0.71658548524E+02  0.25500000920E-02 0. -1.
        2   -1    0    0  501    0  0.00000000000E+00  0.00000000000E+00 -0.17129790568E+04  0.17129790568E+04  0.25500000920E-02 0.  1.
    10030    2    1    2    0    0  0.00000000000E+00  0.00000000000E+00 -0.16413205083E+04  0.17846376053E+04  0.70071275949E+03 0.  0.
        4    1    3    3  502    0 -0.31374552442E+03  0.15545046981E+03 -0.85152674911E+03  0.92070653305E+03  0.12699999809E+01 0. -1.
       -4    1    3    3    0  502  0.31374552442E+03 -0.15545046981E+03 -0.78979375923E+03  0.86393107230E+03  0.12699999809E+01 0.  1.
</event>
<event>
 5   0  0.1784625E-02  0.6951417E+03  0.7818609E-02  0.9725577E-01
       -3   -1    0    0    0  501  0.00000000000E+00  0.00000000000E+00  0.25577712522E+03  0.25577714516E+03  0.10100000352E+00 0. -1.
        3   -1    0    0  501    0  0.00000000000E+00  0.00000000000E+00 -0.47230764553E+03  0.47230765633E+03  0.10100000352E+00 0.  1.
    10030    2    1    2    0    0  0.00000000000E+00  0.00000000000E+00 -0.21653052031E+03  0.72808480149E+03  0.69514172076E+03 0.  0.
        4    1    3    3  502    0 -0.21931149750E+03 -0.22130696290E+03 -0.26960958174E+03  0.41202578102E+03  0.12699999809E+01 0.  1.
       -4    1    3    3    0  502  0.21931149750E+03  0.22130696290E+03  0.53079061425E+02  0.31605902047E+03  0.12699999809E+01 0. -1.
</event>
<event>
 5   0  0.2684924E-02  0.6935921E+03  0.7818609E-02  0.9728254E-01
        1   -1    0    0  501    0  0.00000000000E+00  0.00000000000E+00  0.92861516249E+03  0.92861516251E+03  0.50400001928E-02 0.  1.
       -1   -1    0    0    0  501  0.00000000000E+00  0.00000000000E+00 -0.12951273243E+03  0.12951273253E+03  0.50400001928E-02 0. -1.
    10030    2    1    2    0    0  0.00000000000E+00  0.00000000000E+00  0.79910243006E+03  0.10581278950E+04  0.69359206203E+03 0.  0.
        4    1    3    3  502    0 -0.30354651949E+03 -0.64040924153E+02  0.63601139603E+03  0.70763962456E+03  0.12699999809E+01 0.  1.
       -4    1    3    3    0  502  0.30354651949E+03  0.64040924153E+02  0.16309103403E+03  0.35048827048E+03  0.12699999809E+01 0. -1.
</event>
<event>
 5   0  0.4365492E-02  0.6940329E+03  0.7818609E-02  0.9727491E-01
        2   -1    0    0  501    0  0.00000000000E+00  0.00000000000E+00  0.43110298172E+03  0.43110298173E+03  0.25500000920E-02 0. -1.
       -2   -1    0    0    0  501  0.00000000000E+00  0.00000000000E+00 -0.27933100799E+03  0.27933100800E+03  0.25500000920E-02 0.  1.
    10030    2    1    2    0    0  0.00000000000E+00  0.00000000000E+00  0.15177197374E+03  0.71043398973E+03  0.69403293996E+03 0.  0.
        4    1    3    3  502    0 -0.24588184433E+02 -0.91705144492E+02 -0.26577455891E+03  0.28222710962E+03  0.12699999809E+01 0.  1.
       -4    1    3    3    0  502  0.24588184433E+02  0.91705144492E+02  0.41754653265E+03  0.42820688010E+03  0.12699999809E+01 0. -1.
</event>
<event>
 5   0  0.4526837E-02  0.6377590E+03  0.7818609E-02  0.9830024E-01
        2   -1    0    0  501    0  0.00000000000E+00  0.00000000000E+00  0.90868957591E+03  0.90868957591E+03  0.25500000920E-02 0. -1.
       -2   -1    0    0    0  501  0.00000000000E+00  0.00000000000E+00 -0.11190196202E+03  0.11190196205E+03  0.25500000920E-02 0.  1.
    10030    2    1    2    0    0  0.00000000000E+00  0.00000000000E+00  0.79678761389E+03  0.10205915380E+04  0.63775903421E+03 0.  0.
        1    1    3    3  502    0 -0.37736883901E+02  0.30995868560E+02 -0.10588242981E+03  0.11660148045E+03  0.50400001928E-02 0.  1.
       -1    1    3    3    0  502  0.37736883901E+02 -0.30995868560E+02  0.90267004370E+03  0.90399005752E+03  0.50400001928E-02 0. -1.
</event>
<event>
 5   0  0.4503289E-02  0.6985641E+03  0.7818609E-02  0.9719691E-01
        2   -1    0    0  501    0  0.00000000000E+00  0.00000000000E+00  0.48663481657E+03  0.48663481658E+03  0.25500000920E-02 0. -1.
       -2   -1    0    0    0  501  0.00000000000E+00  0.00000000000E+00 -0.25069710242E+03  0.25069710244E+03  0.25500000920E-02 0.  1.
    10030    2    1    2    0    0  0.00000000000E+00  0.00000000000E+00  0.23593771415E+03  0.73733191901E+03  0.69856406567E+03 0.  0.
        2    1    3    3  502    0  0.44758577857E+02  0.67573912560E+02  0.47657116734E+03  0.48341456484E+03  0.25500000920E-02 0. -1.
       -2    1    3    3    0  502 -0.44758577857E+02 -0.67573912560E+02 -0.24063345319E+03  0.25391735418E+03  0.25500000920E-02 0.  1.
</event>
<event>
 5   0  0.2758681E-02  0.7022070E+03  0.7818609E-02  0.9713465E-01
       -1   -1    0    0    0  501  0.00000000000E+00  0.00000000000E+00  0.14358746730E+03  0.14358746739E+03  0.50400001928E-02 0. -1.
        1   -1    0    0  501    0  0.00000000000E+00  0.00000000000E+00 -0.85852677302E+03  0.85852677303E+03  0.50400001928E-02 0.  1.
    10030    2    1    2    0    0  0.00000000000E+00  0.00000000000E+00 -0.71493930572E+03  0.10021142404E+04  0.70220704924E+03 0.  0.
        3    1    3    3  502    0 -0.24928436152E+03 -0.61936425149E+02 -0.69906337799E+03  0.74476065304E+03  0.10100000352E+00 0.  1.
       -3    1    3    3    0  502  0.24928436152E+03  0.61936425149E+02 -0.15875927727E+02  0.25735358739E+03  0.10100000352E+00 0. -1.
</event>
<event>
 5   0  0.1784625E-02  0.6976523E+03  0.7818609E-02  0.9721256E-01
        3   -1    0    0  501    0  0.00000000000E+00  0.00000000000E+00  0.51284387728E+03  0.51284388722E+03  0.10100000352E+00 0.  1.
       -3   -1    0    0    0  501  0.00000000000E+00  0.00000000000E+00 -0.23726452809E+03  0.23726454959E+03  0.10100000352E+00 0. -1.
    10030    2    1    2    0    0  0.00000000000E+00  0.00000000000E+00  0.27557934918E+03  0.75010843681E+03  0.69765226960E+03 0.  0.
        2    1    3    3  502    0  0.66378468717E+02  0.17996884834E+03 -0.17546673422E+03  0.25996819480E+03  0.25500000920E-02 0. -1.
       -2    1    3    3    0  502 -0.66378468717E+02 -0.17996884834E+03  0.45104608340E+03  0.49014024201E+03  0.25500000920E-02 0.  1.
</event>
<event>
 5   0  0.2684924E-02  0.7329317E+03  0.7818609E-02  0.9662515E-01
       -1   -1    0    0    0  501  0.00000000000E+00  0.00000000000E+00  0.10379765506E+03  0.10379765519E+03  0.50400001928E-02 0. -1.
        1   -1    0    0  501    0  0.00000000000E+00  0.00000000000E+00 -0.12938367472E+04  0.12938367472E+04  0.50400001928E-02 0.  1.
    10030    2    1    2    0    0  0.00000000000E+00  0.00000000000E+00 -0.11900390921E+04  0.13976344024E+04  0.73293170347E+03 0.  0.
        4    1    3    3  502    0  0.13091402388E+03  0.19224971869E+03 -0.54999849782E+02  0.23900843576E+03  0.12699999809E+01 0. -1.
       -4    1    3    3    0  502 -0.13091402388E+03 -0.19224971869E+03 -0.11350392424E+04  0.11586259667E+04  0.12699999809E+01 0.  1.
</event>
<event>
 5   0  0.2750139E-02  0.6993470E+03  0.7818609E-02  0.9718350E-01
       -1   -1    0    0    0  501  0.00000000000E+00  0.00000000000E+00  0.26568872129E+03  0.26568872134E+03  0.50400001928E-02 0. -1.
        1   -1    0    0  501    0  0.00000000000E+00  0.00000000000E+00 -0.46020606668E+03  0.46020606671E+03  0.50400001928E-02 0.  1.
    10030    2    1    2    0    0  0.00000000000E+00  0.00000000000E+00 -0.19451734539E+03  0.72589478805E+03  0.69934701376E+03 0.  0.
        2    1    3    3  502    0  0.11760313719E+03  0.11053133635E+02 -0.43887062503E+03  0.45448882842E+03  0.25500000920E-02 0.  1.
       -2    1    3    3    0  502 -0.11760313719E+03 -0.11053133635E+02  0.24435327964E+03  0.27140595962E+03  0.25500000920E-02 0. -1.
</event>
<event>
 5   0  0.4503289E-02  0.6878182E+03  0.7818609E-02  0.9738295E-01
       -2   -1    0    0    0  501  0.00000000000E+00  0.00000000000E+00  0.91607588420E+03  0.91607588420E+03  0.25500000920E-02 0.  1.
        2   -1    0    0  501    0  0.00000000000E+00  0.00000000000E+00 -0.12910880221E+03  0.12910880224E+03  0.25500000920E-02 0. -1.
    10030    2    1    2    0    0  0.00000000000E+00  0.00000000000E+00  0.78696708199E+03  0.10451846864E+04  0.68781817411E+03 0.  0.
        2    1    3    3  502    0 -0.20647556570E+02  0.32076020241E+03  0.57934341542E+03  0.66253469497E+03  0.25500000920E-02 0.  1.
       -2    1    3    3    0  502  0.20647556570E+02 -0.32076020241E+03  0.20762366657E+03  0.38264999147E+03  0.25500000920E-02 0. -1.
</event>
<event>
 5   0  0.4420645E-02  0.6765957E+03  0.7818609E-02  0.9758116E-01
       -2   -1    0    0    0  501  0.00000000000E+00  0.00000000000E+00  0.72160815246E+03  0.72160815247E+03  0.25500000920E-02 0. -1.
        2   -1    0    0  501    0  0.00000000000E+00  0.00000000000E+00 -0.15859774193E+03  0.15859774195E+03  0.25500000920E-02 0.  1.
    10030    2    1    2    0    0  0.00000000000E+00  0.00000000000E+00  0.56301041053E+03  0.88020589442E+03  0.67659566523E+03 0.  0.
        5    1    3    3  502    0 -0.12552235047E+03  0.32615540888E+02 -0.12492708195E+03  0.18013467123E+03  0.46999998093E+01 0.  1.
       -5    1    3    3    0  502  0.12552235047E+03 -0.32615540888E+02  0.68793749248E+03  0.70007122319E+03  0.46999998093E+01 0. -1.
</event>
<event>
 5   0  0.2751729E-02  0.6944648E+03  0.7818609E-02  0.9726745E-01
        1   -1    0    0  501    0  0.00000000000E+00  0.00000000000E+00  0.61561373331E+03  0.61561373333E+03  0.50400001928E-02 0. -1.
       -1   -1    0    0    0  501  0.00000000000E+00  0.00000000000E+00 -0.19585387811E+03  0.19585387818E+03  0.50400001928E-02 0.  1.
    10030    2    1    2    0    0  0.00000000000E+00  0.00000000000E+00  0.41975985520E+03  0.81146761150E+03  0.69446479283E+03 0.  0.
        1    1    3    3  502    0 -0.26590499805E+03  0.88101571712E+02 -0.29880434651E+02  0.28170941647E+03  0.50400001928E-02 0.  1.
       -1    1    3    3    0  502  0.26590499805E+03 -0.88101571712E+02  0.44964028985E+03  0.52975819503E+03  0.50400001928E-02 0. -1.
</event>
<event>
 5   0  0.4526837E-02  0.7057832E+03  0.7818609E-02  0.9707393E-01
       -2   -1    0    0    0  501  0.00000000000E+00  0.00000000000E+00  0.10242649353E+03  0.10242649357E+03  0.25500000920E-02 0.  1.
        2   -1    0    0  501    0  0.00000000000E+00  0.00000000000E+00 -0.12158229141E+04  0.12158229141E+04  0.25500000920E-02 0. -1.
    10030    2    1    2    0    0  0.00000000000E+00  0.00000000000E+00 -0.11133964206E+04  0.13182494077E+04  0.70578319014E+03 0.  0.
        1    1    3    3  502    0  0.19570748567E+03 -0.10672627219E+03 -0.10676674904E+04  0.10906905094E+04  0.50400001928E-02 0. -1.
       -1    1    3    3    0  502 -0.19570748567E+03  0.10672627219E+03 -0.45728930175E+02  0.22755889832E+03  0.50400001928E-02 0.  1.
</event>
<event>
 5   0  0.2684924E-02  0.6994545E+03  0.7818609E-02  0.9718166E-01
       -1   -1    0    0    0  501  0.00000000000E+00  0.00000000000E+00  0.40203921422E+03  0.40203921425E+03  0.50400001928E-02 0.  1.
        1   -1    0    0  501    0  0.00000000000E+00  0.00000000000E+00 -0.30422190069E+03  0.30422190073E+03  0.50400001928E-02 0. -1.
    10030    2    1    2    0    0  0.00000000000E+00  0.00000000000E+00  0.97817313534E+02  0.70626111498E+03  0.69945445578E+03 0.  0.
        4    1    3    3  502    0  0.30061943768E+03 -0.93541069603E+02  0.20265843230E+03  0.37442493386E+03  0.12699999809E+01 0. -1.
       -4    1    3    3    0  502 -0.30061943768E+03  0.93541069603E+02 -0.10484111877E+03  0.33183618112E+03  0.12699999809E+01 0.  1.
</event>
<event>
 5   0  0.4420645E-02  0.7023890E+03  0.7818609E-02  0.9713155E-01
        2   -1    0    0  501    0  0.00000000000E+00  0.00000000000E+00  0.10108243730E+04  0.10108243730E+04  0.25500000920E-02 0.  1.
       -2   -1    0    0    0  501  0.00000000000E+00  0.00000000000E+00 -0.12201681395E+03  0.12201681398E+03  0.25500000920E-02 0. -1.
    10030    2    1    2    0    0  0.00000000000E+00  0.00000000000E+00  0.88880755907E+03  0.11328411870E+04  0.70238897907E+03 0.  0.
        5    1    3    3  502    0  0.13134232238E+03  0.32443682298E+03  0.39863145038E+03  0.53050841745E+03  0.46999998093E+01 0.  1.
       -5    1    3    3    0  502 -0.13134232238E+03 -0.32443682298E+03  0.49017610869E+03  0.60233276956E+03  0.46999998093E+01 0. -1.
</event>
<event>
 5   0  0.4365492E-02  0.7045326E+03  0.7818609E-02  0.9709512E-01
        2   -1    0    0  501    0  0.00000000000E+00  0.00000000000E+00  0.57418950916E+03  0.57418950917E+03  0.25500000920E-02 0.  1.
       -2   -1    0    0    0  501  0.00000000000E+00  0.00000000000E+00 -0.21611599144E+03  0.21611599145E+03  0.25500000920E-02 0. -1.
    10030    2    1    2    0    0  0.00000000000E+00  0.00000000000E+00  0.35807351773E+03  0.79030550062E+03  0.70453256860E+03 0.  0.
        4    1    3    3  502    0  0.71434635186E+02  0.53378278286E+02  0.56131596922E+03  0.56835673472E+03  0.12699999809E+01 0.  1.
       -4    1    3    3    0  502 -0.71434635186E+02 -0.53378278286E+02 -0.20324245149E+03  0.22194876590E+03  0.12699999809E+01 0. -1.
</event>
<event>
 5   0  0.4420645E-02  0.7367091E+03  0.7818609E-02  0.9656436E-01
        2   -1    0    0  501    0  0.00000000000E+00  0.00000000000E+00  0.61550374522E+03  0.61550374522E+03  0.25500000920E-02 0. -1.
       -2   -1    0    0    0  501  0.00000000000E+00  0.00000000000E+00 -0.22044554716E+03  0.22044554717E+03  0.25500000920E-02 0.  1.
    10030    2    1    2    0    0  0.00000000000E+00  0.00000000000E+00  0.39505819806E+03  0.83594929239E+03  0.73670906035E+03 0.  0.
        5    1    3    3  502    0 -0.21969121486E+03  0.53370040317E+02  0.52747421368E+03  0.57390219304E+03  0.46999998093E+01 0. -1.
       -5    1    3    3    0  502  0.21969121486E+03 -0.53370040317E+02 -0.13241601561E+03  0.26204709935E+03  0.46999998093E+01 0.  1.
</event>
<event>
 5   0  0.4420645E-02  0.7079385E+03  0.7818609E-02  0.9703752E-01
        2   -1    0    0  501    0  0.00000000000E+00  0.00000000000E+00  0.89075550684E+03  0.89075550684E+03  0.25500000920E-02 0. -1.
       -2   -1    0    0    0  501  0.00000000000E+00  0.00000000000E+00 -0.14066061058E+03  0.14066061061E+03  0.25500000920E-02 0.  1.
    10030    2    1    2    0    0  0.00000000000E+00  0.00000000000E+00  0.75009489626E+03  0.10314161175E+04  0.70793845350E+03 0.  0.
        5    1    3    3  502    0  0.32913342381E+03 -0.10888977263E+03  0.47895346285E+03  0.59127345858E+03  0.46999998093E+01 0. -1.
       -5    1    3    3    0  502 -0.32913342381E+03  0.10888977263E+03  0.27114143341E+03  0.44014265887E+03  0.46999998093E+01 0.  1.
</event>
<event>
 5   0  0.1784625E-02  0.6939596E+03  0.7818609E-02  0.9727618E-01
        4   -1    0    0  501    0  0.00000000000E+00  0.00000000000E+00  0.68306481964E+03  0.68306600028E+03  0.12699999809E+01 0. -1.
       -4   -1    0    0    0  501  0.00000000000E+00  0.00000000000E+00 -0.17625343518E+03  0.17625801063E+03  0.12699999809E+01 0.  1.
    10030    2    1    2    0    0  0.00000000000E+00  0.00000000000E+00  0.50681138447E+03  0.85932401091E+03  0.69395963593E+03 0.  0.
        2    1    3    3  502    0 -0.60090878826E+02  0.29657614292E+03  0.43163445891E+02  0.30566551218E+03  0.25500000920E-02 0.  1.
       -2    1    3    3    0  502  0.60090878826E+02 -0.29657614292E+03  0.46364793858E+03  0.55365849873E+03  0.25500000920E-02 0. -1.
</event>
<event>
 5   0  0.4526837E-02  0.7050823E+03  0.7818609E-02  0.9708580E-01
        2   -1    0    0  501    0  0.00000000000E+00  0.00000000000E+00  0.73215105110E+03  0.73215105110E+03  0.25500000920E-02 0. -1.
       -2   -1    0    0    0  501  0.00000000000E+00  0.00000000000E+00 -0.16975359948E+03  0.16975359950E+03  0.25500000920E-02 0.  1.
    10030    2    1    2    0    0  0.00000000000E+00  0.00000000000E+00  0.56239745161E+03  0.90190465060E+03  0.70508233930E+03 0.  0.
        1    1    3    3  502    0 -0.30697198139E+03  0.29702600849E+02  0.62725514067E+02  0.31471976741E+03  0.50400001928E-02 0.  1.
       -1    1    3    3    0  502  0.30697198139E+03 -0.29702600849E+02  0.49967193755E+03  0.58718488320E+03  0.50400001928E-02 0. -1.
</event>
<event>
 5   0  0.2750139E-02  0.6998719E+03  0.7818609E-02  0.9717451E-01
       -1   -1    0    0    0  501  0.00000000000E+00  0.00000000000E+00  0.10464400276E+03  0.10464400288E+03  0.50400001928E-02 0.  1.
        1   -1    0    0  501    0  0.00000000000E+00  0.00000000000E+00 -0.11702072673E+04  0.11702072673E+04  0.50400001928E-02 0. -1.
    10030    2    1    2    0    0  0.00000000000E+00  0.00000000000E+00 -0.10655632646E+04  0.12748512702E+04  0.69987190999E+03 0.  0.
        2    1    3    3  502    0  0.55417321502E+02  0.25893194327E+03 -0.11605530587E+03  0.28911185517E+03  0.25500000920E-02 0.  1.
       -2    1    3    3    0  502 -0.55417321502E+02 -0.25893194327E+03 -0.94950795869E+03  0.98573941505E+03  0.25500000920E-02 0. -1.
</event>
<event>
 5   0  0.4365492E-02  0.6942788E+03  0.7818609E-02  0.9727067E-01
       -2   -1    0    0    0  501  0.00000000000E+00  0.00000000000E+00  0.41699342416E+03  0.41699342417E+03  0.25500000920E-02 0.  1.
        2   -1    0    0  501    0  0.00000000000E+00  0.00000000000E+00 -0.28898720287E+03  0.28898720288E+03  0.25500000920E-02 0. -1.
    10030    2    1    2    0    0  0.00000000000E+00  0.00000000000E+00  0.12800622129E+03  0.70598062705E+03  0.69427880068E+03 0.  0.
        4    1    3    3  502    0  0.19624454734E+03  0.21965958489E+03 -0.12278258424E+03  0.31912290969E+03  0.12699999809E+01 0. -1.
       -4    1    3    3    0  502 -0.19624454734E+03 -0.21965958489E+03  0.25078880553E+03  0.38685771736E+03  0.12699999809E+01 0.  1.
</event>
<event>
 5   0  0.2758681E-02  0.7023109E+03  0.7818609E-02  0.9713288E-01
       -1   -1    0    0    0  501  0.00000000000E+00  0.00000000000E+00  0.17945143084E+03  0.17945143091E+03  0.50400001928E-02 0. -1.
        1   -1    0    0  501    0  0.00000000000E+00  0.00000000000E+00 -0.68715052695E+03  0.68715052697E+03  0.50400001928E-02 0.  1.
    10030    2    1    2    0    0  0.00000000000E+00  0.00000000000E+00 -0.50769909611E+03  0.86660195789E+03  0.70231088644E+03 0.  0.
        3    1    3    3  502    0  0.51316573193E+02  0.17871794300E+03  0.11372189107E+03  0.21795910751E+03  0.10100000352E+00 0. -1.
       -3    1    3    3    0  502 -0.51316573193E+02 -0.17871794300E+03 -0.62142098719E+03  0.64864285038E+03  0.10100000352E+00 0.  1.
</event>
<event>
 5   0  0.4299912E-02  0.7135508E+03  0.7818609E-02  0.9694335E-01
        2   -1    0    0  501    0  0.00000000000E+00  0.00000000000E+00  0.59014706517E+03  0.59014706518E+03  0.25500000920E-02 0.  1.
       -2   -1    0    0    0  501  0.00000000000E+00  0.00000000000E+00 -0.21568975133E+03  0.21568975134E+03  0.25500000920E-02 0. -1.
    10030    2    1    2    0    0  0.00000000000E+00  0.00000000000E+00  0.37445731384E+03  0.80583681652E+03  0.71355076551E+03 0.  0.
        3    1    3    3  502    0 -0.29892216698E+03  0.19356876744E+03  0.21159018769E+03  0.41423875648E+03  0.10100000352E+00 0.  1.
       -3    1    3    3    0  502  0.29892216698E+03 -0.19356876744E+03  0.16286712615E+03  0.39159806004E+03  0.10100000352E+00 0. -1.
</event>
<event>
 5   0  0.2684924E-02  0.6917505E+03  0.7818609E-02  0.9731445E-01
       -1   -1    0    0    0  501  0.00000000000E+00  0.00000000000E+00  0.17667487677E+03  0.17667487684E+03  0.50400001928E-02 0.  1.
        1   -1    0    0  501    0  0.00000000000E+00  0.00000000000E+00 -0.67711772030E+03  0.67711772032E+03  0.50400001928E-02 0. -1.
    10030    2    1    2    0    0  0.00000000000E+00  0.00000000000E+00 -0.50044284353E+03  0.85379259716E+03  0.69175050367E+03 0.  0.
        4    1    3    3  502    0  0.85651767316E+02  0.32783690333E+03 -0.33586459912E+03  0.47709527588E+03  0.12699999809E+01 0. -1.
       -4    1    3    3    0  502 -0.85651767316E+02 -0.32783690333E+03 -0.16457824441E+03  0.37669732128E+03  0.12699999809E+01 0.  1.
</event>
<event>
 5   0  0.4526837E-02  0.7018644E+03  0.7818609E-02  0.9714049E-01
        2   -1    0    0  501    0  0.00000000000E+00  0.00000000000E+00  0.88237011934E+03  0.88237011935E+03  0.25500000920E-02 0.  1.
       -2   -1    0    0    0  501  0.00000000000E+00  0.00000000000E+00 -0.13957116315E+03  0.13957116317E+03  0.25500000920E-02 0. -1.
    10030    2    1    2    0    0  0.00000000000E+00  0.00000000000E+00  0.74279895620E+03  0.10219412825E+04  0.70186444245E+03 0.  0.
        1    1    3    3  502    0 -0.59075814914E+01  0.32675431423E+03  0.55757966984E+03  0.64629588396E+03  0.50400001928E-02 0. -1.
       -1    1    3    3    0  502  0.59075814914E+01 -0.32675431423E+03  0.18521928636E+03  0.37564539855E+03  0.50400001928E-02 0.  1.
</event>
<event>
 5   0  0.2777999E-02  0.7133715E+03  0.7818609E-02  0.9694635E-01
        1   -1    0    0  501    0  0.00000000000E+00  0.00000000000E+00  0.12222130183E+04  0.12222130183E+04  0.50400001928E-02 0. -1.
       -1   -1    0    0    0  501  0.00000000000E+00  0.00000000000E+00 -0.10409373077E+03  0.10409373089E+03  0.50400001928E-02 0.  1.
    10030    2    1    2    0    0  0.00000000000E+00  0.00000000000E+00  0.11181192875E+04  0.13263067492E+04  0.71337146832E+03 0.  0.
        5    1    3    3  502    0  0.92972394640E+02  0.26117659441E+03  0.97622550444E+03  0.10148376250E+04  0.46999998093E+01 0. -1.
       -5    1    3    3    0  502 -0.92972394640E+02 -0.26117659441E+03  0.14189378307E+03  0.31146912416E+03  0.46999998093E+01 0.  1.
</event>
<event>
 5   0  0.2684924E-02  0.7034800E+03  0.7818609E-02  0.9711299E-01
        1   -1    0    0  501    0  0.00000000000E+00  0.00000000000E+00  0.17119835277E+03  0.17119835284E+03  0.50400001928E-02 0.  1.
       -1   -1    0    0    0  501  0.00000000000E+00  0.00000000000E+00 -0.72267660653E+03  0.72267660655E+03  0.50400001928E-02 0. -1.
    10030    2    1    2    0    0  0.00000000000E+00  0.00000000000E+00 -0.55147825376E+03  0.89387495939E+03  0.70348004851E+03 0.  0.
        4    1    3    3  502    0 -0.19769613311E+03 -0.74170884170E+02 -0.63318271251E+03  0.66746313863E+03  0.12699999809E+01 0. -1.
       -4    1    3    3    0  502  0.19769613311E+03  0.74170884170E+02  0.81704458748E+02  0.22641182077E+03  0.12699999809E+01 0.  1.
</event>
<event>
 5   0  0.4299912E-02  0.6974793E+03  0.7818609E-02  0.9721553E-01
       -2   -1    0    0    0  501  0.00000000000E+00  0.00000000000E+00  0.12650161720E+03  0.12650161722E+03  0.25500000920E-02 0. -1.
        2   -1    0    0  501    0  0.00000000000E+00  0.00000000000E+00 -0.96140543357E+03  0.96140543357E+03  0.25500000920E-02 0.  1.
    10030    2    1    2    0    0  0.00000000000E+00  0.00000000000E+00 -0.83490381637E+03  0.10879070508E+04  0.69747929616E+03 0.  0.
        3    1    3    3  502    0 -0.12883548151E+03 -0.81858809697E+02 -0.90653331619E+03  0.91929435416E+03  0.10100000352E+00 0.  1.
       -3    1    3    3    0  502  0.12883548151E+03  0.81858809697E+02  0.71629499818E+02  0.16861269664E+03  0.10100000352E+00 0. -1.
</event>
<event>
 5   0  0.2777999E-02  0.7061137E+03  0.7818609E-02  0.9706834E-01
        1   -1    0    0  501    0  0.00000000000E+00  0.00000000000E+00  0.20842553138E+04  0.20842553138E+04  0.50400001928E-02 0. -1.
       -1   -1    0    0    0  501  0.00000000000E+00  0.00000000000E+00 -0.59805117654E+02  0.59805117866E+02  0.50400001928E-02 0.  1.
    10030    2    1    2    0    0  0.00000000000E+00  0.00000000000E+00  0.20244501961E+04  0.21440604317E+04  0.70611368630E+03 0.  0.
        5    1    3    3  502    0 -0.32326984580E+03  0.56528631236E+02  0.14072889886E+04  0.14450547626E+04  0.46999998093E+01 0. -1.
       -5    1    3    3    0  502  0.32326984580E+03 -0.56528631236E+02  0.61716120750E+03  0.69900566907E+03  0.46999998093E+01 0.  1.
</event>
<event>
 5   0  0.2758681E-02  0.6890795E+03  0.7818609E-02  0.9736092E-01
       -1   -1    0    0    0  501  0.00000000000E+00  0.00000000000E+00  0.44432884105E+02  0.44432884391E+02  0.50400001928E-02 0.  1.
        1   -1    0    0  501    0  0.00000000000E+00  0.00000000000E+00 -0.26716169474E+04  0.26716169474E+04  0.50400001928E-02 0. -1.
    10030    2    1    2    0    0  0.00000000000E+00  0.00000000000E+00 -0.26271840633E+04  0.27160498318E+04  0.68907952108E+03 0.  0.
        3    1    3    3  502    0 -0.34175416702E+03  0.34054199154E+02 -0.12055013980E+04  0.12534708732E+04  0.10100000352E+00 0. -1.
       -3    1    3    3    0  502  0.34175416702E+03 -0.34054199154E+02 -0.14216826653E+04  0.14625789586E+04  0.10100000352E+00 0.  1.
</event>
<event>
 5   0  0.2750139E-02  0.7067515E+03  0.7818609E-02  0.9705755E-01
        1   -1    0    0  501    0  0.00000000000E+00  0.00000000000E+00  0.22557876581E+03  0.22557876587E+03  0.50400001928E-02 0.  1.
       -1   -1    0    0    0  501  0.00000000000E+00  0.00000000000E+00 -0.55357342476E+03  0.55357342478E+03  0.50400001928E-02 0. -1.
    10030    2    1    2    0    0  0.00000000000E+00  0.00000000000E+00 -0.32799465895E+03  0.77915219065E+03  0.70675146969E+03 0.  0.
        2    1    3    3  502    0  0.76336646004E+02  0.28581063656E+03  0.49088985918E+02  0.29987452716E+03  0.25500000920E-02 0.  1.
       -2    1    3    3    0  502 -0.76336646004E+02 -0.28581063656E+03 -0.37708364486E+03  0.47927766349E+03  0.25500000920E-02 0. -1.
</event>
<event>
 5   0  0.4503289E-02  0.7249540E+03  0.7818609E-02  0.9675484E-01
       -2   -1    0    0    0  501  0.00000000000E+00  0.00000000000E+00  0.10729793177E+03  0.10729793180E+03  0.25500000920E-02 0. -1.
        2   -1    0    0  501    0  0.00000000000E+00  0.00000000000E+00 -0.12245304258E+04  0.12245304258E+04  0.25500000920E-02 0.  1.
    10030    2    1    2    0    0  0.00000000000E+00  0.00000000000E+00 -0.11172324940E+04  0.13318283576E+04  0.72495401813E+03 0.  0.
        2    1    3    3  502    0  0.12008790025E+03 -0.73690588686E+02  0.54933193507E+02  0.15122520426E+03  0.25500000920E-02 0. -1.
       -2    1    3    3    0  502 -0.12008790025E+03  0.73690588686E+02 -0.11721656875E+04  0.11806031533E+04  0.25500000920E-02 0.  1.
</event>
<event>
 5   0  0.2750139E-02  0.6879638E+03  0.7818609E-02  0.9738040E-01
        1   -1    0    0  501    0  0.00000000000E+00  0.00000000000E+00  0.46838954795E+03  0.46838954798E+03  0.50400001928E-02 0.  1.
       -1   -1    0    0    0  501  0.00000000000E+00  0.00000000000E+00 -0.25261780886E+03  0.25261780891E+03  0.50400001928E-02 0. -1.
    10030    2    1    2    0    0  0.00000000000E+00  0.00000000000E+00  0.21577173910E+03  0.72100735689E+03  0.68796378196E+03 0.  0.
        2    1    3    3  502    0 -0.56657101774E+02  0.13707308573E+03  0.43315471254E+03  0.45784502074E+03  0.25500000920E-02 0.  1.
       -2    1    3    3    0  502  0.56657101774E+02 -0.13707308573E+03 -0.21738297345E+03  0.26316233615E+03  0.25500000920E-02 0. -1.
</event>
<event>
 5   0  0.2750139E-02  0.7065035E+03  0.7818609E-02  0.9706174E-01
       -1   -1    0    0    0  501  0.00000000000E+00  0.00000000000E+00  0.14039364870E+03  0.14039364879E+03  0.50400001928E-02 0. -1.
        1   -1    0    0  501    0  0.00000000000E+00  0.00000000000E+00 -0.88883516073E+03  0.88883516075E+03  0.50400001928E-02 0.  1.
    10030    2    1    2    0    0  0.00000000000E+00  0.00000000000E+00 -0.74844151203E+03  0.10292288095E+04  0.70650353534E+03 0.  0.
        2    1    3    3  502    0  0.31795884465E+01 -0.18849734494E+03  0.60981003777E+02  0.19814146880E+03  0.25500000920E-02 0. -1.
       -2    1    3    3    0  502 -0.31795884465E+01  0.18849734494E+03 -0.80942251581E+03  0.83108734074E+03  0.25500000920E-02 0.  1.
</event>
<event>
 5   0  0.2758681E-02  0.6814822E+03  0.7818609E-02  0.9749435E-01
        1   -1    0    0  501    0  0.00000000000E+00  0.00000000000E+00  0.10937530925E+03  0.10937530937E+03  0.50400001928E-02 0. -1.
       -1   -1    0    0    0  501  0.00000000000E+00  0.00000000000E+00 -0.10615238968E+04  0.10615238968E+04  0.50400001928E-02 0.  1.
    10030    2    1    2    0    0  0.00000000000E+00  0.00000000000E+00 -0.95214858752E+03  0.11708992062E+04  0.68148222152E+03 0.  0.
        3    1    3    3  502    0  0.18410168225E+03 -0.25321987962E+03 -0.24497779945E+03  0.39752719312E+03  0.10100000352E+00 0.  1.
       -3    1    3    3    0  502 -0.18410168225E+03  0.25321987962E+03 -0.70717078807E+03  0.77337201304E+03  0.10100000352E+00 0. -1.
</event>
<event>
 5   0  0.4526837E-02  0.7007677E+03  0.7818609E-02  0.9715920E-01
        2   -1    0    0  501    0  0.00000000000E+00  0.00000000000E+00  0.73051888495E+03  0.73051888495E+03  0.25500000920E-02 0.  1.
       -2   -1    0    0    0  501  0.00000000000E+00  0.00000000000E+00 -0.16805703081E+03  0.16805703082E+03  0.25500000920E-02 0. -1.
    10030    2    1    2    0    0  0.00000000000E+00  0.00000000000E+00  0.56246185414E+03  0.89857591578E+03  0.70076767837E+03 0.  0.
        1    1    3    3  502    0 -0.17040234406E+03 -0.62194948775E+01 -0.11126461929E+03  0.20360613082E+03  0.50400001928E-02 0. -1.
       -1    1    3    3    0  502  0.17040234406E+03  0.62194948775E+01  0.67372647343E+03  0.69496978496E+03  0.50400001928E-02 0.  1.
</event>
<event>
 5   0  0.1784625E-02  0.7007628E+03  0.7818609E-02  0.9715929E-01
       -3   -1    0    0    0  501  0.00000000000E+00  0.00000000000E+00  0.29627337984E+03  0.29627339705E+03  0.10100000352E+00 0.  1.
        3   -1    0    0  501    0  0.00000000000E+00  0.00000000000E+00 -0.41437104270E+03  0.41437105501E+03  0.10100000352E+00 0. -1.
    10030    2    1    2    0    0  0.00000000000E+00  0.00000000000E+00 -0.11809766286E+03  0.71064445206E+03  0.70076278388E+03 0.  0.
        1    1    3    3  502    0 -0.13594254348E+03 -0.31767896209E+03 -0.20629294009E+00  0.34554354380E+03  0.50400001928E-02 0.  1.
       -1    1    3    3    0  502  0.13594254348E+03  0.31767896209E+03 -0.11789136992E+03  0.36510090826E+03  0.50400001928E-02 0. -1.
</event>
<event>
 5   0  0.4365492E-02  0.7127868E+03  0.7818609E-02  0.9695612E-01
       -2   -1    0    0    0  501  0.00000000000E+00  0.00000000000E+00  0.24214458927E+03  0.24214458929E+03  0.25500000920E-02 0. -1.
        2   -1    0    0  501    0  0.00000000000E+00  0.00000000000E+00 -0.52454711966E+03  0.52454711966E+03  0.25500000920E-02 0.  1.
    10030    2    1    2    0    0  0.00000000000E+00  0.00000000000E+00 -0.28240253039E+03  0.76669170895E+03  0.71278677555E+03 0.  0.
        4    1    3    3  502    0  0.90666199689E+02  0.34355439525E+03 -0.17094482604E+03  0.39430157077E+03  0.12699999809E+01 0.  1.
       -4    1    3    3    0  502 -0.90666199689E+02 -0.34355439525E+03 -0.11145770434E+03  0.37239013818E+03  0.12699999809E+01 0. -1.
</event>
<event>
 5   0  0.2751729E-02  0.6938621E+03  0.7818609E-02  0.9727787E-01
       -1   -1    0    0    0  501  0.00000000000E+00  0.00000000000E+00  0.48696825793E+03  0.48696825796E+03  0.50400001928E-02 0. -1.
        1   -1    0    0  501    0  0.00000000000E+00  0.00000000000E+00 -0.24716427213E+03  0.24716427218E+03  0.50400001928E-02 0.  1.
    10030    2    1    2    0    0  0.00000000000E+00  0.00000000000E+00  0.23980398580E+03  0.73413253013E+03  0.69386210459E+03 0.  0.
        1    1    3    3  502    0  0.24764203536E+03 -0.11688667852E+03 -0.10546777234E+03  0.29344935563E+03  0.50400001928E-02 0.  1.
       -1    1    3    3    0  502 -0.24764203536E+03  0.11688667852E+03  0.34527175814E+03  0.44068317450E+03  0.50400001928E-02 0. -1.
</event>
<event>
 5   0  0.4526837E-02  0.7178537E+03  0.7818609E-02  0.9687178E-01
        2   -1    0    0  501    0  0.00000000000E+00  0.00000000000E+00  0.18889480521E+03  0.18889480523E+03  0.25500000920E-02 0.  1.
       -2   -1    0    0    0  501  0.00000000000E+00  0.00000000000E+00 -0.68201170109E+03  0.68201170110E+03  0.25500000920E-02 0. -1.
    10030    2    1    2    0    0  0.00000000000E+00  0.00000000000E+00 -0.49311689588E+03  0.87090650632E+03  0.71785365483E+03 0.  0.
        1    1    3    3  502    0  0.33926249235E+03 -0.37375238874E+01 -0.38864101727E+03  0.51590197531E+03  0.50400001928E-02 0. -1.
       -1    1    3    3    0  502 -0.33926249235E+03  0.37375238874E+01 -0.10447587861E+03  0.35500453101E+03  0.50400001928E-02 0.  1.
</event>
<event>
 5   0  0.1784625E-02  0.7157527E+03  0.7818609E-02  0.9690666E-01
       -3   -1    0    0    0  501  0.00000000000E+00  0.00000000000E+00  0.37121579879E+03  0.37121581253E+03  0.10100000352E+00 0. -1.
        3   -1    0    0  501    0  0.00000000000E+00  0.00000000000E+00 -0.34501624487E+03  0.34501625965E+03  0.10100000352E+00 0.  1.
    10030    2    1    2    0    0  0.00000000000E+00  0.00000000000E+00  0.26199553920E+02  0.71623207219E+03  0.71575272588E+03 0.  0.
        5    1    3    3  502    0  0.97629162946E+02 -0.50205291766E+01 -0.33136431679E+03  0.34551564308E+03  0.46999998093E+01 0.  1.
       -5    1    3    3    0  502 -0.97629162946E+02  0.50205291766E+01  0.35756387071E+03  0.37071642911E+03  0.46999998093E+01 0. -1.
</event>
<event>
 5   0  0.4365492E-02  0.7024923E+03  0.7818609E-02  0.9712980E-01
       -2   -1    0    0    0  501  0.00000000000E+00  0.00000000000E+00  0.84499932898E+02  0.84499932937E+02  0.25500000920E-02 0. -1.
        2   -1    0    0  501    0  0.00000000000E+00  0.00000000000E+00 -0.14600466244E+04  0.14600466244E+04  0.25500000920E-02 0.  1.
    10030    2    1    2    0    0  0.00000000000E+00  0.00000000000E+00 -0.13755466915E+04  0.15445465574E+04  0.70249225426E+03 0.  0.
        4    1    3    3  502    0  0.23007618051E+03 -0.81210390678E+02 -0.12433102117E+04  0.12670248899E+04  0.12699999809E+01 0.  1.
       -4    1    3    3    0  502 -0.23007618051E+03  0.81210390678E+02 -0.13223647988E+03  0.27752166745E+03  0.12699999809E+01 0. -1.
</event>
<event>
 5   0  0.4420645E-02  0.7175488E+03  0.7818609E-02  0.9687683E-01
       -2   -1    0    0    0  501  0.00000000000E+00  0.00000000000E+00  0.10746175809E+03  0.10746175812E+03  0.25500000920E-02 0. -1.
        2   -1    0    0  501    0  0.00000000000E+00  0.00000000000E+00 -0.11978129474E+04  0.11978129474E+04  0.25500000920E-02 0.  1.
    10030    2    1    2    0    0  0.00000000000E+00  0.00000000000E+00 -0.10903511893E+04  0.13052747055E+04  0.71754884214E+03 0.  0.
        5    1    3    3  502    0 -0.83911298307E+02  0.31505020155E+03 -0.27292597170E+03  0.42521572349E+03  0.46999998093E+01 0. -1.
       -5    1    3    3    0  502  0.83911298307E+02 -0.31505020155E+03 -0.81742521761E+03  0.88005898203E+03  0.46999998093E+01 0.  1.
</event>
<event>
 5   0  0.4526837E-02  0.7091417E+03  0.7818609E-02  0.9701725E-01
       -2   -1    0    0    0  501  0.00000000000E+00  0.00000000000E+00  0.18496752384E+03  0.18496752386E+03  0.25500000920E-02 0.  1.
        2   -1    0    0  501    0  0.00000000000E+00  0.00000000000E+00 -0.67968943848E+03  0.67968943849E+03  0.25500000920E-02 0. -1.
    10030    2    1    2    0    0  0.00000000000E+00  0.00000000000E+00 -0.49472191464E+03  0.86465696235E+03  0.70914165702E+03 0.  0.
        1    1    3    3  502    0 -0.13866620975E+03 -0.59471366127E+02  0.14387181133E+03  0.20848083662E+03  0.50400001928E-02 0.  1.
       -1    1    3    3    0  502  0.13866620975E+03  0.59471366127E+02 -0.63859372596E+03  0.65617612573E+03  0.50400001928E-02 0. -1.
</event>
<event>
 5   0  0.4420645E-02  0.7108110E+03  0.7818609E-02  0.9698920E-01
       -2   -1    0    0    0  501  0.00000000000E+00  0.00000000000E+00  0.68700406800E+02  0.68700406847E+02  0.25500000920E-02 0. -1.
        2   -1    0    0  501    0  0.00000000000E+00  0.00000000000E+00 -0.18386074963E+04  0.18386074963E+04  0.25500000920E-02 0.  1.
    10030    2    1    2    0    0  0.00000000000E+00  0.00000000000E+00 -0.17699070895E+04  0.19073079031E+04  0.71081103814E+03 0.  0.
        5    1    3    3  502    0  0.17758788307E+03 -0.21492833388E+03 -0.14762469955E+04  0.15023511330E+04  0.46999998093E+01 0.  1.
       -5    1    3    3    0  502 -0.17758788307E+03  0.21492833388E+03 -0.29366009393E+03  0.40495677014E+03  0.46999998093E+01 0. -1.
</event>
<event>
 5   0  0.4526837E-02  0.5675617E+03  0.7818609E-02  0.9975089E-01
       -2   -1    0    0    0  501  0.00000000000E+00  0.00000000000E+00  0.54495413854E+02  0.54495413914E+02  0.25500000920E-02 0.  1.
        2   -1    0    0  501    0  0.00000000000E+00  0.00000000000E+00 -0.14777677200E+04  0.14777677200E+04  0.25500000920E-02 0. -1.
    10030    2    1    2    0    0  0.00000000000E+00  0.00000000000E+00 -0.14232723061E+04  0.15322631339E+04  0.56756167428E+03 0.  0.
        1    1    3    3  502    0 -0.12313939374E+03 -0.89783649086E+02 -0.65350232088E+02  0.16581636467E+03  0.50400001928E-02 0.  1.
       -1    1    3    3    0  502  0.12313939374E+03  0.89783649086E+02 -0.13579220741E+04  0.13664467692E+04  0.50400001928E-02 0. -1.
</event>
<event>
 5   0  0.2684924E-02  0.7631744E+03  0.7818609E-02  0.9614906E-01
       -1   -1    0    0    0  501  0.00000000000E+00  0.00000000000E+00  0.79300146111E+03  0.79300146113E+03  0.50400001928E-02 0. -1.
        1   -1    0    0  501    0  0.00000000000E+00  0.00000000000E+00 -0.18361728256E+03  0.18361728263E+03  0.50400001928E-02 0.  1.
    10030    2    1    2    0    0  0.00000000000E+00  0.00000000000E+00  0.60938417855E+03  0.97661874376E+03  0.76317435334E+03 0.  0.
        4    1    3    3  502    0  0.33159980778E+03  0.18782656211E+03  0.28007993396E+03  0.47295204012E+03  0.12699999809E+01 0. -1.
       -4    1    3    3    0  502 -0.33159980778E+03 -0.18782656211E+03  0.32930424459E+03  0.50366670364E+03  0.12699999809E+01 0.  1.
</event>
<event>
 5   0  0.2758681E-02  0.6991190E+03  0.7818609E-02  0.9718740E-01
       -1   -1    0    0    0  501  0.00000000000E+00  0.00000000000E+00  0.37234289010E+03  0.37234289014E+03  0.50400001928E-02 0.  1.
        1   -1    0    0  501    0  0.00000000000E+00  0.00000000000E+00 -0.32817016492E+03  0.32817016496E+03  0.50400001928E-02 0. -1.
    10030    2    1    2    0    0  0.00000000000E+00  0.00000000000E+00  0.44172725180E+02  0.70051305509E+03  0.69911895319E+03 0.  0.
        3    1    3    3  502    0 -0.11036418849E+02  0.23432266021E+03  0.28176121671E+03  0.36663102033E+03  0.10100000352E+00 0.  1.
       -3    1    3    3    0  502  0.11036418849E+02 -0.23432266021E+03 -0.23758849153E+03  0.33388203476E+03  0.10100000352E+00 0. -1.
</event>
<event>
 5   0  0.4526837E-02  0.6011598E+03  0.7818609E-02  0.9903003E-01
       -2   -1    0    0    0  501  0.00000000000E+00  0.00000000000E+00  0.32355583357E+03  0.32355583358E+03  0.25500000920E-02 0.  1.
        2   -1    0    0  501    0  0.00000000000E+00  0.00000000000E+00 -0.27923551715E+03  0.27923551716E+03  0.25500000920E-02 0. -1.
    10030    2    1    2    0    0  0.00000000000E+00  0.00000000000E+00  0.44320316416E+02  0.60279135074E+03  0.60115981410E+03 0.  0.
        1    1    3    3  502    0  0.25959200771E+02 -0.17442343625E+03  0.26623578831E+03  0.31934136942E+03  0.50400001928E-02 0.  1.
       -1    1    3    3    0  502 -0.25959200771E+02  0.17442343625E+03 -0.22191547190E+03  0.28344998132E+03  0.50400001928E-02 0. -1.
</event>
<event>
 5   0  0.2750139E-02  0.6940468E+03  0.7818609E-02  0.9727467E-01
       -1   -1    0    0    0  501  0.00000000000E+00  0.00000000000E+00  0.60064961588E+02  0.60064961799E+02  0.50400001928E-02 0.  1.
        1   -1    0    0  501    0  0.00000000000E+00  0.00000000000E+00 -0.20049165881E+04  0.20049165881E+04  0.50400001928E-02 0. -1.
    10030    2    1    2    0    0  0.00000000000E+00  0.00000000000E+00 -0.19448516265E+04  0.20649815499E+04  0.69404679402E+03 0.  0.
        2    1    3    3  502    0  0.57831850666E+02 -0.18982463197E+03 -0.12539976969E+03  0.23474031631E+03  0.25500000920E-02 0.  1.
       -2    1    3    3    0  502 -0.57831850666E+02  0.18982463197E+03 -0.18194518568E+04  0.18302412336E+04  0.25500000920E-02 0. -1.
</event>
<event>
 5   0  0.4503289E-02  0.6893552E+03  0.7818609E-02  0.9735611E-01
       -2   -1    0    0    0  501  0.00000000000E+00  0.00000000000E+00  0.10335008591E+04  0.10335008591E+04  0.25500000920E-02 0.  1.
        2   -1    0    0  501    0  0.00000000000E+00  0.00000000000E+00 -0.11495166856E+03  0.11495166859E+03  0.25500000920E-02 0. -1.
    10030    2    1    2    0    0  0.00000000000E+00  0.00000000000E+00  0.91854919052E+03  0.11484525277E+04  0.68935520082E+03 0.  0.
        2    1    3    3  502    0 -0.22238645562E+03 -0.18048709178E+03  0.13980861658E+03  0.31871268443E+03  0.25500000920E-02 0. -1.
       -2    1    3    3    0  502  0.22238645562E+03  0.18048709178E+03  0.77874057394E+03  0.82973984324E+03  0.25500000920E-02 0.  1.
</event>
<event>
 5   0  0.2684924E-02  0.6920294E+03  0.7818609E-02  0.9730961E-01
       -1   -1    0    0    0  501  0.00000000000E+00  0.00000000000E+00  0.10147003341E+03  0.10147003354E+03  0.50400001928E-02 0. -1.
        1   -1    0    0  501    0  0.00000000000E+00  0.00000000000E+00 -0.11799164428E+04  0.11799164428E+04  0.50400001928E-02 0.  1.
    10030    2    1    2    0    0  0.00000000000E+00  0.00000000000E+00 -0.10784464094E+04  0.12813864763E+04  0.69202936632E+03 0.  0.
        4    1    3    3  502    0  0.14922149600E+03  0.80472703747E+02  0.19288765767E+02  0.17063581190E+03  0.12699999809E+01 0. -1.
       -4    1    3    3    0  502 -0.14922149600E+03 -0.80472703747E+02 -0.10977351751E+04  0.11107506644E+04  0.12699999809E+01 0.  1.
</event>
<event>
 5   0  0.4420645E-02  0.6858032E+03  0.7818609E-02  0.9741823E-01
       -2   -1    0    0    0  501  0.00000000000E+00  0.00000000000E+00  0.22758539588E+03  0.22758539590E+03  0.25500000920E-02 0. -1.
        2   -1    0    0  501    0  0.00000000000E+00  0.00000000000E+00 -0.51664779066E+03  0.51664779066E+03  0.25500000920E-02 0.  1.
    10030    2    1    2    0    0  0.00000000000E+00  0.00000000000E+00 -0.28906239477E+03  0.74423318656E+03  0.68580315536E+03 0.  0.
        5    1    3    3  502    0  0.28208994482E+01  0.71472398765E+02 -0.50842615428E+03  0.51345448251E+03  0.46999998093E+01 0.  1.
       -5    1    3    3    0  502 -0.28208994482E+01 -0.71472398765E+02  0.21936375951E+03  0.23077870405E+03  0.46999998093E+01 0. -1.
</event>
<event>
 5   0  0.2684924E-02  0.7077560E+03  0.7818609E-02  0.9704060E-01
        1   -1    0    0  501    0  0.00000000000E+00  0.00000000000E+00  0.33230107589E+03  0.33230107593E+03  0.50400001928E-02 0. -1.
       -1   -1    0    0    0  501  0.00000000000E+00  0.00000000000E+00 -0.37685592704E+03  0.37685592708E+03  0.50400001928E-02 0.  1.
    10030    2    1    2    0    0  0.00000000000E+00  0.00000000000E+00 -0.44554851153E+02  0.70915700300E+03  0.70775597500E+03 0.  0.
        4    1    3    3  502    0  0.27369998404E+03  0.92404095046E+02 -0.22707826578E+03  0.36744570991E+03  0.12699999809E+01 0.  1.
       -4    1    3    3    0  502 -0.27369998404E+03 -0.92404095046E+02  0.18252341462E+03  0.34171129309E+03  0.12699999809E+01 0. -1.
</event>
<event>
 5   0  0.4526837E-02  0.6974315E+03  0.7818609E-02  0.9721635E-01
       -2   -1    0    0    0  501  0.00000000000E+00  0.00000000000E+00  0.59027702327E+03  0.59027702328E+03  0.25500000920E-02 0. -1.
        2   -1    0    0  501    0  0.00000000000E+00  0.00000000000E+00 -0.20600949837E+03  0.20600949839E+03  0.25500000920E-02 0.  1.
    10030    2    1    2    0    0  0.00000000000E+00  0.00000000000E+00  0.38426752490E+03  0.79628652166E+03  0.69743149763E+03 0.  0.
        1    1    3    3  502    0  0.59102131382E+02 -0.30264341162E+03  0.37805394499E+03  0.48786358942E+03  0.50400001928E-02 0. -1.
       -1    1    3    3    0  502 -0.59102131382E+02  0.30264341162E+03  0.62135799157E+01  0.30842293224E+03  0.50400001928E-02 0.  1.
</event>
<event>
 5   0  0.2750139E-02  0.6757917E+03  0.7818609E-02  0.9759551E-01
       -1   -1    0    0    0  501  0.00000000000E+00  0.00000000000E+00  0.45537980929E+03  0.45537980932E+03  0.50400001928E-02 0.  1.
        1   -1    0    0  501    0  0.00000000000E+00  0.00000000000E+00 -0.25072173727E+03  0.25072173732E+03  0.50400001928E-02 0. -1.
    10030    2    1    2    0    0  0.00000000000E+00  0.00000000000E+00  0.20465807202E+03  0.70610154664E+03  0.67579173398E+03 0.  0.
        2    1    3    3  502    0  0.31162762642E+02  0.18457067849E+03  0.39625759412E+03  0.43824369253E+03  0.25500000920E-02 0. -1.
       -2    1    3    3    0  502 -0.31162762642E+02 -0.18457067849E+03 -0.19159952210E+03  0.26785785411E+03  0.25500000920E-02 0.  1.
</event>
<event>
 5   0  0.1784625E-02  0.7285516E+03  0.7818609E-02  0.9669614E-01
        4   -1    0    0  501    0  0.00000000000E+00  0.00000000000E+00  0.73859014101E+03  0.73859123289E+03  0.12699999809E+01 0.  1.
       -4   -1    0    0    0  501  0.00000000000E+00  0.00000000000E+00 -0.17965889875E+03  0.17966338747E+03  0.12699999809E+01 0. -1.
    10030    2    1    2    0    0  0.00000000000E+00  0.00000000000E+00  0.55893124227E+03  0.91825462037E+03  0.72855158653E+03 0.  0.
        3    1    3    3  502    0  0.43633160652E+02  0.13049187171E+03  0.70458106862E+03  0.71789029368E+03  0.10100000352E+00 0.  1.
       -3    1    3    3    0  502 -0.43633160652E+02 -0.13049187171E+03 -0.14564982635E+03  0.20036432669E+03  0.10100000352E+00 0. -1.
</event>
<event>
 5   0  0.2758681E-02  0.6976129E+03  0.7818609E-02  0.9721323E-01
       -1   -1    0    0    0  501  0.00000000000E+00  0.00000000000E+00  0.98327084689E+02  0.98327084818E+02  0.50400001928E-02 0.  1.
        1   -1    0    0  501    0  0.00000000000E+00  0.00000000000E+00 -0.12373593877E+04  0.12373593877E+04  0.50400001928E-02 0. -1.
    10030    2    1    2    0    0  0.00000000000E+00  0.00000000000E+00 -0.11390323030E+04  0.13356864726E+04  0.69761290527E+03 0.  0.
        3    1    3    3  502    0 -0.84153448642E+02 -0.23156620946E+03 -0.10422501556E+04  0.10709762413E+04  0.10100000352E+00 0. -1.
       -3    1    3    3    0  502  0.84153448642E+02  0.23156620946E+03 -0.96782147403E+02  0.26471023127E+03  0.10100000352E+00 0.  1.
</event>
<event>
 5   0  0.2777999E-02  0.7011575E+03  0.7818609E-02  0.9715255E-01
        1   -1    0    0  501    0  0.00000000000E+00  0.00000000000E+00  0.11914098752E+04  0.11914098752E+04  0.50400001928E-02 0.  1.
       -1   -1    0    0    0  501  0.00000000000E+00  0.00000000000E+00 -0.10315968458E+03  0.10315968470E+03  0.50400001928E-02 0. -1.
    10030    2    1    2    0    0  0.00000000000E+00  0.00000000000E+00  0.10882501906E+04  0.12945695599E+04  0.70115752015E+03 0.  0.
        5    1    3    3  502    0 -0.20515712011E+03 -0.19235987515E+03  0.15775344023E+03  0.32249031521E+03  0.46999998093E+01 0. -1.
       -5    1    3    3    0  502  0.20515712011E+03  0.19235987515E+03  0.93049675038E+03  0.97207924469E+03  0.46999998093E+01 0.  1.
</event>
<event>
 5   0  0.2684924E-02  0.7300202E+03  0.7818609E-02  0.9667228E-01
        1   -1    0    0  501    0  0.00000000000E+00  0.00000000000E+00  0.24028623924E+03  0.24028623930E+03  0.50400001928E-02 0.  1.
       -1   -1    0    0    0  501  0.00000000000E+00  0.00000000000E+00 -0.55447362382E+03  0.55447362384E+03  0.50400001928E-02 0. -1.
    10030    2    1    2    0    0  0.00000000000E+00  0.00000000000E+00 -0.31418738458E+03  0.79475986314E+03  0.73002022399E+03 0.  0.
        4    1    3    3  502    0  0.27252065498E+03  0.18235297926E+03 -0.33165885763E+03  0.46638967310E+03  0.12699999809E+01 0. -1.
       -4    1    3    3    0  502 -0.27252065498E+03 -0.18235297926E+03  0.17471473049E+02  0.32837019004E+03  0.12699999809E+01 0.  1.
</event>
<event>
 5   0  0.4365492E-02  0.7002564E+03  0.7818609E-02  0.9716794E-01
       -2   -1    0    0    0  501  0.00000000000E+00  0.00000000000E+00  0.16284442757E+03  0.16284442759E+03  0.25500000920E-02 0.  1.
        2   -1    0    0  501    0  0.00000000000E+00  0.00000000000E+00 -0.75280291916E+03  0.75280291917E+03  0.25500000920E-02 0. -1.
    10030    2    1    2    0    0  0.00000000000E+00  0.00000000000E+00 -0.58995849160E+03  0.91564734676E+03  0.70025641148E+03 0.  0.
        4    1    3    3  502    0  0.18047980261E+03  0.28843020103E+03 -0.40298961188E+03  0.52741556689E+03  0.12699999809E+01 0. -1.
       -4    1    3    3    0  502 -0.18047980261E+03 -0.28843020103E+03 -0.18696887972E+03  0.38823177987E+03  0.12699999809E+01 0.  1.
</event>
<event>
 5   0  0.4526837E-02  0.6940803E+03  0.7818609E-02  0.9727410E-01
       -2   -1    0    0    0  501  0.00000000000E+00  0.00000000000E+00  0.46189153714E+03  0.46189153715E+03  0.25500000920E-02 0. -1.
        2   -1    0    0  501    0  0.00000000000E+00  0.00000000000E+00 -0.26074705687E+03  0.26074705688E+03  0.25500000920E-02 0.  1.
    10030    2    1    2    0    0  0.00000000000E+00  0.00000000000E+00  0.20114448027E+03  0.72263859403E+03  0.69408028040E+03 0.  0.
        1    1    3    3  502    0 -0.30419070096E+03  0.15003679806E+03  0.17703681842E+03  0.38260300368E+03  0.50400001928E-02 0. -1.
       -1    1    3    3    0  502  0.30419070096E+03 -0.15003679806E+03  0.24107661856E+02  0.34003559035E+03  0.50400001928E-02 0.  1.
</event>
<event>
 5   0  0.4420645E-02  0.7010507E+03  0.7818609E-02  0.9715437E-01
       -2   -1    0    0    0  501  0.00000000000E+00  0.00000000000E+00  0.30019094869E+03  0.30019094870E+03  0.25500000920E-02 0.  1.
        2   -1    0    0  501    0  0.00000000000E+00  0.00000000000E+00 -0.40929953697E+03  0.40929953698E+03  0.25500000920E-02 0. -1.
    10030    2    1    2    0    0  0.00000000000E+00  0.00000000000E+00 -0.10910858829E+03  0.70949048568E+03  0.70105068663E+03 0.  0.
        5    1    3    3  502    0  0.31180102921E+03  0.16001264955E+03 -0.49807791734E+02  0.35401530468E+03  0.46999998093E+01 0.  1.
       -5    1    3    3    0  502 -0.31180102921E+03 -0.16001264955E+03 -0.59300796552E+02  0.35547518099E+03  0.46999998093E+01 0. -1.
</event>
<event>
 5   0  0.4503289E-02  0.6952115E+03  0.7818609E-02  0.9725456E-01
       -2   -1    0    0    0  501  0.00000000000E+00  0.00000000000E+00  0.14528396037E+03  0.14528396039E+03  0.25500000920E-02 0.  1.
        2   -1    0    0  501    0  0.00000000000E+00  0.00000000000E+00 -0.83167996249E+03  0.83167996249E+03  0.25500000920E-02 0. -1.
    10030    2    1    2    0    0  0.00000000000E+00  0.00000000000E+00 -0.68639600212E+03  0.97696392288E+03  0.69521150370E+03 0.  0.
        2    1    3    3  502    0 -0.28141604391E+03  0.77454159643E+02 -0.60847753696E+03  0.67486224491E+03  0.25500000920E-02 0. -1.
       -2    1    3    3    0  502  0.28141604391E+03 -0.77454159643E+02 -0.77918465165E+02  0.30210167797E+03  0.25500000920E-02 0.  1.
</event>
<event>
 5   0  0.1784625E-02  0.6969983E+03  0.7818609E-02  0.9722379E-01
        4   -1    0    0  501    0  0.00000000000E+00  0.00000000000E+00  0.15103823901E+03  0.15104357829E+03  0.12699999809E+01 0. -1.
       -4   -1    0    0    0  501  0.00000000000E+00  0.00000000000E+00 -0.80409196965E+03  0.80409297258E+03  0.12699999809E+01 0.  1.
    10030    2    1    2    0    0  0.00000000000E+00  0.00000000000E+00 -0.65305373064E+03  0.95513655087E+03  0.69699831830E+03 0.  0.
        5    1    3    3  502    0 -0.18824869228E+03  0.21811607430E+03 -0.57932055014E+02  0.29392244726E+03  0.46999998093E+01 0. -1.
       -5    1    3    3    0  502  0.18824869228E+03 -0.21811607430E+03 -0.59512167563E+03  0.66121410361E+03  0.46999998093E+01 0.  1.
</event>
<event>
 5   0  0.2751729E-02  0.6929716E+03  0.7818609E-02  0.9729328E-01
        1   -1    0    0  501    0  0.00000000000E+00  0.00000000000E+00  0.79894107009E+03  0.79894107011E+03  0.50400001928E-02 0.  1.
       -1   -1    0    0    0  501  0.00000000000E+00  0.00000000000E+00 -0.15026441676E+03  0.15026441685E+03  0.50400001928E-02 0. -1.
    10030    2    1    2    0    0  0.00000000000E+00  0.00000000000E+00  0.64867665333E+03  0.94920548696E+03  0.69297161262E+03 0.  0.
        1    1    3    3  502    0  0.29189909475E+03  0.14332821496E+03  0.48816285985E+03  0.58655863857E+03  0.50400001928E-02 0.  1.
       -1    1    3    3    0  502 -0.29189909475E+03 -0.14332821496E+03  0.16051379348E+03  0.36264684839E+03  0.50400001928E-02 0. -1.
</event>
<event>
 5   0  0.4420645E-02  0.6978780E+03  0.7818609E-02  0.9720868E-01
       -2   -1    0    0    0  501  0.00000000000E+00  0.00000000000E+00  0.59888941438E+03  0.59888941438E+03  0.25500000920E-02 0.  1.
        2   -1    0    0  501    0  0.00000000000E+00  0.00000000000E+00 -0.20330705109E+03  0.20330705111E+03  0.25500000920E-02 0. -1.
    10030    2    1    2    0    0  0.00000000000E+00  0.00000000000E+00  0.39558236329E+03  0.80219646549E+03  0.69787804315E+03 0.  0.
        5    1    3    3  502    0 -0.94112928288E+02 -0.13359272862E+03  0.55214437481E+03  0.57583831154E+03  0.46999998093E+01 0.  1.
       -5    1    3    3    0  502  0.94112928288E+02  0.13359272862E+03 -0.15656201152E+03  0.22635815395E+03  0.46999998093E+01 0. -1.
</event>
<event>
 5   0  0.4526837E-02  0.7051383E+03  0.7818609E-02  0.9708485E-01
       -2   -1    0    0    0  501  0.00000000000E+00  0.00000000000E+00  0.15015540116E+03  0.15015540118E+03  0.25500000920E-02 0. -1.
        2   -1    0    0  501    0  0.00000000000E+00  0.00000000000E+00 -0.82784231681E+03  0.82784231681E+03  0.25500000920E-02 0.  1.
    10030    2    1    2    0    0  0.00000000000E+00  0.00000000000E+00 -0.67768691565E+03  0.97799771799E+03  0.70513827067E+03 0.  0.
        1    1    3    3  502    0  0.30138719211E+03 -0.13183410634E+03 -0.16290991474E+03  0.36708869706E+03  0.50400001928E-02 0. -1.
       -1    1    3    3    0  502 -0.30138719211E+03  0.13183410634E+03 -0.51477700091E+03  0.61090902093E+03  0.50400001928E-02 0.  1.
</event>
<event>
 5   0  0.2777999E-02  0.6944860E+03  0.7818609E-02  0.9726709E-01
       -1   -1    0    0    0  501  0.00000000000E+00  0.00000000000E+00  0.40060801689E+03  0.40060801692E+03  0.50400001928E-02 0. -1.
        1   -1    0    0  501    0  0.00000000000E+00  0.00000000000E+00 -0.30098678179E+03  0.30098678183E+03  0.50400001928E-02 0.  1.
    10030    2    1    2    0    0  0.00000000000E+00  0.00000000000E+00  0.99621235105E+02  0.70159479875E+03  0.69448604821E+03 0.  0.
        5    1    3    3  502    0  0.25976431093E+03  0.18179850372E+03 -0.93156281161E+02  0.33049716475E+03  0.46999998093E+01 0.  1.
       -5    1    3    3    0  502 -0.25976431093E+03 -0.18179850372E+03  0.19277751627E+03  0.37109763401E+03  0.46999998093E+01 0. -1.
</event>
<event>
 5   0  0.2751729E-02  0.7028643E+03  0.7818609E-02  0.9712346E-01
       -1   -1    0    0    0  501  0.00000000000E+00  0.00000000000E+00  0.47432290078E+03  0.47432290081E+03  0.50400001928E-02 0.  1.
        1   -1    0    0  501    0  0.00000000000E+00  0.00000000000E+00 -0.26038078546E+03  0.26038078551E+03  0.50400001928E-02 0. -1.
    10030    2    1    2    0    0  0.00000000000E+00  0.00000000000E+00  0.21394211532E+03  0.73470368632E+03  0.70286433825E+03 0.  0.
        1    1    3    3  502    0  0.18840222150E+03  0.17473960307E+03  0.35757108853E+03  0.44032534486E+03  0.50400001928E-02 0.  1.
       -1    1    3    3    0  502 -0.18840222150E+03 -0.17473960307E+03 -0.14362897321E+03  0.29437834146E+03  0.50400001928E-02 0. -1.
</event>
<event>
 5   0  0.4420645E-02  0.6908129E+03  0.7818609E-02  0.9733074E-01
        2   -1    0    0  501    0  0.00000000000E+00  0.00000000000E+00  0.79174491268E+03  0.79174491268E+03  0.25500000920E-02 0. -1.
       -2   -1    0    0    0  501  0.00000000000E+00  0.00000000000E+00 -0.15068695212E+03  0.15068695214E+03  0.25500000920E-02 0.  1.
    10030    2    1    2    0    0  0.00000000000E+00  0.00000000000E+00  0.64105796056E+03  0.94243186482E+03  0.69081293490E+03 0.  0.
        5    1    3    3  502    0  0.13286048257E+03  0.29999232450E+03  0.46769100210E+03  0.57131800780E+03  0.46999998093E+01 0. -1.
       -5    1    3    3    0  502 -0.13286048257E+03 -0.29999232450E+03  0.17336695846E+03  0.37111385702E+03  0.46999998093E+01 0.  1.
</event>
<event>
 5   0  0.2758681E-02  0.6999872E+03  0.7818609E-02  0.9717254E-01
        1   -1    0    0  501    0  0.00000000000E+00  0.00000000000E+00  0.65389073573E+03  0.65389073575E+03  0.50400001928E-02 0. -1.
       -1   -1    0    0    0  501  0.00000000000E+00  0.00000000000E+00 -0.18733333229E+03  0.18733333236E+03  0.50400001928E-02 0.  1.
    10030    2    1    2    0    0  0.00000000000E+00  0.00000000000E+00  0.46655740344E+03  0.84122406811E+03  0.69998722992E+03 0.  0.
        3    1    3    3  502    0  0.27837474145E+03 -0.13700151536E+03  0.42792698981E+03  0.52856733790E+03  0.10100000352E+00 0. -1.
       -3    1    3    3    0  502 -0.27837474145E+03  0.13700151536E+03  0.38630413631E+02  0.31265673021E+03  0.10100000352E+00 0.  1.
</event>
<event>
 5   0  0.4299912E-02  0.6981937E+03  0.7818609E-02  0.9720326E-01
       -2   -1    0    0    0  501  0.00000000000E+00  0.00000000000E+00  0.20834001280E+03  0.20834001282E+03  0.25500000920E-02 0. -1.
        2   -1    0    0  501    0  0.00000000000E+00  0.00000000000E+00 -0.58495052664E+03  0.58495052664E+03  0.25500000920E-02 0.  1.
    10030    2    1    2    0    0  0.00000000000E+00  0.00000000000E+00 -0.37661051383E+03  0.79329053946E+03  0.69819367003E+03 0.  0.
        3    1    3    3  502    0  0.10313751335E+03  0.22944712967E+03 -0.46331655851E+03  0.52720543962E+03  0.10100000352E+00 0.  1.
       -3    1    3    3    0  502 -0.10313751335E+03 -0.22944712967E+03  0.86706044678E+02  0.26608509984E+03  0.10100000352E+00 0. -1.
</event>
<event>
 5   0  0.2750139E-02  0.6874191E+03  0.7818609E-02  0.9738992E-01
       -1   -1    0    0    0  501  0.00000000000E+00  0.00000000000E+00  0.82154857048E+02  0.82154857202E+02  0.50400001928E-02 0.  1.
        1   -1    0    0  501    0  0.00000000000E+00  0.00000000000E+00 -0.14379705314E+04  0.14379705314E+04  0.50400001928E-02 0. -1.
    10030    2    1    2    0    0  0.00000000000E+00  0.00000000000E+00 -0.13558156744E+04  0.15201253886E+04  0.68741912563E+03 0.  0.
        2    1    3    3  502    0 -0.22414167922E+03  0.22833611129E+03 -0.95551299022E+03  0.10076616231E+04  0.25500000920E-02 0. -1.
       -2    1    3    3    0  502  0.22414167922E+03 -0.22833611129E+03 -0.40030268415E+03  0.51246376558E+03  0.25500000920E-02 0.  1.
</event>
<event>
 5   0  0.4526837E-02  0.6412052E+03  0.7818609E-02  0.9823423E-01
       -2   -1    0    0    0  501  0.00000000000E+00  0.00000000000E+00  0.17488339787E+03  0.17488339789E+03  0.25500000920E-02 0.  1.
        2   -1    0    0  501    0  0.00000000000E+00  0.00000000000E+00 -0.58774035567E+03  0.58774035568E+03  0.25500000920E-02 0. -1.
    10030    2    1    2    0    0  0.00000000000E+00  0.00000000000E+00 -0.41285695781E+03  0.76262375357E+03  0.64120521044E+03 0.  0.
        1    1    3    3  502    0  0.24826970878E+03  0.20246168614E+03 -0.22135235300E+03  0.38939112324E+03  0.50400001928E-02 0. -1.
       -1    1    3    3    0  502 -0.24826970878E+03 -0.20246168614E+03 -0.19150460481E+03  0.37323263033E+03  0.50400001928E-02 0.  1.
</event>
<event>
 5   0  0.1784625E-02  0.7080184E+03  0.7818609E-02  0.9703617E-01
       -4   -1    0    0    0  501  0.00000000000E+00  0.00000000000E+00  0.27512605563E+03  0.27512898681E+03  0.12699999809E+01 0.  1.
        4   -1    0    0  501    0  0.00000000000E+00  0.00000000000E+00 -0.45550316228E+03  0.45550493274E+03  0.12699999809E+01 0. -1.
    10030    2    1    2    0    0  0.00000000000E+00  0.00000000000E+00 -0.18037710665E+03  0.73063391955E+03  0.70801837815E+03 0.  0.
        5    1    3    3  502    0  0.18913356660E+02 -0.30251308691E+03  0.98486273252E+02  0.31873738223E+03  0.46999998093E+01 0.  1.
       -5    1    3    3    0  502 -0.18913356660E+02  0.30251308691E+03 -0.27886337991E+03  0.41189653733E+03  0.46999998093E+01 0. -1.
</event>
<event>
 5   0  0.1784625E-02  0.6431914E+03  0.7818609E-02  0.9819640E-01
       -3   -1    0    0    0  501  0.00000000000E+00  0.00000000000E+00  0.48093295230E+03  0.48093296291E+03  0.10100000352E+00 0.  1.
        3   -1    0    0  501    0  0.00000000000E+00  0.00000000000E+00 -0.21504825286E+03  0.21504827658E+03  0.10100000352E+00 0. -1.
    10030    2    1    2    0    0  0.00000000000E+00  0.00000000000E+00  0.26588469944E+03  0.69598123948E+03  0.64319142743E+03 0.  0.
        5    1    3    3  502    0  0.77301446102E+02 -0.13906981441E+03 -0.16943083873E+03  0.23247543087E+03  0.46999998093E+01 0. -1.
       -5    1    3    3    0  502 -0.77301446102E+02  0.13906981441E+03  0.43531553817E+03  0.46350580861E+03  0.46999998093E+01 0.  1.
</event>
<event>
 5   0  0.4365492E-02  0.7101958E+03  0.7818609E-02  0.9699953E-01
       -2   -1    0    0    0  501  0.00000000000E+00  0.00000000000E+00  0.39691353899E+03  0.39691353900E+03  0.25500000920E-02 0. -1.
        2   -1    0    0  501    0  0.00000000000E+00  0.00000000000E+00 -0.31768759965E+03  0.31768759966E+03  0.25500000920E-02 0.  1.
    10030    2    1    2    0    0  0.00000000000E+00  0.00000000000E+00  0.79225939344E+02  0.71460113866E+03  0.71019577436E+03 0.  0.
        4    1    3    3  502    0  0.24279296940E+03  0.21257834074E+02  0.29946395211E+03  0.38610956089E+03  0.12699999809E+01 0. -1.
       -4    1    3    3    0  502 -0.24279296940E+03 -0.21257834074E+02 -0.22023801276E+03  0.32849157777E+03  0.12699999809E+01 0.  1.
</event>
<event>
 5   0  0.2750139E-02  0.6606880E+03  0.7818609E-02  0.9786928E-01
       -1   -1    0    0    0  501  0.00000000000E+00  0.00000000000E+00  0.71455718984E+03  0.71455718986E+03  0.50400001928E-02 0.  1.
        1   -1    0    0  501    0  0.00000000000E+00  0.00000000000E+00 -0.15271995984E+03  0.15271995992E+03  0.50400001928E-02 0. -1.
    10030    2    1    2    0    0  0.00000000000E+00  0.00000000000E+00  0.56183723000E+03  0.86727714977E+03  0.66068796077E+03 0.  0.
        2    1    3    3  502    0 -0.12699354617E+03 -0.27229943350E+03  0.46115790881E+03  0.55040072595E+03  0.25500000920E-02 0.  1.
       -2    1    3    3    0  502  0.12699354617E+03  0.27229943350E+03  0.10067932119E+03  0.31687642383E+03  0.25500000920E-02 0. -1.
</event>
<event>
 5   0  0.1784625E-02  0.6978924E+03  0.7818609E-02  0.9720843E-01
        4   -1    0    0  501    0  0.00000000000E+00  0.00000000000E+00  0.49383102988E+03  0.49383266293E+03  0.12699999809E+01 0.  1.
       -4   -1    0    0    0  501  0.00000000000E+00  0.00000000000E+00 -0.24656536593E+03  0.24656863665E+03  0.12699999809E+01 0. -1.
    10030    2    1    2    0    0  0.00000000000E+00  0.00000000000E+00  0.24726566395E+03  0.74040129957E+03  0.69789238128E+03 0.  0.
        2    1    3    3  502    0  0.31708396223E+03  0.14352332637E+03  0.97168280937E+02  0.36136250379E+03  0.25500000920E-02 0. -1.
       -2    1    3    3    0  502 -0.31708396223E+03 -0.14352332637E+03  0.15009738301E+03  0.37903879579E+03  0.25500000920E-02 0.  1.
</event>
<event>
 5   0  0.2758681E-02  0.6943783E+03  0.7818609E-02  0.9726895E-01
        1   -1    0    0  501    0  0.00000000000E+00  0.00000000000E+00  0.86772440467E+03  0.86772440469E+03  0.50400001928E-02 0. -1.
       -1   -1    0    0    0  501  0.00000000000E+00  0.00000000000E+00 -0.13891542151E+03  0.13891542160E+03  0.50400001928E-02 0.  1.
    10030    2    1    2    0    0  0.00000000000E+00  0.00000000000E+00  0.72880898316E+03  0.10066398263E+04  0.69437828735E+03 0.  0.
        3    1    3    3  502    0 -0.12110509552E+03 -0.56787096090E+02 -0.10006318077E+03  0.16704451140E+03  0.10100000352E+00 0.  1.
       -3    1    3    3    0  502  0.12110509552E+03  0.56787096090E+02  0.82887216393E+03  0.83959531489E+03  0.10100000352E+00 0. -1.
</event>
<event>
 5   0  0.2750139E-02  0.7058435E+03  0.7818609E-02  0.9707291E-01
        1   -1    0    0  501    0  0.00000000000E+00  0.00000000000E+00  0.38764987820E+03  0.38764987823E+03  0.50400001928E-02 0. -1.
       -1   -1    0    0    0  501  0.00000000000E+00  0.00000000000E+00 -0.32130477451E+03  0.32130477455E+03  0.50400001928E-02 0.  1.
    10030    2    1    2    0    0  0.00000000000E+00  0.00000000000E+00  0.66345103694E+02  0.70895465278E+03  0.70584348613E+03 0.  0.
        2    1    3    3  502    0  0.31523137407E+03 -0.63847161714E+02  0.17909359481E+03  0.36813284962E+03  0.25500000920E-02 0. -1.
       -2    1    3    3    0  502 -0.31523137407E+03  0.63847161714E+02 -0.11274849111E+03  0.34082180317E+03  0.25500000920E-02 0.  1.
</event>
<event>
 5   0  0.2751729E-02  0.8833333E+03  0.7818609E-02  0.9446659E-01
        1   -1    0    0  501    0  0.00000000000E+00  0.00000000000E+00  0.40344341304E+03  0.40344341307E+03  0.50400001928E-02 0.  1.
       -1   -1    0    0    0  501  0.00000000000E+00  0.00000000000E+00 -0.48351130329E+03  0.48351130332E+03  0.50400001928E-02 0. -1.
    10030    2    1    2    0    0  0.00000000000E+00  0.00000000000E+00 -0.80067890255E+02  0.88695471639E+03  0.88333334697E+03 0.  0.
        1    1    3    3  502    0  0.20180550131E+03  0.53982648803E+02 -0.43076919024E+03  0.47875012483E+03  0.50400001928E-02 0. -1.
       -1    1    3    3    0  502 -0.20180550131E+03 -0.53982648803E+02  0.35070129999E+03  0.40820459156E+03  0.50400001928E-02 0.  1.
</event>
<event>
 5   0  0.2758681E-02  0.6838526E+03  0.7818609E-02  0.9745252E-01
       -1   -1    0    0    0  501  0.00000000000E+00  0.00000000000E+00  0.79828085892E+02  0.79828086051E+02  0.50400001928E-02 0. -1.
        1   -1    0    0  501    0  0.00000000000E+00  0.00000000000E+00 -0.14645669928E+04  0.14645669928E+04  0.50400001928E-02 0.  1.
    10030    2    1    2    0    0  0.00000000000E+00  0.00000000000E+00 -0.13847389069E+04  0.15443950789E+04  0.68385255670E+03 0.  0.
        3    1    3    3  502    0 -0.18155179128E+03 -0.12222990390E+03 -0.99089878902E+02  0.24024990453E+03  0.10100000352E+00 0. -1.
       -3    1    3    3    0  502  0.18155179128E+03  0.12222990390E+03 -0.12856490280E+04  0.13041451743E+04  0.10100000352E+00 0.  1.
</event>
<event>
 5   0  0.2777999E-02  0.6941682E+03  0.7818609E-02  0.9727258E-01
        1   -1    0    0  501    0  0.00000000000E+00  0.00000000000E+00  0.19788566915E+03  0.19788566922E+03  0.50400001928E-02 0. -1.
       -1   -1    0    0    0  501  0.00000000000E+00  0.00000000000E+00 -0.60877262321E+03  0.60877262323E+03  0.50400001928E-02 0.  1.
    10030    2    1    2    0    0  0.00000000000E+00  0.00000000000E+00 -0.41088695405E+03  0.80665829244E+03  0.69416821575E+03 0.  0.
        5    1    3    3  502    0  0.83296895785E+01 -0.12976418628E+01 -0.60861664558E+03  0.60869317301E+03  0.46999998093E+01 0.  1.
       -5    1    3    3    0  502 -0.83296895785E+01  0.12976418628E+01  0.19772969152E+03  0.19796511943E+03  0.46999998093E+01 0. -1.
</event>
<event>
 5   0  0.2777999E-02  0.6996877E+03  0.7818609E-02  0.9717766E-01
        1   -1    0    0  501    0  0.00000000000E+00  0.00000000000E+00  0.81516821462E+03  0.81516821464E+03  0.50400001928E-02 0. -1.
       -1   -1    0    0    0  501  0.00000000000E+00  0.00000000000E+00 -0.15014169013E+03  0.15014169022E+03  0.50400001928E-02 0.  1.
    10030    2    1    2    0    0  0.00000000000E+00  0.00000000000E+00  0.66502652449E+03  0.96530990485E+03  0.69968774045E+03 0.  0.
        5    1    3    3  502    0  0.53598570120E+02  0.26524530558E+03  0.26680890252E+02  0.27195925937E+03  0.46999998093E+01 0.  1.
       -5    1    3    3    0  502 -0.53598570120E+02 -0.26524530558E+03  0.63834563424E+03  0.69335064549E+03  0.46999998093E+01 0. -1.
</event>
<event>
 5   0  0.4365492E-02  0.6986634E+03  0.7818609E-02  0.9719521E-01
        2   -1    0    0  501    0  0.00000000000E+00  0.00000000000E+00  0.27418203644E+03  0.27418203645E+03  0.25500000920E-02 0.  1.
       -2   -1    0    0    0  501  0.00000000000E+00  0.00000000000E+00 -0.44507886621E+03  0.44507886622E+03  0.25500000920E-02 0. -1.
    10030    2    1    2    0    0  0.00000000000E+00  0.00000000000E+00 -0.17089682977E+03  0.71926090267E+03  0.69866338081E+03 0.  0.
        4    1    3    3  502    0  0.31207546120E+03 -0.14112939064E+03 -0.15619422346E+03  0.37643969866E+03  0.12699999809E+01 0. -1.
       -4    1    3    3    0  502 -0.31207546120E+03  0.14112939064E+03 -0.14702606308E+02  0.34282120401E+03  0.12699999809E+01 0.  1.
</event>
<event>
 5   0  0.2684924E-02  0.7020851E+03  0.7818609E-02  0.9713673E-01
        1   -1    0    0  501    0  0.00000000000E+00  0.00000000000E+00  0.23557520935E+03  0.23557520940E+03  0.50400001928E-02 0.  1.
       -1   -1    0    0    0  501  0.00000000000E+00  0.00000000000E+00 -0.52310626508E+03  0.52310626511E+03  0.50400001928E-02 0. -1.
    10030    2    1    2    0    0  0.00000000000E+00  0.00000000000E+00 -0.28753105574E+03  0.75868147451E+03  0.70208508868E+03 0.  0.
        4    1    3    3  502    0  0.20690878597E+02 -0.32545291743E+03 -0.28416833009E+03  0.43255169245E+03  0.12699999809E+01 0. -1.
       -4    1    3    3    0  502 -0.20690878597E+02  0.32545291743E+03 -0.33627256476E+01  0.32612978205E+03  0.12699999809E+01 0.  1.
</event>
<event>
 5   0  0.4299912E-02  0.7125492E+03  0.7818609E-02  0.9696009E-01
       -2   -1    0    0    0  501  0.00000000000E+00  0.00000000000E+00  0.93609599153E+02  0.93609599188E+02  0.25500000920E-02 0. -1.
        2   -1    0    0  501    0  0.00000000000E+00  0.00000000000E+00 -0.13559675147E+04  0.13559675147E+04  0.25500000920E-02 0.  1.
    10030    2    1    2    0    0  0.00000000000E+00  0.00000000000E+00 -0.12623579155E+04  0.14495771139E+04  0.71254915771E+03 0.  0.
        3    1    3    3  502    0  0.30271863161E+03  0.14197522954E+03 -0.88146260608E+03  0.94274698188E+03  0.10100000352E+00 0.  1.
       -3    1    3    3    0  502 -0.30271863161E+03 -0.14197522954E+03 -0.38089530943E+03  0.50683013197E+03  0.10100000352E+00 0. -1.
</event>
<event>
 5   0  0.4526837E-02  0.6783431E+03  0.7818609E-02  0.9755002E-01
       -2   -1    0    0    0  501  0.00000000000E+00  0.00000000000E+00  0.58634180549E+03  0.58634180549E+03  0.25500000920E-02 0.  1.
        2   -1    0    0  501    0  0.00000000000E+00  0.00000000000E+00 -0.19619500621E+03  0.19619500623E+03  0.25500000920E-02 0. -1.
    10030    2    1    2    0    0  0.00000000000E+00  0.00000000000E+00  0.39014679928E+03  0.78253681172E+03  0.67834308186E+03 0.  0.
        1    1    3    3  502    0  0.52918434982E+02  0.98475837050E+00 -0.19140166069E+03  0.19858480871E+03  0.50400001928E-02 0. -1.
       -1    1    3    3    0  502 -0.52918434982E+02 -0.98475837050E+00  0.58154845997E+03  0.58395200301E+03  0.50400001928E-02 0.  1.
</event>
<event>
 5   0  0.2750139E-02  0.7025100E+03  0.7818609E-02  0.9712949E-01
       -1   -1    0    0    0  501  0.00000000000E+00  0.00000000000E+00  0.16903557416E+03  0.16903557424E+03  0.50400001928E-02 0.  1.
        1   -1    0    0  501    0  0.00000000000E+00  0.00000000000E+00 -0.72990601035E+03  0.72990601037E+03  0.50400001928E-02 0. -1.
    10030    2    1    2    0    0  0.00000000000E+00  0.00000000000E+00 -0.56087043619E+03  0.89894158461E+03  0.70251001868E+03 0.  0.
        2    1    3    3  502    0  0.26750159127E+02  0.32846733665E+03 -0.43596869149E+03  0.54651172195E+03  0.25500000920E-02 0. -1.
       -2    1    3    3    0  502 -0.26750159127E+02 -0.32846733665E+03 -0.12490174470E+03  0.35242986266E+03  0.25500000920E-02 0.  1.
</event>
<event>
 5   0  0.4526837E-02  0.6729789E+03  0.7818609E-02  0.9764591E-01
       -2   -1    0    0    0  501  0.00000000000E+00  0.00000000000E+00  0.16929775294E+03  0.16929775296E+03  0.25500000920E-02 0.  1.
        2   -1    0    0  501    0  0.00000000000E+00  0.00000000000E+00 -0.66879294436E+03  0.66879294437E+03  0.25500000920E-02 0. -1.
    10030    2    1    2    0    0  0.00000000000E+00  0.00000000000E+00 -0.49949519142E+03  0.83809069733E+03  0.67297887834E+03 0.  0.
        1    1    3    3  502    0  0.28224336112E+03 -0.69192113116E+02 -0.38492639993E+02  0.29313912529E+03  0.50400001928E-02 0.  1.
       -1    1    3    3    0  502 -0.28224336112E+03  0.69192113116E+02 -0.46100255143E+03  0.54495157204E+03  0.50400001928E-02 0. -1.
</event>
<event>
 5   0  0.4299912E-02  0.7077400E+03  0.7818609E-02  0.9704086E-01
        2   -1    0    0  501    0  0.00000000000E+00  0.00000000000E+00  0.13904538102E+04  0.13904538102E+04  0.25500000920E-02 0. -1.
       -2   -1    0    0    0  501  0.00000000000E+00  0.00000000000E+00 -0.90059800954E+02  0.90059800990E+02  0.25500000920E-02 0.  1.
    10030    2    1    2    0    0  0.00000000000E+00  0.00000000000E+00  0.13003940092E+04  0.14805136112E+04  0.70774004665E+03 0.  0.
        3    1    3    3  502    0  0.20068108206E+03 -0.28861226232E+03  0.73527412083E+03  0.81498342169E+03  0.10100000352E+00 0.  1.
       -3    1    3    3    0  502 -0.20068108206E+03  0.28861226232E+03  0.56511988841E+03  0.66553018950E+03  0.10100000352E+00 0. -1.
</event>
<event>
 5   0  0.2750139E-02  0.7035581E+03  0.7818609E-02  0.9711167E-01
        1   -1    0    0  501    0  0.00000000000E+00  0.00000000000E+00  0.19155016114E+03  0.19155016120E+03  0.50400001928E-02 0.  1.
       -1   -1    0    0    0  501  0.00000000000E+00  0.00000000000E+00 -0.64603711412E+03  0.64603711414E+03  0.50400001928E-02 0. -1.
    10030    2    1    2    0    0  0.00000000000E+00  0.00000000000E+00 -0.45448695299E+03  0.83758727535E+03  0.70355813789E+03 0.  0.
        2    1    3    3  502    0  0.19118549386E+03  0.29323139869E+03 -0.18579815661E+03  0.39630480851E+03  0.25500000920E-02 0. -1.
       -2    1    3    3    0  502 -0.19118549386E+03 -0.29323139869E+03 -0.26868879637E+03  0.44128246684E+03  0.25500000920E-02 0.  1.
</event>
<event>
 5   0  0.4299912E-02  0.6911142E+03  0.7818609E-02  0.9732550E-01
        2   -1    0    0  501    0  0.00000000000E+00  0.00000000000E+00  0.28463987768E+03  0.28463987769E+03  0.25500000920E-02 0. -1.
       -2   -1    0    0    0  501  0.00000000000E+00  0.00000000000E+00 -0.41951147047E+03  0.41951147048E+03  0.25500000920E-02 0.  1.
    10030    2    1    2    0    0  0.00000000000E+00  0.00000000000E+00 -0.13487159280E+03  0.70415134817E+03  0.69111415452E+03 0.  0.
        3    1    3    3  502    0 -0.23403957012E+01 -0.28445029927E+03  0.13245959508E+03  0.31378815264E+03  0.10100000352E+00 0. -1.
       -3    1    3    3    0  502  0.23403957012E+01  0.28445029927E+03 -0.26733118787E+03  0.39036319552E+03  0.10100000352E+00 0.  1.
</event>
<event>
 5   0  0.2684924E-02  0.7066499E+03  0.7818609E-02  0.9705927E-01
       -1   -1    0    0    0  501  0.00000000000E+00  0.00000000000E+00  0.28553528116E+03  0.28553528120E+03  0.50400001928E-02 0. -1.
        1   -1    0    0  501    0  0.00000000000E+00  0.00000000000E+00 -0.43720877310E+03  0.43720877313E+03  0.50400001928E-02 0.  1.
    10030    2    1    2    0    0  0.00000000000E+00  0.00000000000E+00 -0.15167349195E+03  0.72274405433E+03  0.70664992742E+03 0.  0.
        4    1    3    3  502    0 -0.32753417382E+03 -0.10434626510E+03 -0.15936774042E+03  0.37890165960E+03  0.12699999809E+01 0. -1.
       -4    1    3    3    0  502  0.32753417382E+03  0.10434626510E+03  0.76942484756E+01  0.34384239474E+03  0.12699999809E+01 0.  1.
</event>
<event>
 5   0  0.1784625E-02  0.7063764E+03  0.7818609E-02  0.9706389E-01
       -4   -1    0    0    0  501  0.00000000000E+00  0.00000000000E+00  0.32948253256E+03  0.32948498018E+03  0.12699999809E+01 0.  1.
        4   -1    0    0  501    0  0.00000000000E+00  0.00000000000E+00 -0.37859455627E+03  0.37859668638E+03  0.12699999809E+01 0. -1.
    10030    2    1    2    0    0  0.00000000000E+00  0.00000000000E+00 -0.49112023710E+02  0.70808166657E+03  0.70637642631E+03 0.  0.
        4    1    3    3  502    0  0.90018274159E+02  0.59717673615E+02  0.31251577699E+03  0.33066178187E+03  0.12699999809E+01 0.  1.
       -4    1    3    3    0  502 -0.90018274159E+02 -0.59717673615E+02 -0.36162780070E+03  0.37741988469E+03  0.12699999809E+01 0. -1.
</event>
<event>
 5   0  0.2684924E-02  0.7061098E+03  0.7818609E-02  0.9706840E-01
       -1   -1    0    0    0  501  0.00000000000E+00  0.00000000000E+00  0.43199566921E+03  0.43199566924E+03  0.50400001928E-02 0. -1.
        1   -1    0    0  501    0  0.00000000000E+00  0.00000000000E+00 -0.28853934074E+03  0.28853934079E+03  0.50400001928E-02 0.  1.
    10030    2    1    2    0    0  0.00000000000E+00  0.00000000000E+00  0.14345632846E+03  0.72053501002E+03  0.70610975244E+03 0.  0.
        4    1    3    3  502    0 -0.14837777251E+03 -0.28137556171E+03  0.22801702400E+03  0.39138414152E+03  0.12699999809E+01 0. -1.
       -4    1    3    3    0  502  0.14837777251E+03  0.28137556171E+03 -0.84560695537E+02  0.32915086850E+03  0.12699999809E+01 0.  1.
</event>
<event>
 5   0  0.4526837E-02  0.6932528E+03  0.7818609E-02  0.9728841E-01
        2   -1    0    0  501    0  0.00000000000E+00  0.00000000000E+00  0.73609751997E+03  0.73609751997E+03  0.25500000920E-02 0. -1.
       -2   -1    0    0    0  501  0.00000000000E+00  0.00000000000E+00 -0.16322546675E+03  0.16322546677E+03  0.25500000920E-02 0.  1.
    10030    2    1    2    0    0  0.00000000000E+00  0.00000000000E+00  0.57287205322E+03  0.89932298674E+03  0.69325280030E+03 0.  0.
        1    1    3    3  502    0 -0.19587032418E+03  0.10706755758E+03  0.63044299977E+03  0.66879520166E+03  0.50400001928E-02 0. -1.
       -1    1    3    3    0  502  0.19587032418E+03 -0.10706755758E+03 -0.57570946548E+02  0.23052778508E+03  0.50400001928E-02 0.  1.
</event>
<event>
 5   0  0.2751729E-02  0.6996885E+03  0.7818609E-02  0.9717765E-01
        1   -1    0    0  501    0  0.00000000000E+00  0.00000000000E+00  0.10892717486E+04  0.10892717487E+04  0.50400001928E-02 0. -1.
       -1   -1    0    0    0  501  0.00000000000E+00  0.00000000000E+00 -0.11236038984E+03  0.11236038995E+03  0.50400001928E-02 0.  1.
    10030    2    1    2    0    0  0.00000000000E+00  0.00000000000E+00  0.97691135881E+03  0.12016321386E+04  0.69968849752E+03 0.  0.
        1    1    3    3  502    0  0.45674223471E+02 -0.10117959142E+03  0.10582215860E+04  0.10640283687E+04  0.50400001928E-02 0. -1.
       -1    1    3    3    0  502 -0.45674223471E+02  0.10117959142E+03 -0.81310227184E+02  0.13760376986E+03  0.50400001928E-02 0.  1.
</event>
<event>
 5   0  0.2750139E-02  0.7010060E+03  0.7818609E-02  0.9715513E-01
       -1   -1    0    0    0  501  0.00000000000E+00  0.00000000000E+00  0.24619951558E+03  0.24619951563E+03  0.50400001928E-02 0.  1.
        1   -1    0    0  501    0  0.00000000000E+00  0.00000000000E+00 -0.49899509824E+03  0.49899509827E+03  0.50400001928E-02 0. -1.
    10030    2    1    2    0    0  0.00000000000E+00  0.00000000000E+00 -0.25279558267E+03  0.74519461390E+03  0.70100599567E+03 0.  0.
        2    1    3    3  502    0  0.32630472104E+03  0.12765023624E+03 -0.13608237580E+03  0.37588265030E+03  0.25500000920E-02 0. -1.
       -2    1    3    3    0  502 -0.32630472104E+03 -0.12765023624E+03 -0.11671320686E+03  0.36931196359E+03  0.25500000920E-02 0.  1.
</event>
<event>
 5   0  0.4503289E-02  0.6992176E+03  0.7818609E-02  0.9718571E-01
        2   -1    0    0  501    0  0.00000000000E+00  0.00000000000E+00  0.14388251157E+04  0.14388251157E+04  0.25500000920E-02 0. -1.
       -2   -1    0    0    0  501  0.00000000000E+00  0.00000000000E+00 -0.84948683091E+02  0.84948683129E+02  0.25500000920E-02 0.  1.
    10030    2    1    2    0    0  0.00000000000E+00  0.00000000000E+00  0.13538764326E+04  0.15237737989E+04  0.69921755931E+03 0.  0.
        2    1    3    3  502    0 -0.15173243149E+03  0.15398129013E+03  0.12757115733E+04  0.12938983680E+04  0.25500000920E-02 0. -1.
       -2    1    3    3    0  502  0.15173243149E+03 -0.15398129013E+03  0.78164859363E+02  0.22987543088E+03  0.25500000920E-02 0.  1.
</event>
<event>
 5   0  0.4503289E-02  0.6982342E+03  0.7818609E-02  0.9720257E-01
       -2   -1    0    0    0  501  0.00000000000E+00  0.00000000000E+00  0.14905634967E+03  0.14905634969E+03  0.25500000920E-02 0.  1.
        2   -1    0    0  501    0  0.00000000000E+00  0.00000000000E+00 -0.81769590083E+03  0.81769590084E+03  0.25500000920E-02 0. -1.
    10030    2    1    2    0    0  0.00000000000E+00  0.00000000000E+00 -0.66863955117E+03  0.96675225053E+03  0.69823424759E+03 0.  0.
        2    1    3    3  502    0  0.11274956744E+03  0.27453377626E+03 -0.79764515430E+02  0.30731683520E+03  0.25500000920E-02 0.  1.
       -2    1    3    3    0  502 -0.11274956744E+03 -0.27453377626E+03 -0.58887503574E+03  0.65943541533E+03  0.25500000920E-02 0. -1.
</event>
<event>
 5   0  0.4420645E-02  0.7214823E+03  0.7818609E-02  0.9681184E-01
       -2   -1    0    0    0  501  0.00000000000E+00  0.00000000000E+00  0.13149576033E+03  0.13149576036E+03  0.25500000920E-02 0. -1.
        2   -1    0    0  501    0  0.00000000000E+00  0.00000000000E+00 -0.98964541331E+03  0.98964541332E+03  0.25500000920E-02 0.  1.
    10030    2    1    2    0    0  0.00000000000E+00  0.00000000000E+00 -0.85814965298E+03  0.11211411737E+04  0.72148229666E+03 0.  0.
        5    1    3    3  502    0 -0.42735769713E+02 -0.35712190924E+03 -0.47162224086E+03  0.59313744794E+03  0.46999998093E+01 0.  1.
       -5    1    3    3    0  502  0.42735769713E+02  0.35712190924E+03 -0.38652741212E+03  0.52800372574E+03  0.46999998093E+01 0. -1.
</event>
<event>
 5   0  0.4526837E-02  0.7018912E+03  0.7818609E-02  0.9714003E-01
       -2   -1    0    0    0  501  0.00000000000E+00  0.00000000000E+00  0.32337767165E+03  0.32337767166E+03  0.25500000920E-02 0.  1.
        2   -1    0    0  501    0  0.00000000000E+00  0.00000000000E+00 -0.38086373569E+03  0.38086373570E+03  0.25500000920E-02 0. -1.
    10030    2    1    2    0    0  0.00000000000E+00  0.00000000000E+00 -0.57486064043E+02  0.70424140735E+03  0.70189123963E+03 0.  0.
        1    1    3    3  502    0  0.26986890754E+03  0.15436963341E+03 -0.19208745414E+03  0.36545423933E+03  0.50400001928E-02 0. -1.
       -1    1    3    3    0  502 -0.26986890754E+03 -0.15436963341E+03  0.13460139010E+03  0.33878716803E+03  0.50400001928E-02 0.  1.
</event>
<event>
 5   0  0.2751729E-02  0.7024963E+03  0.7818609E-02  0.9712973E-01
        1   -1    0    0  501    0  0.00000000000E+00  0.00000000000E+00  0.18148237399E+03  0.18148237406E+03  0.50400001928E-02 0. -1.
       -1   -1    0    0    0  501  0.00000000000E+00  0.00000000000E+00 -0.67981953529E+03  0.67981953531E+03  0.50400001928E-02 0.  1.
    10030    2    1    2    0    0  0.00000000000E+00  0.00000000000E+00 -0.49833716129E+03  0.86130190937E+03  0.70249630088E+03 0.  0.
        1    1    3    3  502    0  0.33703186744E+01 -0.70148781637E+02  0.17278644519E+03  0.18651371607E+03  0.50400001928E-02 0. -1.
       -1    1    3    3    0  502 -0.33703186744E+01  0.70148781637E+02 -0.67112360649E+03  0.67478819330E+03  0.50400001928E-02 0.  1.
</event>
<event>
 5   0  0.4365492E-02  0.6968494E+03  0.7818609E-02  0.9722635E-01
       -2   -1    0    0    0  501  0.00000000000E+00  0.00000000000E+00  0.15145456542E+03  0.15145456544E+03  0.25500000920E-02 0. -1.
        2   -1    0    0  501    0  0.00000000000E+00  0.00000000000E+00 -0.80155897715E+03  0.80155897715E+03  0.25500000920E-02 0.  1.
    10030    2    1    2    0    0  0.00000000000E+00  0.00000000000E+00 -0.65010441173E+03  0.95301354259E+03  0.69684938560E+03 0.  0.
        4    1    3    3  502    0 -0.50948052453E+01 -0.22255769551E+03 -0.69161140663E+03  0.72655752391E+03  0.12699999809E+01 0.  1.
       -4    1    3    3    0  502  0.50948052453E+01  0.22255769551E+03  0.41506994896E+02  0.22645601868E+03  0.12699999809E+01 0. -1.
</event>
<event>
 5   0  0.4420645E-02  0.7114833E+03  0.7818609E-02  0.9697793E-01
        2   -1    0    0  501    0  0.00000000000E+00  0.00000000000E+00  0.21263806264E+03  0.21263806266E+03  0.25500000920E-02 0. -1.
       -2   -1    0    0    0  501  0.00000000000E+00  0.00000000000E+00 -0.59515271999E+03  0.59515272000E+03  0.25500000920E-02 0.  1.
    10030    2    1    2    0    0  0.00000000000E+00  0.00000000000E+00 -0.38251465735E+03  0.80779078266E+03  0.71148329949E+03 0.  0.
        5    1    3    3  502    0 -0.18156593841E+03 -0.75039658941E+01 -0.53843955189E+03  0.56829722903E+03  0.46999998093E+01 0.  1.
       -5    1    3    3    0  502  0.18156593841E+03  0.75039658941E+01  0.15592489453E+03  0.23949355362E+03  0.46999998093E+01 0. -1.
</event>
<event>
 5   0  0.4299912E-02  0.7029860E+03  0.7818609E-02  0.9712139E-01
        2   -1    0    0  501    0  0.00000000000E+00  0.00000000000E+00  0.15055262251E+04  0.15055262251E+04  0.25500000920E-02 0.  1.
       -2   -1    0    0    0  501  0.00000000000E+00  0.00000000000E+00 -0.82062549071E+02  0.82062549111E+02  0.25500000920E-02 0. -1.
    10030    2    1    2    0    0  0.00000000000E+00  0.00000000000E+00  0.14234636760E+04  0.15875887742E+04  0.70298597357E+03 0.  0.
        3    1    3    3  502    0  0.20415648158E+03  0.18795626499E+03  0.11989281626E+04  0.12306243033E+04  0.10100000352E+00 0.  1.
       -3    1    3    3    0  502 -0.20415648158E+03 -0.18795626499E+03  0.22453551340E+03  0.35696447092E+03  0.10100000352E+00 0. -1.
</event>
<event>
 5   0  0.2751729E-02  0.7008452E+03  0.7818609E-02  0.9715788E-01
       -1   -1    0    0    0  501  0.00000000000E+00  0.00000000000E+00  0.28442856575E+03  0.28442856580E+03  0.50400001928E-02 0. -1.
        1   -1    0    0  501    0  0.00000000000E+00  0.00000000000E+00 -0.43172883445E+03  0.43172883448E+03  0.50400001928E-02 0.  1.
    10030    2    1    2    0    0  0.00000000000E+00  0.00000000000E+00 -0.14730026869E+03  0.71615740028E+03  0.70084524170E+03 0.  0.
        1    1    3    3  502    0 -0.74058248516E+02 -0.16302441609E+03  0.23415255466E+03  0.29476940699E+03  0.50400001928E-02 0. -1.
       -1    1    3    3    0  502  0.74058248516E+02  0.16302441609E+03 -0.38145282336E+03  0.42138799329E+03  0.50400001928E-02 0.  1.
</event>
<event>
 5   0  0.1784625E-02  0.6867790E+03  0.7818609E-02  0.9740113E-01
        4   -1    0    0  501    0  0.00000000000E+00  0.00000000000E+00  0.32121859659E+03  0.32122110717E+03  0.12699999809E+01 0. -1.
       -4   -1    0    0    0  501  0.00000000000E+00  0.00000000000E+00 -0.36708562294E+03  0.36708781983E+03  0.12699999809E+01 0.  1.
    10030    2    1    2    0    0  0.00000000000E+00  0.00000000000E+00 -0.45867026355E+02  0.68830892701E+03  0.68677900004E+03 0.  0.
        2    1    3    3  502    0  0.22412706316E+03 -0.20906574950E+03 -0.17811681370E+03  0.35449545467E+03  0.25500000920E-02 0.  1.
       -2    1    3    3    0  502 -0.22412706316E+03  0.20906574950E+03  0.13224978735E+03  0.33381347234E+03  0.25500000920E-02 0. -1.
</event>
<event>
 5   0  0.2750139E-02  0.6953681E+03  0.7818609E-02  0.9725186E-01
       -1   -1    0    0    0  501  0.00000000000E+00  0.00000000000E+00  0.52027018675E+03  0.52027018678E+03  0.50400001928E-02 0.  1.
        1   -1    0    0  501    0  0.00000000000E+00  0.00000000000E+00 -0.23234891269E+03  0.23234891274E+03  0.50400001928E-02 0. -1.
    10030    2    1    2    0    0  0.00000000000E+00  0.00000000000E+00  0.28792127407E+03  0.75261909952E+03  0.69536813912E+03 0.  0.
        2    1    3    3  502    0 -0.18058288958E+03 -0.28528502010E+01 -0.17759557814E+03  0.25329529831E+03  0.25500000920E-02 0. -1.
       -2    1    3    3    0  502  0.18058288958E+03  0.28528502010E+01  0.46551685221E+03  0.49932380121E+03  0.25500000920E-02 0.  1.
</event>
<event>
 5   0  0.4503289E-02  0.6993613E+03  0.7818609E-02  0.9718325E-01
       -2   -1    0    0    0  501  0.00000000000E+00  0.00000000000E+00  0.11348666831E+03  0.11348666834E+03  0.25500000920E-02 0. -1.
        2   -1    0    0  501    0  0.00000000000E+00  0.00000000000E+00 -0.10774531299E+04  0.10774531299E+04  0.25500000920E-02 0.  1.
    10030    2    1    2    0    0  0.00000000000E+00  0.00000000000E+00 -0.96396646162E+03  0.11909397983E+04  0.69936132577E+03 0.  0.
        2    1    3    3  502    0  0.15703710889E+03 -0.31161240528E+03 -0.52057633458E+03  0.62670779860E+03  0.25500000920E-02 0. -1.
       -2    1    3    3    0  502 -0.15703710889E+03  0.31161240528E+03 -0.44339012704E+03  0.56423199967E+03  0.25500000920E-02 0.  1.
</event>
<event>
 5   0  0.4365492E-02  0.6292280E+03  0.7818609E-02  0.9846557E-01
       -2   -1    0    0    0  501  0.00000000000E+00  0.00000000000E+00  0.74570659125E+03  0.74570659126E+03  0.25500000920E-02 0. -1.
        2   -1    0    0  501    0  0.00000000000E+00  0.00000000000E+00 -0.13273580076E+03  0.13273580078E+03  0.25500000920E-02 0.  1.
    10030    2    1    2    0    0  0.00000000000E+00  0.00000000000E+00  0.61297079050E+03  0.87844239204E+03  0.62922797627E+03 0.  0.
        4    1    3    3  502    0 -0.18943965207E+03 -0.51133065061E+02 -0.36839522283E+02  0.19965153499E+03  0.12699999809E+01 0.  1.
       -4    1    3    3    0  502  0.18943965207E+03  0.51133065061E+02  0.64981031278E+03  0.67879085705E+03  0.12699999809E+01 0. -1.
</event>
<event>
 5   0  0.4420645E-02  0.7035047E+03  0.7818609E-02  0.9711257E-01
       -2   -1    0    0    0  501  0.00000000000E+00  0.00000000000E+00  0.32052253183E+03  0.32052253184E+03  0.25500000920E-02 0. -1.
        2   -1    0    0  501    0  0.00000000000E+00  0.00000000000E+00 -0.38602504619E+03  0.38602504620E+03  0.25500000920E-02 0.  1.
    10030    2    1    2    0    0  0.00000000000E+00  0.00000000000E+00 -0.65502514364E+02  0.70654757804E+03  0.70350472681E+03 0.  0.
        5    1    3    3  502    0 -0.29790434280E+03  0.15192113743E+03 -0.14222089560E+03  0.36342248500E+03  0.46999998093E+01 0.  1.
       -5    1    3    3    0  502  0.29790434280E+03 -0.15192113743E+03  0.76718381231E+02  0.34312509304E+03  0.46999998093E+01 0. -1.
</event>
<event>
 5   0  0.2684924E-02  0.7043212E+03  0.7818609E-02  0.9709871E-01
        1   -1    0    0  501    0  0.00000000000E+00  0.00000000000E+00  0.23496246252E+03  0.23496246258E+03  0.50400001928E-02 0. -1.
       -1   -1    0    0    0  501  0.00000000000E+00  0.00000000000E+00 -0.52781661119E+03  0.52781661121E+03  0.50400001928E-02 0.  1.
    10030    2    1    2    0    0  0.00000000000E+00  0.00000000000E+00 -0.29285414866E+03  0.76277907379E+03  0.70432120728E+03 0.  0.
        4    1    3    3  502    0 -0.19022026659E+03 -0.29436249940E+03 -0.10918628799E+03  0.36709166330E+03  0.12699999809E+01 0.  1.
       -4    1    3    3    0  502  0.19022026659E+03  0.29436249940E+03 -0.18366786067E+03  0.39568741049E+03  0.12699999809E+01 0. -1.
</event>
<event>
 5   0  0.2684924E-02  0.6770511E+03  0.7818609E-02  0.9757303E-01
        1   -1    0    0  501    0  0.00000000000E+00  0.00000000000E+00  0.90726771172E+03  0.90726771173E+03  0.50400001928E-02 0.  1.
       -1   -1    0    0    0  501  0.00000000000E+00  0.00000000000E+00 -0.12631283290E+03  0.12631283300E+03  0.50400001928E-02 0. -1.
    10030    2    1    2    0    0  0.00000000000E+00  0.00000000000E+00  0.78095487882E+03  0.10335805447E+04  0.67705112044E+03 0.  0.
        4    1    3    3  502    0 -0.15367722825E+03 -0.95005258095E+02  0.82750745033E+03  0.84700229208E+03  0.12699999809E+01 0.  1.
       -4    1    3    3    0  502  0.15367722825E+03  0.95005258095E+02 -0.46552571507E+02  0.18657825265E+03  0.12699999809E+01 0. -1.
</event>
<event>
 5   0  0.4503289E-02  0.7151377E+03  0.7818609E-02  0.9691689E-01
       -2   -1    0    0    0  501  0.00000000000E+00  0.00000000000E+00  0.81758943595E+03  0.81758943596E+03  0.25500000920E-02 0. -1.
        2   -1    0    0  501    0  0.00000000000E+00  0.00000000000E+00 -0.15638102330E+03  0.15638102332E+03  0.25500000920E-02 0.  1.
    10030    2    1    2    0    0  0.00000000000E+00  0.00000000000E+00  0.66120841266E+03  0.97397045928E+03  0.71513767246E+03 0.  0.
        2    1    3    3  502    0  0.33844013675E+03 -0.10577308617E+03  0.26781031413E+03  0.44435575419E+03  0.25500000920E-02 0.  1.
       -2    1    3    3    0  502 -0.33844013675E+03  0.10577308617E+03  0.39339809852E+03  0.52961470509E+03  0.25500000920E-02 0. -1.
</event>
<event>
 5   0  0.4526837E-02  0.7302620E+03  0.7818609E-02  0.9666835E-01
        2   -1    0    0  501    0  0.00000000000E+00  0.00000000000E+00  0.90350818032E+03  0.90350818032E+03  0.25500000920E-02 0. -1.
       -2   -1    0    0    0  501  0.00000000000E+00  0.00000000000E+00 -0.14755887339E+03  0.14755887341E+03  0.25500000920E-02 0.  1.
    10030    2    1    2    0    0  0.00000000000E+00  0.00000000000E+00  0.75594930693E+03  0.10510670537E+04  0.73026200558E+03 0.  0.
        1    1    3    3  502    0 -0.22225667668E+03  0.20327425814E+03  0.80898559825E+02  0.31187021557E+03  0.50400001928E-02 0. -1.
       -1    1    3    3    0  502  0.22225667668E+03 -0.20327425814E+03  0.67505074711E+03  0.73919683816E+03  0.50400001928E-02 0.  1.
</event>
<event>
 5   0  0.4526837E-02  0.6996936E+03  0.7818609E-02  0.9717756E-01
        2   -1    0    0  501    0  0.00000000000E+00  0.00000000000E+00  0.17336464622E+04  0.17336464622E+04  0.25500000920E-02 0. -1.
       -2   -1    0    0    0  501  0.00000000000E+00  0.00000000000E+00 -0.70598477376E+02  0.70598477422E+02  0.25500000920E-02 0.  1.
    10030    2    1    2    0    0  0.00000000000E+00  0.00000000000E+00  0.16630479848E+04  0.18042449396E+04  0.69969364891E+03 0.  0.
        1    1    3    3  502    0  0.33042245730E+02 -0.34666840404E+03  0.91789926853E+03  0.98173817260E+03  0.50400001928E-02 0.  1.
       -1    1    3    3    0  502 -0.33042245730E+02  0.34666840404E+03  0.74514871626E+03  0.82250676698E+03  0.50400001928E-02 0. -1.
</event>
<event>
 5   0  0.1784625E-02  0.7025641E+03  0.7818609E-02  0.9712857E-01
        4   -1    0    0  501    0  0.00000000000E+00  0.00000000000E+00  0.38125792616E+03  0.38126004139E+03  0.12699999809E+01 0.  1.
       -4   -1    0    0    0  501  0.00000000000E+00  0.00000000000E+00 -0.32365876695E+03  0.32366125861E+03  0.12699999809E+01 0. -1.
    10030    2    1    2    0    0  0.00000000000E+00  0.00000000000E+00  0.57599159211E+02  0.70492130000E+03  0.70256414373E+03 0.  0.
        3    1    3    3  502    0  0.29690996954E+03 -0.16896110352E+03 -0.53302209847E+02  0.34575210815E+03  0.10100000352E+00 0.  1.
       -3    1    3    3    0  502 -0.29690996954E+03  0.16896110352E+03  0.11090136906E+03  0.35916919185E+03  0.10100000352E+00 0. -1.
</event>
<event>
 5   0  0.4420645E-02  0.7099651E+03  0.7818609E-02  0.9700341E-01
        2   -1    0    0  501    0  0.00000000000E+00  0.00000000000E+00  0.48522639404E+03  0.48522639404E+03  0.25500000920E-02 0. -1.
       -2   -1    0    0    0  501  0.00000000000E+00  0.00000000000E+00 -0.25969858078E+03  0.25969858079E+03  0.25500000920E-02 0.  1.
    10030    2    1    2    0    0  0.00000000000E+00  0.00000000000E+00  0.22552781326E+03  0.74492497483E+03  0.70996508617E+03 0.  0.
        5    1    3    3  502    0  0.34363104537E+03 -0.51752591443E+02  0.18864294413E+03  0.39543504704E+03  0.46999998093E+01 0. -1.
       -5    1    3    3    0  502 -0.34363104537E+03  0.51752591443E+02  0.36884869131E+02  0.34948992779E+03  0.46999998093E+01 0.  1.
</event>
<event>
 5   0  0.2684924E-02  0.6687590E+03  0.7818609E-02  0.9772202E-01
        1   -1    0    0  501    0  0.00000000000E+00  0.00000000000E+00  0.10259208349E+04  0.10259208349E+04  0.50400001928E-02 0. -1.
       -1   -1    0    0    0  501  0.00000000000E+00  0.00000000000E+00 -0.10898467171E+03  0.10898467182E+03  0.50400001928E-02 0.  1.
    10030    2    1    2    0    0  0.00000000000E+00  0.00000000000E+00  0.91693616315E+03  0.11349055067E+04  0.66875898635E+03 0.  0.
        4    1    3    3  502    0  0.17002855944E+03  0.27228766300E+03  0.29965497291E+03  0.43914120524E+03  0.12699999809E+01 0.  1.
       -4    1    3    3    0  502 -0.17002855944E+03 -0.27228766300E+03  0.61728119024E+03  0.69576430146E+03  0.12699999809E+01 0. -1.
</event>
<event>
 5   0  0.2751729E-02  0.6340262E+03  0.7818609E-02  0.9837223E-01
       -1   -1    0    0    0  501  0.00000000000E+00  0.00000000000E+00  0.39697501851E+03  0.39697501855E+03  0.50400001928E-02 0.  1.
        1   -1    0    0  501    0  0.00000000000E+00  0.00000000000E+00 -0.25315772815E+03  0.25315772820E+03  0.50400001928E-02 0. -1.
    10030    2    1    2    0    0  0.00000000000E+00  0.00000000000E+00  0.14381729036E+03  0.65013274675E+03  0.63402616301E+03 0.  0.
        1    1    3    3  502    0 -0.14498726065E+03 -0.80622554688E+02  0.34891189562E+03  0.38634286975E+03  0.50400001928E-02 0.  1.
       -1    1    3    3    0  502  0.14498726065E+03  0.80622554688E+02 -0.20509460526E+03  0.26378987700E+03  0.50400001928E-02 0. -1.
</event>
<event>
 5   0  0.2751729E-02  0.7026453E+03  0.7818609E-02  0.9712719E-01
        1   -1    0    0  501    0  0.00000000000E+00  0.00000000000E+00  0.33259463819E+03  0.33259463823E+03  0.50400001928E-02 0. -1.
       -1   -1    0    0    0  501  0.00000000000E+00  0.00000000000E+00 -0.37110521487E+03  0.37110521491E+03  0.50400001928E-02 0.  1.
    10030    2    1    2    0    0  0.00000000000E+00  0.00000000000E+00 -0.38510576683E+02  0.70369985314E+03  0.70264530084E+03 0.  0.
        1    1    3    3  502    0  0.38834270385E+02 -0.34908581434E+03 -0.26921732591E+02  0.35226947929E+03  0.50400001928E-02 0.  1.
       -1    1    3    3    0  502 -0.38834270385E+02  0.34908581434E+03 -0.11588844092E+02  0.35143037385E+03  0.50400001928E-02 0. -1.
</event>
<event>
 5   0  0.1784625E-02  0.6971788E+03  0.7818609E-02  0.9722069E-01
        4   -1    0    0  501    0  0.00000000000E+00  0.00000000000E+00  0.12940983981E+03  0.12941607141E+03  0.12699999809E+01 0. -1.
       -4   -1    0    0    0  501  0.00000000000E+00  0.00000000000E+00 -0.93896082909E+03  0.93896168797E+03  0.12699999809E+01 0.  1.
    10030    2    1    2    0    0  0.00000000000E+00  0.00000000000E+00 -0.80955098928E+03  0.10683777594E+04  0.69717876652E+03 0.  0.
        3    1    3    3  502    0 -0.11197332659E+03  0.26875109413E+03 -0.69854427809E+03  0.75678880483E+03  0.10100000352E+00 0.  1.
       -3    1    3    3    0  502  0.11197332659E+03 -0.26875109413E+03 -0.11100671119E+03  0.31158895454E+03  0.10100000352E+00 0. -1.
</event>
<event>
 5   0  0.1784625E-02  0.7013529E+03  0.7818609E-02  0.9714921E-01
       -3   -1    0    0    0  501  0.00000000000E+00  0.00000000000E+00  0.18294414127E+03  0.18294416915E+03  0.10100000352E+00 0. -1.
        3   -1    0    0  501    0  0.00000000000E+00  0.00000000000E+00 -0.67219398687E+03  0.67219399446E+03  0.10100000352E+00 0.  1.
    10030    2    1    2    0    0  0.00000000000E+00  0.00000000000E+00 -0.48924984560E+03  0.85513816360E+03  0.70135288367E+03 0.  0.
        1    1    3    3  502    0  0.57876473298E+02  0.27354088927E+03 -0.50269465628E+03  0.57521841220E+03  0.50400001928E-02 0.  1.
       -1    1    3    3    0  502 -0.57876473298E+02 -0.27354088927E+03  0.13444810675E+02  0.27991975140E+03  0.50400001928E-02 0. -1.
</event>
<event>
 5   0  0.2751729E-02  0.6847586E+03  0.7818609E-02  0.9743658E-01
        1   -1    0    0  501    0  0.00000000000E+00  0.00000000000E+00  0.41241976422E+03  0.41241976425E+03  0.50400001928E-02 0.  1.
       -1   -1    0    0    0  501  0.00000000000E+00  0.00000000000E+00 -0.28423364525E+03  0.28423364530E+03  0.50400001928E-02 0. -1.
    10030    2    1    2    0    0  0.00000000000E+00  0.00000000000E+00  0.12818611896E+03  0.69665340955E+03  0.68475856471E+03 0.  0.
        1    1    3    3  502    0  0.10255202047E+03  0.32544795927E+03  0.35492778380E+02  0.34306417539E+03  0.50400001928E-02 0. -1.
       -1    1    3    3    0  502 -0.10255202047E+03 -0.32544795927E+03  0.92693340584E+02  0.35358923415E+03  0.50400001928E-02 0.  1.
</event>
<event>
 5   0  0.4299912E-02  0.7036498E+03  0.7818609E-02  0.9711011E-01
       -2   -1    0    0    0  501  0.00000000000E+00  0.00000000000E+00  0.16465552872E+03  0.16465552874E+03  0.25500000920E-02 0.  1.
        2   -1    0    0  501    0  0.00000000000E+00  0.00000000000E+00 -0.75175594025E+03  0.75175594026E+03  0.25500000920E-02 0. -1.
    10030    2    1    2    0    0  0.00000000000E+00  0.00000000000E+00 -0.58710041154E+03  0.91641146899E+03  0.70364983285E+03 0.  0.
        3    1    3    3  502    0  0.34659685786E+03 -0.58527715492E+02 -0.31312417197E+03  0.47074582593E+03  0.10100000352E+00 0.  1.
       -3    1    3    3    0  502 -0.34659685786E+03  0.58527715492E+02 -0.27397623957E+03  0.44566564307E+03  0.10100000352E+00 0. -1.
</event>
<event>
 5   0  0.2751729E-02  0.6960004E+03  0.7818609E-02  0.9724097E-01
        1   -1    0    0  501    0  0.00000000000E+00  0.00000000000E+00  0.48374382030E+03  0.48374382033E+03  0.50400001928E-02 0. -1.
       -1   -1    0    0    0  501  0.00000000000E+00  0.00000000000E+00 -0.25034767146E+03  0.25034767151E+03  0.50400001928E-02 0.  1.
    10030    2    1    2    0    0  0.00000000000E+00  0.00000000000E+00  0.23339614883E+03  0.73409149184E+03  0.69600039950E+03 0.  0.
        1    1    3    3  502    0 -0.68340589856E+02 -0.30273903935E+03  0.28273920611E+03  0.41983665974E+03  0.50400001928E-02 0. -1.
       -1    1    3    3    0  502  0.68340589856E+02  0.30273903935E+03 -0.49343057270E+02  0.31425483210E+03  0.50400001928E-02 0.  1.
</event>
<event>
 5   0  0.4365492E-02  0.7002978E+03  0.7818609E-02  0.9716723E-01
        2   -1    0    0  501    0  0.00000000000E+00  0.00000000000E+00  0.19235026054E+04  0.19235026054E+04  0.25500000920E-02 0. -1.
       -2   -1    0    0    0  501  0.00000000000E+00  0.00000000000E+00 -0.63740094591E+02  0.63740094642E+02  0.25500000920E-02 0.  1.
    10030    2    1    2    0    0  0.00000000000E+00  0.00000000000E+00  0.18597625108E+04  0.19872427001E+04  0.70029775972E+03 0.  0.
        4    1    3    3  502    0  0.18829114969E+03  0.11562920491E+03  0.17006683301E+04  0.17149629885E+04  0.12699999809E+01 0. -1.
       -4    1    3    3    0  502 -0.18829114969E+03 -0.11562920491E+03  0.15909418074E+03  0.27227971156E+03  0.12699999809E+01 0.  1.
</event>
<event>
 5   0  0.4299912E-02  0.6970813E+03  0.7818609E-02  0.9722237E-01
        2   -1    0    0  501    0  0.00000000000E+00  0.00000000000E+00  0.12685680134E+04  0.12685680134E+04  0.25500000920E-02 0. -1.
       -2   -1    0    0    0  501  0.00000000000E+00  0.00000000000E+00 -0.95761991392E+02  0.95761991426E+02  0.25500000920E-02 0.  1.
    10030    2    1    2    0    0  0.00000000000E+00  0.00000000000E+00  0.11728060221E+04  0.13643300049E+04  0.69708134162E+03 0.  0.
        3    1    3    3  502    0  0.26271892907E+03  0.22288555907E+03  0.68962356936E+03  0.77089550897E+03  0.10100000352E+00 0. -1.
       -3    1    3    3    0  502 -0.26271892907E+03 -0.22288555907E+03  0.48318245269E+03  0.59343449590E+03  0.10100000352E+00 0.  1.
</event>
<event>
 5   0  0.4503289E-02  0.6921042E+03  0.7818609E-02  0.9730831E-01
        2   -1    0    0  501    0  0.00000000000E+00  0.00000000000E+00  0.45059163385E+03  0.45059163386E+03  0.25500000920E-02 0.  1.
       -2   -1    0    0    0  501  0.00000000000E+00  0.00000000000E+00 -0.26576629465E+03  0.26576629466E+03  0.25500000920E-02 0. -1.
    10030    2    1    2    0    0  0.00000000000E+00  0.00000000000E+00  0.18482533920E+03  0.71635792852E+03  0.69210423763E+03 0.  0.
        2    1    3    3  502    0 -0.27744021847E+03 -0.71211651324E+02 -0.10857744929E+03  0.30632211251E+03  0.25500000920E-02 0. -1.
       -2    1    3    3    0  502  0.27744021847E+03  0.71211651324E+02  0.29340278849E+03  0.41003581601E+03  0.25500000920E-02 0.  1.
</event>
<event>
 5   0  0.2777999E-02  0.7026788E+03  0.7818609E-02  0.9712662E-01
        1   -1    0    0  501    0  0.00000000000E+00  0.00000000000E+00  0.16977872467E+03  0.16977872475E+03  0.50400001928E-02 0.  1.
       -1   -1    0    0    0  501  0.00000000000E+00  0.00000000000E+00 -0.72706025899E+03  0.72706025901E+03  0.50400001928E-02 0. -1.
    10030    2    1    2    0    0  0.00000000000E+00  0.00000000000E+00 -0.55728153432E+03  0.89683898376E+03  0.70267877034E+03 0.  0.
        5    1    3    3  502    0 -0.23508109082E+02  0.31667999802E+03 -0.86860274092E+02  0.32925013220E+03  0.46999998093E+01 0. -1.
       -5    1    3    3    0  502  0.23508109082E+02 -0.31667999802E+03 -0.47042126023E+03  0.56758885156E+03  0.46999998093E+01 0.  1.
</event>
<event>
 5   0  0.2751729E-02  0.6692565E+03  0.7818609E-02  0.9771302E-01
        1   -1    0    0  501    0  0.00000000000E+00  0.00000000000E+00  0.57906653242E+03  0.57906653244E+03  0.50400001928E-02 0.  1.
       -1   -1    0    0    0  501  0.00000000000E+00  0.00000000000E+00 -0.19337342010E+03  0.19337342017E+03  0.50400001928E-02 0. -1.
    10030    2    1    2    0    0  0.00000000000E+00  0.00000000000E+00  0.38569311232E+03  0.77243995260E+03  0.66925653041E+03 0.  0.
        1    1    3    3  502    0  0.14170631837E+03 -0.26841077204E+03  0.30230328792E+02  0.30502277950E+03  0.50400001928E-02 0. -1.
       -1    1    3    3    0  502 -0.14170631837E+03  0.26841077204E+03  0.35546278352E+03  0.46741717310E+03  0.50400001928E-02 0.  1.
</event>
<event>
 5   0  0.4365492E-02  0.6993766E+03  0.7818609E-02  0.9718299E-01
        2   -1    0    0  501    0  0.00000000000E+00  0.00000000000E+00  0.10254854086E+04  0.10254854086E+04  0.25500000920E-02 0. -1.
       -2   -1    0    0    0  501  0.00000000000E+00  0.00000000000E+00 -0.11924294736E+03  0.11924294739E+03  0.25500000920E-02 0.  1.
    10030    2    1    2    0    0  0.00000000000E+00  0.00000000000E+00  0.90624246125E+03  0.11447283560E+04  0.69937658702E+03 0.  0.
        4    1    3    3  502    0 -0.19707619391E+02  0.33326504214E+03  0.62342787956E+03  0.70719015300E+03  0.12699999809E+01 0. -1.
       -4    1    3    3    0  502  0.19707619391E+02 -0.33326504214E+03  0.28281458169E+03  0.43753820301E+03  0.12699999809E+01 0.  1.
</event>
<event>
 5   0  0.4365492E-02  0.6998314E+03  0.7818609E-02  0.9717521E-01
        2   -1    0    0  501    0  0.00000000000E+00  0.00000000000E+00  0.14972787732E+04  0.14972787732E+04  0.25500000920E-02 0.  1.
       -2   -1    0    0    0  501  0.00000000000E+00  0.00000000000E+00 -0.81775688294E+02  0.81775688334E+02  0.25500000920E-02 0. -1.
    10030    2    1    2    0    0  0.00000000000E+00  0.00000000000E+00  0.14155030849E+04  0.15790544615E+04  0.69983141479E+03 0.  0.
        4    1    3    3  502    0  0.22117693744E+03  0.26101604516E+03  0.87341598910E+03  0.93803289730E+03  0.12699999809E+01 0.  1.
       -4    1    3    3    0  502 -0.22117693744E+03 -0.26101604516E+03  0.54208709580E+03  0.64102156424E+03  0.12699999809E+01 0. -1.
</event>
<event>
 5   0  0.4420645E-02  0.7094029E+03  0.7818609E-02  0.9701286E-01
        2   -1    0    0  501    0  0.00000000000E+00  0.00000000000E+00  0.41640391427E+03  0.41640391427E+03  0.25500000920E-02 0. -1.
       -2   -1    0    0    0  501  0.00000000000E+00  0.00000000000E+00 -0.30214200650E+03  0.30214200651E+03  0.25500000920E-02 0.  1.
    10030    2    1    2    0    0  0.00000000000E+00  0.00000000000E+00  0.11426190776E+03  0.71854592079E+03  0.70940288745E+03 0.  0.
        5    1    3    3  502    0 -0.21354843145E+02 -0.11099614919E+03 -0.28337862403E+03  0.30512572657E+03  0.46999998093E+01 0. -1.
       -5    1    3    3    0  502  0.21354843145E+02  0.11099614919E+03  0.39764053179E+03  0.41342019422E+03  0.46999998093E+01 0.  1.
</event>
<event>
 5   0  0.4299912E-02  0.6915374E+03  0.7818609E-02  0.9731815E-01
       -2   -1    0    0    0  501  0.00000000000E+00  0.00000000000E+00  0.26805417567E+03  0.26805417568E+03  0.25500000920E-02 0.  1.
        2   -1    0    0  501    0  0.00000000000E+00  0.00000000000E+00 -0.44601425407E+03  0.44601425408E+03  0.25500000920E-02 0. -1.
    10030    2    1    2    0    0  0.00000000000E+00  0.00000000000E+00 -0.17796007840E+03  0.71406842976E+03  0.69153736911E+03 0.  0.
        3    1    3    3  502    0 -0.31134763270E+03 -0.58000871121E+02 -0.23226168712E+03  0.39274285601E+03  0.10100000352E+00 0. -1.
       -3    1    3    3    0  502  0.31134763270E+03  0.58000871121E+02  0.54301608723E+02  0.32132557375E+03  0.10100000352E+00 0.  1.
</event>
<event>
 5   0  0.1784625E-02  0.6940216E+03  0.7818609E-02  0.9727511E-01
        3   -1    0    0  501    0  0.00000000000E+00  0.00000000000E+00  0.74799018727E+03  0.74799019409E+03  0.10100000352E+00 0. -1.
       -3   -1    0    0    0  501  0.00000000000E+00  0.00000000000E+00 -0.16098670392E+03  0.16098673560E+03  0.10100000352E+00 0.  1.
    10030    2    1    2    0    0  0.00000000000E+00  0.00000000000E+00  0.58700348336E+03  0.90897692969E+03  0.69402159133E+03 0.  0.
        3    1    3    3  502    0  0.17799028501E+03  0.29206256142E+02 -0.94766756247E+02  0.20375057116E+03  0.10100000352E+00 0.  1.
       -3    1    3    3    0  502 -0.17799028501E+03 -0.29206256142E+02  0.68177023960E+03  0.70522635853E+03  0.10100000352E+00 0. -1.
</event>
<event>
 5   0  0.4365492E-02  0.7008214E+03  0.7818609E-02  0.9715829E-01
       -2   -1    0    0    0  501  0.00000000000E+00  0.00000000000E+00  0.10803956785E+03  0.10803956788E+03  0.25500000920E-02 0.  1.
        2   -1    0    0  501    0  0.00000000000E+00  0.00000000000E+00 -0.11365063876E+04  0.11365063876E+04  0.25500000920E-02 0. -1.
    10030    2    1    2    0    0  0.00000000000E+00  0.00000000000E+00 -0.10284668198E+04  0.12445459555E+04  0.70082140091E+03 0.  0.
        4    1    3    3  502    0 -0.33542681115E+03  0.63121830171E+01 -0.33457452036E+03  0.47380661865E+03  0.12699999809E+01 0.  1.
       -4    1    3    3    0  502  0.33542681115E+03 -0.63121830171E+01 -0.69389229940E+03  0.77073933685E+03  0.12699999809E+01 0. -1.
</event>
<event>
 5   0  0.1784625E-02  0.7047730E+03  0.7818609E-02  0.9709104E-01
        3   -1    0    0  501    0  0.00000000000E+00  0.00000000000E+00  0.58559406911E+03  0.58559407782E+03  0.10100000352E+00 0.  1.
       -3   -1    0    0    0  501  0.00000000000E+00  0.00000000000E+00 -0.21205174412E+03  0.21205176817E+03  0.10100000352E+00 0. -1.
    10030    2    1    2    0    0  0.00000000000E+00  0.00000000000E+00  0.37354232499E+03  0.79764584599E+03  0.70477303231E+03 0.  0.
        1    1    3    3  502    0 -0.24904022094E+03  0.71398959326E+02 -0.83572922041E+02  0.27221916972E+03  0.50400001928E-02 0. -1.
       -1    1    3    3    0  502  0.24904022094E+03 -0.71398959326E+02  0.45711524704E+03  0.52542667627E+03  0.50400001928E-02 0.  1.
</event>
<event>
 5   0  0.2777999E-02  0.7125826E+03  0.7818609E-02  0.9695953E-01
        1   -1    0    0  501    0  0.00000000000E+00  0.00000000000E+00  0.87505738873E+03  0.87505738875E+03  0.50400001928E-02 0. -1.
       -1   -1    0    0    0  501  0.00000000000E+00  0.00000000000E+00 -0.14506874848E+03  0.14506874857E+03  0.50400001928E-02 0.  1.
    10030    2    1    2    0    0  0.00000000000E+00  0.00000000000E+00  0.72998864026E+03  0.10201261373E+04  0.71258257145E+03 0.  0.
        5    1    3    3  502    0  0.32174289843E+02 -0.59896315051E+02  0.86563886356E+03  0.86831761791E+03  0.46999998093E+01 0. -1.
       -5    1    3    3    0  502 -0.32174289843E+02  0.59896315051E+02 -0.13565022330E+03  0.15180851940E+03  0.46999998093E+01 0.  1.
</event>
<event>
 5   0  0.2750139E-02  0.6938426E+03  0.7818609E-02  0.9727820E-01
        1   -1    0    0  501    0  0.00000000000E+00  0.00000000000E+00  0.59198263850E+03  0.59198263852E+03  0.50400001928E-02 0. -1.
       -1   -1    0    0    0  501  0.00000000000E+00  0.00000000000E+00 -0.20330729906E+03  0.20330729912E+03  0.50400001928E-02 0.  1.
    10030    2    1    2    0    0  0.00000000000E+00  0.00000000000E+00  0.38867533944E+03  0.79528993764E+03  0.69384260854E+03 0.  0.
        2    1    3    3  502    0 -0.24755324833E+03  0.65582799844E+02 -0.73911617007E+02  0.26654575879E+03  0.25500000920E-02 0. -1.
       -2    1    3    3    0  502  0.24755324833E+03 -0.65582799844E+02  0.46258695645E+03  0.52874417886E+03  0.25500000920E-02 0.  1.
</event>
<event>
 5   0  0.1784625E-02  0.7420418E+03  0.7818609E-02  0.9647919E-01
       -3   -1    0    0    0  501  0.00000000000E+00  0.00000000000E+00  0.10598758951E+03  0.10598763763E+03  0.10100000352E+00 0. -1.
        3   -1    0    0  501    0  0.00000000000E+00  0.00000000000E+00 -0.12987979723E+04  0.12987979762E+04  0.10100000352E+00 0.  1.
    10030    2    1    2    0    0  0.00000000000E+00  0.00000000000E+00 -0.11928103828E+04  0.14047856139E+04  0.74204178563E+03 0.  0.
        4    1    3    3  502    0 -0.24648584708E+03  0.40420746901E+02 -0.77030869892E+02  0.26138951281E+03  0.12699999809E+01 0. -1.
       -4    1    3    3    0  502  0.24648584708E+03 -0.40420746901E+02 -0.11157795129E+04  0.11433961010E+04  0.12699999809E+01 0.  1.
</event>
<event>
 5   0  0.4365492E-02  0.7014024E+03  0.7818609E-02  0.9714837E-01
       -2   -1    0    0    0  501  0.00000000000E+00  0.00000000000E+00  0.64544341143E+03  0.64544341144E+03  0.25500000920E-02 0.  1.
        2   -1    0    0  501    0  0.00000000000E+00  0.00000000000E+00 -0.19055326172E+03  0.19055326173E+03  0.25500000920E-02 0. -1.
    10030    2    1    2    0    0  0.00000000000E+00  0.00000000000E+00  0.45489014972E+03  0.83599667317E+03  0.70140244457E+03 0.  0.
        4    1    3    3  502    0 -0.10544128696E+03  0.24168569295E+03  0.50302737820E+03  0.56795069794E+03  0.12699999809E+01 0.  1.
       -4    1    3    3    0  502  0.10544128696E+03 -0.24168569295E+03 -0.48137228485E+02  0.26804597523E+03  0.12699999809E+01 0. -1.
</event>
<event>
 5   0  0.4299912E-02  0.6981073E+03  0.7818609E-02  0.9720474E-01
        2   -1    0    0  501    0  0.00000000000E+00  0.00000000000E+00  0.19547136902E+04  0.19547136902E+04  0.25500000920E-02 0.  1.
       -2   -1    0    0    0  501  0.00000000000E+00  0.00000000000E+00 -0.62330593040E+02  0.62330593092E+02  0.25500000920E-02 0. -1.
    10030    2    1    2    0    0  0.00000000000E+00  0.00000000000E+00  0.18923830971E+04  0.20170442833E+04  0.69810733727E+03 0.  0.
        3    1    3    3  502    0  0.23680656287E+03  0.19839818523E+03  0.14156413400E+04  0.14489581090E+04  0.10100000352E+00 0. -1.
       -3    1    3    3    0  502 -0.23680656287E+03 -0.19839818523E+03  0.47674175716E+03  0.56808617422E+03  0.10100000352E+00 0.  1.
</event>
<event>
 5   0  0.2777999E-02  0.7035173E+03  0.7818609E-02  0.9711236E-01
       -1   -1    0    0    0  501  0.00000000000E+00  0.00000000000E+00  0.13157876896E+03  0.13157876906E+03  0.50400001928E-02 0.  1.
        1   -1    0    0  501    0  0.00000000000E+00  0.00000000000E+00 -0.94038071518E+03  0.94038071519E+03  0.50400001928E-02 0. -1.
    10030    2    1    2    0    0  0.00000000000E+00  0.00000000000E+00 -0.80880194622E+03  0.10719594842E+04  0.70351726892E+03 0.  0.
        5    1    3    3  502    0  0.21771497908E+03  0.24384378913E+03 -0.60220495065E+03  0.68522441448E+03  0.46999998093E+01 0. -1.
       -5    1    3    3    0  502 -0.21771497908E+03 -0.24384378913E+03 -0.20659699557E+03  0.38673506977E+03  0.46999998093E+01 0.  1.
</event>
<event>
 5   0  0.4503289E-02  0.6977651E+03  0.7818609E-02  0.9721062E-01
        2   -1    0    0  501    0  0.00000000000E+00  0.00000000000E+00  0.12915265730E+04  0.12915265730E+04  0.25500000920E-02 0. -1.
       -2   -1    0    0    0  501  0.00000000000E+00  0.00000000000E+00 -0.94244306189E+02  0.94244306224E+02  0.25500000920E-02 0.  1.
    10030    2    1    2    0    0  0.00000000000E+00  0.00000000000E+00  0.11972822668E+04  0.13857708792E+04  0.69776507744E+03 0.  0.
        2    1    3    3  502    0 -0.14269969230E+03  0.28668012705E+03  0.32366374851E+03  0.45530969629E+03  0.25500000920E-02 0.  1.
       -2    1    3    3    0  502  0.14269969230E+03 -0.28668012705E+03  0.87361851832E+03  0.93046118296E+03  0.25500000920E-02 0. -1.
</event>
<event>
 5   0  0.1784625E-02  0.6967801E+03  0.7818609E-02  0.9722755E-01
       -3   -1    0    0    0  501  0.00000000000E+00  0.00000000000E+00  0.58616037821E+02  0.58616124836E+02  0.10100000352E+00 0. -1.
        3   -1    0    0  501    0  0.00000000000E+00  0.00000000000E+00 -0.20706878454E+04  0.20706878478E+04  0.10100000352E+00 0.  1.
    10030    2    1    2    0    0  0.00000000000E+00  0.00000000000E+00 -0.20120718075E+04  0.21293039727E+04  0.69678005805E+03 0.  0.
        3    1    3    3  502    0 -0.12059105058E+03  0.29808719449E+03 -0.14157733875E+04  0.14518307312E+04  0.10100000352E+00 0.  1.
       -3    1    3    3    0  502  0.12059105058E+03 -0.29808719449E+03 -0.59629842005E+03  0.67747324151E+03  0.10100000352E+00 0. -1.
</event>
<event>
 5   0  0.4365492E-02  0.6899829E+03  0.7818609E-02  0.9734518E-01
        2   -1    0    0  501    0  0.00000000000E+00  0.00000000000E+00  0.15605874289E+04  0.15605874289E+04  0.25500000920E-02 0.  1.
       -2   -1    0    0    0  501  0.00000000000E+00  0.00000000000E+00 -0.76265587879E+02  0.76265587921E+02  0.25500000920E-02 0. -1.
    10030    2    1    2    0    0  0.00000000000E+00  0.00000000000E+00  0.14843218411E+04  0.16368530169E+04  0.68998294976E+03 0.  0.
        4    1    3    3  502    0  0.26460551686E+03 -0.67866370144E+02  0.24230919392E+03  0.36515377872E+03  0.12699999809E+01 0. -1.
       -4    1    3    3    0  502 -0.26460551686E+03  0.67866370144E+02  0.12420126471E+04  0.12716992381E+04  0.12699999809E+01 0.  1.
</event>
<event>
 5   0  0.2751729E-02  0.6975592E+03  0.7818609E-02  0.9721415E-01
        1   -1    0    0  501    0  0.00000000000E+00  0.00000000000E+00  0.14087852989E+04  0.14087852989E+04  0.50400001928E-02 0.  1.
       -1   -1    0    0    0  501  0.00000000000E+00  0.00000000000E+00 -0.86349002129E+02  0.86349002277E+02  0.50400001928E-02 0. -1.
    10030    2    1    2    0    0  0.00000000000E+00  0.00000000000E+00  0.13224362968E+04  0.14951343012E+04  0.69755918714E+03 0.  0.
        1    1    3    3  502    0  0.25463095700E+03 -0.23579881730E+03  0.73575103095E+03  0.81349098708E+03  0.50400001928E-02 0. -1.
       -1    1    3    3    0  502 -0.25463095700E+03  0.23579881730E+03  0.58668526582E+03  0.68164331410E+03  0.50400001928E-02 0.  1.
</event>
<event>
 5   0  0.4503289E-02  0.6845482E+03  0.7818609E-02  0.9744028E-01
       -2   -1    0    0    0  501  0.00000000000E+00  0.00000000000E+00  0.26504846181E+03  0.26504846182E+03  0.25500000920E-02 0.  1.
        2   -1    0    0  501    0  0.00000000000E+00  0.00000000000E+00 -0.44200055899E+03  0.44200055900E+03  0.25500000920E-02 0. -1.
    10030    2    1    2    0    0  0.00000000000E+00  0.00000000000E+00 -0.17695209718E+03  0.70704902082E+03  0.68454822558E+03 0.  0.
        2    1    3    3  502    0 -0.27605331750E+03 -0.46334140770E+02 -0.29192587243E+03  0.40444159245E+03  0.25500000920E-02 0. -1.
       -2    1    3    3    0  502  0.27605331750E+03  0.46334140770E+02  0.11497377525E+03  0.30260742837E+03  0.25500000920E-02 0.  1.
</event>
<event>
 5   0  0.2777999E-02  0.6969576E+03  0.7818609E-02  0.9722449E-01
       -1   -1    0    0    0  501  0.00000000000E+00  0.00000000000E+00  0.36058774930E+03  0.36058774933E+03  0.50400001928E-02 0. -1.
        1   -1    0    0  501    0  0.00000000000E+00  0.00000000000E+00 -0.33677647041E+03  0.33677647044E+03  0.50400001928E-02 0.  1.
    10030    2    1    2    0    0  0.00000000000E+00  0.00000000000E+00  0.23811278892E+02  0.69736421978E+03  0.69695758696E+03 0.  0.
        5    1    3    3  502    0 -0.18471774617E+03 -0.29225763418E+03  0.55292315254E+02  0.35016353410E+03  0.46999998093E+01 0. -1.
       -5    1    3    3    0  502  0.18471774617E+03  0.29225763418E+03 -0.31481036361E+02  0.34720068568E+03  0.46999998093E+01 0.  1.
</event>
<event>
 5   0  0.1784625E-02  0.7133760E+03  0.7818609E-02  0.9694627E-01
        3   -1    0    0  501    0  0.00000000000E+00  0.00000000000E+00  0.51939026765E+03  0.51939027747E+03  0.10100000352E+00 0.  1.
       -3   -1    0    0    0  501  0.00000000000E+00  0.00000000000E+00 -0.24495323345E+03  0.24495325427E+03  0.10100000352E+00 0. -1.
    10030    2    1    2    0    0  0.00000000000E+00  0.00000000000E+00  0.27443703420E+03  0.76434353174E+03  0.71337602201E+03 0.  0.
        4    1    3    3  502    0  0.10044399643E+03 -0.17869416641E+03 -0.17553369612E+03  0.26987829275E+03  0.12699999809E+01 0. -1.
       -4    1    3    3    0  502 -0.10044399643E+03  0.17869416641E+03  0.44997073032E+03  0.49446523899E+03  0.12699999809E+01 0.  1.
</event>
<event>
 5   0  0.2751729E-02  0.7728132E+03  0.7818609E-02  0.9600224E-01
       -1   -1    0    0    0  501  0.00000000000E+00  0.00000000000E+00  0.81567583392E+03  0.81567583394E+03  0.50400001928E-02 0. -1.
        1   -1    0    0  501    0  0.00000000000E+00  0.00000000000E+00 -0.18305074860E+03  0.18305074867E+03  0.50400001928E-02 0.  1.
    10030    2    1    2    0    0  0.00000000000E+00  0.00000000000E+00  0.63262508532E+03  0.99872658260E+03  0.77281322984E+03 0.  0.
        1    1    3    3  502    0 -0.31973841885E+03 -0.51082668068E+02  0.43794196106E+02  0.32674152950E+03  0.50400001928E-02 0.  1.
       -1    1    3    3    0  502  0.31973841885E+03  0.51082668068E+02  0.58883088922E+03  0.67198505310E+03  0.50400001928E-02 0. -1.
</event>
<event>
 5   0  0.4420645E-02  0.6958732E+03  0.7818609E-02  0.9724316E-01
        2   -1    0    0  501    0  0.00000000000E+00  0.00000000000E+00  0.37497883037E+03  0.37497883038E+03  0.25500000920E-02 0. -1.
       -2   -1    0    0    0  501  0.00000000000E+00  0.00000000000E+00 -0.32284460121E+03  0.32284460122E+03  0.25500000920E-02 0.  1.
    10030    2    1    2    0    0  0.00000000000E+00  0.00000000000E+00  0.52134229155E+02  0.69782343160E+03  0.69587323834E+03 0.  0.
        5    1    3    3  502    0 -0.43860882630E+02 -0.31677983847E+03 -0.11130057105E+03  0.33864900739E+03  0.46999998093E+01 0. -1.
       -5    1    3    3    0  502  0.43860882630E+02  0.31677983847E+03  0.16343480021E+03  0.35917442421E+03  0.46999998093E+01 0.  1.
</event>
<event>
 5   0  0.2777999E-02  0.7208512E+03  0.7818609E-02  0.9682224E-01
       -1   -1    0    0    0  501  0.00000000000E+00  0.00000000000E+00  0.29840238966E+03  0.29840238970E+03  0.50400001928E-02 0. -1.
        1   -1    0    0  501    0  0.00000000000E+00  0.00000000000E+00 -0.43534042959E+03  0.43534042962E+03  0.50400001928E-02 0.  1.
    10030    2    1    2    0    0  0.00000000000E+00  0.00000000000E+00 -0.13693803993E+03  0.73374281932E+03  0.72085123162E+03 0.  0.
        5    1    3    3  502    0 -0.28312836011E+02  0.28912353806E+03 -0.28556838986E+03  0.40738855191E+03  0.46999998093E+01 0.  1.
       -5    1    3    3    0  502  0.28312836011E+02 -0.28912353806E+03  0.14863034993E+03  0.32635426741E+03  0.46999998093E+01 0. -1.
</event>
<event>
 5   0  0.4299912E-02  0.7011031E+03  0.7818609E-02  0.9715348E-01
       -2   -1    0    0    0  501  0.00000000000E+00  0.00000000000E+00  0.10416549353E+03  0.10416549356E+03  0.25500000920E-02 0.  1.
        2   -1    0    0  501    0  0.00000000000E+00  0.00000000000E+00 -0.11797227235E+04  0.11797227235E+04  0.25500000920E-02 0. -1.
    10030    2    1    2    0    0  0.00000000000E+00  0.00000000000E+00 -0.10755572300E+04  0.12838882170E+04  0.70110313005E+03 0.  0.
        3    1    3    3  502    0  0.19417246433E+03 -0.69051934994E+02 -0.10570741397E+04  0.10769757949E+04  0.10100000352E+00 0. -1.
       -3    1    3    3    0  502 -0.19417246433E+03  0.69051934994E+02 -0.18483090227E+02  0.20691242219E+03  0.10100000352E+00 0.  1.
</event>
<event>
 5   0  0.2751729E-02  0.6961924E+03  0.7818609E-02  0.9723766E-01
       -1   -1    0    0    0  501  0.00000000000E+00  0.00000000000E+00  0.23233170966E+03  0.23233170971E+03  0.50400001928E-02 0.  1.
        1   -1    0    0  501    0  0.00000000000E+00  0.00000000000E+00 -0.52154295741E+03  0.52154295744E+03  0.50400001928E-02 0. -1.
    10030    2    1    2    0    0  0.00000000000E+00  0.00000000000E+00 -0.28921124775E+03  0.75387466715E+03  0.69619240727E+03 0.  0.
        1    1    3    3  502    0 -0.11542603711E+03  0.30943897389E+03 -0.26369650788E+03  0.42262453419E+03  0.50400001928E-02 0.  1.
       -1    1    3    3    0  502  0.11542603711E+03 -0.30943897389E+03 -0.25514739871E+02  0.33125013296E+03  0.50400001928E-02 0. -1.
</event>
<event>
 5   0  0.2758681E-02  0.7644029E+03  0.7818609E-02  0.9613022E-01
       -1   -1    0    0    0  501  0.00000000000E+00  0.00000000000E+00  0.13159381249E+03  0.13159381259E+03  0.50400001928E-02 0. -1.
        1   -1    0    0  501    0  0.00000000000E+00  0.00000000000E+00 -0.11100670323E+04  0.11100670323E+04  0.50400001928E-02 0.  1.
    10030    2    1    2    0    0  0.00000000000E+00  0.00000000000E+00 -0.97847321981E+03  0.12416608449E+04  0.76440291200E+03 0.  0.
        3    1    3    3  502    0 -0.12309106988E+03 -0.28170764705E+03 -0.12037115186E+03  0.33015122943E+03  0.10100000352E+00 0. -1.
       -3    1    3    3    0  502  0.12309106988E+03  0.28170764705E+03 -0.85810206795E+03  0.91150961547E+03  0.10100000352E+00 0.  1.
</event>
<event>
 5   0  0.4299912E-02  0.7179983E+03  0.7818609E-02  0.9686938E-01
       -2   -1    0    0    0  501  0.00000000000E+00  0.00000000000E+00  0.90694776884E+02  0.90694776920E+02  0.25500000920E-02 0. -1.
        2   -1    0    0  501    0  0.00000000000E+00  0.00000000000E+00 -0.14210344587E+04  0.14210344587E+04  0.25500000920E-02 0.  1.
    10030    2    1    2    0    0  0.00000000000E+00  0.00000000000E+00 -0.13303396819E+04  0.15117292357E+04  0.71799833762E+03 0.  0.
        3    1    3    3  502    0 -0.17454911141E+03 -0.29181421034E+03 -0.90759676802E+03  0.96920319292E+03  0.10100000352E+00 0.  1.
       -3    1    3    3    0  502  0.17454911141E+03  0.29181421034E+03 -0.42274291384E+03  0.54252604274E+03  0.10100000352E+00 0. -1.
</event>
<event>
 5   0  0.4420645E-02  0.6983954E+03  0.7818609E-02  0.9719980E-01
       -2   -1    0    0    0  501  0.00000000000E+00  0.00000000000E+00  0.13674952365E+03  0.13674952367E+03  0.25500000920E-02 0.  1.
        2   -1    0    0  501    0  0.00000000000E+00  0.00000000000E+00 -0.89169626967E+03  0.89169626967E+03  0.25500000920E-02 0. -1.
    10030    2    1    2    0    0  0.00000000000E+00  0.00000000000E+00 -0.75494674602E+03  0.10284457933E+04  0.69839541845E+03 0.  0.
        5    1    3    3  502    0 -0.23276727632E+02  0.10868986866E+03  0.10995333191E+03  0.15641968800E+03  0.46999998093E+01 0.  1.
       -5    1    3    3    0  502  0.23276727632E+02 -0.10868986866E+03 -0.86490007793E+03  0.87202610534E+03  0.46999998093E+01 0. -1.
</event>
<event>
 5   0  0.4420645E-02  0.6856178E+03  0.7818609E-02  0.9742149E-01
       -2   -1    0    0    0  501  0.00000000000E+00  0.00000000000E+00  0.73742979983E+02  0.73742980027E+02  0.25500000920E-02 0. -1.
        2   -1    0    0  501    0  0.00000000000E+00  0.00000000000E+00 -0.15936152865E+04  0.15936152865E+04  0.25500000920E-02 0.  1.
    10030    2    1    2    0    0  0.00000000000E+00  0.00000000000E+00 -0.15198723065E+04  0.16673582665E+04  0.68561779502E+03 0.  0.
        5    1    3    3  502    0  0.25358667534E+02 -0.19810303665E+03 -0.82450626076E+02  0.21612050085E+03  0.46999998093E+01 0. -1.
       -5    1    3    3    0  502 -0.25358667534E+02  0.19810303665E+03 -0.14374216804E+04  0.14512377657E+04  0.46999998093E+01 0.  1.
</event>
<event>
 5   0  0.2684924E-02  0.6718676E+03  0.7818609E-02  0.9766590E-01
        1   -1    0    0  501    0  0.00000000000E+00  0.00000000000E+00  0.99140474008E+03  0.99140474009E+03  0.50400001928E-02 0.  1.
       -1   -1    0    0    0  501  0.00000000000E+00  0.00000000000E+00 -0.11382991254E+03  0.11382991265E+03  0.50400001928E-02 0. -1.
    10030    2    1    2    0    0  0.00000000000E+00  0.00000000000E+00  0.87757482754E+03  0.11052346527E+04  0.67186759089E+03 0.  0.
        4    1    3    3  502    0 -0.27857207487E+03  0.17959356759E+03  0.52879340710E+03  0.62408359272E+03  0.12699999809E+01 0.  1.
       -4    1    3    3    0  502  0.27857207487E+03 -0.17959356759E+03  0.34878142044E+03  0.48115106002E+03  0.12699999809E+01 0. -1.
</event>
<event>
 5   0  0.2777999E-02  0.7081612E+03  0.7818609E-02  0.9703376E-01
       -1   -1    0    0    0  501  0.00000000000E+00  0.00000000000E+00  0.18300210554E+03  0.18300210561E+03  0.50400001928E-02 0.  1.
        1   -1    0    0  501    0  0.00000000000E+00  0.00000000000E+00 -0.68509082264E+03  0.68509082266E+03  0.50400001928E-02 0. -1.
    10030    2    1    2    0    0  0.00000000000E+00  0.00000000000E+00 -0.50208871710E+03  0.86809292827E+03  0.70816117676E+03 0.  0.
        5    1    3    3  502    0 -0.10122880229E+03  0.33421450205E+03 -0.17952025294E+03  0.39267825889E+03  0.46999998093E+01 0.  1.
       -5    1    3    3    0  502  0.10122880229E+03 -0.33421450205E+03 -0.32256846416E+03  0.47541466938E+03  0.46999998093E+01 0. -1.
</event>
<event>
 5   0  0.2750139E-02  0.7041053E+03  0.7818609E-02  0.9710237E-01
       -1   -1    0    0    0  501  0.00000000000E+00  0.00000000000E+00  0.10555029339E+03  0.10555029351E+03  0.50400001928E-02 0.  1.
        1   -1    0    0  501    0  0.00000000000E+00  0.00000000000E+00 -0.11742369958E+04  0.11742369958E+04  0.50400001928E-02 0. -1.
    10030    2    1    2    0    0  0.00000000000E+00  0.00000000000E+00 -0.10686867024E+04  0.12797872893E+04  0.70410527478E+03 0.  0.
        2    1    3    3  502    0  0.11468137433E+03  0.19128852017E+03 -0.10294470035E+04  0.10533300758E+04  0.25500000920E-02 0. -1.
       -2    1    3    3    0  502 -0.11468137433E+03 -0.19128852017E+03 -0.39239698880E+02  0.22645721349E+03  0.25500000920E-02 0.  1.
</event>
<event>
 5   0  0.2751729E-02  0.6924057E+03  0.7818609E-02  0.9730308E-01
        1   -1    0    0  501    0  0.00000000000E+00  0.00000000000E+00  0.22180959529E+04  0.22180959529E+04  0.50400001928E-02 0.  1.
       -1   -1    0    0    0  501  0.00000000000E+00  0.00000000000E+00 -0.54035717234E+02  0.54035717469E+02  0.50400001928E-02 0. -1.
    10030    2    1    2    0    0  0.00000000000E+00  0.00000000000E+00  0.21640602357E+04  0.22721316704E+04  0.69240567872E+03 0.  0.
        1    1    3    3  502    0  0.21506832329E+03 -0.15116176071E+03  0.18212949939E+04  0.18401683935E+04  0.50400001928E-02 0.  1.
       -1    1    3    3    0  502 -0.21506832329E+03  0.15116176071E+03  0.34276524175E+03  0.43196327687E+03  0.50400001928E-02 0. -1.
</event>
<event>
 5   0  0.1784625E-02  0.6785909E+03  0.7818609E-02  0.9754562E-01
       -3   -1    0    0    0  501  0.00000000000E+00  0.00000000000E+00  0.12209210074E+03  0.12209214252E+03  0.10100000352E+00 0. -1.
        3   -1    0    0  501    0  0.00000000000E+00  0.00000000000E+00 -0.94290612796E+03  0.94290613337E+03  0.10100000352E+00 0.  1.
    10030    2    1    2    0    0  0.00000000000E+00  0.00000000000E+00 -0.82081402722E+03  0.10649982759E+04  0.67859093743E+03 0.  0.
        1    1    3    3  502    0 -0.23402909349E+03 -0.12630592527E+01 -0.24857448577E+02  0.23534889992E+03  0.50400001928E-02 0. -1.
       -1    1    3    3    0  502  0.23402909349E+03  0.12630592527E+01 -0.79595657865E+03  0.82964937596E+03  0.50400001928E-02 0.  1.
</event>
<event>
 5   0  0.2684924E-02  0.7103277E+03  0.7818609E-02  0.9699732E-01
       -1   -1    0    0    0  501  0.00000000000E+00  0.00000000000E+00  0.12165138766E+04  0.12165138766E+04  0.50400001928E-02 0.  1.
        1   -1    0    0  501    0  0.00000000000E+00  0.00000000000E+00 -0.10369085279E+03  0.10369085291E+03  0.50400001928E-02 0. -1.
    10030    2    1    2    0    0  0.00000000000E+00  0.00000000000E+00  0.11128230238E+04  0.13202047296E+04  0.71032770293E+03 0.  0.
        4    1    3    3  502    0  0.20963431013E+03  0.18297040491E+03  0.96662887920E+03  0.10058815616E+04  0.12699999809E+01 0.  1.
       -4    1    3    3    0  502 -0.20963431013E+03 -0.18297040491E+03  0.14619414464E+03  0.31432316791E+03  0.12699999809E+01 0. -1.
</event>
<event>
 5   0  0.4299912E-02  0.6855848E+03  0.7818609E-02  0.9742207E-01
        2   -1    0    0  501    0  0.00000000000E+00  0.00000000000E+00  0.11662584910E+04  0.11662584910E+04  0.25500000920E-02 0. -1.
       -2   -1    0    0    0  501  0.00000000000E+00  0.00000000000E+00 -0.10075521670E+03  0.10075521673E+03  0.25500000920E-02 0.  1.
    10030    2    1    2    0    0  0.00000000000E+00  0.00000000000E+00  0.10655032743E+04  0.12670137077E+04  0.68558479273E+03 0.  0.
        3    1    3    3  502    0  0.27859211800E+03  0.77004338126E+02  0.19216657740E+03  0.34708967138E+03  0.10100000352E+00 0.  1.
       -3    1    3    3    0  502 -0.27859211800E+03 -0.77004338126E+02  0.87333669692E+03  0.91992403637E+03  0.10100000352E+00 0. -1.
</event>
<event>
 5   0  0.4420645E-02  0.6957717E+03  0.7818609E-02  0.9724491E-01
       -2   -1    0    0    0  501  0.00000000000E+00  0.00000000000E+00  0.87237487587E+02  0.87237487624E+02  0.25500000920E-02 0. -1.
        2   -1    0    0  501    0  0.00000000000E+00  0.00000000000E+00 -0.13872997792E+04  0.13872997792E+04  0.25500000920E-02 0.  1.
    10030    2    1    2    0    0  0.00000000000E+00  0.00000000000E+00 -0.13000622916E+04  0.14745372668E+04  0.69577165017E+03 0.  0.
        5    1    3    3  502    0  0.26969546195E+03  0.21408181587E+03 -0.54543659621E+03  0.64505025895E+03  0.46999998093E+01 0. -1.
       -5    1    3    3    0  502 -0.26969546195E+03 -0.21408181587E+03 -0.75462569539E+03  0.82948700787E+03  0.46999998093E+01 0.  1.
</event>
<event>
 5   0  0.4420645E-02  0.7163858E+03  0.7818609E-02  0.9689613E-01
        2   -1    0    0  501    0  0.00000000000E+00  0.00000000000E+00  0.57696090924E+03  0.57696090925E+03  0.25500000920E-02 0. -1.
       -2   -1    0    0    0  501  0.00000000000E+00  0.00000000000E+00 -0.22237582546E+03  0.22237582548E+03  0.25500000920E-02 0.  1.
    10030    2    1    2    0    0  0.00000000000E+00  0.00000000000E+00  0.35458508378E+03  0.79933673473E+03  0.71638581354E+03 0.  0.
        5    1    3    3  502    0  0.15970131965E+03 -0.95663868780E+02 -0.16411754446E+03  0.24821914851E+03  0.46999998093E+01 0.  1.
       -5    1    3    3    0  502 -0.15970131965E+03  0.95663868780E+02  0.51870262825E+03  0.55111758622E+03  0.46999998093E+01 0. -1.
</event>
<event>
 5   0  0.2751729E-02  0.7052103E+03  0.7818609E-02  0.9708363E-01
        1   -1    0    0  501    0  0.00000000000E+00  0.00000000000E+00  0.61936829362E+03  0.61936829364E+03  0.50400001928E-02 0. -1.
       -1   -1    0    0    0  501  0.00000000000E+00  0.00000000000E+00 -0.20073742480E+03  0.20073742487E+03  0.50400001928E-02 0.  1.
    10030    2    1    2    0    0  0.00000000000E+00  0.00000000000E+00  0.41863086882E+03  0.82010571851E+03  0.70521031275E+03 0.  0.
        1    1    3    3  502    0  0.26120667383E+03 -0.72048142769E+02  0.47171010849E+03  0.54399474980E+03  0.50400001928E-02 0. -1.
       -1    1    3    3    0  502 -0.26120667383E+03  0.72048142769E+02 -0.53079239672E+02  0.27611096871E+03  0.50400001928E-02 0.  1.
</event>
<event>
 5   0  0.4526837E-02  0.7013538E+03  0.7818609E-02  0.9714920E-01
        2   -1    0    0  501    0  0.00000000000E+00  0.00000000000E+00  0.84582184841E+03  0.84582184841E+03  0.25500000920E-02 0. -1.
       -2   -1    0    0    0  501  0.00000000000E+00  0.00000000000E+00 -0.14539027824E+03  0.14539027827E+03  0.25500000920E-02 0.  1.
    10030    2    1    2    0    0  0.00000000000E+00  0.00000000000E+00  0.70043157016E+03  0.99121212668E+03  0.70135375923E+03 0.  0.
        1    1    3    3  502    0  0.34014521243E+03 -0.84931291625E+02  0.36136049932E+03  0.50348138032E+03  0.50400001928E-02 0. -1.
       -1    1    3    3    0  502 -0.34014521243E+03  0.84931291625E+02  0.33907107084E+03  0.48773074636E+03  0.50400001928E-02 0.  1.
</event>
<event>
 5   0  0.4526837E-02  0.6921678E+03  0.7818609E-02  0.9730721E-01
        2   -1    0    0  501    0  0.00000000000E+00  0.00000000000E+00  0.23377037154E+03  0.23377037155E+03  0.25500000920E-02 0. -1.
       -2   -1    0    0    0  501  0.00000000000E+00  0.00000000000E+00 -0.51235774754E+03  0.51235774754E+03  0.25500000920E-02 0.  1.
    10030    2    1    2    0    0  0.00000000000E+00  0.00000000000E+00 -0.27858737600E+03  0.74612811910E+03  0.69216778605E+03 0.  0.
        1    1    3    3  502    0 -0.24401128147E+03  0.17223486115E+03 -0.32775988326E+03  0.44343307722E+03  0.50400001928E-02 0.  1.
       -1    1    3    3    0  502  0.24401128147E+03 -0.17223486115E+03  0.49172507257E+02  0.30269504187E+03  0.50400001928E-02 0. -1.
</event>
<event>
 5   0  0.2751729E-02  0.7426804E+03  0.7818609E-02  0.9646904E-01
       -1   -1    0    0    0  501  0.00000000000E+00  0.00000000000E+00  0.17941115634E+03  0.17941115641E+03  0.50400001928E-02 0.  1.
        1   -1    0    0  501    0  0.00000000000E+00  0.00000000000E+00 -0.76858960506E+03  0.76858960508E+03  0.50400001928E-02 0. -1.
    10030    2    1    2    0    0  0.00000000000E+00  0.00000000000E+00 -0.58917844872E+03  0.94800076149E+03  0.74268041536E+03 0.  0.
        1    1    3    3  502    0  0.22005921313E+03  0.26795649118E+03 -0.46425170032E+03  0.57944488929E+03  0.50400001928E-02 0. -1.
       -1    1    3    3    0  502 -0.22005921313E+03 -0.26795649118E+03 -0.12492674841E+03  0.36855587221E+03  0.50400001928E-02 0.  1.
</event>
<event>
 5   0  0.4365492E-02  0.7113035E+03  0.7818609E-02  0.9698095E-01
       -2   -1    0    0    0  501  0.00000000000E+00  0.00000000000E+00  0.10835414174E+03  0.10835414177E+03  0.25500000920E-02 0. -1.
        2   -1    0    0  501    0  0.00000000000E+00  0.00000000000E+00 -0.11673588942E+04  0.11673588942E+04  0.25500000920E-02 0.  1.
    10030    2    1    2    0    0  0.00000000000E+00  0.00000000000E+00 -0.10590047525E+04  0.12757130360E+04  0.71130351078E+03 0.  0.
        4    1    3    3  502    0 -0.34174220189E+03 -0.98164814600E+02 -0.54368054381E+03  0.64962620790E+03  0.12699999809E+01 0. -1.
       -4    1    3    3    0  502  0.34174220189E+03  0.98164814600E+02 -0.51532420869E+03  0.62608682812E+03  0.12699999809E+01 0.  1.
</event>
<event>
 5   0  0.2750139E-02  0.6851537E+03  0.7818609E-02  0.9742964E-01
        1   -1    0    0  501    0  0.00000000000E+00  0.00000000000E+00  0.23916054896E+03  0.23916054901E+03  0.50400001928E-02 0. -1.
       -1   -1    0    0    0  501  0.00000000000E+00  0.00000000000E+00 -0.49071174238E+03  0.49071174241E+03  0.50400001928E-02 0.  1.
    10030    2    1    2    0    0  0.00000000000E+00  0.00000000000E+00 -0.25155119342E+03  0.72987229142E+03  0.68515367537E+03 0.  0.
        2    1    3    3  502    0  0.14729753392E+03  0.26860469703E+03 -0.28912618068E+03  0.42123508297E+03  0.25500000920E-02 0.  1.
       -2    1    3    3    0  502 -0.14729753392E+03 -0.26860469703E+03  0.37574987251E+02  0.30863720845E+03  0.25500000920E-02 0. -1.
</event>
<event>
 5   0  0.4503289E-02  0.7017169E+03  0.7818609E-02  0.9714300E-01
       -2   -1    0    0    0  501  0.00000000000E+00  0.00000000000E+00  0.40095756928E+03  0.40095756928E+03  0.25500000920E-02 0.  1.
        2   -1    0    0  501    0  0.00000000000E+00  0.00000000000E+00 -0.30701918415E+03  0.30701918416E+03  0.25500000920E-02 0. -1.
    10030    2    1    2    0    0  0.00000000000E+00  0.00000000000E+00  0.93938385126E+02  0.70797675345E+03  0.70171693953E+03 0.  0.
        2    1    3    3  502    0 -0.23499539290E+03 -0.26048694021E+03  0.41885884735E+02  0.35331389451E+03  0.25500000920E-02 0. -1.
       -2    1    3    3    0  502  0.23499539290E+03  0.26048694021E+03  0.52052500391E+02  0.35466285894E+03  0.25500000920E-02 0.  1.
</event>
<event>
 5   0  0.2751729E-02  0.7177185E+03  0.7818609E-02  0.9687402E-01
        1   -1    0    0  501    0  0.00000000000E+00  0.00000000000E+00  0.45204047754E+03  0.45204047757E+03  0.50400001928E-02 0. -1.
       -1   -1    0    0    0  501  0.00000000000E+00  0.00000000000E+00 -0.28488588712E+03  0.28488588717E+03  0.50400001928E-02 0.  1.
    10030    2    1    2    0    0  0.00000000000E+00  0.00000000000E+00  0.16715459042E+03  0.73692636474E+03  0.71771847541E+03 0.  0.
        1    1    3    3  502    0  0.14875778961E+03 -0.28844720129E+03 -0.73652470364E+02  0.33279927031E+03  0.50400001928E-02 0.  1.
       -1    1    3    3    0  502 -0.14875778961E+03  0.28844720129E+03  0.24080706078E+03  0.40412709443E+03  0.50400001928E-02 0. -1.
</event>
<event>
 5   0  0.4503289E-02  0.6892660E+03  0.7818609E-02  0.9735767E-01
       -2   -1    0    0    0  501  0.00000000000E+00  0.00000000000E+00  0.54343491282E+02  0.54343491342E+02  0.25500000920E-02 0. -1.
        2   -1    0    0  501    0  0.00000000000E+00  0.00000000000E+00 -0.21855770834E+04  0.21855770834E+04  0.25500000920E-02 0.  1.
    10030    2    1    2    0    0  0.00000000000E+00  0.00000000000E+00 -0.21312335921E+04  0.22399205747E+04  0.68926595519E+03 0.  0.
        2    1    3    3  502    0 -0.11890310036E+03  0.14809199281E+02 -0.21157066615E+04  0.21190969626E+04  0.25500000920E-02 0.  1.
       -2    1    3    3    0  502  0.11890310036E+03 -0.14809199281E+02 -0.15526930643E+02  0.12082361210E+03  0.25500000920E-02 0. -1.
</event>
<event>
 5   0  0.4420645E-02  0.6942268E+03  0.7818609E-02  0.9727156E-01
       -2   -1    0    0    0  501  0.00000000000E+00  0.00000000000E+00  0.15374441960E+03  0.15374441962E+03  0.25500000920E-02 0. -1.
        2   -1    0    0  501    0  0.00000000000E+00  0.00000000000E+00 -0.78368826899E+03  0.78368826899E+03  0.25500000920E-02 0.  1.
    10030    2    1    2    0    0  0.00000000000E+00  0.00000000000E+00 -0.62994384939E+03  0.93743268862E+03  0.69422675856E+03 0.  0.
        5    1    3    3  502    0  0.22638745927E+03 -0.16620843288E+03 -0.39594447087E+02  0.28366588641E+03  0.46999998093E+01 0. -1.
       -5    1    3    3    0  502 -0.22638745927E+03  0.16620843288E+03 -0.59034940230E+03  0.65376680221E+03  0.46999998093E+01 0.  1.
</event>
<event>
 5   0  0.4420645E-02  0.7337787E+03  0.7818609E-02  0.9661148E-01
       -2   -1    0    0    0  501  0.00000000000E+00  0.00000000000E+00  0.35272191919E+03  0.35272191920E+03  0.25500000920E-02 0.  1.
        2   -1    0    0  501    0  0.00000000000E+00  0.00000000000E+00 -0.38162584013E+03  0.38162584014E+03  0.25500000920E-02 0. -1.
    10030    2    1    2    0    0  0.00000000000E+00  0.00000000000E+00 -0.28903920942E+02  0.73434775934E+03  0.73377870984E+03 0.  0.
        5    1    3    3  502    0 -0.53218101943E+02  0.29513954097E+03 -0.22591228141E+03  0.37549695593E+03  0.46999998093E+01 0. -1.
       -5    1    3    3    0  502  0.53218101943E+02 -0.29513954097E+03  0.19700836047E+03  0.35885080342E+03  0.46999998093E+01 0.  1.
</event>
<event>
 5   0  0.4420645E-02  0.7138221E+03  0.7818609E-02  0.9693882E-01
        2   -1    0    0  501    0  0.00000000000E+00  0.00000000000E+00  0.72871393916E+03  0.72871393916E+03  0.25500000920E-02 0. -1.
       -2   -1    0    0    0  501  0.00000000000E+00  0.00000000000E+00 -0.17480865201E+03  0.17480865203E+03  0.25500000920E-02 0.  1.
    10030    2    1    2    0    0  0.00000000000E+00  0.00000000000E+00  0.55390528715E+03  0.90352259119E+03  0.71382211066E+03 0.  0.
        5    1    3    3  502    0 -0.16840188291E+03 -0.24876254541E+03  0.52082426780E+03  0.60126700067E+03  0.46999998093E+01 0. -1.
       -5    1    3    3    0  502  0.16840188291E+03  0.24876254541E+03  0.33081019353E+02  0.30225559053E+03  0.46999998093E+01 0.  1.
</event>
<event>
 5   0  0.2751729E-02  0.6983785E+03  0.7818609E-02  0.9720009E-01
       -1   -1    0    0    0  501  0.00000000000E+00  0.00000000000E+00  0.37696393162E+03  0.37696393165E+03  0.50400001928E-02 0.  1.
        1   -1    0    0  501    0  0.00000000000E+00  0.00000000000E+00 -0.32346101199E+03  0.32346101203E+03  0.50400001928E-02 0. -1.
    10030    2    1    2    0    0  0.00000000000E+00  0.00000000000E+00  0.53502919625E+02  0.70042494368E+03  0.69837850720E+03 0.  0.
        1    1    3    3  502    0 -0.12361057197E+03  0.30631877026E+03 -0.86816266117E+02  0.34153744539E+03  0.50400001928E-02 0. -1.
       -1    1    3    3    0  502  0.12361057197E+03 -0.30631877026E+03  0.14031918574E+03  0.35888749829E+03  0.50400001928E-02 0.  1.
</event>
<event>
 5   0  0.1784625E-02  0.7003141E+03  0.7818609E-02  0.9716695E-01
       -3   -1    0    0    0  501  0.00000000000E+00  0.00000000000E+00  0.64858233633E+03  0.64858234420E+03  0.10100000352E+00 0.  1.
        3   -1    0    0  501    0  0.00000000000E+00  0.00000000000E+00 -0.18904298193E+03  0.18904300891E+03  0.10100000352E+00 0. -1.
    10030    2    1    2    0    0  0.00000000000E+00  0.00000000000E+00  0.45953935440E+03  0.83762535311E+03  0.70031408235E+03 0.  0.
        5    1    3    3  502    0 -0.11353112781E+03 -0.20810171159E+03  0.53795756290E+03  0.58789120492E+03  0.46999998093E+01 0.  1.
       -5    1    3    3    0  502  0.11353112781E+03  0.20810171159E+03 -0.78418208501E+02  0.24973414819E+03  0.46999998093E+01 0. -1.
</event>
<event>
 5   0  0.2751729E-02  0.6998415E+03  0.7818609E-02  0.9717503E-01
       -1   -1    0    0    0  501  0.00000000000E+00  0.00000000000E+00  0.19794179740E+03  0.19794179747E+03  0.50400001928E-02 0.  1.
        1   -1    0    0  501    0  0.00000000000E+00  0.00000000000E+00 -0.61858861274E+03  0.61858861276E+03  0.50400001928E-02 0. -1.
    10030    2    1    2    0    0  0.00000000000E+00  0.00000000000E+00 -0.42064681533E+03  0.81653041022E+03  0.69984153033E+03 0.  0.
        1    1    3    3  502    0  0.22128865617E+03  0.23497476887E+03 -0.52651069408E+02  0.32703814226E+03  0.50400001928E-02 0.  1.
       -1    1    3    3    0  502 -0.22128865617E+03 -0.23497476887E+03 -0.36799574592E+03  0.48949226797E+03  0.50400001928E-02 0. -1.
</event>
<event>
 5   0  0.2758681E-02  0.6887992E+03  0.7818609E-02  0.9736581E-01
       -1   -1    0    0    0  501  0.00000000000E+00  0.00000000000E+00  0.65159448701E+03  0.65159448703E+03  0.50400001928E-02 0. -1.
        1   -1    0    0  501    0  0.00000000000E+00  0.00000000000E+00 -0.18203207395E+03  0.18203207402E+03  0.50400001928E-02 0.  1.
    10030    2    1    2    0    0  0.00000000000E+00  0.00000000000E+00  0.46956241306E+03  0.83362656105E+03  0.68879923311E+03 0.  0.
        3    1    3    3  502    0  0.28743673073E+03 -0.18940604038E+03  0.22171468608E+03  0.40945321409E+03  0.10100000352E+00 0.  1.
       -3    1    3    3    0  502 -0.28743673073E+03  0.18940604038E+03  0.24784772698E+03  0.42417334696E+03  0.10100000352E+00 0. -1.
</event>
<event>
 5   0  0.4526837E-02  0.7066569E+03  0.7818609E-02  0.9705915E-01
       -2   -1    0    0    0  501  0.00000000000E+00  0.00000000000E+00  0.98532708856E+02  0.98532708889E+02  0.25500000920E-02 0.  1.
        2   -1    0    0  501    0  0.00000000000E+00  0.00000000000E+00 -0.12670003634E+04  0.12670003634E+04  0.25500000920E-02 0. -1.
    10030    2    1    2    0    0  0.00000000000E+00  0.00000000000E+00 -0.11684676546E+04  0.13655330723E+04  0.70665685577E+03 0.  0.
        1    1    3    3  502    0  0.27172312930E+03 -0.13768036855E+03 -0.23827952112E+03  0.38673824881E+03  0.50400001928E-02 0.  1.
       -1    1    3    3    0  502 -0.27172312930E+03  0.13768036855E+03 -0.93018813343E+03  0.97879482349E+03  0.50400001928E-02 0. -1.
</event>
<event>
 5   0  0.2758681E-02  0.7015624E+03  0.7818609E-02  0.9714564E-01
        1   -1    0    0  501    0  0.00000000000E+00  0.00000000000E+00  0.47958536989E+03  0.47958536992E+03  0.50400001928E-02 0. -1.
       -1   -1    0    0    0  501  0.00000000000E+00  0.00000000000E+00 -0.25657046288E+03  0.25657046293E+03  0.50400001928E-02 0.  1.
    10030    2    1    2    0    0  0.00000000000E+00  0.00000000000E+00  0.22301490701E+03  0.73615583285E+03  0.70156237177E+03 0.  0.
        3    1    3    3  502    0 -0.25315384522E+03  0.65320713287E+02 -0.13389131613E+03  0.29373552674E+03  0.10100000352E+00 0.  1.
       -3    1    3    3    0  502  0.25315384522E+03 -0.65320713287E+02  0.35690622314E+03  0.44242030610E+03  0.10100000352E+00 0. -1.
</event>
<event>
 5   0  0.4526837E-02  0.5878069E+03  0.7818609E-02  0.9931031E-01
       -2   -1    0    0    0  501  0.00000000000E+00  0.00000000000E+00  0.22070520590E+03  0.22070520591E+03  0.25500000920E-02 0. -1.
        2   -1    0    0  501    0  0.00000000000E+00  0.00000000000E+00 -0.39137830525E+03  0.39137830526E+03  0.25500000920E-02 0.  1.
    10030    2    1    2    0    0  0.00000000000E+00  0.00000000000E+00 -0.17067309935E+03  0.61208351117E+03  0.58780687118E+03 0.  0.
        1    1    3    3  502    0  0.13293887245E+03  0.73520819591E+02 -0.34732485554E+03  0.37909446055E+03  0.50400001928E-02 0.  1.
       -1    1    3    3    0  502 -0.13293887245E+03 -0.73520819591E+02  0.17665175618E+03  0.23298905062E+03  0.50400001928E-02 0. -1.
</event>
<event>
 5   0  0.4299912E-02  0.7522639E+03  0.7818609E-02  0.9631805E-01
       -2   -1    0    0    0  501  0.00000000000E+00  0.00000000000E+00  0.11899078188E+03  0.11899078191E+03  0.25500000920E-02 0. -1.
        2   -1    0    0  501    0  0.00000000000E+00  0.00000000000E+00 -0.11889595787E+04  0.11889595787E+04  0.25500000920E-02 0.  1.
    10030    2    1    2    0    0  0.00000000000E+00  0.00000000000E+00 -0.10699687968E+04  0.13079503606E+04  0.75226386305E+03 0.  0.
        3    1    3    3  502    0  0.31385731421E+03 -0.14882645922E+03 -0.28411013144E+03  0.44874748538E+03  0.10100000352E+00 0. -1.
       -3    1    3    3    0  502 -0.31385731421E+03  0.14882645922E+03 -0.78585866535E+03  0.85920287520E+03  0.10100000352E+00 0.  1.
</event>
<event>
 5   0  0.4503289E-02  0.7117806E+03  0.7818609E-02  0.9697295E-01
       -2   -1    0    0    0  501  0.00000000000E+00  0.00000000000E+00  0.88251699447E+03  0.88251699447E+03  0.25500000920E-02 0.  1.
        2   -1    0    0  501    0  0.00000000000E+00  0.00000000000E+00 -0.14351893939E+03  0.14351893941E+03  0.25500000920E-02 0. -1.
    10030    2    1    2    0    0  0.00000000000E+00  0.00000000000E+00  0.73899805508E+03  0.10260359339E+04  0.71178059275E+03 0.  0.
        2    1    3    3  502    0  0.30528764118E+02  0.21342247698E+03  0.77766860890E+03  0.80700038686E+03  0.25500000920E-02 0.  1.
       -2    1    3    3    0  502 -0.30528764118E+02 -0.21342247698E+03 -0.38670553819E+02  0.21903554702E+03  0.25500000920E-02 0. -1.
</event>
<event>
 5   0  0.2750139E-02  0.7146659E+03  0.7818609E-02  0.9692475E-01
       -1   -1    0    0    0  501  0.00000000000E+00  0.00000000000E+00  0.29991860888E+03  0.29991860892E+03  0.50400001928E-02 0. -1.
        1   -1    0    0  501    0  0.00000000000E+00  0.00000000000E+00 -0.42573834929E+03  0.42573834932E+03  0.50400001928E-02 0.  1.
    10030    2    1    2    0    0  0.00000000000E+00  0.00000000000E+00 -0.12581974042E+03  0.72565695824E+03  0.71466594572E+03 0.  0.
        2    1    3    3  502    0 -0.14870793317E+03  0.31036624353E+03 -0.16054268310E+03  0.37975677428E+03  0.25500000920E-02 0.  1.
       -2    1    3    3    0  502  0.14870793317E+03 -0.31036624353E+03  0.34722942685E+02  0.34590018396E+03  0.25500000920E-02 0. -1.
</event>
<event>
 5   0  0.4420645E-02  0.7369802E+03  0.7818609E-02  0.9656001E-01
        2   -1    0    0  501    0  0.00000000000E+00  0.00000000000E+00  0.19153599911E+03  0.19153599913E+03  0.25500000920E-02 0.  1.
       -2   -1    0    0    0  501  0.00000000000E+00  0.00000000000E+00 -0.70892647661E+03  0.70892647661E+03  0.25500000920E-02 0. -1.
    10030    2    1    2    0    0  0.00000000000E+00  0.00000000000E+00 -0.51739047749E+03  0.90046247574E+03  0.73698016528E+03 0.  0.
        5    1    3    3  502    0  0.22705531685E+02 -0.14951347222E+03 -0.66922380968E+03  0.68611399708E+03  0.46999998093E+01 0. -1.
       -5    1    3    3    0  502 -0.22705531685E+02  0.14951347222E+03  0.15183333219E+03  0.21434847867E+03  0.46999998093E+01 0.  1.
</event>
<event>
 5   0  0.2777999E-02  0.6957979E+03  0.7818609E-02  0.9724445E-01
       -1   -1    0    0    0  501  0.00000000000E+00  0.00000000000E+00  0.33642965223E+03  0.33642965227E+03  0.50400001928E-02 0. -1.
        1   -1    0    0  501    0  0.00000000000E+00  0.00000000000E+00 -0.35975925268E+03  0.35975925272E+03  0.50400001928E-02 0.  1.
    10030    2    1    2    0    0  0.00000000000E+00  0.00000000000E+00 -0.23329600453E+02  0.69618890498E+03  0.69579790253E+03 0.  0.
        5    1    3    3  502    0  0.17727434749E+03  0.18934887362E+01  0.28780559847E+03  0.33805906598E+03  0.46999998093E+01 0. -1.
       -5    1    3    3    0  502 -0.17727434749E+03 -0.18934887362E+01 -0.31113519892E+03  0.35812983901E+03  0.46999998093E+01 0.  1.
</event>
<event>
 5   0  0.4420645E-02  0.7049966E+03  0.7818609E-02  0.9708725E-01
       -2   -1    0    0    0  501  0.00000000000E+00  0.00000000000E+00  0.41714774951E+03  0.41714774952E+03  0.25500000920E-02 0. -1.
        2   -1    0    0  501    0  0.00000000000E+00  0.00000000000E+00 -0.29786819343E+03  0.29786819344E+03  0.25500000920E-02 0.  1.
    10030    2    1    2    0    0  0.00000000000E+00  0.00000000000E+00  0.11927955609E+03  0.71501594296E+03  0.70499658594E+03 0.  0.
        5    1    3    3  502    0 -0.13720352956E+02 -0.27388968646E+03  0.28421192211E+03  0.39497128390E+03  0.46999998093E+01 0. -1.
       -5    1    3    3    0  502  0.13720352956E+02  0.27388968646E+03 -0.16493236602E+03  0.32004465906E+03  0.46999998093E+01 0.  1.
</event>
<event>
 5   0  0.4526837E-02  0.7059776E+03  0.7818609E-02  0.9707064E-01
       -2   -1    0    0    0  501  0.00000000000E+00  0.00000000000E+00  0.36011764564E+03  0.36011764565E+03  0.25500000920E-02 0.  1.
        2   -1    0    0  501    0  0.00000000000E+00  0.00000000000E+00 -0.34600109631E+03  0.34600109632E+03  0.25500000920E-02 0. -1.
    10030    2    1    2    0    0  0.00000000000E+00  0.00000000000E+00  0.14116549325E+02  0.70611874197E+03  0.70597762060E+03 0.  0.
        1    1    3    3  502    0  0.30581341812E+03  0.46298851104E+02  0.17719715676E+03  0.35646074497E+03  0.50400001928E-02 0.  1.
       -1    1    3    3    0  502 -0.30581341812E+03 -0.46298851104E+02 -0.16308060744E+03  0.34965799700E+03  0.50400001928E-02 0. -1.
</event>
<event>
 5   0  0.4365492E-02  0.6966579E+03  0.7818609E-02  0.9722965E-01
       -2   -1    0    0    0  501  0.00000000000E+00  0.00000000000E+00  0.40669086566E+03  0.40669086566E+03  0.25500000920E-02 0. -1.
        2   -1    0    0  501    0  0.00000000000E+00  0.00000000000E+00 -0.29834224653E+03  0.29834224655E+03  0.25500000920E-02 0.  1.
    10030    2    1    2    0    0  0.00000000000E+00  0.00000000000E+00  0.10834861912E+03  0.70503311221E+03  0.69665792613E+03 0.  0.
        4    1    3    3  502    0 -0.25207028306E+03 -0.23882830739E+03  0.26402362025E+02  0.34824859746E+03  0.12699999809E+01 0. -1.
       -4    1    3    3    0  502  0.25207028306E+03  0.23882830739E+03  0.81946257097E+02  0.35678451475E+03  0.12699999809E+01 0.  1.
</event>
<event>
 5   0  0.2750139E-02  0.7231430E+03  0.7818609E-02  0.9678453E-01
        1   -1    0    0  501    0  0.00000000000E+00  0.00000000000E+00  0.15908565885E+03  0.15908565893E+03  0.50400001928E-02 0.  1.
       -1   -1    0    0    0  501  0.00000000000E+00  0.00000000000E+00 -0.82178336668E+03  0.82178336670E+03  0.50400001928E-02 0. -1.
    10030    2    1    2    0    0  0.00000000000E+00  0.00000000000E+00 -0.66269770783E+03  0.98086902563E+03  0.72314299656E+03 0.  0.
        2    1    3    3  502    0  0.12581542250E+03  0.20449058605E+03  0.35350342373E+02  0.24268408896E+03  0.25500000920E-02 0.  1.
       -2    1    3    3    0  502 -0.12581542250E+03 -0.20449058605E+03 -0.69804805021E+03  0.73818493667E+03  0.25500000920E-02 0. -1.
</event>
<event>
 5   0  0.2750139E-02  0.7063229E+03  0.7818609E-02  0.9706480E-01
        1   -1    0    0  501    0  0.00000000000E+00  0.00000000000E+00  0.60811558061E+03  0.60811558063E+03  0.50400001928E-02 0. -1.
       -1   -1    0    0    0  501  0.00000000000E+00  0.00000000000E+00 -0.20509752658E+03  0.20509752664E+03  0.50400001928E-02 0.  1.
    10030    2    1    2    0    0  0.00000000000E+00  0.00000000000E+00  0.40301805403E+03  0.81321310727E+03  0.70632287657E+03 0.  0.
        2    1    3    3  502    0  0.76033828560E+02  0.11406629361E+03  0.57623353544E+03  0.59231524528E+03  0.25500000920E-02 0. -1.
       -2    1    3    3    0  502 -0.76033828560E+02 -0.11406629361E+03 -0.17321548141E+03  0.22089786199E+03  0.25500000920E-02 0.  1.
</event>
<event>
 5   0  0.4420645E-02  0.7074364E+03  0.7818609E-02  0.9704599E-01
       -2   -1    0    0    0  501  0.00000000000E+00  0.00000000000E+00  0.38193512623E+03  0.38193512624E+03  0.25500000920E-02 0.  1.
        2   -1    0    0  501    0  0.00000000000E+00  0.00000000000E+00 -0.32758593335E+03  0.32758593336E+03  0.25500000920E-02 0. -1.
    10030    2    1    2    0    0  0.00000000000E+00  0.00000000000E+00  0.54349192883E+02  0.70952105959E+03  0.70743642770E+03 0.  0.
        5    1    3    3  502    0  0.34656468242E+03 -0.47915652256E+02  0.79207102004E+02  0.35874621090E+03  0.46999998093E+01 0.  1.
       -5    1    3    3    0  502 -0.34656468242E+03  0.47915652256E+02 -0.24857909121E+02  0.35077484869E+03  0.46999998093E+01 0. -1.
</event>
<event>
 5   0  0.4299912E-02  0.7716006E+03  0.7818609E-02  0.9602059E-01
        2   -1    0    0  501    0  0.00000000000E+00  0.00000000000E+00  0.13897799743E+04  0.13897799743E+04  0.25500000920E-02 0. -1.
       -2   -1    0    0    0  501  0.00000000000E+00  0.00000000000E+00 -0.10709743819E+03  0.10709743822E+03  0.25500000920E-02 0.  1.
    10030    2    1    2    0    0  0.00000000000E+00  0.00000000000E+00  0.12826825361E+04  0.14968774125E+04  0.77160060891E+03 0.  0.
        3    1    3    3  502    0  0.37598612529E+02 -0.53566150869E+02  0.13789330267E+04  0.13804851649E+04  0.10100000352E+00 0. -1.
       -3    1    3    3    0  502 -0.37598612529E+02  0.53566150869E+02 -0.96250490550E+02  0.11639224766E+03  0.10100000352E+00 0.  1.
</event>
<event>
 5   0  0.1784625E-02  0.6984024E+03  0.7818609E-02  0.9719968E-01
       -4   -1    0    0    0  501  0.00000000000E+00  0.00000000000E+00  0.37846279109E+03  0.37846492194E+03  0.12699999809E+01 0.  1.
        4   -1    0    0  501    0  0.00000000000E+00  0.00000000000E+00 -0.32219769613E+03  0.32220019908E+03  0.12699999809E+01 0. -1.
    10030    2    1    2    0    0  0.00000000000E+00  0.00000000000E+00  0.56265094960E+02  0.70066512102E+03  0.69840235602E+03 0.  0.
        5    1    3    3  502    0 -0.27529410248E+03 -0.13035883929E+03 -0.14312230721E+03  0.33658038365E+03  0.46999998093E+01 0. -1.
       -5    1    3    3    0  502  0.27529410248E+03  0.13035883929E+03  0.19938740217E+03  0.36408473737E+03  0.46999998093E+01 0.  1.
</event>
<event>
 5   0  0.4365492E-02  0.6902225E+03  0.7818609E-02  0.9734101E-01
        2   -1    0    0  501    0  0.00000000000E+00  0.00000000000E+00  0.10976369936E+04  0.10976369936E+04  0.25500000920E-02 0.  1.
       -2   -1    0    0    0  501  0.00000000000E+00  0.00000000000E+00 -0.10850742644E+03  0.10850742647E+03  0.25500000920E-02 0. -1.
    10030    2    1    2    0    0  0.00000000000E+00  0.00000000000E+00  0.98912956720E+03  0.12061444201E+04  0.69022247243E+03 0.  0.
        4    1    3    3  502    0 -0.53406796386E+02  0.71485485492E+02  0.10771251082E+04  0.10808156976E+04  0.12699999809E+01 0.  1.
       -4    1    3    3    0  502  0.53406796386E+02 -0.71485485492E+02 -0.87995541040E+02  0.12532872248E+03  0.12699999809E+01 0. -1.
</event>
<event>
 5   0  0.2750139E-02  0.6056095E+03  0.7818609E-02  0.9893836E-01
       -1   -1    0    0    0  501  0.00000000000E+00  0.00000000000E+00  0.14902141639E+03  0.14902141647E+03  0.50400001928E-02 0.  1.
        1   -1    0    0  501    0  0.00000000000E+00  0.00000000000E+00 -0.61528554053E+03  0.61528554055E+03  0.50400001928E-02 0. -1.
    10030    2    1    2    0    0  0.00000000000E+00  0.00000000000E+00 -0.46626412414E+03  0.76430695702E+03  0.60560952031E+03 0.  0.
        2    1    3    3  502    0 -0.74199277473E+02 -0.12072513913E+03  0.10459344977E+03  0.17612461991E+03  0.25500000920E-02 0.  1.
       -2    1    3    3    0  502  0.74199277473E+02  0.12072513913E+03 -0.57085757391E+03  0.58818233711E+03  0.25500000920E-02 0. -1.
</event>
<event>
 5   0  0.1784625E-02  0.6712178E+03  0.7818609E-02  0.9767760E-01
       -3   -1    0    0    0  501  0.00000000000E+00  0.00000000000E+00  0.47499293718E+03  0.47499294792E+03  0.10100000352E+00 0. -1.
        3   -1    0    0  501    0  0.00000000000E+00  0.00000000000E+00 -0.23712627752E+03  0.23712629903E+03  0.10100000352E+00 0.  1.
    10030    2    1    2    0    0  0.00000000000E+00  0.00000000000E+00  0.23786665966E+03  0.71211924695E+03  0.67121775461E+03 0.  0.
        3    1    3    3  502    0 -0.19896232470E+03 -0.12888543801E+03 -0.13310512380E+03  0.27187211509E+03  0.10100000352E+00 0.  1.
       -3    1    3    3    0  502  0.19896232470E+03  0.12888543801E+03  0.37097178346E+03  0.44024713186E+03  0.10100000352E+00 0. -1.
</event>
<event>
 5   0  0.2758681E-02  0.7033724E+03  0.7818609E-02  0.9711482E-01
        1   -1    0    0  501    0  0.00000000000E+00  0.00000000000E+00  0.95572561945E+03  0.95572561946E+03  0.50400001928E-02 0. -1.
       -1   -1    0    0    0  501  0.00000000000E+00  0.00000000000E+00 -0.12941284200E+03  0.12941284210E+03  0.50400001928E-02 0.  1.
    10030    2    1    2    0    0  0.00000000000E+00  0.00000000000E+00  0.82631277744E+03  0.10851384616E+04  0.70337235842E+03 0.  0.
        3    1    3    3  502    0 -0.21646692023E+02  0.51686544100E+02  0.94879392315E+03  0.95044726151E+03  0.10100000352E+00 0. -1.
       -3    1    3    3    0  502  0.21646692023E+02 -0.51686544100E+02 -0.12248114570E+03  0.13469120005E+03  0.10100000352E+00 0.  1.
</event>
<event>
 5   0  0.4526837E-02  0.7007418E+03  0.7818609E-02  0.9715964E-01
       -2   -1    0    0    0  501  0.00000000000E+00  0.00000000000E+00  0.23596400137E+03  0.23596400138E+03  0.25500000920E-02 0. -1.
        2   -1    0    0  501    0  0.00000000000E+00  0.00000000000E+00 -0.52024787911E+03  0.52024787912E+03  0.25500000920E-02 0.  1.
    10030    2    1    2    0    0  0.00000000000E+00  0.00000000000E+00 -0.28428387774E+03  0.75621188050E+03  0.70074181056E+03 0.  0.
        1    1    3    3  502    0  0.40485225766E+02 -0.27119151989E+03 -0.37752698437E+03  0.46659459697E+03  0.50400001928E-02 0.  1.
       -1    1    3    3    0  502 -0.40485225766E+02  0.27119151989E+03  0.93243106630E+02  0.28961728354E+03  0.50400001928E-02 0. -1.
</event>
<event>
 5   0  0.2750139E-02  0.7130414E+03  0.7818609E-02  0.9695186E-01
        1   -1    0    0  501    0  0.00000000000E+00  0.00000000000E+00  0.58104560335E+03  0.58104560337E+03  0.50400001928E-02 0. -1.
       -1   -1    0    0    0  501  0.00000000000E+00  0.00000000000E+00 -0.21875567571E+03  0.21875567577E+03  0.50400001928E-02 0.  1.
    10030    2    1    2    0    0  0.00000000000E+00  0.00000000000E+00  0.36228992764E+03  0.79980127915E+03  0.71304143951E+03 0.  0.
        2    1    3    3  502    0  0.68692702855E+02 -0.19468538088E+03 -0.14488652025E+03  0.25221655122E+03  0.25500000920E-02 0.  1.
       -2    1    3    3    0  502 -0.68692702855E+02  0.19468538088E+03  0.50717644789E+03  0.54758472792E+03  0.25500000920E-02 0. -1.
</event>
<event>
 5   0  0.4526837E-02  0.7243001E+03  0.7818609E-02  0.9676555E-01
       -2   -1    0    0    0  501  0.00000000000E+00  0.00000000000E+00  0.16099758839E+03  0.16099758841E+03  0.25500000920E-02 0. -1.
        2   -1    0    0  501    0  0.00000000000E+00  0.00000000000E+00 -0.81462508657E+03  0.81462508657E+03  0.25500000920E-02 0.  1.
    10030    2    1    2    0    0  0.00000000000E+00  0.00000000000E+00 -0.65362749818E+03  0.97562267499E+03  0.72430014330E+03 0.  0.
        1    1    3    3  502    0 -0.18106324282E+03  0.74322983282E+02 -0.73724674906E+03  0.76278474865E+03  0.50400001928E-02 0.  1.
       -1    1    3    3    0  502  0.18106324282E+03 -0.74322983282E+02  0.83619250884E+02  0.21283792634E+03  0.50400001928E-02 0. -1.
</event>
<event>
 5   0  0.1784625E-02  0.6870033E+03  0.7818609E-02  0.9739720E-01
       -3   -1    0    0    0  501  0.00000000000E+00  0.00000000000E+00  0.10833269433E+03  0.10833274141E+03  0.10100000352E+00 0. -1.
        3   -1    0    0  501    0  0.00000000000E+00  0.00000000000E+00 -0.10891757698E+04  0.10891757745E+04  0.10100000352E+00 0.  1.
    10030    2    1    2    0    0  0.00000000000E+00  0.00000000000E+00 -0.98084307551E+03  0.11975085159E+04  0.68700328016E+03 0.  0.
        5    1    3    3  502    0  0.17172752791E+03 -0.17498591830E+03 -0.90970939425E+03  0.94218028393E+03  0.46999998093E+01 0.  1.
       -5    1    3    3    0  502 -0.17172752791E+03  0.17498591830E+03 -0.71133681261E+02  0.25532823200E+03  0.46999998093E+01 0. -1.
</event>
<event>
 5   0  0.4299912E-02  0.6714940E+03  0.7818609E-02  0.9767263E-01
        2   -1    0    0  501    0  0.00000000000E+00  0.00000000000E+00  0.21582357003E+04  0.21582357003E+04  0.25500000920E-02 0. -1.
       -2   -1    0    0    0  501  0.00000000000E+00  0.00000000000E+00 -0.52230642471E+02  0.52230642533E+02  0.25500000920E-02 0.  1.
    10030    2    1    2    0    0  0.00000000000E+00  0.00000000000E+00  0.21060050579E+04  0.22104663429E+04  0.67149396811E+03 0.  0.
        3    1    3    3  502    0  0.19839867055E+03 -0.44203719973E+01  0.19445109165E+04  0.19546110321E+04  0.10100000352E+00 0. -1.
       -3    1    3    3    0  502 -0.19839867055E+03  0.44203719973E+01  0.16149414139E+03  0.25585531081E+03  0.10100000352E+00 0.  1.
</event>
<event>
 5   0  0.2751729E-02  0.7106223E+03  0.7818609E-02  0.9699237E-01
       -1   -1    0    0    0  501  0.00000000000E+00  0.00000000000E+00  0.96308701293E+02  0.96308701425E+02  0.50400001928E-02 0.  1.
        1   -1    0    0  501    0  0.00000000000E+00  0.00000000000E+00 -0.13108472707E+04  0.13108472707E+04  0.50400001928E-02 0. -1.
    10030    2    1    2    0    0  0.00000000000E+00  0.00000000000E+00 -0.12145385694E+04  0.14071559722E+04  0.71062225785E+03 0.  0.
        1    1    3    3  502    0 -0.28936889275E+03 -0.10594258915E+03 -0.95752966515E+03  0.10058932587E+04  0.50400001928E-02 0. -1.
       -1    1    3    3    0  502  0.28936889275E+03  0.10594258915E+03 -0.25700890430E+03  0.40126271345E+03  0.50400001928E-02 0.  1.
</event>
<event>
 5   0  0.2751729E-02  0.7052309E+03  0.7818609E-02  0.9708328E-01
        1   -1    0    0  501    0  0.00000000000E+00  0.00000000000E+00  0.69525079495E+03  0.69525079497E+03  0.50400001928E-02 0. -1.
       -1   -1    0    0    0  501  0.00000000000E+00  0.00000000000E+00 -0.17883857058E+03  0.17883857065E+03  0.50400001928E-02 0.  1.
    10030    2    1    2    0    0  0.00000000000E+00  0.00000000000E+00  0.51641222437E+03  0.87408936562E+03  0.70523090800E+03 0.  0.
        1    1    3    3  502    0 -0.21888338582E+03  0.24190253711E+03  0.92330318712E+02  0.33904522092E+03  0.50400001928E-02 0.  1.
       -1    1    3    3    0  502  0.21888338582E+03 -0.24190253711E+03  0.42408190566E+03  0.53504414470E+03  0.50400001928E-02 0. -1.
</event>
<event>
 5   0  0.4526837E-02  0.7100216E+03  0.7818609E-02  0.9700246E-01
        2   -1    0    0  501    0  0.00000000000E+00  0.00000000000E+00  0.66331142360E+03  0.66331142361E+03  0.25500000920E-02 0.  1.
       -2   -1    0    0    0  501  0.00000000000E+00  0.00000000000E+00 -0.19000526937E+03  0.19000526939E+03  0.25500000920E-02 0. -1.
    10030    2    1    2    0    0  0.00000000000E+00  0.00000000000E+00  0.47330615423E+03  0.85331669299E+03  0.71002159327E+03 0.  0.
        1    1    3    3  502    0  0.19538255925E+03  0.38070327844E+00  0.59288249154E+03  0.62424685678E+03  0.50400001928E-02 0.  1.
       -1    1    3    3    0  502 -0.19538255925E+03 -0.38070327844E+00 -0.11957633731E+03  0.22906983622E+03  0.50400001928E-02 0. -1.
</event>
<event>
 5   0  0.1784625E-02  0.7710014E+03  0.7818609E-02  0.9602967E-01
        4   -1    0    0  501    0  0.00000000000E+00  0.00000000000E+00  0.16209819963E+03  0.16210317463E+03  0.12699999809E+01 0. -1.
       -4   -1    0    0    0  501  0.00000000000E+00  0.00000000000E+00 -0.91677543725E+03  0.91677631691E+03  0.12699999809E+01 0.  1.
    10030    2    1    2    0    0  0.00000000000E+00  0.00000000000E+00 -0.75467723762E+03  0.10788794915E+04  0.77100144246E+03 0.  0.
        3    1    3    3  502    0  0.53872244190E+02  0.11759406582E+03 -0.88550691522E+03  0.89490395580E+03  0.10100000352E+00 0.  1.
       -3    1    3    3    0  502 -0.53872244190E+02 -0.11759406582E+03  0.13082967760E+03  0.18397553574E+03  0.10100000352E+00 0. -1.
</event>
<event>
 5   0  0.2751729E-02  0.6944799E+03  0.7818609E-02  0.9726719E-01
       -1   -1    0    0    0  501  0.00000000000E+00  0.00000000000E+00  0.36909436412E+03  0.36909436416E+03  0.50400001928E-02 0.  1.
        1   -1    0    0  501    0  0.00000000000E+00  0.00000000000E+00 -0.32667953427E+03  0.32667953431E+03  0.50400001928E-02 0. -1.
    10030    2    1    2    0    0  0.00000000000E+00  0.00000000000E+00  0.42414829853E+02  0.69577389847E+03  0.69447987732E+03 0.  0.
        1    1    3    3  502    0 -0.15732839247E+03  0.18682446613E+03 -0.22607219616E+03  0.33281262314E+03  0.50400001928E-02 0. -1.
       -1    1    3    3    0  502  0.15732839247E+03 -0.18682446613E+03  0.26848702601E+03  0.36296127532E+03  0.50400001928E-02 0.  1.
</event>
<event>
 5   0  0.4299912E-02  0.7027982E+03  0.7818609E-02  0.9712459E-01
       -2   -1    0    0    0  501  0.00000000000E+00  0.00000000000E+00  0.16714903425E+03  0.16714903427E+03  0.25500000920E-02 0. -1.
        2   -1    0    0  501    0  0.00000000000E+00  0.00000000000E+00 -0.73874994434E+03  0.73874994434E+03  0.25500000920E-02 0.  1.
    10030    2    1    2    0    0  0.00000000000E+00  0.00000000000E+00 -0.57160091009E+03  0.90589897862E+03  0.70279823495E+03 0.  0.
        3    1    3    3  502    0  0.31642173072E+03 -0.90696789385E+02 -0.12723540583E+03  0.35289867947E+03  0.10100000352E+00 0. -1.
       -3    1    3    3    0  502 -0.31642173072E+03  0.90696789385E+02 -0.44436550426E+03  0.55300029914E+03  0.10100000352E+00 0.  1.
</event>
<event>
 5   0  0.2684924E-02  0.6832706E+03  0.7818609E-02  0.9746277E-01
        1   -1    0    0  501    0  0.00000000000E+00  0.00000000000E+00  0.68274748006E+03  0.68274748008E+03  0.50400001928E-02 0.  1.
       -1   -1    0    0    0  501  0.00000000000E+00  0.00000000000E+00 -0.17094852648E+03  0.17094852655E+03  0.50400001928E-02 0. -1.
    10030    2    1    2    0    0  0.00000000000E+00  0.00000000000E+00  0.51179895358E+03  0.85369600663E+03  0.68327059270E+03 0.  0.
        4    1    3    3  502    0  0.16284985195E+03 -0.19885728643E+03 -0.25287345667E+02  0.25827380316E+03  0.12699999809E+01 0. -1.
       -4    1    3    3    0  502 -0.16284985195E+03  0.19885728643E+03  0.53708629925E+03  0.59542220347E+03  0.12699999809E+01 0.  1.
</event>
<event>
 5   0  0.2684924E-02  0.7060267E+03  0.7818609E-02  0.9706981E-01
       -1   -1    0    0    0  501  0.00000000000E+00  0.00000000000E+00  0.13114693925E+03  0.13114693934E+03  0.50400001928E-02 0. -1.
        1   -1    0    0  501    0  0.00000000000E+00  0.00000000000E+00 -0.95021983107E+03  0.95021983108E+03  0.50400001928E-02 0.  1.
    10030    2    1    2    0    0  0.00000000000E+00  0.00000000000E+00 -0.81907289182E+03  0.10813667704E+04  0.70602669218E+03 0.  0.
        4    1    3    3  502    0  0.21744205799E+03  0.73752350821E+02  0.11452306945E+01  0.22961572744E+03  0.12699999809E+01 0. -1.
       -4    1    3    3    0  502 -0.21744205799E+03 -0.73752350821E+02 -0.82021812251E+03  0.85175104299E+03  0.12699999809E+01 0.  1.
</event>
<event>
 5   0  0.2684924E-02  0.6818171E+03  0.7818609E-02  0.9748843E-01
        1   -1    0    0  501    0  0.00000000000E+00  0.00000000000E+00  0.84595109844E+03  0.84595109846E+03  0.50400001928E-02 0. -1.
       -1   -1    0    0    0  501  0.00000000000E+00  0.00000000000E+00 -0.13738221871E+03  0.13738221880E+03  0.50400001928E-02 0.  1.
    10030    2    1    2    0    0  0.00000000000E+00  0.00000000000E+00  0.70856887973E+03  0.98333331726E+03  0.68181709829E+03 0.  0.
        4    1    3    3  502    0  0.25344917914E+02  0.30914635172E+03  0.55826207069E+03  0.63864856072E+03  0.12699999809E+01 0.  1.
       -4    1    3    3    0  502 -0.25344917914E+02 -0.30914635172E+03  0.15030680904E+03  0.34468475654E+03  0.12699999809E+01 0. -1.
</event>
<event>
 5   0  0.4503289E-02  0.7028136E+03  0.7818609E-02  0.9712433E-01
        2   -1    0    0  501    0  0.00000000000E+00  0.00000000000E+00  0.96787339484E+03  0.96787339485E+03  0.25500000920E-02 0. -1.
       -2   -1    0    0    0  501  0.00000000000E+00  0.00000000000E+00 -0.12758561640E+03  0.12758561642E+03  0.25500000920E-02 0.  1.
    10030    2    1    2    0    0  0.00000000000E+00  0.00000000000E+00  0.84028777844E+03  0.10954590113E+04  0.70281355619E+03 0.  0.
        2    1    3    3  502    0 -0.11489716624E+03 -0.14504724969E+03  0.88578572094E+03  0.90490684983E+03  0.25500000920E-02 0. -1.
       -2    1    3    3    0  502  0.11489716624E+03  0.14504724969E+03 -0.45497942490E+02  0.19055216144E+03  0.25500000920E-02 0.  1.
</event>
<event>
 5   0  0.4365492E-02  0.6841331E+03  0.7818609E-02  0.9744758E-01
       -2   -1    0    0    0  501  0.00000000000E+00  0.00000000000E+00  0.12579226489E+03  0.12579226491E+03  0.25500000920E-02 0. -1.
        2   -1    0    0  501    0  0.00000000000E+00  0.00000000000E+00 -0.93018071287E+03  0.93018071287E+03  0.25500000920E-02 0.  1.
    10030    2    1    2    0    0  0.00000000000E+00  0.00000000000E+00 -0.80438844798E+03  0.10559729778E+04  0.68413314096E+03 0.  0.
        4    1    3    3  502    0 -0.12083249152E+03 -0.16364638884E+03 -0.82666857865E+03  0.85133024345E+03  0.12699999809E+01 0.  1.
       -4    1    3    3    0  502  0.12083249152E+03  0.16364638884E+03  0.22280130671E+02  0.20464273433E+03  0.12699999809E+01 0. -1.
</event>
<event>
 5   0  0.4299912E-02  0.6985214E+03  0.7818609E-02  0.9719764E-01
       -2   -1    0    0    0  501  0.00000000000E+00  0.00000000000E+00  0.27198219162E+03  0.27198219163E+03  0.25500000920E-02 0. -1.
        2   -1    0    0  501    0  0.00000000000E+00  0.00000000000E+00 -0.44849637155E+03  0.44849637156E+03  0.25500000920E-02 0.  1.
    10030    2    1    2    0    0  0.00000000000E+00  0.00000000000E+00 -0.17651417993E+03  0.72047856319E+03  0.69852136997E+03 0.  0.
        3    1    3    3  502    0  0.94442167770E+02 -0.20051518297E+03  0.19014857272E+03  0.29203107979E+03  0.10100000352E+00 0. -1.
       -3    1    3    3    0  502 -0.94442167770E+02  0.20051518297E+03 -0.36666275264E+03  0.42844748340E+03  0.10100000352E+00 0.  1.
</event>
<event>
 5   0  0.2758681E-02  0.7170355E+03  0.7818609E-02  0.9688535E-01
        1   -1    0    0  501    0  0.00000000000E+00  0.00000000000E+00  0.29757010663E+03  0.29757010667E+03  0.50400001928E-02 0.  1.
       -1   -1    0    0    0  501  0.00000000000E+00  0.00000000000E+00 -0.43194858564E+03  0.43194858566E+03  0.50400001928E-02 0. -1.
    10030    2    1    2    0    0  0.00000000000E+00  0.00000000000E+00 -0.13437847901E+03  0.72951869234E+03  0.71703552691E+03 0.  0.
        3    1    3    3  502    0 -0.10129651911E+03  0.62114254159E+02 -0.41133210618E+03  0.42815099805E+03  0.10100000352E+00 0. -1.
       -3    1    3    3    0  502  0.10129651911E+03 -0.62114254159E+02  0.27695362717E+03  0.30136769429E+03  0.10100000352E+00 0.  1.
</event>
<event>
 5   0  0.4299912E-02  0.6929607E+03  0.7818609E-02  0.9729347E-01
       -2   -1    0    0    0  501  0.00000000000E+00  0.00000000000E+00  0.20839870694E+03  0.20839870695E+03  0.25500000920E-02 0.  1.
        2   -1    0    0  501    0  0.00000000000E+00  0.00000000000E+00 -0.57605264010E+03  0.57605264011E+03  0.25500000920E-02 0. -1.
    10030    2    1    2    0    0  0.00000000000E+00  0.00000000000E+00 -0.36765393317E+03  0.78445134706E+03  0.69296067806E+03 0.  0.
        3    1    3    3  502    0 -0.93712399251E+02  0.16081795515E+03 -0.51465096194E+03  0.54727511482E+03  0.10100000352E+00 0. -1.
       -3    1    3    3    0  502  0.93712399251E+02 -0.16081795515E+03  0.14699702877E+03  0.23717623225E+03  0.10100000352E+00 0.  1.
</event>
<event>
 5   0  0.1784625E-02  0.7059785E+03  0.7818609E-02  0.9707062E-01
       -3   -1    0    0    0  501  0.00000000000E+00  0.00000000000E+00  0.39625974899E+03  0.39625976186E+03  0.10100000352E+00 0. -1.
        3   -1    0    0  501    0  0.00000000000E+00  0.00000000000E+00 -0.31444375384E+03  0.31444377006E+03  0.10100000352E+00 0.  1.
    10030    2    1    2    0    0  0.00000000000E+00  0.00000000000E+00  0.81815995148E+02  0.71070353193E+03  0.70597850763E+03 0.  0.
        1    1    3    3  502    0  0.30734998483E+03 -0.57632990609E+02 -0.12394341944E+03  0.33637411617E+03  0.50400001928E-02 0. -1.
       -1    1    3    3    0  502 -0.30734998483E+03  0.57632990609E+02  0.20575941458E+03  0.37432941575E+03  0.50400001928E-02 0.  1.
</event>
<event>
 5   0  0.4503289E-02  0.6990980E+03  0.7818609E-02  0.9718776E-01
       -2   -1    0    0    0  501  0.00000000000E+00  0.00000000000E+00  0.27548155770E+03  0.27548155771E+03  0.25500000920E-02 0.  1.
        2   -1    0    0  501    0  0.00000000000E+00  0.00000000000E+00 -0.44353066616E+03  0.44353066617E+03  0.25500000920E-02 0. -1.
    10030    2    1    2    0    0  0.00000000000E+00  0.00000000000E+00 -0.16804910847E+03  0.71901222388E+03  0.69909804408E+03 0.  0.
        2    1    3    3  502    0 -0.32201933285E+03  0.13022150007E+03 -0.12425962586E+03  0.36890994082E+03  0.25500000920E-02 0. -1.
       -2    1    3    3    0  502  0.32201933285E+03 -0.13022150007E+03 -0.43789482609E+02  0.35010228306E+03  0.25500000920E-02 0.  1.
</event>
<event>
 5   0  0.2758681E-02  0.6908700E+03  0.7818609E-02  0.9732974E-01
       -1   -1    0    0    0  501  0.00000000000E+00  0.00000000000E+00  0.20781786291E+03  0.20781786297E+03  0.50400001928E-02 0.  1.
        1   -1    0    0  501    0  0.00000000000E+00  0.00000000000E+00 -0.57418227301E+03  0.57418227303E+03  0.50400001928E-02 0. -1.
    10030    2    1    2    0    0  0.00000000000E+00  0.00000000000E+00 -0.36636441010E+03  0.78200013599E+03  0.69086998177E+03 0.  0.
        3    1    3    3  502    0 -0.26281121990E+03 -0.90983027654E+02  0.48727909977E+02  0.28235096606E+03  0.10100000352E+00 0.  1.
       -3    1    3    3    0  502  0.26281121990E+03  0.90983027654E+02 -0.41509232008E+03  0.49964916993E+03  0.10100000352E+00 0. -1.
</event>
<event>
 5   0  0.4420645E-02  0.7011439E+03  0.7818609E-02  0.9715278E-01
       -2   -1    0    0    0  501  0.00000000000E+00  0.00000000000E+00  0.23350409265E+03  0.23350409266E+03  0.25500000920E-02 0. -1.
        2   -1    0    0  501    0  0.00000000000E+00  0.00000000000E+00 -0.52633214361E+03  0.52633214361E+03  0.25500000920E-02 0.  1.
    10030    2    1    2    0    0  0.00000000000E+00  0.00000000000E+00 -0.29282805096E+03  0.75983623627E+03  0.70114394993E+03 0.  0.
        5    1    3    3  502    0  0.27265288308E+02 -0.28921946433E+03  0.66190093621E+02  0.29798408176E+03  0.46999998093E+01 0. -1.
       -5    1    3    3    0  502 -0.27265288308E+02  0.28921946433E+03 -0.35901814458E+03  0.46185215451E+03  0.46999998093E+01 0.  1.
</event>
<event>
 5   0  0.2777999E-02  0.7095720E+03  0.7818609E-02  0.9701001E-01
       -1   -1    0    0    0  501  0.00000000000E+00  0.00000000000E+00  0.38111995952E+03  0.38111995955E+03  0.50400001928E-02 0. -1.
        1   -1    0    0  501    0  0.00000000000E+00  0.00000000000E+00 -0.33027159326E+03  0.33027159330E+03  0.50400001928E-02 0.  1.
    10030    2    1    2    0    0  0.00000000000E+00  0.00000000000E+00  0.50848366254E+02  0.71139155285E+03  0.70957197317E+03 0.  0.
        5    1    3    3  502    0 -0.29377826105E+03  0.18988021997E+03 -0.33810671519E+02  0.35146182738E+03  0.46999998093E+01 0.  1.
       -5    1    3    3    0  502  0.29377826105E+03 -0.18988021997E+03  0.84659037773E+02  0.35992972547E+03  0.46999998093E+01 0. -1.
</event>
<event>
 5   0  0.4420645E-02  0.6985900E+03  0.7818609E-02  0.9719647E-01
        2   -1    0    0  501    0  0.00000000000E+00  0.00000000000E+00  0.85540184332E+03  0.85540184332E+03  0.25500000920E-02 0.  1.
       -2   -1    0    0    0  501  0.00000000000E+00  0.00000000000E+00 -0.14263119661E+03  0.14263119663E+03  0.25500000920E-02 0. -1.
    10030    2    1    2    0    0  0.00000000000E+00  0.00000000000E+00  0.71277064671E+03  0.99803303995E+03  0.69858997561E+03 0.  0.
        5    1    3    3  502    0  0.32586444648E+03 -0.11877259409E+03  0.29764875544E+03  0.45706830802E+03  0.46999998093E+01 0. -1.
       -5    1    3    3    0  502 -0.32586444648E+03  0.11877259409E+03  0.41512189127E+03  0.54096473193E+03  0.46999998093E+01 0.  1.
</event>
<event>
 5   0  0.4526837E-02  0.6996367E+03  0.7818609E-02  0.9717854E-01
       -2   -1    0    0    0  501  0.00000000000E+00  0.00000000000E+00  0.15141286437E+03  0.15141286439E+03  0.25500000920E-02 0. -1.
        2   -1    0    0  501    0  0.00000000000E+00  0.00000000000E+00 -0.80820666142E+03  0.80820666143E+03  0.25500000920E-02 0.  1.
    10030    2    1    2    0    0  0.00000000000E+00  0.00000000000E+00 -0.65679379705E+03  0.95961952582E+03  0.69963672180E+03 0.  0.
        1    1    3    3  502    0  0.68686193605E+02 -0.33254692693E+02  0.13985674096E+03  0.15932223886E+03  0.50400001928E-02 0. -1.
       -1    1    3    3    0  502 -0.68686193605E+02  0.33254692693E+02 -0.79665053801E+03  0.80029728696E+03  0.50400001928E-02 0.  1.
</event>
<event>
 5   0  0.4365492E-02  0.6977546E+03  0.7818609E-02  0.9721080E-01
        2   -1    0    0  501    0  0.00000000000E+00  0.00000000000E+00  0.19376074110E+03  0.19376074111E+03  0.25500000920E-02 0.  1.
       -2   -1    0    0    0  501  0.00000000000E+00  0.00000000000E+00 -0.62817348141E+03  0.62817348141E+03  0.25500000920E-02 0. -1.
    10030    2    1    2    0    0  0.00000000000E+00  0.00000000000E+00 -0.43441274031E+03  0.82193422253E+03  0.69775456803E+03 0.  0.
        4    1    3    3  502    0 -0.16308124898E+03  0.31291644350E+02 -0.57863234644E+03  0.60198975575E+03  0.12699999809E+01 0. -1.
       -4    1    3    3    0  502  0.16308124898E+03 -0.31291644350E+02  0.14421960613E+03  0.21994446678E+03  0.12699999809E+01 0.  1.
</event>
<event>
 5   0  0.2758681E-02  0.6964682E+03  0.7818609E-02  0.9723291E-01
       -1   -1    0    0    0  501  0.00000000000E+00  0.00000000000E+00  0.29947866797E+03  0.29947866801E+03  0.50400001928E-02 0. -1.
        1   -1    0    0  501    0  0.00000000000E+00  0.00000000000E+00 -0.40492698335E+03  0.40492698339E+03  0.50400001928E-02 0.  1.
    10030    2    1    2    0    0  0.00000000000E+00  0.00000000000E+00 -0.10544831538E+03  0.70440565140E+03  0.69646821500E+03 0.  0.
        3    1    3    3  502    0 -0.21190321291E+03  0.27329932900E+03 -0.94073940569E+02  0.35839281713E+03  0.10100000352E+00 0.  1.
       -3    1    3    3    0  502  0.21190321291E+03 -0.27329932900E+03 -0.11374374816E+02  0.34601283427E+03  0.10100000352E+00 0. -1.
</event>
<event>
 5   0  0.2684924E-02  0.6840972E+03  0.7818609E-02  0.9744821E-01
       -1   -1    0    0    0  501  0.00000000000E+00  0.00000000000E+00  0.12368193220E+03  0.12368193230E+03  0.50400001928E-02 0. -1.
        1   -1    0    0  501    0  0.00000000000E+00  0.00000000000E+00 -0.94595260756E+03  0.94595260757E+03  0.50400001928E-02 0.  1.
    10030    2    1    2    0    0  0.00000000000E+00  0.00000000000E+00 -0.82227067536E+03  0.10696345399E+04  0.68409720459E+03 0.  0.
        4    1    3    3  502    0 -0.26932626313E+03 -0.20274452970E+03 -0.32058779447E+03  0.46520976688E+03  0.12699999809E+01 0. -1.
       -4    1    3    3    0  502  0.26932626313E+03  0.20274452970E+03 -0.50168288089E+03  0.60442477300E+03  0.12699999809E+01 0.  1.
</event>
<event>
 5   0  0.4526837E-02  0.7008007E+03  0.7818609E-02  0.9715864E-01
        2   -1    0    0  501    0  0.00000000000E+00  0.00000000000E+00  0.23024565051E+03  0.23024565052E+03  0.25500000920E-02 0. -1.
       -2   -1    0    0    0  501  0.00000000000E+00  0.00000000000E+00 -0.53325830028E+03  0.53325830028E+03  0.25500000920E-02 0.  1.
    10030    2    1    2    0    0  0.00000000000E+00  0.00000000000E+00 -0.30301264977E+03  0.76350395081E+03  0.70080069705E+03 0.  0.
        1    1    3    3  502    0 -0.39936637465E+02  0.69351717020E+00 -0.53076993623E+03  0.53227074052E+03  0.50400001928E-02 0.  1.
       -1    1    3    3    0  502  0.39936637465E+02 -0.69351717020E+00  0.22775728646E+03  0.23123321029E+03  0.50400001928E-02 0. -1.
</event>
<event>
 5   0  0.2684924E-02  0.6971485E+03  0.7818609E-02  0.9722121E-01
        1   -1    0    0  501    0  0.00000000000E+00  0.00000000000E+00  0.43073144180E+03  0.43073144183E+03  0.50400001928E-02 0.  1.
       -1   -1    0    0    0  501  0.00000000000E+00  0.00000000000E+00 -0.28208763447E+03  0.28208763452E+03  0.50400001928E-02 0. -1.
    10030    2    1    2    0    0  0.00000000000E+00  0.00000000000E+00  0.14864380733E+03  0.71281907635E+03  0.69714851657E+03 0.  0.
        4    1    3    3  502    0  0.19024971508E+03 -0.20951685262E+03 -0.13374707212E+03  0.31302101818E+03  0.12699999809E+01 0. -1.
       -4    1    3    3    0  502 -0.19024971508E+03  0.20951685262E+03  0.28239087945E+03  0.39979805817E+03  0.12699999809E+01 0.  1.
</event>
<event>
 5   0  0.4365492E-02  0.7033134E+03  0.7818609E-02  0.9711582E-01
       -2   -1    0    0    0  501  0.00000000000E+00  0.00000000000E+00  0.31161125658E+03  0.31161125659E+03  0.25500000920E-02 0. -1.
        2   -1    0    0  501    0  0.00000000000E+00  0.00000000000E+00 -0.39684846984E+03  0.39684846985E+03  0.25500000920E-02 0.  1.
    10030    2    1    2    0    0  0.00000000000E+00  0.00000000000E+00 -0.85237213261E+02  0.70845972644E+03  0.70331344467E+03 0.  0.
        4    1    3    3  502    0 -0.14325536147E+03 -0.97443070646E+02  0.26563294239E+03  0.31714306486E+03  0.12699999809E+01 0. -1.
       -4    1    3    3    0  502  0.14325536147E+03  0.97443070646E+02 -0.35087015565E+03  0.39131666158E+03  0.12699999809E+01 0.  1.
</event>
<event>
 5   0  0.4420645E-02  0.6999593E+03  0.7818609E-02  0.9717302E-01
       -2   -1    0    0    0  501  0.00000000000E+00  0.00000000000E+00  0.24915811701E+03  0.24915811702E+03  0.25500000920E-02 0.  1.
        2   -1    0    0  501    0  0.00000000000E+00  0.00000000000E+00 -0.49159852110E+03  0.49159852110E+03  0.25500000920E-02 0. -1.
    10030    2    1    2    0    0  0.00000000000E+00  0.00000000000E+00 -0.24244040409E+03  0.74075663813E+03  0.69995931839E+03 0.  0.
        5    1    3    3  502    0  0.17628341441E+03  0.90027873830E+02 -0.42662822498E+03  0.47033455392E+03  0.46999998093E+01 0. -1.
       -5    1    3    3    0  502 -0.17628341441E+03 -0.90027873830E+02  0.18418782090E+03  0.27042208421E+03  0.46999998093E+01 0.  1.
</event>
<event>
 5   0  0.4420645E-02  0.7013452E+03  0.7818609E-02  0.9714934E-01
       -2   -1    0    0    0  501  0.00000000000E+00  0.00000000000E+00  0.44699173825E+03  0.44699173826E+03  0.25500000920E-02 0. -1.
        2   -1    0    0  501    0  0.00000000000E+00  0.00000000000E+00 -0.27510862203E+03  0.27510862204E+03  0.25500000920E-02 0.  1.
    10030    2    1    2    0    0  0.00000000000E+00  0.00000000000E+00  0.17188311622E+03  0.72210036031E+03  0.70134522506E+03 0.  0.
        5    1    3    3  502    0  0.12765145143E+03 -0.12708483490E+03  0.39568276574E+03  0.43477855216E+03  0.46999998093E+01 0. -1.
       -5    1    3    3    0  502 -0.12765145143E+03  0.12708483490E+03 -0.22379964952E+03  0.28732180815E+03  0.46999998093E+01 0.  1.
</event>
<event>
 5   0  0.2750139E-02  0.7002065E+03  0.7818609E-02  0.9716879E-01
       -1   -1    0    0    0  501  0.00000000000E+00  0.00000000000E+00  0.36342957965E+03  0.36342957969E+03  0.50400001928E-02 0. -1.
        1   -1    0    0  501    0  0.00000000000E+00  0.00000000000E+00 -0.33726553353E+03  0.33726553357E+03  0.50400001928E-02 0.  1.
    10030    2    1    2    0    0  0.00000000000E+00  0.00000000000E+00  0.26164046123E+02  0.70069511325E+03  0.70020645843E+03 0.  0.
        2    1    3    3  502    0 -0.48899033265E+02  0.18664179062E+03 -0.27926222684E+03  0.33943138454E+03  0.25500000920E-02 0.  1.
       -2    1    3    3    0  502  0.48899033265E+02 -0.18664179062E+03  0.30542627297E+03  0.36126372872E+03  0.25500000920E-02 0. -1.
</event>
<event>
 5   0  0.2750139E-02  0.7042649E+03  0.7818609E-02  0.9709966E-01
        1   -1    0    0  501    0  0.00000000000E+00  0.00000000000E+00  0.63339994742E+03  0.63339994744E+03  0.50400001928E-02 0. -1.
       -1   -1    0    0    0  501  0.00000000000E+00  0.00000000000E+00 -0.19576454030E+03  0.19576454037E+03  0.50400001928E-02 0.  1.
    10030    2    1    2    0    0  0.00000000000E+00  0.00000000000E+00  0.43763540712E+03  0.82916448781E+03  0.70426486373E+03 0.  0.
        2    1    3    3  502    0 -0.89976487866E+02 -0.21432695960E+03 -0.92602255256E+02  0.25021389183E+03  0.25500000920E-02 0.  1.
       -2    1    3    3    0  502  0.89976487866E+02  0.21432695960E+03  0.53023766237E+03  0.57895059598E+03  0.25500000920E-02 0. -1.
</event>
<event>
 5   0  0.1784625E-02  0.6938299E+03  0.7818609E-02  0.9727842E-01
       -3   -1    0    0    0  501  0.00000000000E+00  0.00000000000E+00  0.14436655119E+04  0.14436655155E+04  0.10100000352E+00 0.  1.
        3   -1    0    0  501    0  0.00000000000E+00  0.00000000000E+00 -0.83364147620E+02  0.83364208803E+02  0.10100000352E+00 0. -1.
    10030    2    1    2    0    0  0.00000000000E+00  0.00000000000E+00  0.13603013643E+04  0.15270297243E+04  0.69382993381E+03 0.  0.
        4    1    3    3  502    0 -0.14630160090E+02 -0.32068384403E+03  0.96959828531E+03  0.10213592009E+04  0.12699999809E+01 0.  1.
       -4    1    3    3    0  502  0.14630160090E+02  0.32068384403E+03  0.39070307900E+03  0.50567052341E+03  0.12699999809E+01 0. -1.
</event>
<event>
 5   0  0.2751729E-02  0.6693866E+03  0.7818609E-02  0.9771067E-01
        1   -1    0    0  501    0  0.00000000000E+00  0.00000000000E+00  0.14341142917E+04  0.14341142917E+04  0.50400001928E-02 0.  1.
       -1   -1    0    0    0  501  0.00000000000E+00  0.00000000000E+00 -0.78110646700E+02  0.78110646862E+02  0.50400001928E-02 0. -1.
    10030    2    1    2    0    0  0.00000000000E+00  0.00000000000E+00  0.13560036450E+04  0.15122249386E+04  0.66938656962E+03 0.  0.
        1    1    3    3  502    0  0.29437075368E+03  0.90654578283E+02  0.38217603499E+03  0.49084714009E+03  0.50400001928E-02 0. -1.
       -1    1    3    3    0  502 -0.29437075368E+03 -0.90654578283E+02  0.97382761003E+03  0.10213777985E+04  0.50400001928E-02 0.  1.
</event>
<event>
 5   0  0.4420645E-02  0.6933583E+03  0.7818609E-02  0.9728658E-01
        2   -1    0    0  501    0  0.00000000000E+00  0.00000000000E+00  0.16268732629E+04  0.16268732629E+04  0.25500000920E-02 0. -1.
       -2   -1    0    0    0  501  0.00000000000E+00  0.00000000000E+00 -0.73875722210E+02  0.73875722254E+02  0.25500000920E-02 0.  1.
    10030    2    1    2    0    0  0.00000000000E+00  0.00000000000E+00  0.15529975407E+04  0.17007489852E+04  0.69335831222E+03 0.  0.
        5    1    3    3  502    0 -0.72831100060E+02  0.30966065201E+03  0.43865250590E+03  0.54187839915E+03  0.46999998093E+01 0.  1.
       -5    1    3    3    0  502  0.72831100060E+02 -0.30966065201E+03  0.11143450348E+04  0.11588705860E+04  0.46999998093E+01 0. -1.
</event>
<event>
 5   0  0.4365492E-02  0.6612972E+03  0.7818609E-02  0.9785809E-01
       -2   -1    0    0    0  501  0.00000000000E+00  0.00000000000E+00  0.37976444502E+03  0.37976444503E+03  0.25500000920E-02 0.  1.
        2   -1    0    0  501    0  0.00000000000E+00  0.00000000000E+00 -0.28788498432E+03  0.28788498433E+03  0.25500000920E-02 0. -1.
    10030    2    1    2    0    0  0.00000000000E+00  0.00000000000E+00  0.91879460701E+02  0.66764942937E+03  0.66129715351E+03 0.  0.
        4    1    3    3  502    0  0.31485728575E+03  0.10178816393E+02 -0.55464853776E+02  0.31986978850E+03  0.12699999809E+01 0.  1.
       -4    1    3    3    0  502 -0.31485728575E+03 -0.10178816393E+02  0.14734431448E+03  0.34777964086E+03  0.12699999809E+01 0. -1.
</event>
<event>
 5   0  0.4526837E-02  0.7238574E+03  0.7818609E-02  0.9677281E-01
        2   -1    0    0  501    0  0.00000000000E+00  0.00000000000E+00  0.92967926682E+03  0.92967926682E+03  0.25500000920E-02 0.  1.
       -2   -1    0    0    0  501  0.00000000000E+00  0.00000000000E+00 -0.14090061102E+03  0.14090061104E+03  0.25500000920E-02 0. -1.
    10030    2    1    2    0    0  0.00000000000E+00  0.00000000000E+00  0.78877865580E+03  0.10705798779E+04  0.72385738031E+03 0.  0.
        1    1    3    3  502    0  0.58186342672E+02  0.29393445958E+03  0.69462581923E+03  0.75649728735E+03  0.50400001928E-02 0.  1.
       -1    1    3    3    0  502 -0.58186342672E+02 -0.29393445958E+03  0.94152836578E+02  0.31408259052E+03  0.50400001928E-02 0. -1.
</event>
<event>
 5   0  0.4526837E-02  0.6989278E+03  0.7818609E-02  0.9719068E-01
       -2   -1    0    0    0  501  0.00000000000E+00  0.00000000000E+00  0.11887710560E+03  0.11887710563E+03  0.25500000920E-02 0. -1.
        2   -1    0    0  501    0  0.00000000000E+00  0.00000000000E+00 -0.10273215716E+04  0.10273215716E+04  0.25500000920E-02 0.  1.
    10030    2    1    2    0    0  0.00000000000E+00  0.00000000000E+00 -0.90844446603E+03  0.11461986773E+04  0.69892779305E+03 0.  0.
        1    1    3    3  502    0  0.12482452520E+03 -0.17277155752E+02  0.80320664778E+02  0.14943584382E+03  0.50400001928E-02 0. -1.
       -1    1    3    3    0  502 -0.12482452520E+03  0.17277155752E+02 -0.98876513081E+03  0.99676283344E+03  0.50400001928E-02 0.  1.
</event>
<event>
 5   0  0.2750139E-02  0.7028755E+03  0.7818609E-02  0.9712327E-01
       -1   -1    0    0    0  501  0.00000000000E+00  0.00000000000E+00  0.20591915308E+03  0.20591915314E+03  0.50400001928E-02 0.  1.
        1   -1    0    0  501    0  0.00000000000E+00  0.00000000000E+00 -0.59979117599E+03  0.59979117601E+03  0.50400001928E-02 0. -1.
    10030    2    1    2    0    0  0.00000000000E+00  0.00000000000E+00 -0.39387202290E+03  0.80571032915E+03  0.70287549685E+03 0.  0.
        2    1    3    3  502    0 -0.93716349093E+02  0.32902776263E+03 -0.28911546000E+03  0.44791714846E+03  0.25500000920E-02 0. -1.
       -2    1    3    3    0  502  0.93716349093E+02 -0.32902776263E+03 -0.10475656290E+03  0.35779318069E+03  0.25500000920E-02 0.  1.
</event>
<event>
 5   0  0.2777999E-02  0.7014123E+03  0.7818609E-02  0.9714820E-01
        1   -1    0    0  501    0  0.00000000000E+00  0.00000000000E+00  0.48928030491E+03  0.48928030494E+03  0.50400001928E-02 0. -1.
       -1   -1    0    0    0  501  0.00000000000E+00  0.00000000000E+00 -0.25137904750E+03  0.25137904755E+03  0.50400001928E-02 0.  1.
    10030    2    1    2    0    0  0.00000000000E+00  0.00000000000E+00  0.23790125741E+03  0.74065935249E+03  0.70141233818E+03 0.  0.
        5    1    3    3  502    0 -0.22775541691E+03 -0.63291042977E+02  0.39247018263E+03  0.45818470108E+03  0.46999998093E+01 0. -1.
       -5    1    3    3    0  502  0.22775541691E+03  0.63291042977E+02 -0.15456892522E+03  0.28247465142E+03  0.46999998093E+01 0.  1.
</event>
<event>
 5   0  0.4420645E-02  0.6949653E+03  0.7818609E-02  0.9725881E-01
        2   -1    0    0  501    0  0.00000000000E+00  0.00000000000E+00  0.49565784570E+03  0.49565784571E+03  0.25500000920E-02 0. -1.
       -2   -1    0    0    0  501  0.00000000000E+00  0.00000000000E+00 -0.24360393107E+03  0.24360393109E+03  0.25500000920E-02 0.  1.
    10030    2    1    2    0    0  0.00000000000E+00  0.00000000000E+00  0.25205391463E+03  0.73926177679E+03  0.69496532198E+03 0.  0.
        5    1    3    3  502    0 -0.32176304129E+03  0.72168244722E+02  0.24246824867E+03  0.40933195808E+03  0.46999998093E+01 0.  1.
       -5    1    3    3    0  502  0.32176304129E+03 -0.72168244722E+02  0.95856659514E+01  0.32992981872E+03  0.46999998093E+01 0. -1.
</event>
<event>
 5   0  0.2684924E-02  0.6962128E+03  0.7818609E-02  0.9723731E-01
        1   -1    0    0  501    0  0.00000000000E+00  0.00000000000E+00  0.35474026245E+03  0.35474026249E+03  0.50400001928E-02 0.  1.
       -1   -1    0    0    0  501  0.00000000000E+00  0.00000000000E+00 -0.34159659411E+03  0.34159659414E+03  0.50400001928E-02 0. -1.
    10030    2    1    2    0    0  0.00000000000E+00  0.00000000000E+00  0.13143668346E+02  0.69633685663E+03  0.69621279928E+03 0.  0.
        4    1    3    3  502    0  0.76931835733E+02 -0.15182560002E+03 -0.29713821805E+03  0.34243576580E+03  0.12699999809E+01 0. -1.
       -4    1    3    3    0  502 -0.76931835733E+02  0.15182560002E+03  0.31028188639E+03  0.35390109084E+03  0.12699999809E+01 0.  1.
</event>
<event>
 5   0  0.4503289E-02  0.6927423E+03  0.7818609E-02  0.9729725E-01
       -2   -1    0    0    0  501  0.00000000000E+00  0.00000000000E+00  0.57706261948E+02  0.57706262004E+02  0.25500000920E-02 0. -1.
        2   -1    0    0  501    0  0.00000000000E+00  0.00000000000E+00 -0.20790285348E+04  0.20790285348E+04  0.25500000920E-02 0.  1.
    10030    2    1    2    0    0  0.00000000000E+00  0.00000000000E+00 -0.20213222728E+04  0.21367347968E+04  0.69274227613E+03 0.  0.
        2    1    3    3  502    0 -0.45486701328E+02  0.34262668407E+03 -0.10803781308E+04  0.11343187340E+04  0.25500000920E-02 0. -1.
       -2    1    3    3    0  502  0.45486701328E+02 -0.34262668407E+03 -0.94094414198E+03  0.10024160628E+04  0.25500000920E-02 0.  1.
</event>
<event>
 5   0  0.2751729E-02  0.6844093E+03  0.7818609E-02  0.9744272E-01
       -1   -1    0    0    0  501  0.00000000000E+00  0.00000000000E+00  0.87636424304E+03  0.87636424306E+03  0.50400001928E-02 0. -1.
        1   -1    0    0  501    0  0.00000000000E+00  0.00000000000E+00 -0.13362481886E+03  0.13362481895E+03  0.50400001928E-02 0.  1.
    10030    2    1    2    0    0  0.00000000000E+00  0.00000000000E+00  0.74273942419E+03  0.10099890620E+04  0.68440927313E+03 0.  0.
        1    1    3    3  502    0  0.28958548365E+03 -0.58717344997E+02  0.62610180395E+03  0.69232286390E+03  0.50400001928E-02 0. -1.
       -1    1    3    3    0  502 -0.28958548365E+03  0.58717344997E+02  0.11663762023E+03  0.31766619811E+03  0.50400001928E-02 0.  1.
</event>
<event>
 5   0  0.4299912E-02  0.7132703E+03  0.7818609E-02  0.9694803E-01
        2   -1    0    0  501    0  0.00000000000E+00  0.00000000000E+00  0.11413206339E+04  0.11413206339E+04  0.25500000920E-02 0.  1.
       -2   -1    0    0    0  501  0.00000000000E+00  0.00000000000E+00 -0.11143988610E+03  0.11143988613E+03  0.25500000920E-02 0. -1.
    10030    2    1    2    0    0  0.00000000000E+00  0.00000000000E+00  0.10298807478E+04  0.12527605201E+04  0.71327033157E+03 0.  0.
        3    1    3    3  502    0  0.25569076624E+03  0.76641570281E+02  0.93033724778E+03  0.96787349538E+03  0.10100000352E+00 0.  1.
       -3    1    3    3    0  502 -0.25569076624E+03 -0.76641570281E+02  0.99543500053E+02  0.28488702470E+03  0.10100000352E+00 0. -1.
</event>
<event>
 5   0  0.4420645E-02  0.7105730E+03  0.7818609E-02  0.9699320E-01
       -2   -1    0    0    0  501  0.00000000000E+00  0.00000000000E+00  0.40841311918E+03  0.40841311918E+03  0.25500000920E-02 0.  1.
        2   -1    0    0  501    0  0.00000000000E+00  0.00000000000E+00 -0.30907061218E+03  0.30907061219E+03  0.25500000920E-02 0. -1.
    10030    2    1    2    0    0  0.00000000000E+00  0.00000000000E+00  0.99342506998E+02  0.71748373137E+03  0.71057298787E+03 0.  0.
        5    1    3    3  502    0 -0.18302506939E+02 -0.31012520617E+03 -0.12432347440E+03  0.33465062610E+03  0.46999998093E+01 0.  1.
       -5    1    3    3    0  502  0.18302506939E+02  0.31012520617E+03  0.22366598140E+03  0.38283310528E+03  0.46999998093E+01 0. -1.
</event>
<event>
 5   0  0.2751729E-02  0.7104220E+03  0.7818609E-02  0.9699573E-01
        1   -1    0    0  501    0  0.00000000000E+00  0.00000000000E+00  0.42434747409E+03  0.42434747412E+03  0.50400001928E-02 0. -1.
       -1   -1    0    0    0  501  0.00000000000E+00  0.00000000000E+00 -0.29733849493E+03  0.29733849497E+03  0.50400001928E-02 0.  1.
    10030    2    1    2    0    0  0.00000000000E+00  0.00000000000E+00  0.12700897916E+03  0.72168596909E+03  0.71042195714E+03 0.  0.
        1    1    3    3  502    0  0.30583718991E+03  0.46635282223E+02  0.24081011695E+03  0.39204687058E+03  0.50400001928E-02 0. -1.
       -1    1    3    3    0  502 -0.30583718991E+03 -0.46635282223E+02 -0.11380113778E+03  0.32963909851E+03  0.50400001928E-02 0.  1.
</event>
<event>
 5   0  0.2684924E-02  0.6951622E+03  0.7818609E-02  0.9725541E-01
       -1   -1    0    0    0  501  0.00000000000E+00  0.00000000000E+00  0.15565349330E+03  0.15565349338E+03  0.50400001928E-02 0.  1.
        1   -1    0    0  501    0  0.00000000000E+00  0.00000000000E+00 -0.77616398613E+03  0.77616398615E+03  0.50400001928E-02 0. -1.
    10030    2    1    2    0    0  0.00000000000E+00  0.00000000000E+00 -0.62051049283E+03  0.93181747953E+03  0.69516224253E+03 0.  0.
        4    1    3    3  502    0  0.31853567812E+03 -0.87559874059E+01 -0.49632617236E+03  0.58981601184E+03  0.12699999809E+01 0. -1.
       -4    1    3    3    0  502 -0.31853567812E+03  0.87559874059E+01 -0.12418432048E+03  0.34200146769E+03  0.12699999809E+01 0.  1.
</event>
<event>
 5   0  0.2777999E-02  0.7022244E+03  0.7818609E-02  0.9713436E-01
       -1   -1    0    0    0  501  0.00000000000E+00  0.00000000000E+00  0.10410251179E+03  0.10410251191E+03  0.50400001928E-02 0. -1.
        1   -1    0    0  501    0  0.00000000000E+00  0.00000000000E+00 -0.11842151053E+04  0.11842151053E+04  0.50400001928E-02 0.  1.
    10030    2    1    2    0    0  0.00000000000E+00  0.00000000000E+00 -0.10801125935E+04  0.12883176173E+04  0.70222437170E+03 0.  0.
        5    1    3    3  502    0 -0.84947769655E+02 -0.32677233042E+03 -0.36349914627E+03  0.49613506109E+03  0.46999998093E+01 0. -1.
       -5    1    3    3    0  502  0.84947769655E+02  0.32677233042E+03 -0.71661344727E+03  0.79218255617E+03  0.46999998093E+01 0.  1.
</event>
<event>
 5   0  0.2777999E-02  0.6933096E+03  0.7818609E-02  0.9728742E-01
       -1   -1    0    0    0  501  0.00000000000E+00  0.00000000000E+00  0.12755500745E+03  0.12755500755E+03  0.50400001928E-02 0. -1.
        1   -1    0    0  501    0  0.00000000000E+00  0.00000000000E+00 -0.94209993579E+03  0.94209993580E+03  0.50400001928E-02 0.  1.
    10030    2    1    2    0    0  0.00000000000E+00  0.00000000000E+00 -0.81454492834E+03  0.10696549434E+04  0.69330964047E+03 0.  0.
        5    1    3    3  502    0 -0.53992035132E+02 -0.13319338215E+03 -0.89391518658E+03  0.90540712815E+03  0.46999998093E+01 0.  1.
       -5    1    3    3    0  502  0.53992035132E+02  0.13319338215E+03  0.79370258245E+02  0.16424781520E+03  0.46999998093E+01 0. -1.
</event>
<event>
 5   0  0.4420645E-02  0.6954860E+03  0.7818609E-02  0.9724983E-01
       -2   -1    0    0    0  501  0.00000000000E+00  0.00000000000E+00  0.21444507772E+03  0.21444507773E+03  0.25500000920E-02 0.  1.
        2   -1    0    0  501    0  0.00000000000E+00  0.00000000000E+00 -0.56389812643E+03  0.56389812643E+03  0.25500000920E-02 0. -1.
    10030    2    1    2    0    0  0.00000000000E+00  0.00000000000E+00 -0.34945304871E+03  0.77834320416E+03  0.69548595257E+03 0.  0.
        5    1    3    3  502    0  0.19801376722E+03  0.30235187455E+02 -0.49280426094E+03  0.53197908621E+03  0.46999998093E+01 0. -1.
       -5    1    3    3    0  502 -0.19801376722E+03 -0.30235187455E+02  0.14335121223E+03  0.24636411795E+03  0.46999998093E+01 0.  1.
</event>
<event>
 5   0  0.4420645E-02  0.6524432E+03  0.7818609E-02  0.9802205E-01
       -2   -1    0    0    0  501  0.00000000000E+00  0.00000000000E+00  0.13364910345E+03  0.13364910347E+03  0.25500000920E-02 0. -1.
        2   -1    0    0  501    0  0.00000000000E+00  0.00000000000E+00 -0.79626827873E+03  0.79626827874E+03  0.25500000920E-02 0.  1.
    10030    2    1    2    0    0  0.00000000000E+00  0.00000000000E+00 -0.66261917528E+03  0.92991738221E+03  0.65244322840E+03 0.  0.
        5    1    3    3  502    0  0.51533743904E+02 -0.80571819932E+02 -0.77578574260E+03  0.78167330346E+03  0.46999998093E+01 0.  1.
       -5    1    3    3    0  502 -0.51533743904E+02  0.80571819932E+02  0.11316656732E+03  0.14824407875E+03  0.46999998093E+01 0. -1.
</event>
<event>
 5   0  0.4299912E-02  0.6856188E+03  0.7818609E-02  0.9742147E-01
       -2   -1    0    0    0  501  0.00000000000E+00  0.00000000000E+00  0.72929573761E+02  0.72929573806E+02  0.25500000920E-02 0. -1.
        2   -1    0    0  501    0  0.00000000000E+00  0.00000000000E+00 -0.16113942123E+04  0.16113942123E+04  0.25500000920E-02 0.  1.
    10030    2    1    2    0    0  0.00000000000E+00  0.00000000000E+00 -0.15384646386E+04  0.16843237861E+04  0.68561882444E+03 0.  0.
        3    1    3    3  502    0 -0.13460053875E+03  0.20013568701E+03 -0.13677005209E+04  0.13888039182E+04  0.10100000352E+00 0.  1.
       -3    1    3    3    0  502  0.13460053875E+03 -0.20013568701E+03 -0.17076411771E+03  0.29551986794E+03  0.10100000352E+00 0. -1.
</event>
<event>
 5   0  0.4420645E-02  0.5851024E+03  0.7818609E-02  0.9936805E-01
        2   -1    0    0  501    0  0.00000000000E+00  0.00000000000E+00  0.84729855919E+02  0.84729855957E+02  0.25500000920E-02 0. -1.
       -2   -1    0    0    0  501  0.00000000000E+00  0.00000000000E+00 -0.10101067981E+04  0.10101067981E+04  0.25500000920E-02 0.  1.
    10030    2    1    2    0    0  0.00000000000E+00  0.00000000000E+00 -0.92537694216E+03  0.10948366540E+04  0.58510239612E+03 0.  0.
        5    1    3    3  502    0 -0.10258182737E+03  0.26959504316E+03 -0.37179427027E+03  0.47059280488E+03  0.46999998093E+01 0.  1.
       -5    1    3    3    0  502  0.10258182737E+03 -0.26959504316E+03 -0.55358267189E+03  0.62424384916E+03  0.46999998093E+01 0. -1.
</event>
<event>
 5   0  0.2750139E-02  0.7046385E+03  0.7818609E-02  0.9709332E-01
       -1   -1    0    0    0  501  0.00000000000E+00  0.00000000000E+00  0.63901192935E+02  0.63901193134E+02  0.50400001928E-02 0. -1.
        1   -1    0    0  501    0  0.00000000000E+00  0.00000000000E+00 -0.19425123803E+04  0.19425123803E+04  0.50400001928E-02 0.  1.
    10030    2    1    2    0    0  0.00000000000E+00  0.00000000000E+00 -0.18786111873E+04  0.20064135734E+04  0.70463851327E+03 0.  0.
        2    1    3    3  502    0  0.11573030081E+03 -0.50489785014E+02 -0.27363564151E+01  0.12629413513E+03  0.25500000920E-02 0. -1.
       -2    1    3    3    0  502 -0.11573030081E+03  0.50489785014E+02 -0.18758748309E+04  0.18801194383E+04  0.25500000920E-02 0.  1.
</event>
<event>
 5   0  0.4299912E-02  0.7020285E+03  0.7818609E-02  0.9713769E-01
        2   -1    0    0  501    0  0.00000000000E+00  0.00000000000E+00  0.71508436454E+03  0.71508436455E+03  0.25500000920E-02 0. -1.
       -2   -1    0    0    0  501  0.00000000000E+00  0.00000000000E+00 -0.17230277558E+03  0.17230277560E+03  0.25500000920E-02 0.  1.
    10030    2    1    2    0    0  0.00000000000E+00  0.00000000000E+00  0.54278158896E+03  0.88738714015E+03  0.70202854870E+03 0.  0.
        3    1    3    3  502    0 -0.12627302936E+01  0.11336335557E+03 -0.14852343716E+03  0.18684770927E+03  0.10100000352E+00 0.  1.
       -3    1    3    3    0  502  0.12627302936E+01 -0.11336335557E+03  0.69130502612E+03  0.70053943088E+03  0.10100000352E+00 0. -1.
</event>
<event>
 5   0  0.4365492E-02  0.6947407E+03  0.7818609E-02  0.9726269E-01
       -2   -1    0    0    0  501  0.00000000000E+00  0.00000000000E+00  0.86575102252E+02  0.86575102290E+02  0.25500000920E-02 0. -1.
        2   -1    0    0  501    0  0.00000000000E+00  0.00000000000E+00 -0.13937744536E+04  0.13937744536E+04  0.25500000920E-02 0.  1.
    10030    2    1    2    0    0  0.00000000000E+00  0.00000000000E+00 -0.13071993513E+04  0.14803495559E+04  0.69474071672E+03 0.  0.
        4    1    3    3  502    0 -0.29529807381E+03  0.17723380303E+03 -0.75011735751E+03  0.82540319619E+03  0.12699999809E+01 0.  1.
       -4    1    3    3    0  502  0.29529807381E+03 -0.17723380303E+03 -0.55708199383E+03  0.65494635970E+03  0.12699999809E+01 0. -1.
</event>
<event>
 5   0  0.4299912E-02  0.6710826E+03  0.7818609E-02  0.9768004E-01
        2   -1    0    0  501    0  0.00000000000E+00  0.00000000000E+00  0.74850481970E+03  0.74850481970E+03  0.25500000920E-02 0. -1.
       -2   -1    0    0    0  501  0.00000000000E+00  0.00000000000E+00 -0.15041717040E+03  0.15041717042E+03  0.25500000920E-02 0.  1.
    10030    2    1    2    0    0  0.00000000000E+00  0.00000000000E+00  0.59808764929E+03  0.89892199012E+03  0.67108263879E+03 0.  0.
        3    1    3    3  502    0 -0.32793992866E+03  0.70220631578E+02  0.28484041123E+03  0.44001091348E+03  0.10100000352E+00 0.  1.
       -3    1    3    3    0  502  0.32793992866E+03 -0.70220631578E+02  0.31324723806E+03  0.45891107664E+03  0.10100000352E+00 0. -1.
</event>
<event>
 5   0  0.1784625E-02  0.6937448E+03  0.7818609E-02  0.9727990E-01
        4   -1    0    0  501    0  0.00000000000E+00  0.00000000000E+00  0.77748398464E+02  0.77758770333E+02  0.12699999809E+01 0. -1.
       -4   -1    0    0    0  501  0.00000000000E+00  0.00000000000E+00 -0.15474478699E+04  0.15474483910E+04  0.12699999809E+01 0.  1.
    10030    2    1    2    0    0  0.00000000000E+00  0.00000000000E+00 -0.14696994714E+04  0.16252071614E+04  0.69374475209E+03 0.  0.
        1    1    3    3  502    0 -0.23132500175E+03 -0.12975705460E+03 -0.21116047665E+03  0.33902344547E+03  0.50400001928E-02 0. -1.
       -1    1    3    3    0  502  0.23132500175E+03  0.12975705460E+03 -0.12585389948E+04  0.12861837159E+04  0.50400001928E-02 0.  1.
</event>
<event>
 5   0  0.4503289E-02  0.7030518E+03  0.7818609E-02  0.9712027E-01
       -2   -1    0    0    0  501  0.00000000000E+00  0.00000000000E+00  0.19648270713E+03  0.19648270715E+03  0.25500000920E-02 0.  1.
        2   -1    0    0  501    0  0.00000000000E+00  0.00000000000E+00 -0.62891261930E+03  0.62891261931E+03  0.25500000920E-02 0. -1.
    10030    2    1    2    0    0  0.00000000000E+00  0.00000000000E+00 -0.43242991217E+03  0.82539532646E+03  0.70305178756E+03 0.  0.
        2    1    3    3  502    0 -0.23161813790E+02 -0.28853637013E+03 -0.45037411979E+03  0.53537515285E+03  0.25500000920E-02 0. -1.
       -2    1    3    3    0  502  0.23161813790E+02  0.28853637013E+03  0.17944207613E+02  0.29002017361E+03  0.25500000920E-02 0.  1.
</event>
<event>
 5   0  0.2750139E-02  0.6934810E+03  0.7818609E-02  0.9728446E-01
        1   -1    0    0  501    0  0.00000000000E+00  0.00000000000E+00  0.39238982570E+03  0.39238982573E+03  0.50400001928E-02 0. -1.
       -1   -1    0    0    0  501  0.00000000000E+00  0.00000000000E+00 -0.30640183934E+03  0.30640183938E+03  0.50400001928E-02 0.  1.
    10030    2    1    2    0    0  0.00000000000E+00  0.00000000000E+00  0.85987986366E+02  0.69879166511E+03  0.69348097121E+03 0.  0.
        2    1    3    3  502    0  0.24302228579E+02 -0.19309577104E+03 -0.24617469801E+03  0.31381293322E+03  0.25500000920E-02 0.  1.
       -2    1    3    3    0  502 -0.24302228579E+02  0.19309577104E+03  0.33216268438E+03  0.38497873189E+03  0.25500000920E-02 0. -1.
</event>
<event>
 5   0  0.2750139E-02  0.6952436E+03  0.7818609E-02  0.9725401E-01
        1   -1    0    0  501    0  0.00000000000E+00  0.00000000000E+00  0.47754333989E+03  0.47754333992E+03  0.50400001928E-02 0. -1.
       -1   -1    0    0    0  501  0.00000000000E+00  0.00000000000E+00 -0.25304703824E+03  0.25304703829E+03  0.50400001928E-02 0.  1.
    10030    2    1    2    0    0  0.00000000000E+00  0.00000000000E+00  0.22449630165E+03  0.73059037820E+03  0.69524363447E+03 0.  0.
        2    1    3    3  502    0 -0.16755193542E+03  0.29447206984E+03  0.30488435730E+02  0.34017200898E+03  0.25500000920E-02 0.  1.
       -2    1    3    3    0  502  0.16755193542E+03 -0.29447206984E+03  0.19400786593E+03  0.39041836922E+03  0.25500000920E-02 0. -1.
</event>
<event>
 5   0  0.4365492E-02  0.6968207E+03  0.7818609E-02  0.9722685E-01
       -2   -1    0    0    0  501  0.00000000000E+00  0.00000000000E+00  0.38731285310E+03  0.38731285310E+03  0.25500000920E-02 0.  1.
        2   -1    0    0  501    0  0.00000000000E+00  0.00000000000E+00 -0.31341527787E+03  0.31341527788E+03  0.25500000920E-02 0. -1.
    10030    2    1    2    0    0  0.00000000000E+00  0.00000000000E+00  0.73897575222E+02  0.70072813099E+03  0.69682068133E+03 0.  0.
        4    1    3    3  502    0  0.90468467198E+02  0.29736556250E+03 -0.12134205266E+03  0.33367098760E+03  0.12699999809E+01 0. -1.
       -4    1    3    3    0  502 -0.90468467198E+02 -0.29736556250E+03  0.19523962788E+03  0.36705714339E+03  0.12699999809E+01 0.  1.
</event>
<event>
 5   0  0.2758681E-02  0.6880177E+03  0.7818609E-02  0.9737946E-01
        1   -1    0    0  501    0  0.00000000000E+00  0.00000000000E+00  0.45154871851E+03  0.45154871854E+03  0.50400001928E-02 0.  1.
       -1   -1    0    0    0  501  0.00000000000E+00  0.00000000000E+00 -0.26208042554E+03  0.26208042559E+03  0.50400001928E-02 0. -1.
    10030    2    1    2    0    0  0.00000000000E+00  0.00000000000E+00  0.18946829297E+03  0.71362914413E+03  0.68801767514E+03 0.  0.
        3    1    3    3  502    0 -0.32162760836E+03 -0.12205457488E+03  0.95416207075E+02  0.35699565892E+03  0.10100000352E+00 0.  1.
       -3    1    3    3    0  502  0.32162760836E+03  0.12205457488E+03  0.94052085899E+02  0.35663348521E+03  0.10100000352E+00 0. -1.
</event>
<event>
 5   0  0.1784625E-02  0.7041874E+03  0.7818609E-02  0.9710098E-01
       -4   -1    0    0    0  501  0.00000000000E+00  0.00000000000E+00  0.96736624814E+03  0.96736708180E+03  0.12699999809E+01 0. -1.
        4   -1    0    0  501    0  0.00000000000E+00  0.00000000000E+00 -0.12814803682E+03  0.12815432978E+03  0.12699999809E+01 0.  1.
    10030    2    1    2    0    0  0.00000000000E+00  0.00000000000E+00  0.83921821132E+03  0.10955214116E+04  0.70418744451E+03 0.  0.
        4    1    3    3  502    0 -0.23572553609E+03 -0.10311989410E+03  0.79352744629E+03  0.83419881433E+03  0.12699999809E+01 0. -1.
       -4    1    3    3    0  502  0.23572553609E+03  0.10311989410E+03  0.45690765034E+02  0.26132259724E+03  0.12699999809E+01 0.  1.
</event>
<event>
 5   0  0.4299912E-02  0.6946850E+03  0.7818609E-02  0.9726365E-01
       -2   -1    0    0    0  501  0.00000000000E+00  0.00000000000E+00  0.23838425478E+03  0.23838425479E+03  0.25500000920E-02 0.  1.
        2   -1    0    0  501    0  0.00000000000E+00  0.00000000000E+00 -0.50610226186E+03  0.50610226187E+03  0.25500000920E-02 0. -1.
    10030    2    1    2    0    0  0.00000000000E+00  0.00000000000E+00 -0.26771800708E+03  0.74448651666E+03  0.69468499493E+03 0.  0.
        3    1    3    3  502    0 -0.45699465228E+02  0.32735528744E+03 -0.19449576400E+02  0.33110152757E+03  0.10100000352E+00 0.  1.
       -3    1    3    3    0  502  0.45699465228E+02 -0.32735528744E+03 -0.24826843068E+03  0.41338498909E+03  0.10100000352E+00 0. -1.
</event>
<event>
 5   0  0.4299912E-02  0.6237634E+03  0.7818609E-02  0.9857295E-01
       -2   -1    0    0    0  501  0.00000000000E+00  0.00000000000E+00  0.13538319984E+03  0.13538319986E+03  0.25500000920E-02 0.  1.
        2   -1    0    0  501    0  0.00000000000E+00  0.00000000000E+00 -0.71848044054E+03  0.71848044055E+03  0.25500000920E-02 0. -1.
    10030    2    1    2    0    0  0.00000000000E+00  0.00000000000E+00 -0.58309724071E+03  0.85386364041E+03  0.62376335600E+03 0.  0.
        3    1    3    3  502    0 -0.19943204658E+03  0.17104112118E+03 -0.61501863812E+02  0.26983457115E+03  0.10100000352E+00 0.  1.
       -3    1    3    3    0  502  0.19943204658E+03 -0.17104112118E+03 -0.52159537690E+03  0.58402906926E+03  0.10100000352E+00 0. -1.
</event>
<event>
 5   0  0.4365492E-02  0.7069303E+03  0.7818609E-02  0.9705453E-01
        2   -1    0    0  501    0  0.00000000000E+00  0.00000000000E+00  0.14994408563E+03  0.14994408565E+03  0.25500000920E-02 0. -1.
       -2   -1    0    0    0  501  0.00000000000E+00  0.00000000000E+00 -0.83322798466E+03  0.83322798467E+03  0.25500000920E-02 0.  1.
    10030    2    1    2    0    0  0.00000000000E+00  0.00000000000E+00 -0.68328389903E+03  0.98317207032E+03  0.70693028877E+03 0.  0.
        4    1    3    3  502    0 -0.23058608615E+03 -0.26321482383E+03 -0.27232658576E+03  0.44341331602E+03  0.12699999809E+01 0. -1.
       -4    1    3    3    0  502  0.23058608615E+03  0.26321482383E+03 -0.41095731327E+03  0.53975875430E+03  0.12699999809E+01 0.  1.
</event>
<event>
 5   0  0.2751729E-02  0.6504901E+03  0.7818609E-02  0.9805860E-01
        1   -1    0    0  501    0  0.00000000000E+00  0.00000000000E+00  0.35248631327E+03  0.35248631330E+03  0.50400001928E-02 0. -1.
       -1   -1    0    0    0  501  0.00000000000E+00  0.00000000000E+00 -0.30010903346E+03  0.30010903350E+03  0.50400001928E-02 0.  1.
    10030    2    1    2    0    0  0.00000000000E+00  0.00000000000E+00  0.52377279810E+02  0.65259534680E+03  0.65049005160E+03 0.  0.
        1    1    3    3  502    0 -0.31049998023E+03 -0.37175572227E+01  0.12325024632E+03  0.33408783455E+03  0.50400001928E-02 0. -1.
       -1    1    3    3    0  502  0.31049998023E+03  0.37175572227E+01 -0.70872966509E+02  0.31850751225E+03  0.50400001928E-02 0.  1.
</event>
<event>
 5   0  0.4365492E-02  0.7053827E+03  0.7818609E-02  0.9708071E-01
        2   -1    0    0  501    0  0.00000000000E+00  0.00000000000E+00  0.21728328743E+03  0.21728328745E+03  0.25500000920E-02 0. -1.
       -2   -1    0    0    0  501  0.00000000000E+00  0.00000000000E+00 -0.57248393918E+03  0.57248393918E+03  0.25500000920E-02 0.  1.
    10030    2    1    2    0    0  0.00000000000E+00  0.00000000000E+00 -0.35520065174E+03  0.78976722663E+03  0.70538271120E+03 0.  0.
        4    1    3    3  502    0 -0.32787400880E+03  0.12977200510E+03 -0.18531200162E+03  0.39835196723E+03  0.12699999809E+01 0. -1.
       -4    1    3    3    0  502  0.32787400880E+03 -0.12977200510E+03 -0.16988865013E+03  0.39141525940E+03  0.12699999809E+01 0.  1.
</event>
<event>
 5   0  0.2751729E-02  0.5430944E+03  0.7818609E-02  0.1003105E+00
       -1   -1    0    0    0  501  0.00000000000E+00  0.00000000000E+00  0.11106485937E+03  0.11106485948E+03  0.50400001928E-02 0.  1.
        1   -1    0    0  501    0  0.00000000000E+00  0.00000000000E+00 -0.66391729625E+03  0.66391729627E+03  0.50400001928E-02 0. -1.
    10030    2    1    2    0    0  0.00000000000E+00  0.00000000000E+00 -0.55285243688E+03  0.77498215575E+03  0.54309439766E+03 0.  0.
        1    1    3    3  502    0 -0.72254245518E+02  0.15381548644E+03  0.25802924536E+02  0.17188854181E+03  0.50400001928E-02 0.  1.
       -1    1    3    3    0  502  0.72254245518E+02 -0.15381548644E+03 -0.57865536141E+03  0.60309361394E+03  0.50400001928E-02 0. -1.
</event>
<event>
 5   0  0.4299912E-02  0.6806819E+03  0.7818609E-02  0.9750851E-01
        2   -1    0    0  501    0  0.00000000000E+00  0.00000000000E+00  0.89671419148E+03  0.89671419149E+03  0.25500000920E-02 0. -1.
       -2   -1    0    0    0  501  0.00000000000E+00  0.00000000000E+00 -0.12917378411E+03  0.12917378413E+03  0.25500000920E-02 0.  1.
    10030    2    1    2    0    0  0.00000000000E+00  0.00000000000E+00  0.76754040738E+03  0.10258879756E+04  0.68068190924E+03 0.  0.
        3    1    3    3  502    0 -0.13322363038E+03  0.10513153976E+03  0.82839345098E+03  0.84559854314E+03  0.10100000352E+00 0. -1.
       -3    1    3    3    0  502  0.13322363038E+03 -0.10513153976E+03 -0.60853043602E+02  0.18028943247E+03  0.10100000352E+00 0.  1.
</event>
<event>
 5   0  0.4299912E-02  0.6966098E+03  0.7818609E-02  0.9723047E-01
        2   -1    0    0  501    0  0.00000000000E+00  0.00000000000E+00  0.83310207698E+03  0.83310207698E+03  0.25500000920E-02 0. -1.
       -2   -1    0    0    0  501  0.00000000000E+00  0.00000000000E+00 -0.14561998491E+03  0.14561998493E+03  0.25500000920E-02 0.  1.
    10030    2    1    2    0    0  0.00000000000E+00  0.00000000000E+00  0.68748209207E+03  0.97872206192E+03  0.69660982448E+03 0.  0.
        3    1    3    3  502    0  0.12557103040E+03 -0.19083737054E+03  0.71314446689E+03  0.74884045466E+03  0.10100000352E+00 0. -1.
       -3    1    3    3    0  502 -0.12557103040E+03  0.19083737054E+03 -0.25662374825E+02  0.22988160726E+03  0.10100000352E+00 0.  1.
</event>
<event>
 5   0  0.2684924E-02  0.7144731E+03  0.7818609E-02  0.9692797E-01
        1   -1    0    0  501    0  0.00000000000E+00  0.00000000000E+00  0.15262340934E+04  0.15262340934E+04  0.50400001928E-02 0. -1.
       -1   -1    0    0    0  501  0.00000000000E+00  0.00000000000E+00 -0.83616228034E+02  0.83616228186E+02  0.50400001928E-02 0.  1.
    10030    2    1    2    0    0  0.00000000000E+00  0.00000000000E+00  0.14426178654E+04  0.16098503216E+04  0.71447305930E+03 0.  0.
        4    1    3    3  502    0  0.22618728253E+03  0.15606164614E+03  0.20700461021E+03  0.34404715625E+03  0.12699999809E+01 0.  1.
       -4    1    3    3    0  502 -0.22618728253E+03 -0.15606164614E+03  0.12356132552E+04  0.12658031653E+04  0.12699999809E+01 0. -1.
</event>
<event>
 5   0  0.2751729E-02  0.8332630E+03  0.7818609E-02  0.9513080E-01
        1   -1    0    0  501    0  0.00000000000E+00  0.00000000000E+00  0.15981826256E+04  0.15981826256E+04  0.50400001928E-02 0.  1.
       -1   -1    0    0    0  501  0.00000000000E+00  0.00000000000E+00 -0.10861199766E+03  0.10861199778E+03  0.50400001928E-02 0. -1.
    10030    2    1    2    0    0  0.00000000000E+00  0.00000000000E+00  0.14895706280E+04  0.17067946234E+04  0.83326300219E+03 0.  0.
        1    1    3    3  502    0 -0.18431489367E+03 -0.12458649287E+03  0.14663314710E+04  0.14831121863E+04  0.50400001928E-02 0.  1.
       -1    1    3    3    0  502  0.18431489367E+03  0.12458649287E+03  0.23239156963E+02  0.22368243713E+03  0.50400001928E-02 0. -1.
</event>
<event>
 5   0  0.4526837E-02  0.6018145E+03  0.7818609E-02  0.9901649E-01
        2   -1    0    0  501    0  0.00000000000E+00  0.00000000000E+00  0.56607240742E+03  0.56607240743E+03  0.25500000920E-02 0.  1.
       -2   -1    0    0    0  501  0.00000000000E+00  0.00000000000E+00 -0.15995332494E+03  0.15995332496E+03  0.25500000920E-02 0. -1.
    10030    2    1    2    0    0  0.00000000000E+00  0.00000000000E+00  0.40611908249E+03  0.72602573239E+03  0.60181446886E+03 0.  0.
        1    1    3    3  502    0 -0.95163290598E+02  0.26327259700E+03  0.33618261200E+03  0.43747829757E+03  0.50400001928E-02 0.  1.
       -1    1    3    3    0  502  0.95163290598E+02 -0.26327259700E+03  0.69936470484E+02  0.28854743481E+03  0.50400001928E-02 0. -1.
</event>
<event>
 5   0  0.2750139E-02  0.6989165E+03  0.7818609E-02  0.9719087E-01
        1   -1    0    0  501    0  0.00000000000E+00  0.00000000000E+00  0.11264736332E+04  0.11264736332E+04  0.50400001928E-02 0. -1.
       -1   -1    0    0    0  501  0.00000000000E+00  0.00000000000E+00 -0.10841005805E+03  0.10841005817E+03  0.50400001928E-02 0.  1.
    10030    2    1    2    0    0  0.00000000000E+00  0.00000000000E+00  0.10180635751E+04  0.12348836913E+04  0.69891651016E+03 0.  0.
        2    1    3    3  502    0 -0.83745795915E+02  0.29454937492E+03  0.80651665166E+03  0.86269450098E+03  0.25500000920E-02 0. -1.
       -2    1    3    3    0  502  0.83745795915E+02 -0.29454937492E+03  0.21154692346E+03  0.37218919037E+03  0.25500000920E-02 0.  1.
</event>
<event>
 5   0  0.4420645E-02  0.7055688E+03  0.7818609E-02  0.9707756E-01
       -2   -1    0    0    0  501  0.00000000000E+00  0.00000000000E+00  0.20236987059E+03  0.20236987060E+03  0.25500000920E-02 0.  1.
        2   -1    0    0  501    0  0.00000000000E+00  0.00000000000E+00 -0.61499677258E+03  0.61499677258E+03  0.25500000920E-02 0. -1.
    10030    2    1    2    0    0  0.00000000000E+00  0.00000000000E+00 -0.41262690199E+03  0.81736664319E+03  0.70556875579E+03 0.  0.
        5    1    3    3  502    0  0.16706811125E+03 -0.13352772461E+03 -0.53128587056E+03  0.57273743835E+03  0.46999998093E+01 0. -1.
       -5    1    3    3    0  502 -0.16706811125E+03  0.13352772461E+03  0.11865896857E+03  0.24462920483E+03  0.46999998093E+01 0.  1.
</event>
<event>
 5   0  0.2750139E-02  0.7042169E+03  0.7818609E-02  0.9710048E-01
       -1   -1    0    0    0  501  0.00000000000E+00  0.00000000000E+00  0.85993272965E+02  0.85993273113E+02  0.50400001928E-02 0. -1.
        1   -1    0    0  501    0  0.00000000000E+00  0.00000000000E+00 -0.14417448810E+04  0.14417448811E+04  0.50400001928E-02 0.  1.
    10030    2    1    2    0    0  0.00000000000E+00  0.00000000000E+00 -0.13557516081E+04  0.15277381542E+04  0.70421690188E+03 0.  0.
        2    1    3    3  502    0  0.38533768609E+01 -0.37404927386E+02  0.81624876938E+02  0.89869892888E+02  0.25500000920E-02 0. -1.
       -2    1    3    3    0  502 -0.38533768609E+01  0.37404927386E+02 -0.14373764850E+04  0.14378682613E+04  0.25500000920E-02 0.  1.
</event>
<event>
 5   0  0.2777999E-02  0.6911177E+03  0.7818609E-02  0.9732544E-01
        1   -1    0    0  501    0  0.00000000000E+00  0.00000000000E+00  0.24591759233E+03  0.24591759238E+03  0.50400001928E-02 0. -1.
       -1   -1    0    0    0  501  0.00000000000E+00  0.00000000000E+00 -0.48557295617E+03  0.48557295619E+03  0.50400001928E-02 0.  1.
    10030    2    1    2    0    0  0.00000000000E+00  0.00000000000E+00 -0.23965536384E+03  0.73149054857E+03  0.69111773905E+03 0.  0.
        5    1    3    3  502    0 -0.76681903868E+02  0.21693386851E+02  0.23602410517E+03  0.24915895656E+03  0.46999998093E+01 0. -1.
       -5    1    3    3    0  502  0.76681903868E+02 -0.21693386851E+02 -0.47567946901E+03  0.48233159201E+03  0.46999998093E+01 0.  1.
</event>
<event>
 5   0  0.2751729E-02  0.7100369E+03  0.7818609E-02  0.9700220E-01
        1   -1    0    0  501    0  0.00000000000E+00  0.00000000000E+00  0.75436222279E+03  0.75436222281E+03  0.50400001928E-02 0. -1.
       -1   -1    0    0    0  501  0.00000000000E+00  0.00000000000E+00 -0.16707903564E+03  0.16707903572E+03  0.50400001928E-02 0.  1.
    10030    2    1    2    0    0  0.00000000000E+00  0.00000000000E+00  0.58728318715E+03  0.92144125853E+03  0.71003693637E+03 0.  0.
        1    1    3    3  502    0  0.28061942159E+03  0.94274189325E+01  0.11695029728E+02  0.28102119092E+03  0.50400001928E-02 0.  1.
       -1    1    3    3    0  502 -0.28061942159E+03 -0.94274189325E+01  0.57558815742E+03  0.64042006760E+03  0.50400001928E-02 0. -1.
</event>
<event>
 5   0  0.4420645E-02  0.6819797E+03  0.7818609E-02  0.9748555E-01
        2   -1    0    0  501    0  0.00000000000E+00  0.00000000000E+00  0.44992333838E+03  0.44992333838E+03  0.25500000920E-02 0. -1.
       -2   -1    0    0    0  501  0.00000000000E+00  0.00000000000E+00 -0.25843088516E+03  0.25843088518E+03  0.25500000920E-02 0.  1.
    10030    2    1    2    0    0  0.00000000000E+00  0.00000000000E+00  0.19149245321E+03  0.70835422356E+03  0.68197972580E+03 0.  0.
        5    1    3    3  502    0 -0.26370088408E+03 -0.19160622754E+03  0.19961821226E+03  0.38225727378E+03  0.46999998093E+01 0. -1.
       -5    1    3    3    0  502  0.26370088408E+03  0.19160622754E+03 -0.81257590455E+01  0.32609694978E+03  0.46999998093E+01 0.  1.
</event>
<event>
 5   0  0.2750139E-02  0.6885941E+03  0.7818609E-02  0.9736939E-01
       -1   -1    0    0    0  501  0.00000000000E+00  0.00000000000E+00  0.68598568656E+03  0.68598568658E+03  0.50400001928E-02 0.  1.
        1   -1    0    0  501    0  0.00000000000E+00  0.00000000000E+00 -0.17280309955E+03  0.17280309962E+03  0.50400001928E-02 0. -1.
    10030    2    1    2    0    0  0.00000000000E+00  0.00000000000E+00  0.51318258701E+03  0.85878878620E+03  0.68859408340E+03 0.  0.
        2    1    3    3  502    0  0.19176192454E+03 -0.49450551328E+02  0.60784520229E+03  0.63929162570E+03  0.25500000920E-02 0.  1.
       -2    1    3    3    0  502 -0.19176192454E+03  0.49450551328E+02 -0.94662615283E+02  0.21949716050E+03  0.25500000920E-02 0. -1.
</event>
<event>
 5   0  0.2758681E-02  0.6973741E+03  0.7818609E-02  0.9721733E-01
       -1   -1    0    0    0  501  0.00000000000E+00  0.00000000000E+00  0.22682443541E+03  0.22682443547E+03  0.50400001928E-02 0. -1.
        1   -1    0    0  501    0  0.00000000000E+00  0.00000000000E+00 -0.53602093892E+03  0.53602093895E+03  0.50400001928E-02 0.  1.
    10030    2    1    2    0    0  0.00000000000E+00  0.00000000000E+00 -0.30919650351E+03  0.76284537441E+03  0.69737406568E+03 0.  0.
        3    1    3    3  502    0  0.86554308636E+01  0.32933910481E+03 -0.27952843207E+03  0.43205939057E+03  0.10100000352E+00 0.  1.
       -3    1    3    3    0  502 -0.86554308636E+01 -0.32933910481E+03 -0.29668071440E+02  0.33078598384E+03  0.10100000352E+00 0. -1.
</event>
<event>
 5   0  0.4299912E-02  0.6935495E+03  0.7818609E-02  0.9728327E-01
        2   -1    0    0  501    0  0.00000000000E+00  0.00000000000E+00  0.13591508240E+03  0.13591508242E+03  0.25500000920E-02 0. -1.
       -2   -1    0    0    0  501  0.00000000000E+00  0.00000000000E+00 -0.88476366542E+03  0.88476366543E+03  0.25500000920E-02 0.  1.
    10030    2    1    2    0    0  0.00000000000E+00  0.00000000000E+00 -0.74884858303E+03  0.10206787479E+04  0.69354949788E+03 0.  0.
        3    1    3    3  502    0 -0.10822691511E+02  0.34397269677E+03 -0.31166866304E+03  0.46429700892E+03  0.10100000352E+00 0. -1.
       -3    1    3    3    0  502  0.10822691511E+02 -0.34397269677E+03 -0.43717991998E+03  0.55638173893E+03  0.10100000352E+00 0.  1.
</event>
<event>
 5   0  0.4420645E-02  0.7032584E+03  0.7818609E-02  0.9711676E-01
        2   -1    0    0  501    0  0.00000000000E+00  0.00000000000E+00  0.12792330343E+03  0.12792330346E+03  0.25500000920E-02 0. -1.
       -2   -1    0    0    0  501  0.00000000000E+00  0.00000000000E+00 -0.96654084366E+03  0.96654084366E+03  0.25500000920E-02 0.  1.
    10030    2    1    2    0    0  0.00000000000E+00  0.00000000000E+00 -0.83861754023E+03  0.10944641471E+04  0.70325840952E+03 0.  0.
        5    1    3    3  502    0  0.30094121671E+03  0.18161293249E+03 -0.43252653602E+03  0.55735999814E+03  0.46999998093E+01 0.  1.
       -5    1    3    3    0  502 -0.30094121671E+03 -0.18161293249E+03 -0.40609100421E+03  0.53710414898E+03  0.46999998093E+01 0. -1.
</event>
<event>
 5   0  0.4526837E-02  0.6978186E+03  0.7818609E-02  0.9720970E-01
       -2   -1    0    0    0  501  0.00000000000E+00  0.00000000000E+00  0.11688318419E+03  0.11688318422E+03  0.25500000920E-02 0. -1.
        2   -1    0    0  501    0  0.00000000000E+00  0.00000000000E+00 -0.10415329777E+04  0.10415329777E+04  0.25500000920E-02 0.  1.
    10030    2    1    2    0    0  0.00000000000E+00  0.00000000000E+00 -0.92464979349E+03  0.11584161619E+04  0.69781857496E+03 0.  0.
        1    1    3    3  502    0 -0.21715604510E+03 -0.16637874063E+03 -0.10282055436E+03  0.29225109012E+03  0.50400001928E-02 0. -1.
       -1    1    3    3    0  502  0.21715604510E+03  0.16637874063E+03 -0.82182923913E+03  0.86616507178E+03  0.50400001928E-02 0.  1.
</event>
<event>
 5   0  0.2684924E-02  0.7003601E+03  0.7818609E-02  0.9716617E-01
       -1   -1    0    0    0  501  0.00000000000E+00  0.00000000000E+00  0.40219178445E+03  0.40219178448E+03  0.50400001928E-02 0.  1.
        1   -1    0    0  501    0  0.00000000000E+00  0.00000000000E+00 -0.30489448960E+03  0.30489448964E+03  0.50400001928E-02 0. -1.
    10030    2    1    2    0    0  0.00000000000E+00  0.00000000000E+00  0.97297294851E+02  0.70708627412E+03  0.70036007557E+03 0.  0.
        4    1    3    3  502    0  0.10731691029E+03  0.19309054278E+03 -0.22566571365E+03  0.31579661835E+03  0.12699999809E+01 0. -1.
       -4    1    3    3    0  502 -0.10731691029E+03 -0.19309054278E+03  0.32296300850E+03  0.39128965576E+03  0.12699999809E+01 0.  1.
</event>
<event>
 5   0  0.2758681E-02  0.7046865E+03  0.7818609E-02  0.9709251E-01
        1   -1    0    0  501    0  0.00000000000E+00  0.00000000000E+00  0.21634038982E+03  0.21634038988E+03  0.50400001928E-02 0.  1.
       -1   -1    0    0    0  501  0.00000000000E+00  0.00000000000E+00 -0.57384464398E+03  0.57384464401E+03  0.50400001928E-02 0. -1.
    10030    2    1    2    0    0  0.00000000000E+00  0.00000000000E+00 -0.35750425417E+03  0.79018503388E+03  0.70468652323E+03 0.  0.
        3    1    3    3  502    0  0.25325951713E+03  0.24221065716E+03 -0.13771428923E+03  0.37652572438E+03  0.10100000352E+00 0.  1.
       -3    1    3    3    0  502 -0.25325951713E+03 -0.24221065716E+03 -0.21978996493E+03  0.41365930951E+03  0.10100000352E+00 0. -1.
</event>
<event>
 5   0  0.2751729E-02  0.6933111E+03  0.7818609E-02  0.9728740E-01
       -1   -1    0    0    0  501  0.00000000000E+00  0.00000000000E+00  0.16295346744E+03  0.16295346752E+03  0.50400001928E-02 0. -1.
        1   -1    0    0  501    0  0.00000000000E+00  0.00000000000E+00 -0.73745027552E+03  0.73745027554E+03  0.50400001928E-02 0.  1.
    10030    2    1    2    0    0  0.00000000000E+00  0.00000000000E+00 -0.57449680809E+03  0.90040374306E+03  0.69331112642E+03 0.  0.
        1    1    3    3  502    0  0.23610170695E+03 -0.21715802268E+03 -0.11658677613E+03  0.34131231920E+03  0.50400001928E-02 0. -1.
       -1    1    3    3    0  502 -0.23610170695E+03  0.21715802268E+03 -0.45791003196E+03  0.55909142386E+03  0.50400001928E-02 0.  1.
</event>
<event>
 5   0  0.4503289E-02  0.7284101E+03  0.7818609E-02  0.9669844E-01
       -2   -1    0    0    0  501  0.00000000000E+00  0.00000000000E+00  0.31041660917E+03  0.31041660918E+03  0.25500000920E-02 0. -1.
        2   -1    0    0  501    0  0.00000000000E+00  0.00000000000E+00 -0.42731390509E+03  0.42731390509E+03  0.25500000920E-02 0.  1.
    10030    2    1    2    0    0  0.00000000000E+00  0.00000000000E+00 -0.11689729591E+03  0.73773051428E+03  0.72841014127E+03 0.  0.
        2    1    3    3  502    0  0.17118816396E+03 -0.14440628824E+03  0.23243138609E+03  0.32277377962E+03  0.25500000920E-02 0. -1.
       -2    1    3    3    0  502 -0.17118816396E+03  0.14440628824E+03 -0.34932868200E+03  0.41495673466E+03  0.25500000920E-02 0.  1.
</event>
<event>
 5   0  0.2751729E-02  0.6903411E+03  0.7818609E-02  0.9733894E-01
       -1   -1    0    0    0  501  0.00000000000E+00  0.00000000000E+00  0.14173911725E+03  0.14173911734E+03  0.50400001928E-02 0. -1.
        1   -1    0    0  501    0  0.00000000000E+00  0.00000000000E+00 -0.84057740203E+03  0.84057740204E+03  0.50400001928E-02 0.  1.
    10030    2    1    2    0    0  0.00000000000E+00  0.00000000000E+00 -0.69883828478E+03  0.98231651938E+03  0.69034107220E+03 0.  0.
        1    1    3    3  502    0  0.13587069432E+03 -0.31434611248E+03 -0.41092546384E+03  0.53491500340E+03  0.50400001928E-02 0.  1.
       -1    1    3    3    0  502 -0.13587069432E+03  0.31434611248E+03 -0.28791282094E+03  0.44740151598E+03  0.50400001928E-02 0. -1.
</event>
<event>
 5   0  0.1784625E-02  0.6944441E+03  0.7818609E-02  0.9726781E-01
       -4   -1    0    0    0  501  0.00000000000E+00  0.00000000000E+00  0.20414972902E+03  0.20415367927E+03  0.12699999809E+01 0. -1.
        4   -1    0    0  501    0  0.00000000000E+00  0.00000000000E+00 -0.59055203552E+03  0.59055340110E+03  0.12699999809E+01 0.  1.
    10030    2    1    2    0    0  0.00000000000E+00  0.00000000000E+00 -0.38640230650E+03  0.79470708037E+03  0.69444409503E+03 0.  0.
        2    1    3    3  502    0 -0.27890937988E+03  0.16641452638E+03 -0.52675757229E+02  0.32902731221E+03  0.25500000920E-02 0. -1.
       -2    1    3    3    0  502  0.27890937988E+03 -0.16641452638E+03 -0.33372654927E+03  0.46567976816E+03  0.25500000920E-02 0.  1.
</event>
<event>
 5   0  0.2684924E-02  0.7004760E+03  0.7818609E-02  0.9716419E-01
        1   -1    0    0  501    0  0.00000000000E+00  0.00000000000E+00  0.34369993277E+03  0.34369993280E+03  0.50400001928E-02 0. -1.
       -1   -1    0    0    0  501  0.00000000000E+00  0.00000000000E+00 -0.35690043882E+03  0.35690043886E+03  0.50400001928E-02 0.  1.
    10030    2    1    2    0    0  0.00000000000E+00  0.00000000000E+00 -0.13200506056E+02  0.70060037166E+03  0.70047600060E+03 0.  0.
        4    1    3    3  502    0  0.25585965020E+03 -0.11415885496E+03 -0.21680093109E+03  0.35426072516E+03  0.12699999809E+01 0.  1.
       -4    1    3    3    0  502 -0.25585965020E+03  0.11415885496E+03  0.20360042503E+03  0.34633964650E+03  0.12699999809E+01 0. -1.
</event>
<event>
 5   0  0.4526837E-02  0.6996929E+03  0.7818609E-02  0.9717758E-01
       -2   -1    0    0    0  501  0.00000000000E+00  0.00000000000E+00  0.22271178740E+03  0.22271178742E+03  0.25500000920E-02 0. -1.
        2   -1    0    0  501    0  0.00000000000E+00  0.00000000000E+00 -0.54955573635E+03  0.54955573636E+03  0.25500000920E-02 0.  1.
    10030    2    1    2    0    0  0.00000000000E+00  0.00000000000E+00 -0.32684394895E+03  0.77226752377E+03  0.69969290500E+03 0.  0.
        1    1    3    3  502    0  0.25025264153E+03  0.18412597931E+03  0.14081270064E+02  0.31100971535E+03  0.50400001928E-02 0. -1.
       -1    1    3    3    0  502 -0.25025264153E+03 -0.18412597931E+03 -0.34092521901E+03  0.46125780843E+03  0.50400001928E-02 0.  1.
</event>
<event>
 5   0  0.4299912E-02  0.7022202E+03  0.7818609E-02  0.9713443E-01
       -2   -1    0    0    0  501  0.00000000000E+00  0.00000000000E+00  0.24791193853E+03  0.24791193854E+03  0.25500000920E-02 0. -1.
        2   -1    0    0  501    0  0.00000000000E+00  0.00000000000E+00 -0.49726653788E+03  0.49726653789E+03  0.25500000920E-02 0.  1.
    10030    2    1    2    0    0  0.00000000000E+00  0.00000000000E+00 -0.24935459935E+03  0.74517847643E+03  0.70222022580E+03 0.  0.
        3    1    3    3  502    0 -0.17198607610E+03 -0.30521017963E+03 -0.14946969435E+03  0.38088536839E+03  0.10100000352E+00 0. -1.
       -3    1    3    3    0  502  0.17198607610E+03  0.30521017963E+03 -0.99884905002E+02  0.36429310805E+03  0.10100000352E+00 0.  1.
</event>
<event>
 5   0  0.1784625E-02  0.6931160E+03  0.7818609E-02  0.9729078E-01
       -4   -1    0    0    0  501  0.00000000000E+00  0.00000000000E+00  0.37219287226E+03  0.37219503901E+03  0.12699999809E+01 0.  1.
        4   -1    0    0  501    0  0.00000000000E+00  0.00000000000E+00 -0.32268433552E+03  0.32268683470E+03  0.12699999809E+01 0. -1.
    10030    2    1    2    0    0  0.00000000000E+00  0.00000000000E+00  0.49508536747E+02  0.69488187371E+03  0.69311595220E+03 0.  0.
        5    1    3    3  502    0 -0.12857225752E+03 -0.12195450817E+03 -0.27379061885E+03  0.32617038559E+03  0.46999998093E+01 0. -1.
       -5    1    3    3    0  502  0.12857225752E+03  0.12195450817E+03  0.32329915559E+03  0.36871148812E+03  0.46999998093E+01 0.  1.
</event>
<event>
 5   0  0.1784625E-02  0.6976559E+03  0.7818609E-02  0.9721249E-01
        3   -1    0    0  501    0  0.00000000000E+00  0.00000000000E+00  0.26437823018E+03  0.26437824947E+03  0.10100000352E+00 0.  1.
       -3   -1    0    0    0  501  0.00000000000E+00  0.00000000000E+00 -0.46025314119E+03  0.46025315227E+03  0.10100000352E+00 0. -1.
    10030    2    1    2    0    0  0.00000000000E+00  0.00000000000E+00 -0.19587491101E+03  0.72463140174E+03  0.69765585186E+03 0.  0.
        2    1    3    3  502    0  0.85186759506E+02 -0.27214207489E+03  0.11073575971E+03  0.30590930258E+03  0.25500000920E-02 0.  1.
       -2    1    3    3    0  502 -0.85186759506E+02  0.27214207489E+03 -0.30661067072E+03  0.41872209916E+03  0.25500000920E-02 0. -1.
</event>
<event>
 5   0  0.2777999E-02  0.6983133E+03  0.7818609E-02  0.9720121E-01
       -1   -1    0    0    0  501  0.00000000000E+00  0.00000000000E+00  0.35028882544E+03  0.35028882548E+03  0.50400001928E-02 0.  1.
        1   -1    0    0  501    0  0.00000000000E+00  0.00000000000E+00 -0.34802813288E+03  0.34802813291E+03  0.50400001928E-02 0. -1.
    10030    2    1    2    0    0  0.00000000000E+00  0.00000000000E+00  0.22606925673E+01  0.69831695839E+03  0.69831329906E+03 0.  0.
        5    1    3    3  502    0 -0.25156131143E+03  0.14226060322E+03  0.19700659647E+03  0.34979259810E+03  0.46999998093E+01 0.  1.
       -5    1    3    3    0  502  0.25156131143E+03 -0.14226060322E+03 -0.19474590390E+03  0.34852436029E+03  0.46999998093E+01 0. -1.
</event>
<event>
 5   0  0.4420645E-02  0.6990808E+03  0.7818609E-02  0.9718805E-01
        2   -1    0    0  501    0  0.00000000000E+00  0.00000000000E+00  0.98996915034E+03  0.98996915034E+03  0.25500000920E-02 0.  1.
       -2   -1    0    0    0  501  0.00000000000E+00  0.00000000000E+00 -0.12341645253E+03  0.12341645255E+03  0.25500000920E-02 0. -1.
    10030    2    1    2    0    0  0.00000000000E+00  0.00000000000E+00  0.86655269781E+03  0.11133856029E+04  0.69908076976E+03 0.  0.
        5    1    3    3  502    0  0.16448997569E+03 -0.53863087646E+02  0.91686876510E+03  0.93307481304E+03  0.46999998093E+01 0.  1.
       -5    1    3    3    0  502 -0.16448997569E+03  0.53863087646E+02 -0.50316067289E+02  0.18031078985E+03  0.46999998093E+01 0. -1.
</event>
<event>
 5   0  0.4526837E-02  0.7582231E+03  0.7818609E-02  0.9622537E-01
        2   -1    0    0  501    0  0.00000000000E+00  0.00000000000E+00  0.11015712927E+04  0.11015712927E+04  0.25500000920E-02 0. -1.
       -2   -1    0    0    0  501  0.00000000000E+00  0.00000000000E+00 -0.13047323726E+03  0.13047323728E+03  0.25500000920E-02 0.  1.
    10030    2    1    2    0    0  0.00000000000E+00  0.00000000000E+00  0.97109805549E+03  0.12320445300E+04  0.75822311401E+03 0.  0.
        1    1    3    3  502    0 -0.31894296620E+03  0.19087938415E+03  0.36432138096E+03  0.52047057903E+03  0.50400001928E-02 0.  1.
       -1    1    3    3    0  502  0.31894296620E+03 -0.19087938415E+03  0.60677667453E+03  0.71157395101E+03  0.50400001928E-02 0. -1.
</event>
<event>
 5   0  0.2777999E-02  0.6942639E+03  0.7818609E-02  0.9727092E-01
       -1   -1    0    0    0  501  0.00000000000E+00  0.00000000000E+00  0.78427544748E+03  0.78427544750E+03  0.50400001928E-02 0. -1.
        1   -1    0    0  501    0  0.00000000000E+00  0.00000000000E+00 -0.15364573615E+03  0.15364573623E+03  0.50400001928E-02 0.  1.
    10030    2    1    2    0    0  0.00000000000E+00  0.00000000000E+00  0.63062971133E+03  0.93792118373E+03  0.69426386488E+03 0.  0.
        5    1    3    3  502    0  0.14978621001E+03  0.45267737906E+01 -0.10764948872E+03  0.18457221571E+03  0.46999998093E+01 0.  1.
       -5    1    3    3    0  502 -0.14978621001E+03 -0.45267737906E+01  0.73827920006E+03  0.75334896802E+03  0.46999998093E+01 0. -1.
</event>
<event>
 5   0  0.2750139E-02  0.6981923E+03  0.7818609E-02  0.9720329E-01
       -1   -1    0    0    0  501  0.00000000000E+00  0.00000000000E+00  0.15576660443E+03  0.15576660451E+03  0.50400001928E-02 0. -1.
        1   -1    0    0  501    0  0.00000000000E+00  0.00000000000E+00 -0.78237645812E+03  0.78237645814E+03  0.50400001928E-02 0.  1.
    10030    2    1    2    0    0  0.00000000000E+00  0.00000000000E+00 -0.62660985369E+03  0.93814306266E+03  0.69819230679E+03 0.  0.
        2    1    3    3  502    0 -0.83910577228E+02 -0.28794086781E+03 -0.55335750657E+03  0.62940881660E+03  0.25500000920E-02 0.  1.
       -2    1    3    3    0  502  0.83910577228E+02  0.28794086781E+03 -0.73252347122E+02  0.30873424606E+03  0.25500000920E-02 0. -1.
</event>
<event>
 5   0  0.4365492E-02  0.6257580E+03  0.7818609E-02  0.9853362E-01
        2   -1    0    0  501    0  0.00000000000E+00  0.00000000000E+00  0.95343412402E+03  0.95343412402E+03  0.25500000920E-02 0.  1.
       -2   -1    0    0    0  501  0.00000000000E+00  0.00000000000E+00 -0.10267439711E+03  0.10267439714E+03  0.25500000920E-02 0. -1.
    10030    2    1    2    0    0  0.00000000000E+00  0.00000000000E+00  0.85075972691E+03  0.10561085212E+04  0.62575801675E+03 0.  0.
        4    1    3    3  502    0  0.75088187285E+02 -0.17419504161E+03  0.84531364900E+03  0.86633649726E+03  0.12699999809E+01 0.  1.
       -4    1    3    3    0  502 -0.75088187285E+02  0.17419504161E+03  0.54460779066E+01  0.18977202390E+03  0.12699999809E+01 0. -1.
</event>
<event>
 5   0  0.4299912E-02  0.6989511E+03  0.7818609E-02  0.9719028E-01
       -2   -1    0    0    0  501  0.00000000000E+00  0.00000000000E+00  0.12307434276E+03  0.12307434279E+03  0.25500000920E-02 0. -1.
        2   -1    0    0  501    0  0.00000000000E+00  0.00000000000E+00 -0.99235272002E+03  0.99235272002E+03  0.25500000920E-02 0.  1.
    10030    2    1    2    0    0  0.00000000000E+00  0.00000000000E+00 -0.86927837726E+03  0.11154270628E+04  0.69895109648E+03 0.  0.
        3    1    3    3  502    0  0.42069416028E+02 -0.25411415687E+03 -0.81157714750E+03  0.85147009169E+03  0.10100000352E+00 0.  1.
       -3    1    3    3    0  502 -0.42069416028E+02  0.25411415687E+03 -0.57701229757E+02  0.26395697112E+03  0.10100000352E+00 0. -1.
</event>
<event>
 5   0  0.4420645E-02  0.7156976E+03  0.7818609E-02  0.9690758E-01
       -2   -1    0    0    0  501  0.00000000000E+00  0.00000000000E+00  0.10501182929E+03  0.10501182933E+03  0.25500000920E-02 0. -1.
        2   -1    0    0  501    0  0.00000000000E+00  0.00000000000E+00 -0.12194412334E+04  0.12194412334E+04  0.25500000920E-02 0.  1.
    10030    2    1    2    0    0  0.00000000000E+00  0.00000000000E+00 -0.11144294042E+04  0.13244530628E+04  0.71569757486E+03 0.  0.
        5    1    3    3  502    0 -0.59838497142E+02  0.35276321531E+03 -0.56338932202E+03  0.66742201790E+03  0.46999998093E+01 0.  1.
       -5    1    3    3    0  502  0.59838497142E+02 -0.35276321531E+03 -0.55104008213E+03  0.65703104487E+03  0.46999998093E+01 0. -1.
</event>
<event>
 5   0  0.4420645E-02  0.7025612E+03  0.7818609E-02  0.9712862E-01
        2   -1    0    0  501    0  0.00000000000E+00  0.00000000000E+00  0.32437327775E+03  0.32437327776E+03  0.25500000920E-02 0. -1.
       -2   -1    0    0    0  501  0.00000000000E+00  0.00000000000E+00 -0.38041992608E+03  0.38041992609E+03  0.25500000920E-02 0.  1.
    10030    2    1    2    0    0  0.00000000000E+00  0.00000000000E+00 -0.56046648336E+02  0.70479320385E+03  0.70256119549E+03 0.  0.
        5    1    3    3  502    0 -0.37377941840E+02  0.29758057985E+03 -0.21142826200E+03  0.36698135104E+03  0.46999998093E+01 0.  1.
       -5    1    3    3    0  502  0.37377941840E+02 -0.29758057985E+03  0.15538161367E+03  0.33781185281E+03  0.46999998093E+01 0. -1.
</event>
<event>
 5   0  0.4420645E-02  0.6997752E+03  0.7818609E-02  0.9717617E-01
       -2   -1    0    0    0  501  0.00000000000E+00  0.00000000000E+00  0.41072409450E+03  0.41072409451E+03  0.25500000920E-02 0.  1.
        2   -1    0    0  501    0  0.00000000000E+00  0.00000000000E+00 -0.29806222364E+03  0.29806222365E+03  0.25500000920E-02 0. -1.
    10030    2    1    2    0    0  0.00000000000E+00  0.00000000000E+00  0.11266187087E+03  0.70878631816E+03  0.69977521224E+03 0.  0.
        5    1    3    3  502    0 -0.25032242855E+03  0.19838712853E+03 -0.88267612467E+02  0.33140916163E+03  0.46999998093E+01 0.  1.
       -5    1    3    3    0  502  0.25032242855E+03 -0.19838712853E+03  0.20092948333E+03  0.37737715653E+03  0.46999998093E+01 0. -1.
</event>
<event>
 5   0  0.2777999E-02  0.7052958E+03  0.7818609E-02  0.9708218E-01
        1   -1    0    0  501    0  0.00000000000E+00  0.00000000000E+00  0.19962548603E+04  0.19962548603E+04  0.50400001928E-02 0. -1.
       -1   -1    0    0    0  501  0.00000000000E+00  0.00000000000E+00 -0.62296932173E+02  0.62296932376E+02  0.50400001928E-02 0.  1.
    10030    2    1    2    0    0  0.00000000000E+00  0.00000000000E+00  0.19339579281E+04  0.20585517926E+04  0.70529583536E+03 0.  0.
        5    1    3    3  502    0 -0.27782470424E+03 -0.32816455070E+02  0.34047612080E+03  0.44069214293E+03  0.46999998093E+01 0.  1.
       -5    1    3    3    0  502  0.27782470424E+03  0.32816455070E+02  0.15934818073E+04  0.16178596497E+04  0.46999998093E+01 0. -1.
</event>
<event>
 5   0  0.4526837E-02  0.7018638E+03  0.7818609E-02  0.9714050E-01
       -2   -1    0    0    0  501  0.00000000000E+00  0.00000000000E+00  0.51794564582E+02  0.51794564645E+02  0.25500000920E-02 0.  1.
        2   -1    0    0  501    0  0.00000000000E+00  0.00000000000E+00 -0.23777243896E+04  0.23777243896E+04  0.25500000920E-02 0. -1.
    10030    2    1    2    0    0  0.00000000000E+00  0.00000000000E+00 -0.23259298250E+04  0.24295189543E+04  0.70186380312E+03 0.  0.
        1    1    3    3  502    0  0.17586165442E+03 -0.95356823609E+02 -0.21610189439E+04  0.21702587683E+04  0.50400001928E-02 0. -1.
       -1    1    3    3    0  502 -0.17586165442E+03  0.95356823609E+02 -0.16491088115E+03  0.25926018601E+03  0.50400001928E-02 0.  1.
</event>
<event>
 5   0  0.1784625E-02  0.6975015E+03  0.7818609E-02  0.9721514E-01
        4   -1    0    0  501    0  0.00000000000E+00  0.00000000000E+00  0.36851392025E+03  0.36851610863E+03  0.12699999809E+01 0. -1.
       -4   -1    0    0    0  501  0.00000000000E+00  0.00000000000E+00 -0.33004310446E+03  0.33004554792E+03  0.12699999809E+01 0.  1.
    10030    2    1    2    0    0  0.00000000000E+00  0.00000000000E+00  0.38470815790E+02  0.69856165656E+03  0.69750152999E+03 0.  0.
        5    1    3    3  502    0 -0.32836167608E+03  0.91198160333E+02 -0.54812826095E+02  0.34520288334E+03  0.46999998093E+01 0. -1.
       -5    1    3    3    0  502  0.32836167608E+03 -0.91198160333E+02  0.93283641885E+02  0.35335877321E+03  0.46999998093E+01 0.  1.
</event>
<event>
 5   0  0.2750139E-02  0.6781405E+03  0.7818609E-02  0.9755363E-01
       -1   -1    0    0    0  501  0.00000000000E+00  0.00000000000E+00  0.15145248503E+03  0.15145248512E+03  0.50400001928E-02 0. -1.
        1   -1    0    0  501    0  0.00000000000E+00  0.00000000000E+00 -0.75910690364E+03  0.75910690365E+03  0.50400001928E-02 0.  1.
    10030    2    1    2    0    0  0.00000000000E+00  0.00000000000E+00 -0.60765441860E+03  0.91055938877E+03  0.67814047810E+03 0.  0.
        2    1    3    3  502    0 -0.91098919678E+02 -0.12820865629E+03 -0.70716533122E+03  0.72444411683E+03  0.25500000920E-02 0.  1.
       -2    1    3    3    0  502  0.91098919678E+02  0.12820865629E+03  0.99510912622E+02  0.18611527194E+03  0.25500000920E-02 0. -1.
</event>
<event>
 5   0  0.2758681E-02  0.7054859E+03  0.7818609E-02  0.9707896E-01
       -1   -1    0    0    0  501  0.00000000000E+00  0.00000000000E+00  0.36742891018E+03  0.36742891021E+03  0.50400001928E-02 0.  1.
        1   -1    0    0  501    0  0.00000000000E+00  0.00000000000E+00 -0.33864401887E+03  0.33864401891E+03  0.50400001928E-02 0. -1.
    10030    2    1    2    0    0  0.00000000000E+00  0.00000000000E+00  0.28784891305E+02  0.70607292912E+03  0.70548593981E+03 0.  0.
        3    1    3    3  502    0  0.34127061578E+02 -0.79224186219E+01  0.36568330901E+03  0.36735774626E+03  0.10100000352E+00 0.  1.
       -3    1    3    3    0  502 -0.34127061578E+02  0.79224186219E+01 -0.33689841770E+03  0.33871518286E+03  0.10100000352E+00 0. -1.
</event>
<event>
 5   0  0.4526837E-02  0.7066325E+03  0.7818609E-02  0.9705956E-01
        2   -1    0    0  501    0  0.00000000000E+00  0.00000000000E+00  0.81286175040E+03  0.81286175040E+03  0.25500000920E-02 0. -1.
       -2   -1    0    0    0  501  0.00000000000E+00  0.00000000000E+00 -0.15357147371E+03  0.15357147373E+03  0.25500000920E-02 0.  1.
    10030    2    1    2    0    0  0.00000000000E+00  0.00000000000E+00  0.65929027669E+03  0.96643322414E+03  0.70663251254E+03 0.  0.
        1    1    3    3  502    0  0.19286341759E+03 -0.29230077125E+03  0.26554959348E+03  0.43949132567E+03  0.50400001928E-02 0. -1.
       -1    1    3    3    0  502 -0.19286341759E+03  0.29230077125E+03  0.39374068321E+03  0.52694189847E+03  0.50400001928E-02 0.  1.
</event>
<event>
 5   0  0.2684924E-02  0.6864382E+03  0.7818609E-02  0.9740710E-01
       -1   -1    0    0    0  501  0.00000000000E+00  0.00000000000E+00  0.15905142738E+03  0.15905142746E+03  0.50400001928E-02 0.  1.
        1   -1    0    0  501    0  0.00000000000E+00  0.00000000000E+00 -0.74063684162E+03  0.74063684164E+03  0.50400001928E-02 0. -1.
    10030    2    1    2    0    0  0.00000000000E+00  0.00000000000E+00 -0.58158541424E+03  0.89968826910E+03  0.68643818914E+03 0.  0.
        4    1    3    3  502    0  0.16549197704E+03  0.22934366340E+02  0.10215267497E+03  0.19583248333E+03  0.12699999809E+01 0.  1.
       -4    1    3    3    0  502 -0.16549197704E+03 -0.22934366340E+02 -0.68373808921E+03  0.70385578577E+03  0.12699999809E+01 0. -1.
</event>
<event>
 5   0  0.2684924E-02  0.7039892E+03  0.7818609E-02  0.9710434E-01
        1   -1    0    0  501    0  0.00000000000E+00  0.00000000000E+00  0.15372383855E+04  0.15372383855E+04  0.50400001928E-02 0.  1.
       -1   -1    0    0    0  501  0.00000000000E+00  0.00000000000E+00 -0.80599210111E+02  0.80599210269E+02  0.50400001928E-02 0. -1.
    10030    2    1    2    0    0  0.00000000000E+00  0.00000000000E+00  0.14566391754E+04  0.16178375957E+04  0.70398920377E+03 0.  0.
        4    1    3    3  502    0 -0.14930124710E+03 -0.12385542791E+03  0.53336835622E+02  0.20119010995E+03  0.12699999809E+01 0. -1.
       -4    1    3    3    0  502  0.14930124710E+03  0.12385542791E+03  0.14033023397E+04  0.14166474858E+04  0.12699999809E+01 0.  1.
</event>
<event>
 5   0  0.2777999E-02  0.6953810E+03  0.7818609E-02  0.9725164E-01
        1   -1    0    0  501    0  0.00000000000E+00  0.00000000000E+00  0.49104284251E+03  0.49104284254E+03  0.50400001928E-02 0.  1.
       -1   -1    0    0    0  501  0.00000000000E+00  0.00000000000E+00 -0.24618763112E+03  0.24618763117E+03  0.50400001928E-02 0. -1.
    10030    2    1    2    0    0  0.00000000000E+00  0.00000000000E+00  0.24485521139E+03  0.73723047370E+03  0.69538097243E+03 0.  0.
        5    1    3    3  502    0  0.25076766979E+03 -0.11178669190E+03 -0.10368191549E+03  0.29351783301E+03  0.46999998093E+01 0.  1.
       -5    1    3    3    0  502 -0.25076766979E+03  0.11178669190E+03  0.34853712689E+03  0.44371264070E+03  0.46999998093E+01 0. -1.
</event>
<event>
 5   0  0.4503289E-02  0.6761843E+03  0.7818609E-02  0.9758850E-01
        2   -1    0    0  501    0  0.00000000000E+00  0.00000000000E+00  0.20990228260E+03  0.20990228261E+03  0.25500000920E-02 0. -1.
       -2   -1    0    0    0  501  0.00000000000E+00  0.00000000000E+00 -0.54456916725E+03  0.54456916726E+03  0.25500000920E-02 0.  1.
    10030    2    1    2    0    0  0.00000000000E+00  0.00000000000E+00 -0.33466688465E+03  0.75447144987E+03  0.67618432767E+03 0.  0.
        2    1    3    3  502    0 -0.28889742103E+03  0.16534381201E+03 -0.23340044533E+03  0.40654158943E+03  0.25500000920E-02 0.  1.
       -2    1    3    3    0  502  0.28889742103E+03 -0.16534381201E+03 -0.10126643932E+03  0.34792986044E+03  0.25500000920E-02 0. -1.
</event>
<event>
 5   0  0.4365492E-02  0.6992684E+03  0.7818609E-02  0.9718484E-01
        2   -1    0    0  501    0  0.00000000000E+00  0.00000000000E+00  0.24089294597E+03  0.24089294599E+03  0.25500000920E-02 0. -1.
       -2   -1    0    0    0  501  0.00000000000E+00  0.00000000000E+00 -0.50746217540E+03  0.50746217541E+03  0.25500000920E-02 0.  1.
    10030    2    1    2    0    0  0.00000000000E+00  0.00000000000E+00 -0.26656922943E+03  0.74835512140E+03  0.69926835595E+03 0.  0.
        4    1    3    3  502    0  0.36256862366E+02 -0.14143606706E+03  0.20670096259E+03  0.25307236509E+03  0.12699999809E+01 0. -1.
       -4    1    3    3    0  502 -0.36256862366E+02  0.14143606706E+03 -0.47327019203E+03  0.49528275631E+03  0.12699999809E+01 0.  1.
</event>
<event>
 5   0  0.4420645E-02  0.6886022E+03  0.7818609E-02  0.9736925E-01
        2   -1    0    0  501    0  0.00000000000E+00  0.00000000000E+00  0.14422496399E+04  0.14422496399E+04  0.25500000920E-02 0.  1.
       -2   -1    0    0    0  501  0.00000000000E+00  0.00000000000E+00 -0.82193283687E+02  0.82193283726E+02  0.25500000920E-02 0. -1.
    10030    2    1    2    0    0  0.00000000000E+00  0.00000000000E+00  0.13600563562E+04  0.15244429236E+04  0.68860216041E+03 0.  0.
        5    1    3    3  502    0  0.20685851614E+03 -0.10029464499E+03  0.11270326060E+03  0.25607338101E+03  0.46999998093E+01 0. -1.
       -5    1    3    3    0  502 -0.20685851614E+03  0.10029464499E+03  0.12473530956E+04  0.12683695426E+04  0.46999998093E+01 0.  1.
</event>
<event>
 5   0  0.4299912E-02  0.7096106E+03  0.7818609E-02  0.9700937E-01
        2   -1    0    0  501    0  0.00000000000E+00  0.00000000000E+00  0.28437930802E+03  0.28437930803E+03  0.25500000920E-02 0.  1.
       -2   -1    0    0    0  501  0.00000000000E+00  0.00000000000E+00 -0.44267210896E+03  0.44267210896E+03  0.25500000920E-02 0. -1.
    10030    2    1    2    0    0  0.00000000000E+00  0.00000000000E+00 -0.15829280094E+03  0.72705141699E+03  0.70961056370E+03 0.  0.
        3    1    3    3  502    0 -0.30104687515E+03  0.18631546693E+03 -0.10304573689E+03  0.36872904462E+03  0.10100000352E+00 0. -1.
       -3    1    3    3    0  502  0.30104687515E+03 -0.18631546693E+03 -0.55247064052E+02  0.35832237237E+03  0.10100000352E+00 0.  1.
</event>
<event>
 5   0  0.4420645E-02  0.6744347E+03  0.7818609E-02  0.9761980E-01
       -2   -1    0    0    0  501  0.00000000000E+00  0.00000000000E+00  0.75823727466E+02  0.75823727509E+02  0.25500000920E-02 0.  1.
        2   -1    0    0  501    0  0.00000000000E+00  0.00000000000E+00 -0.14997353508E+04  0.14997353508E+04  0.25500000920E-02 0. -1.
    10030    2    1    2    0    0  0.00000000000E+00  0.00000000000E+00 -0.14239116233E+04  0.15755590783E+04  0.67443465078E+03 0.  0.
        5    1    3    3  502    0 -0.13258460466E+03 -0.17830447124E+03 -0.11947333830E+03  0.25232346387E+03  0.46999998093E+01 0.  1.
       -5    1    3    3    0  502  0.13258460466E+03  0.17830447124E+03 -0.13044382850E+04  0.13232356144E+04  0.46999998093E+01 0. -1.
</event>
<event>
 5   0  0.4503289E-02  0.8073423E+03  0.7818609E-02  0.9549450E-01
        2   -1    0    0  501    0  0.00000000000E+00  0.00000000000E+00  0.25939186369E+03  0.25939186371E+03  0.25500000920E-02 0.  1.
       -2   -1    0    0    0  501  0.00000000000E+00  0.00000000000E+00 -0.62820168499E+03  0.62820168500E+03  0.25500000920E-02 0. -1.
    10030    2    1    2    0    0  0.00000000000E+00  0.00000000000E+00 -0.36880982130E+03  0.88759354870E+03  0.80734232108E+03 0.  0.
        2    1    3    3  502    0  0.30175227186E+03 -0.15697035825E+03  0.54588638426E+02  0.34449099610E+03  0.25500000920E-02 0.  1.
       -2    1    3    3    0  502 -0.30175227186E+03  0.15697035825E+03 -0.42339845972E+03  0.54310255260E+03  0.25500000920E-02 0. -1.
</event>
<event>
 5   0  0.2751729E-02  0.7209921E+03  0.7818609E-02  0.9681991E-01
        1   -1    0    0  501    0  0.00000000000E+00  0.00000000000E+00  0.12821019706E+04  0.12821019706E+04  0.50400001928E-02 0.  1.
       -1   -1    0    0    0  501  0.00000000000E+00  0.00000000000E+00 -0.10136275399E+03  0.10136275412E+03  0.50400001928E-02 0. -1.
    10030    2    1    2    0    0  0.00000000000E+00  0.00000000000E+00  0.11807392166E+04  0.13834647247E+04  0.72099205746E+03 0.  0.
        1    1    3    3  502    0  0.28954604996E+03 -0.36530445041E+02  0.18429228387E+03  0.34515943328E+03  0.50400001928E-02 0. -1.
       -1    1    3    3    0  502 -0.28954604996E+03  0.36530445041E+02  0.99644693274E+03  0.10383052914E+04  0.50400001928E-02 0.  1.
</event>
<event>
 5   0  0.2684924E-02  0.7000587E+03  0.7818609E-02  0.9717132E-01
        1   -1    0    0  501    0  0.00000000000E+00  0.00000000000E+00  0.54293339622E+03  0.54293339624E+03  0.50400001928E-02 0.  1.
       -1   -1    0    0    0  501  0.00000000000E+00  0.00000000000E+00 -0.22566406496E+03  0.22566406502E+03  0.50400001928E-02 0. -1.
    10030    2    1    2    0    0  0.00000000000E+00  0.00000000000E+00  0.31726933126E+03  0.76859746126E+03  0.70005873246E+03 0.  0.
        4    1    3    3  502    0 -0.84781757304E+02 -0.30336181309E+03  0.32623185685E+03  0.45348117197E+03  0.12699999809E+01 0.  1.
       -4    1    3    3    0  502  0.84781757304E+02  0.30336181309E+03 -0.89625255878E+01  0.31511628929E+03  0.12699999809E+01 0. -1.
</event>
<event>
 5   0  0.4365492E-02  0.7276698E+03  0.7818609E-02  0.9671049E-01
       -2   -1    0    0    0  501  0.00000000000E+00  0.00000000000E+00  0.53525316614E+03  0.53525316615E+03  0.25500000920E-02 0. -1.
        2   -1    0    0  501    0  0.00000000000E+00  0.00000000000E+00 -0.24731445871E+03  0.24731445872E+03  0.25500000920E-02 0.  1.
    10030    2    1    2    0    0  0.00000000000E+00  0.00000000000E+00  0.28793870744E+03  0.78256762487E+03  0.72766983465E+03 0.  0.
        4    1    3    3  502    0  0.36101353257E+02 -0.58144567052E+02 -0.24032692553E+03  0.24988545860E+03  0.12699999809E+01 0.  1.
       -4    1    3    3    0  502 -0.36101353257E+02  0.58144567052E+02  0.52826563297E+03  0.53268216627E+03  0.12699999809E+01 0. -1.
</event>
<event>
 5   0  0.4365492E-02  0.7028196E+03  0.7818609E-02  0.9712422E-01
       -2   -1    0    0    0  501  0.00000000000E+00  0.00000000000E+00  0.27044894997E+03  0.27044894998E+03  0.25500000920E-02 0.  1.
        2   -1    0    0  501    0  0.00000000000E+00  0.00000000000E+00 -0.45660685673E+03  0.45660685674E+03  0.25500000920E-02 0. -1.
    10030    2    1    2    0    0  0.00000000000E+00  0.00000000000E+00 -0.18615790677E+03  0.72705580672E+03  0.70281959266E+03 0.  0.
        4    1    3    3  502    0 -0.30941076550E+03 -0.15548100440E+03 -0.31200989401E+02  0.34768445346E+03  0.12699999809E+01 0. -1.
       -4    1    3    3    0  502  0.30941076550E+03  0.15548100440E+03 -0.15495691737E+03  0.37937135326E+03  0.12699999809E+01 0.  1.
</event>
<event>
 5   0  0.2750139E-02  0.7033042E+03  0.7818609E-02  0.9711598E-01
       -1   -1    0    0    0  501  0.00000000000E+00  0.00000000000E+00  0.16857687910E+03  0.16857687918E+03  0.50400001928E-02 0.  1.
        1   -1    0    0  501    0  0.00000000000E+00  0.00000000000E+00 -0.73354784168E+03  0.73354784170E+03  0.50400001928E-02 0. -1.
    10030    2    1    2    0    0  0.00000000000E+00  0.00000000000E+00 -0.56497096257E+03  0.90212472088E+03  0.70330421829E+03 0.  0.
        2    1    3    3  502    0 -0.23677649874E+01 -0.34912905147E+03 -0.22863513053E+03  0.41733766162E+03  0.25500000920E-02 0.  1.
       -2    1    3    3    0  502  0.23677649874E+01  0.34912905147E+03 -0.33633583205E+03  0.48478705925E+03  0.25500000920E-02 0. -1.
</event>
<event>
 5   0  0.1784625E-02  0.7032701E+03  0.7818609E-02  0.9711656E-01
        4   -1    0    0  501    0  0.00000000000E+00  0.00000000000E+00  0.87781211048E+03  0.87781302918E+03  0.12699999809E+01 0.  1.
       -4   -1    0    0    0  501  0.00000000000E+00  0.00000000000E+00 -0.14085453988E+03  0.14086026517E+03  0.12699999809E+01 0. -1.
    10030    2    1    2    0    0  0.00000000000E+00  0.00000000000E+00  0.73695757060E+03  0.10186732944E+04  0.70327009019E+03 0.  0.
        1    1    3    3  502    0  0.12860494805E+03  0.22143287724E+03  0.19411557558E+02  0.25680451783E+03  0.50400001928E-02 0. -1.
       -1    1    3    3    0  502 -0.12860494805E+03 -0.22143287724E+03  0.71754601304E+03  0.76186877653E+03  0.50400001928E-02 0.  1.
</event>
<event>
 5   0  0.4503289E-02  0.6480317E+03  0.7818609E-02  0.9810480E-01
       -2   -1    0    0    0  501  0.00000000000E+00  0.00000000000E+00  0.17534354826E+03  0.17534354828E+03  0.25500000920E-02 0.  1.
        2   -1    0    0  501    0  0.00000000000E+00  0.00000000000E+00 -0.59874618592E+03  0.59874618593E+03  0.25500000920E-02 0. -1.
    10030    2    1    2    0    0  0.00000000000E+00  0.00000000000E+00 -0.42340263766E+03  0.77408973421E+03  0.64803172995E+03 0.  0.
        2    1    3    3  502    0 -0.27946010424E+03 -0.84987519526E+02 -0.44188900675E+02  0.29542086467E+03  0.25500000920E-02 0. -1.
       -2    1    3    3    0  502  0.27946010424E+03  0.84987519526E+02 -0.37921373699E+03  0.47866886953E+03  0.25500000920E-02 0.  1.
</event>
<event>
 5   0  0.4299912E-02  0.6918402E+03  0.7818609E-02  0.9731289E-01
        2   -1    0    0  501    0  0.00000000000E+00  0.00000000000E+00  0.10527087120E+04  0.10527087120E+04  0.25500000920E-02 0.  1.
       -2   -1    0    0    0  501  0.00000000000E+00  0.00000000000E+00 -0.11366935059E+03  0.11366935062E+03  0.25500000920E-02 0. -1.
    10030    2    1    2    0    0  0.00000000000E+00  0.00000000000E+00  0.93903936138E+03  0.11663780626E+04  0.69184020024E+03 0.  0.
        3    1    3    3  502    0  0.26983999665E+03 -0.21612191662E+03  0.48935319885E+03  0.59915679923E+03  0.10100000352E+00 0.  1.
       -3    1    3    3    0  502 -0.26983999665E+03  0.21612191662E+03  0.44968616252E+03  0.56722126336E+03  0.10100000352E+00 0. -1.
</event>
<event>
 5   0  0.1784625E-02  0.6842480E+03  0.7818609E-02  0.9744556E-01
        3   -1    0    0  501    0  0.00000000000E+00  0.00000000000E+00  0.14555916845E+03  0.14555920349E+03  0.10100000352E+00 0.  1.
       -3   -1    0    0    0  501  0.00000000000E+00  0.00000000000E+00 -0.80413224251E+03  0.80413224885E+03  0.10100000352E+00 0. -1.
    10030    2    1    2    0    0  0.00000000000E+00  0.00000000000E+00 -0.65857307405E+03  0.94969145234E+03  0.68424802577E+03 0.  0.
        5    1    3    3  502    0 -0.28173337202E+03  0.94986622978E+02 -0.94439983393E+02  0.31198902531E+03  0.46999998093E+01 0.  1.
       -5    1    3    3    0  502  0.28173337202E+03 -0.94986622978E+02 -0.56413309066E+03  0.63770242702E+03  0.46999998093E+01 0. -1.
</event>
<event>
 5   0  0.1784625E-02  0.6255100E+03  0.7818609E-02  0.9853850E-01
        3   -1    0    0  501    0  0.00000000000E+00  0.00000000000E+00  0.30443575678E+03  0.30443577353E+03  0.10100000352E+00 0. -1.
       -3   -1    0    0    0  501  0.00000000000E+00  0.00000000000E+00 -0.32130158367E+03  0.32130159954E+03  0.10100000352E+00 0.  1.
    10030    2    1    2    0    0  0.00000000000E+00  0.00000000000E+00 -0.16865826893E+02  0.62573737307E+03  0.62551003505E+03 0.  0.
        1    1    3    3  502    0  0.28828663546E+03  0.12081795653E+03  0.20369381328E+01  0.31258648715E+03  0.50400001928E-02 0.  1.
       -1    1    3    3    0  502 -0.28828663546E+03 -0.12081795653E+03 -0.18902765025E+02  0.31315088593E+03  0.50400001928E-02 0. -1.
</event>
<event>
 5   0  0.4503289E-02  0.6934666E+03  0.7818609E-02  0.9728471E-01
        2   -1    0    0  501    0  0.00000000000E+00  0.00000000000E+00  0.24844937215E+04  0.24844937215E+04  0.25500000920E-02 0. -1.
       -2   -1    0    0    0  501  0.00000000000E+00  0.00000000000E+00 -0.48389726162E+02  0.48389726229E+02  0.25500000920E-02 0.  1.
    10030    2    1    2    0    0  0.00000000000E+00  0.00000000000E+00  0.24361039954E+04  0.25328834477E+04  0.69346656999E+03 0.  0.
        2    1    3    3  502    0  0.57676161348E+02  0.11890503650E+03  0.23888976851E+04  0.23925503332E+04  0.25500000920E-02 0. -1.
       -2    1    3    3    0  502 -0.57676161348E+02 -0.11890503650E+03  0.47206310276E+02  0.14033311451E+03  0.25500000920E-02 0.  1.
</event>
<event>
 5   0  0.4526837E-02  0.6919095E+03  0.7818609E-02  0.9731169E-01
        2   -1    0    0  501    0  0.00000000000E+00  0.00000000000E+00  0.14423315653E+04  0.14423315653E+04  0.25500000920E-02 0. -1.
       -2   -1    0    0    0  501  0.00000000000E+00  0.00000000000E+00 -0.82979999771E+02  0.82979999810E+02  0.25500000920E-02 0.  1.
    10030    2    1    2    0    0  0.00000000000E+00  0.00000000000E+00  0.13593515655E+04  0.15253115651E+04  0.69190945357E+03 0.  0.
        1    1    3    3  502    0 -0.13102547136E+02 -0.34465554511E+03  0.73905622190E+03  0.81557539239E+03  0.50400001928E-02 0.  1.
       -1    1    3    3    0  502  0.13102547136E+02  0.34465554511E+03  0.62029534359E+03  0.70973617268E+03  0.50400001928E-02 0. -1.
</event>
<event>
 5   0  0.2758681E-02  0.7019402E+03  0.7818609E-02  0.9713920E-01
        1   -1    0    0  501    0  0.00000000000E+00  0.00000000000E+00  0.50013578217E+03  0.50013578220E+03  0.50400001928E-02 0.  1.
       -1   -1    0    0    0  501  0.00000000000E+00  0.00000000000E+00 -0.24629314846E+03  0.24629314851E+03  0.50400001928E-02 0. -1.
    10030    2    1    2    0    0  0.00000000000E+00  0.00000000000E+00  0.25384263371E+03  0.74642893071E+03  0.70194021534E+03 0.  0.
        3    1    3    3  502    0 -0.34046183709E+03  0.58460889520E+02  0.19288573218E+03  0.39564738593E+03  0.10100000352E+00 0.  1.
       -3    1    3    3    0  502  0.34046183709E+03 -0.58460889520E+02  0.60956901532E+02  0.35078154478E+03  0.10100000352E+00 0. -1.
</event>
<event>
 5   0  0.4420645E-02  0.6925772E+03  0.7818609E-02  0.9730011E-01
        2   -1    0    0  501    0  0.00000000000E+00  0.00000000000E+00  0.10405756828E+04  0.10405756828E+04  0.25500000920E-02 0.  1.
       -2   -1    0    0    0  501  0.00000000000E+00  0.00000000000E+00 -0.11523984988E+03  0.11523984991E+03  0.25500000920E-02 0. -1.
    10030    2    1    2    0    0  0.00000000000E+00  0.00000000000E+00  0.92533583287E+03  0.11558155327E+04  0.69257717401E+03 0.  0.
        5    1    3    3  502    0  0.17040649758E+03 -0.29470834159E+03  0.35708930227E+03  0.49338244883E+03  0.46999998093E+01 0. -1.
       -5    1    3    3    0  502 -0.17040649758E+03  0.29470834159E+03  0.56824653060E+03  0.66243308384E+03  0.46999998093E+01 0.  1.
</event>
<event>
 5   0  0.4365492E-02  0.7014339E+03  0.7818609E-02  0.9714783E-01
       -2   -1    0    0    0  501  0.00000000000E+00  0.00000000000E+00  0.19827845777E+03  0.19827845778E+03  0.25500000920E-02 0. -1.
        2   -1    0    0  501    0  0.00000000000E+00  0.00000000000E+00 -0.62035171530E+03  0.62035171530E+03  0.25500000920E-02 0.  1.
    10030    2    1    2    0    0  0.00000000000E+00  0.00000000000E+00 -0.42207325753E+03  0.81863017309E+03  0.70143390677E+03 0.  0.
        4    1    3    3  502    0  0.12282861878E+03 -0.72640538249E+02  0.16286167791E+03  0.21653881042E+03  0.12699999809E+01 0. -1.
       -4    1    3    3    0  502 -0.12282861878E+03  0.72640538249E+02 -0.58493493545E+03  0.60209136266E+03  0.12699999809E+01 0.  1.
</event>
<event>
 5   0  0.4503289E-02  0.5900771E+03  0.7818609E-02  0.9926209E-01
        2   -1    0    0  501    0  0.00000000000E+00  0.00000000000E+00  0.20006056232E+04  0.20006056232E+04  0.25500000920E-02 0. -1.
       -2   -1    0    0    0  501  0.00000000000E+00  0.00000000000E+00 -0.43510702103E+02  0.43510702178E+02  0.25500000920E-02 0.  1.
    10030    2    1    2    0    0  0.00000000000E+00  0.00000000000E+00  0.19570949211E+04  0.20441163254E+04  0.59007713182E+03 0.  0.
        2    1    3    3  502    0 -0.97277931841E+02 -0.61177485539E+02  0.19198923465E+04  0.19233284439E+04  0.25500000920E-02 0. -1.
       -2    1    3    3    0  502  0.97277931841E+02  0.61177485539E+02  0.37202574589E+02  0.12078788152E+03  0.25500000920E-02 0.  1.
</event>
<event>
 5   0  0.2758681E-02  0.6574015E+03  0.7818609E-02  0.9792989E-01
        1   -1    0    0  501    0  0.00000000000E+00  0.00000000000E+00  0.39831316567E+03  0.39831316570E+03  0.50400001928E-02 0.  1.
       -1   -1    0    0    0  501  0.00000000000E+00  0.00000000000E+00 -0.27125435788E+03  0.27125435792E+03  0.50400001928E-02 0. -1.
    10030    2    1    2    0    0  0.00000000000E+00  0.00000000000E+00  0.12705880779E+03  0.66956752362E+03  0.65740149684E+03 0.  0.
        3    1    3    3  502    0 -0.13762996888E+01 -0.32758499671E+03  0.91054476840E+02  0.34000698849E+03  0.10100000352E+00 0. -1.
       -3    1    3    3    0  502  0.13762996888E+01  0.32758499671E+03  0.36004330954E+02  0.32956053513E+03  0.10100000352E+00 0.  1.
</event>
<event>
 5   0  0.2777999E-02  0.7689600E+03  0.7818609E-02  0.9606066E-01
        1   -1    0    0  501    0  0.00000000000E+00  0.00000000000E+00  0.16845785335E+03  0.16845785342E+03  0.50400001928E-02 0.  1.
       -1   -1    0    0    0  501  0.00000000000E+00  0.00000000000E+00 -0.87751846635E+03  0.87751846636E+03  0.50400001928E-02 0. -1.
    10030    2    1    2    0    0  0.00000000000E+00  0.00000000000E+00 -0.70906061300E+03  0.10459763198E+04  0.76896001759E+03 0.  0.
        5    1    3    3  502    0  0.38163832495E+03 -0.46366832976E+02 -0.35760003912E+03  0.52506911188E+03  0.46999998093E+01 0.  1.
       -5    1    3    3    0  502 -0.38163832495E+03  0.46366832976E+02 -0.35146057388E+03  0.52090720791E+03  0.46999998093E+01 0. -1.
</event>
<event>
 5   0  0.4526837E-02  0.6976320E+03  0.7818609E-02  0.9721290E-01
       -2   -1    0    0    0  501  0.00000000000E+00  0.00000000000E+00  0.35974185269E+03  0.35974185270E+03  0.25500000920E-02 0.  1.
        2   -1    0    0  501    0  0.00000000000E+00  0.00000000000E+00 -0.33822193354E+03  0.33822193355E+03  0.25500000920E-02 0. -1.
    10030    2    1    2    0    0  0.00000000000E+00  0.00000000000E+00  0.21519919150E+02  0.69796378626E+03  0.69763195168E+03 0.  0.
        1    1    3    3  502    0 -0.75438988760E+02  0.32602594693E+03  0.10923759676E+03  0.35201819792E+03  0.50400001928E-02 0. -1.
       -1    1    3    3    0  502  0.75438988760E+02 -0.32602594693E+03 -0.87717677606E+02  0.34594558833E+03  0.50400001928E-02 0.  1.
</event>
<event>
 5   0  0.4420645E-02  0.7010523E+03  0.7818609E-02  0.9715434E-01
       -2   -1    0    0    0  501  0.00000000000E+00  0.00000000000E+00  0.15550065802E+03  0.15550065804E+03  0.25500000920E-02 0. -1.
        2   -1    0    0  501    0  0.00000000000E+00  0.00000000000E+00 -0.79014830218E+03  0.79014830219E+03  0.25500000920E-02 0.  1.
    10030    2    1    2    0    0  0.00000000000E+00  0.00000000000E+00 -0.63464764416E+03  0.94564896023E+03  0.70105229744E+03 0.  0.
        5    1    3    3  502    0 -0.20290022151E+03  0.28570779794E+03 -0.30787716844E+03  0.46648460483E+03  0.46999998093E+01 0. -1.
       -5    1    3    3    0  502  0.20290022151E+03 -0.28570779794E+03 -0.32677047572E+03  0.47916435541E+03  0.46999998093E+01 0.  1.
</event>
<event>
 5   0  0.4420645E-02  0.7084599E+03  0.7818609E-02  0.9702873E-01
        2   -1    0    0  501    0  0.00000000000E+00  0.00000000000E+00  0.22644933839E+03  0.22644933840E+03  0.25500000920E-02 0.  1.
       -2   -1    0    0    0  501  0.00000000000E+00  0.00000000000E+00 -0.55411442540E+03  0.55411442541E+03  0.25500000920E-02 0. -1.
    10030    2    1    2    0    0  0.00000000000E+00  0.00000000000E+00 -0.32766508701E+03  0.78056376381E+03  0.70845986486E+03 0.  0.
        5    1    3    3  502    0  0.29440670027E+03  0.96367661997E+02 -0.35305178596E+03  0.46971234283E+03  0.46999998093E+01 0. -1.
       -5    1    3    3    0  502 -0.29440670027E+03 -0.96367661997E+02  0.25386698946E+02  0.31085142097E+03  0.46999998093E+01 0.  1.
</event>
<event>
 5   0  0.2684924E-02  0.7176926E+03  0.7818609E-02  0.9687445E-01
       -1   -1    0    0    0  501  0.00000000000E+00  0.00000000000E+00  0.67622777330E+03  0.67622777332E+03  0.50400001928E-02 0. -1.
        1   -1    0    0  501    0  0.00000000000E+00  0.00000000000E+00 -0.19042500542E+03  0.19042500549E+03  0.50400001928E-02 0.  1.
    10030    2    1    2    0    0  0.00000000000E+00  0.00000000000E+00  0.48580276788E+03  0.86665277881E+03  0.71769262901E+03 0.  0.
        4    1    3    3  502    0 -0.31110868620E+02  0.25898841615E+02 -0.18765635843E+03  0.19197697232E+03  0.12699999809E+01 0.  1.
       -4    1    3    3    0  502  0.31110868620E+02 -0.25898841615E+02  0.67345912631E+03  0.67467580648E+03  0.12699999809E+01 0. -1.
</event>
<event>
 5   0  0.2684924E-02  0.7122439E+03  0.7818609E-02  0.9696520E-01
       -1   -1    0    0    0  501  0.00000000000E+00  0.00000000000E+00  0.29358208485E+03  0.29358208489E+03  0.50400001928E-02 0.  1.
        1   -1    0    0  501    0  0.00000000000E+00  0.00000000000E+00 -0.43198429876E+03  0.43198429879E+03  0.50400001928E-02 0. -1.
    10030    2    1    2    0    0  0.00000000000E+00  0.00000000000E+00 -0.13840221392E+03  0.72556638368E+03  0.71224392192E+03 0.  0.
        4    1    3    3  502    0 -0.26472210701E+03  0.23446545176E+03 -0.26350108775E+02  0.35460933877E+03  0.12699999809E+01 0.  1.
       -4    1    3    3    0  502  0.26472210701E+03 -0.23446545176E+03 -0.11205210514E+03  0.37095704492E+03  0.12699999809E+01 0. -1.
</event>
<event>
 5   0  0.2750139E-02  0.7566687E+03  0.7818609E-02  0.9624946E-01
        1   -1    0    0  501    0  0.00000000000E+00  0.00000000000E+00  0.15860624481E+03  0.15860624489E+03  0.50400001928E-02 0.  1.
       -1   -1    0    0    0  501  0.00000000000E+00  0.00000000000E+00 -0.90246694724E+03  0.90246694726E+03  0.50400001928E-02 0. -1.
    10030    2    1    2    0    0  0.00000000000E+00  0.00000000000E+00 -0.74386070244E+03  0.10610731921E+04  0.75666873495E+03 0.  0.
        2    1    3    3  502    0 -0.34204325358E+02 -0.24063516095E+03  0.34642689416E+02  0.24551035110E+03  0.25500000920E-02 0.  1.
       -2    1    3    3    0  502  0.34204325358E+02  0.24063516095E+03 -0.77850339186E+03  0.81556284105E+03  0.25500000920E-02 0. -1.
</event>
<event>
 5   0  0.4526837E-02  0.6782476E+03  0.7818609E-02  0.9755172E-01
       -2   -1    0    0    0  501  0.00000000000E+00  0.00000000000E+00  0.32318587157E+03  0.32318587158E+03  0.25500000920E-02 0. -1.
        2   -1    0    0  501    0  0.00000000000E+00  0.00000000000E+00 -0.35584774024E+03  0.35584774025E+03  0.25500000920E-02 0.  1.
    10030    2    1    2    0    0  0.00000000000E+00  0.00000000000E+00 -0.32661868670E+02  0.67903361183E+03  0.67824763054E+03 0.  0.
        1    1    3    3  502    0 -0.46028268559E+00  0.14351122637E+03 -0.32394792933E+03  0.35431334281E+03  0.50400001928E-02 0.  1.
       -1    1    3    3    0  502  0.46028268559E+00 -0.14351122637E+03  0.29128606066E+03  0.32472026902E+03  0.50400001928E-02 0. -1.
</event>
<event>
 5   0  0.4420645E-02  0.6981270E+03  0.7818609E-02  0.9720441E-01
        2   -1    0    0  501    0  0.00000000000E+00  0.00000000000E+00  0.35861105385E+03  0.35861105386E+03  0.25500000920E-02 0.  1.
       -2   -1    0    0    0  501  0.00000000000E+00  0.00000000000E+00 -0.33977012106E+03  0.33977012107E+03  0.25500000920E-02 0. -1.
    10030    2    1    2    0    0  0.00000000000E+00  0.00000000000E+00  0.18840932796E+02  0.69838117493E+03  0.69812698326E+03 0.  0.
        5    1    3    3  502    0  0.16819734173E+03 -0.26385426488E+03 -0.14527675332E+03  0.34501716466E+03  0.46999998093E+01 0. -1.
       -5    1    3    3    0  502 -0.16819734173E+03  0.26385426488E+03  0.16411768611E+03  0.35336401027E+03  0.46999998093E+01 0.  1.
</event>
<event>
 5   0  0.4299912E-02  0.6978296E+03  0.7818609E-02  0.9720951E-01
       -2   -1    0    0    0  501  0.00000000000E+00  0.00000000000E+00  0.97229067757E+02  0.97229067790E+02  0.25500000920E-02 0.  1.
        2   -1    0    0  501    0  0.00000000000E+00  0.00000000000E+00 -0.12521103431E+04  0.12521103431E+04  0.25500000920E-02 0. -1.
    10030    2    1    2    0    0  0.00000000000E+00  0.00000000000E+00 -0.11548812754E+04  0.13493394109E+04  0.69782955344E+03 0.  0.
        3    1    3    3  502    0 -0.18509741231E+03 -0.39906410659E+02 -0.11441207015E+04  0.11596834756E+04  0.10100000352E+00 0. -1.
       -3    1    3    3    0  502  0.18509741231E+03  0.39906410659E+02 -0.10760573831E+02  0.18965593533E+03  0.10100000352E+00 0.  1.
</event>
<event>
 5   0  0.2684924E-02  0.7045993E+03  0.7818609E-02  0.9709399E-01
        1   -1    0    0  501    0  0.00000000000E+00  0.00000000000E+00  0.78494063154E+03  0.78494063156E+03  0.50400001928E-02 0. -1.
       -1   -1    0    0    0  501  0.00000000000E+00  0.00000000000E+00 -0.15812030607E+03  0.15812030615E+03  0.50400001928E-02 0.  1.
    10030    2    1    2    0    0  0.00000000000E+00  0.00000000000E+00  0.62682032548E+03  0.94306093771E+03  0.70459932713E+03 0.  0.
        4    1    3    3  502    0 -0.23476566854E+03  0.71578153637E+02  0.65168001280E+03  0.69636685963E+03  0.12699999809E+01 0. -1.
       -4    1    3    3    0  502  0.23476566854E+03 -0.71578153637E+02 -0.24859687325E+02  0.24669407808E+03  0.12699999809E+01 0.  1.
</event>
<event>
 5   0  0.4526837E-02  0.6958609E+03  0.7818609E-02  0.9724337E-01
       -2   -1    0    0    0  501  0.00000000000E+00  0.00000000000E+00  0.26308534363E+03  0.26308534364E+03  0.25500000920E-02 0.  1.
        2   -1    0    0  501    0  0.00000000000E+00  0.00000000000E+00 -0.46013809935E+03  0.46013809935E+03  0.25500000920E-02 0. -1.
    10030    2    1    2    0    0  0.00000000000E+00  0.00000000000E+00 -0.19705275572E+03  0.72322344299E+03  0.69586087687E+03 0.  0.
        1    1    3    3  502    0 -0.48205829585E+02 -0.33742284097E+03 -0.25940220627E+02  0.34183456625E+03  0.50400001928E-02 0.  1.
       -1    1    3    3    0  502  0.48205829585E+02  0.33742284097E+03 -0.17111253509E+03  0.38138887674E+03  0.50400001928E-02 0. -1.
</event>
<event>
 5   0  0.2684924E-02  0.6955864E+03  0.7818609E-02  0.9724810E-01
       -1   -1    0    0    0  501  0.00000000000E+00  0.00000000000E+00  0.44570671799E+03  0.44570671802E+03  0.50400001928E-02 0. -1.
        1   -1    0    0  501    0  0.00000000000E+00  0.00000000000E+00 -0.27138943375E+03  0.27138943380E+03  0.50400001928E-02 0.  1.
    10030    2    1    2    0    0  0.00000000000E+00  0.00000000000E+00  0.17431728424E+03  0.71709615182E+03  0.69558635364E+03 0.  0.
        4    1    3    3  502    0 -0.11026439275E+03  0.32971541247E+03  0.77488196562E+02  0.35619730914E+03  0.12699999809E+01 0. -1.
       -4    1    3    3    0  502  0.11026439275E+03 -0.32971541247E+03  0.96829087676E+02  0.36089884268E+03  0.12699999809E+01 0.  1.
</event>
<event>
 5   0  0.4299912E-02  0.6910684E+03  0.7818609E-02  0.9732630E-01
       -2   -1    0    0    0  501  0.00000000000E+00  0.00000000000E+00  0.78925716080E+02  0.78925716121E+02  0.25500000920E-02 0. -1.
        2   -1    0    0  501    0  0.00000000000E+00  0.00000000000E+00 -0.15127373761E+04  0.15127373761E+04  0.25500000920E-02 0.  1.
    10030    2    1    2    0    0  0.00000000000E+00  0.00000000000E+00 -0.14338116600E+04  0.15916630922E+04  0.69106839223E+03 0.  0.
        3    1    3    3  502    0  0.17977085160E+03  0.23319177608E+03 -0.11333819387E+04  0.11710040959E+04  0.10100000352E+00 0. -1.
       -3    1    3    3    0  502 -0.17977085160E+03 -0.23319177608E+03 -0.30042972137E+03  0.42065899634E+03  0.10100000352E+00 0.  1.
</event>
<event>
 5   0  0.4365492E-02  0.6917430E+03  0.7818609E-02  0.9731458E-01
       -2   -1    0    0    0  501  0.00000000000E+00  0.00000000000E+00  0.21829972874E+03  0.21829972875E+03  0.25500000920E-02 0. -1.
        2   -1    0    0  501    0  0.00000000000E+00  0.00000000000E+00 -0.54799470559E+03  0.54799470560E+03  0.25500000920E-02 0.  1.
    10030    2    1    2    0    0  0.00000000000E+00  0.00000000000E+00 -0.32969497685E+03  0.76629443435E+03  0.69174300311E+03 0.  0.
        4    1    3    3  502    0  0.12429373675E+03  0.83197973850E+02  0.18061912036E+03  0.23451165299E+03  0.12699999809E+01 0. -1.
       -4    1    3    3    0  502 -0.12429373675E+03 -0.83197973850E+02 -0.51031409721E+03  0.53178278137E+03  0.12699999809E+01 0.  1.
</event>
<event>
 5   0  0.2751729E-02  0.6590042E+03  0.7818609E-02  0.9790029E-01
        1   -1    0    0  501    0  0.00000000000E+00  0.00000000000E+00  0.74940304175E+03  0.74940304177E+03  0.50400001928E-02 0. -1.
       -1   -1    0    0    0  501  0.00000000000E+00  0.00000000000E+00 -0.14487749143E+03  0.14487749152E+03  0.50400001928E-02 0.  1.
    10030    2    1    2    0    0  0.00000000000E+00  0.00000000000E+00  0.60452555032E+03  0.89428053328E+03  0.65900419666E+03 0.  0.
        1    1    3    3  502    0 -0.10047914006E+03 -0.31374765274E+03  0.31062640969E+03  0.45279400792E+03  0.50400001928E-02 0. -1.
       -1    1    3    3    0  502  0.10047914006E+03  0.31374765274E+03  0.29389914063E+03  0.44148652536E+03  0.50400001928E-02 0.  1.
</event>
<event>
 5   0  0.4526837E-02  0.6984030E+03  0.7818609E-02  0.9719967E-01
       -2   -1    0    0    0  501  0.00000000000E+00  0.00000000000E+00  0.91269527128E+02  0.91269527164E+02  0.25500000920E-02 0.  1.
        2   -1    0    0  501    0  0.00000000000E+00  0.00000000000E+00 -0.13360612381E+04  0.13360612381E+04  0.25500000920E-02 0. -1.
    10030    2    1    2    0    0  0.00000000000E+00  0.00000000000E+00 -0.12447917110E+04  0.14273307653E+04  0.69840297091E+03 0.  0.
        1    1    3    3  502    0 -0.35225393646E+02  0.29428931796E+03 -0.99976087847E+03  0.10427697949E+04  0.50400001928E-02 0.  1.
       -1    1    3    3    0  502  0.35225393646E+02 -0.29428931796E+03 -0.24503083250E+03  0.38456097036E+03  0.50400001928E-02 0. -1.
</event>
<event>
 5   0  0.2758681E-02  0.7075289E+03  0.7818609E-02  0.9704443E-01
       -1   -1    0    0    0  501  0.00000000000E+00  0.00000000000E+00  0.18393721424E+03  0.18393721431E+03  0.50400001928E-02 0. -1.
        1   -1    0    0  501    0  0.00000000000E+00  0.00000000000E+00 -0.68039134546E+03  0.68039134548E+03  0.50400001928E-02 0.  1.
    10030    2    1    2    0    0  0.00000000000E+00  0.00000000000E+00 -0.49645413123E+03  0.86432855979E+03  0.70752890744E+03 0.  0.
        3    1    3    3  502    0 -0.17530318797E+03  0.29561574585E+03 -0.14580492385E+03  0.37333492058E+03  0.10100000352E+00 0. -1.
       -3    1    3    3    0  502  0.17530318797E+03 -0.29561574585E+03 -0.35064920738E+03  0.49099363921E+03  0.10100000352E+00 0.  1.
</event>
<event>
 5   0  0.2777999E-02  0.6958831E+03  0.7818609E-02  0.9724299E-01
        1   -1    0    0  501    0  0.00000000000E+00  0.00000000000E+00  0.35352177633E+03  0.35352177636E+03  0.50400001928E-02 0. -1.
       -1   -1    0    0    0  501  0.00000000000E+00  0.00000000000E+00 -0.34244945127E+03  0.34244945131E+03  0.50400001928E-02 0.  1.
    10030    2    1    2    0    0  0.00000000000E+00  0.00000000000E+00  0.11072325053E+02  0.69597122767E+03  0.69588314634E+03 0.  0.
        5    1    3    3  502    0 -0.28244056478E+03 -0.13695669195E+03 -0.14452095781E+03  0.34559832950E+03  0.46999998093E+01 0.  1.
       -5    1    3    3    0  502  0.28244056478E+03  0.13695669195E+03  0.15559328286E+03  0.35037289818E+03  0.46999998093E+01 0. -1.
</event>
<event>
 5   0  0.2684924E-02  0.6987744E+03  0.7818609E-02  0.9719330E-01
       -1   -1    0    0    0  501  0.00000000000E+00  0.00000000000E+00  0.65476542270E+03  0.65476542272E+03  0.50400001928E-02 0. -1.
        1   -1    0    0  501    0  0.00000000000E+00  0.00000000000E+00 -0.18643532879E+03  0.18643532886E+03  0.50400001928E-02 0.  1.
    10030    2    1    2    0    0  0.00000000000E+00  0.00000000000E+00  0.46833009391E+03  0.84120075158E+03  0.69877437532E+03 0.  0.
        4    1    3    3  502    0 -0.21756417406E+02  0.34692355747E+03  0.19176555614E+03  0.39699488390E+03  0.12699999809E+01 0. -1.
       -4    1    3    3    0  502  0.21756417406E+02 -0.34692355747E+03  0.27656453777E+03  0.44420586768E+03  0.12699999809E+01 0.  1.
</event>
<event>
 5   0  0.2758681E-02  0.6980493E+03  0.7818609E-02  0.9720574E-01
        1   -1    0    0  501    0  0.00000000000E+00  0.00000000000E+00  0.29125252526E+03  0.29125252531E+03  0.50400001928E-02 0. -1.
       -1   -1    0    0    0  501  0.00000000000E+00  0.00000000000E+00 -0.41825632229E+03  0.41825632232E+03  0.50400001928E-02 0.  1.
    10030    2    1    2    0    0  0.00000000000E+00  0.00000000000E+00 -0.12700379703E+03  0.70950884763E+03  0.69804931087E+03 0.  0.
        3    1    3    3  502    0  0.34439573762E+03  0.48055010827E+02 -0.33001073948E+02  0.34929470256E+03  0.10100000352E+00 0. -1.
       -3    1    3    3    0  502 -0.34439573762E+03 -0.48055010827E+02 -0.94002723081E+02  0.36021414506E+03  0.10100000352E+00 0.  1.
</event>
<event>
 5   0  0.2758681E-02  0.7032138E+03  0.7818609E-02  0.9711752E-01
       -1   -1    0    0    0  501  0.00000000000E+00  0.00000000000E+00  0.11180504083E+03  0.11180504095E+03  0.50400001928E-02 0.  1.
        1   -1    0    0  501    0  0.00000000000E+00  0.00000000000E+00 -0.11057410193E+04  0.11057410193E+04  0.50400001928E-02 0. -1.
    10030    2    1    2    0    0  0.00000000000E+00  0.00000000000E+00 -0.99393597850E+03  0.12175460603E+04  0.70321382208E+03 0.  0.
        3    1    3    3  502    0  0.18823832235E+02  0.27939377449E+03 -0.86511881758E+03  0.90931061614E+03  0.10100000352E+00 0. -1.
       -3    1    3    3    0  502 -0.18823832235E+02 -0.27939377449E+03 -0.12881716092E+03  0.30823544415E+03  0.10100000352E+00 0.  1.
</event>
<event>
 5   0  0.2684924E-02  0.7092478E+03  0.7818609E-02  0.9701547E-01
       -1   -1    0    0    0  501  0.00000000000E+00  0.00000000000E+00  0.16084611351E+03  0.16084611359E+03  0.50400001928E-02 0.  1.
        1   -1    0    0  501    0  0.00000000000E+00  0.00000000000E+00 -0.78185349260E+03  0.78185349261E+03  0.50400001928E-02 0. -1.
    10030    2    1    2    0    0  0.00000000000E+00  0.00000000000E+00 -0.62100737909E+03  0.94269960621E+03  0.70924775830E+03 0.  0.
        4    1    3    3  502    0  0.93296321347E+02 -0.12647052865E+03 -0.73303568029E+03  0.74969455092E+03  0.12699999809E+01 0. -1.
       -4    1    3    3    0  502 -0.93296321347E+02  0.12647052865E+03  0.11202830121E+03  0.19300505529E+03  0.12699999809E+01 0.  1.
</event>
<event>
 5   0  0.2758681E-02  0.7047666E+03  0.7818609E-02  0.9709115E-01
       -1   -1    0    0    0  501  0.00000000000E+00  0.00000000000E+00  0.11602401395E+03  0.11602401406E+03  0.50400001928E-02 0. -1.
        1   -1    0    0  501    0  0.00000000000E+00  0.00000000000E+00 -0.10702440163E+04  0.10702440163E+04  0.50400001928E-02 0.  1.
    10030    2    1    2    0    0  0.00000000000E+00  0.00000000000E+00 -0.95422000235E+03  0.11862680304E+04  0.70476664720E+03 0.  0.
        3    1    3    3  502    0 -0.17062759411E+03 -0.15670500116E+03 -0.92404424660E+03  0.95264264713E+03  0.10100000352E+00 0.  1.
       -3    1    3    3    0  502  0.17062759411E+03  0.15670500116E+03 -0.30175755753E+02  0.23362538325E+03  0.10100000352E+00 0. -1.
</event>
<event>
 5   0  0.2751729E-02  0.7162540E+03  0.7818609E-02  0.9689832E-01
        1   -1    0    0  501    0  0.00000000000E+00  0.00000000000E+00  0.41553307215E+03  0.41553307218E+03  0.50400001928E-02 0.  1.
       -1   -1    0    0    0  501  0.00000000000E+00  0.00000000000E+00 -0.30865162422E+03  0.30865162426E+03  0.50400001928E-02 0. -1.
    10030    2    1    2    0    0  0.00000000000E+00  0.00000000000E+00  0.10688144793E+03  0.72418469644E+03  0.71625402661E+03 0.  0.
        1    1    3    3  502    0  0.45171674992E+02  0.11042361601E+03  0.39484966021E+03  0.41248043515E+03  0.50400001928E-02 0.  1.
       -1    1    3    3    0  502 -0.45171674992E+02 -0.11042361601E+03 -0.28796821228E+03  0.31170426128E+03  0.50400001928E-02 0. -1.
</event>
<event>
 5   0  0.2758681E-02  0.6965791E+03  0.7818609E-02  0.9723100E-01
        1   -1    0    0  501    0  0.00000000000E+00  0.00000000000E+00  0.44691676097E+03  0.44691676100E+03  0.50400001928E-02 0. -1.
       -1   -1    0    0    0  501  0.00000000000E+00  0.00000000000E+00 -0.27142776921E+03  0.27142776926E+03  0.50400001928E-02 0.  1.
    10030    2    1    2    0    0  0.00000000000E+00  0.00000000000E+00  0.17548899176E+03  0.71834453026E+03  0.69657912539E+03 0.  0.
        3    1    3    3  502    0 -0.32604045106E+03 -0.79365906033E+02  0.18395642498E+03  0.38267649426E+03  0.10100000352E+00 0.  1.
       -3    1    3    3    0  502  0.32604045106E+03  0.79365906033E+02 -0.84674332165E+01  0.33566803600E+03  0.10100000352E+00 0. -1.
</event>
<event>
 5   0  0.4299912E-02  0.6955596E+03  0.7818609E-02  0.9724856E-01
        2   -1    0    0  501    0  0.00000000000E+00  0.00000000000E+00  0.16866920233E+04  0.16866920233E+04  0.25500000920E-02 0. -1.
       -2   -1    0    0    0  501  0.00000000000E+00  0.00000000000E+00 -0.71708879595E+02  0.71708879641E+02  0.25500000920E-02 0.  1.
    10030    2    1    2    0    0  0.00000000000E+00  0.00000000000E+00  0.16149831437E+04  0.17584009029E+04  0.69555961715E+03 0.  0.
        3    1    3    3  502    0  0.16979354024E+03 -0.18655914022E+03  0.14127263098E+04  0.14350713556E+04  0.10100000352E+00 0. -1.
       -3    1    3    3    0  502 -0.16979354024E+03  0.18655914022E+03  0.20225683387E+03  0.32332954730E+03  0.10100000352E+00 0.  1.
</event>
<event>
 5   0  0.4503289E-02  0.6342706E+03  0.7818609E-02  0.9836750E-01
       -2   -1    0    0    0  501  0.00000000000E+00  0.00000000000E+00  0.13888197595E+03  0.13888197597E+03  0.25500000920E-02 0.  1.
        2   -1    0    0  501    0  0.00000000000E+00  0.00000000000E+00 -0.72417466291E+03  0.72417466291E+03  0.25500000920E-02 0. -1.
    10030    2    1    2    0    0  0.00000000000E+00  0.00000000000E+00 -0.58529268696E+03  0.86305663888E+03  0.63427063034E+03 0.  0.
        2    1    3    3  502    0  0.16618353491E+03  0.11954218357E+03  0.36935678062E+02  0.20801813683E+03  0.25500000920E-02 0.  1.
       -2    1    3    3    0  502 -0.16618353491E+03 -0.11954218357E+03 -0.62222836502E+03  0.65503850205E+03  0.25500000920E-02 0. -1.
</event>
<event>
 5   0  0.2777999E-02  0.7013864E+03  0.7818609E-02  0.9714864E-01
       -1   -1    0    0    0  501  0.00000000000E+00  0.00000000000E+00  0.89243127700E+03  0.89243127702E+03  0.50400001928E-02 0. -1.
        1   -1    0    0  501    0  0.00000000000E+00  0.00000000000E+00 -0.13780973869E+03  0.13780973879E+03  0.50400001928E-02 0.  1.
    10030    2    1    2    0    0  0.00000000000E+00  0.00000000000E+00  0.75462153831E+03  0.10302410158E+04  0.70138640175E+03 0.  0.
        5    1    3    3  502    0  0.57138155487E+02  0.32043757735E+03  0.18568951330E+03  0.37476351896E+03  0.46999998093E+01 0. -1.
       -5    1    3    3    0  502 -0.57138155487E+02 -0.32043757735E+03  0.56893202501E+03  0.65547749685E+03  0.46999998093E+01 0.  1.
</event>
<event>
 5   0  0.4299912E-02  0.7123578E+03  0.7818609E-02  0.9696329E-01
        2   -1    0    0  501    0  0.00000000000E+00  0.00000000000E+00  0.35549770852E+03  0.35549770852E+03  0.25500000920E-02 0.  1.
       -2   -1    0    0    0  501  0.00000000000E+00  0.00000000000E+00 -0.35686142714E+03  0.35686142715E+03  0.25500000920E-02 0. -1.
    10030    2    1    2    0    0  0.00000000000E+00  0.00000000000E+00 -0.13637186260E+01  0.71235913567E+03  0.71235783034E+03 0.  0.
        3    1    3    3  502    0  0.17224501630E+03  0.30980919500E+03 -0.35514759125E+02  0.35624625088E+03  0.10100000352E+00 0. -1.
       -3    1    3    3    0  502 -0.17224501630E+03 -0.30980919500E+03  0.34151040499E+02  0.35611288480E+03  0.10100000352E+00 0.  1.
</event>
<event>
 5   0  0.4526837E-02  0.6996942E+03  0.7818609E-02  0.9717755E-01
        2   -1    0    0  501    0  0.00000000000E+00  0.00000000000E+00  0.62835328422E+03  0.62835328423E+03  0.25500000920E-02 0.  1.
       -2   -1    0    0    0  501  0.00000000000E+00  0.00000000000E+00 -0.19478373759E+03  0.19478373761E+03  0.25500000920E-02 0. -1.
    10030    2    1    2    0    0  0.00000000000E+00  0.00000000000E+00  0.43356954663E+03  0.82313702184E+03  0.69969422247E+03 0.  0.
        1    1    3    3  502    0 -0.83690702214E+02 -0.12816694796E+03 -0.15329751506E+03  0.21663570420E+03  0.50400001928E-02 0. -1.
       -1    1    3    3    0  502  0.83690702214E+02  0.12816694796E+03  0.58686706168E+03  0.60650131764E+03  0.50400001928E-02 0.  1.
</event>
<event>
 5   0  0.4365492E-02  0.6967901E+03  0.7818609E-02  0.9722737E-01
        2   -1    0    0  501    0  0.00000000000E+00  0.00000000000E+00  0.44342720739E+03  0.44342720740E+03  0.25500000920E-02 0.  1.
       -2   -1    0    0    0  501  0.00000000000E+00  0.00000000000E+00 -0.27372951800E+03  0.27372951801E+03  0.25500000920E-02 0. -1.
    10030    2    1    2    0    0  0.00000000000E+00  0.00000000000E+00  0.16969768940E+03  0.71715672541E+03  0.69679011403E+03 0.  0.
        4    1    3    3  502    0 -0.15615438747E+03 -0.20909916582E+03 -0.15270217791E+03  0.30236769323E+03  0.12699999809E+01 0. -1.
       -4    1    3    3    0  502  0.15615438747E+03  0.20909916582E+03  0.32239986731E+03  0.41478903218E+03  0.12699999809E+01 0.  1.
</event>
<event>
 5   0  0.4503289E-02  0.6861118E+03  0.7818609E-02  0.9741282E-01
        2   -1    0    0  501    0  0.00000000000E+00  0.00000000000E+00  0.14130461447E+04  0.14130461447E+04  0.25500000920E-02 0.  1.
       -2   -1    0    0    0  501  0.00000000000E+00  0.00000000000E+00 -0.83286272416E+02  0.83286272455E+02  0.25500000920E-02 0. -1.
    10030    2    1    2    0    0  0.00000000000E+00  0.00000000000E+00  0.13297598723E+04  0.14963324172E+04  0.68611178733E+03 0.  0.
        2    1    3    3  502    0 -0.25244522403E+03  0.18628552872E+03  0.36224337435E+03  0.47921931474E+03  0.25500000920E-02 0. -1.
       -2    1    3    3    0  502  0.25244522403E+03 -0.18628552872E+03  0.96751649798E+03  0.10171131025E+04  0.25500000920E-02 0.  1.
</event>
<event>
 5   0  0.2777999E-02  0.7090770E+03  0.7818609E-02  0.9701834E-01
        1   -1    0    0  501    0  0.00000000000E+00  0.00000000000E+00  0.69867228809E+03  0.69867228811E+03  0.50400001928E-02 0.  1.
       -1   -1    0    0    0  501  0.00000000000E+00  0.00000000000E+00 -0.17990917194E+03  0.17990917201E+03  0.50400001928E-02 0. -1.
    10030    2    1    2    0    0  0.00000000000E+00  0.00000000000E+00  0.51876311615E+03  0.87858146012E+03  0.70907701372E+03 0.  0.
        5    1    3    3  502    0  0.16211931809E+03  0.25402641647E+03  0.28029532868E+02  0.30268769099E+03  0.46999998093E+01 0. -1.
       -5    1    3    3    0  502 -0.16211931809E+03 -0.25402641647E+03  0.49073358328E+03  0.57589376913E+03  0.46999998093E+01 0.  1.
</event>
<event>
 5   0  0.4503289E-02  0.6614380E+03  0.7818609E-02  0.9785550E-01
        2   -1    0    0  501    0  0.00000000000E+00  0.00000000000E+00  0.32094518123E+03  0.32094518124E+03  0.25500000920E-02 0. -1.
       -2   -1    0    0    0  501  0.00000000000E+00  0.00000000000E+00 -0.34079049131E+03  0.34079049132E+03  0.25500000920E-02 0.  1.
    10030    2    1    2    0    0  0.00000000000E+00  0.00000000000E+00 -0.19845310080E+02  0.66173567257E+03  0.66143802734E+03 0.  0.
        2    1    3    3  502    0  0.20334903798E+03  0.24737861895E+03 -0.92591876804E+02  0.33334706841E+03  0.25500000920E-02 0.  1.
       -2    1    3    3    0  502 -0.20334903798E+03 -0.24737861895E+03  0.72746566725E+02  0.32838860415E+03  0.25500000920E-02 0. -1.
</event>
<event>
 5   0  0.2777999E-02  0.7014557E+03  0.7818609E-02  0.9714746E-01
       -1   -1    0    0    0  501  0.00000000000E+00  0.00000000000E+00  0.50128813421E+03  0.50128813424E+03  0.50400001928E-02 0.  1.
        1   -1    0    0  501    0  0.00000000000E+00  0.00000000000E+00 -0.24538786528E+03  0.24538786533E+03  0.50400001928E-02 0. -1.
    10030    2    1    2    0    0  0.00000000000E+00  0.00000000000E+00  0.25590026893E+03  0.74667599957E+03  0.70145570116E+03 0.  0.
        5    1    3    3  502    0 -0.79343717855E+02 -0.17339361891E+03  0.44124911906E+03  0.48071160555E+03  0.46999998093E+01 0.  1.
       -5    1    3    3    0  502  0.79343717855E+02  0.17339361891E+03 -0.18534885012E+03  0.26596439402E+03  0.46999998093E+01 0. -1.
</event>
<event>
 5   0  0.2750139E-02  0.7008207E+03  0.7818609E-02  0.9715830E-01
        1   -1    0    0  501    0  0.00000000000E+00  0.00000000000E+00  0.11239202524E+04  0.11239202524E+04  0.50400001928E-02 0. -1.
       -1   -1    0    0    0  501  0.00000000000E+00  0.00000000000E+00 -0.10924923690E+03  0.10924923702E+03  0.50400001928E-02 0.  1.
    10030    2    1    2    0    0  0.00000000000E+00  0.00000000000E+00  0.10146710155E+04  0.12331694894E+04  0.70082074738E+03 0.  0.
        2    1    3    3  502    0 -0.16708436560E+03 -0.14186954555E+03  0.98839843269E+03  0.10124107936E+04  0.25500000920E-02 0. -1.
       -2    1    3    3    0  502  0.16708436560E+03  0.14186954555E+03  0.26272582797E+02  0.22075869585E+03  0.25500000920E-02 0.  1.
</event>
<event>
 5   0  0.2750139E-02  0.6828593E+03  0.7818609E-02  0.9747002E-01
        1   -1    0    0  501    0  0.00000000000E+00  0.00000000000E+00  0.49024298655E+03  0.49024298658E+03  0.50400001928E-02 0.  1.
       -1   -1    0    0    0  501  0.00000000000E+00  0.00000000000E+00 -0.23778863501E+03  0.23778863507E+03  0.50400001928E-02 0. -1.
    10030    2    1    2    0    0  0.00000000000E+00  0.00000000000E+00  0.25245435154E+03  0.72803162164E+03  0.68285931384E+03 0.  0.
        2    1    3    3  502    0  0.64339745277E+01  0.22025933228E+03 -0.15182927916E+03  0.26759615001E+03  0.25500000920E-02 0. -1.
       -2    1    3    3    0  502 -0.64339745277E+01 -0.22025933228E+03  0.40428363070E+03  0.46043547163E+03  0.25500000920E-02 0.  1.
</event>
<event>
 5   0  0.2750139E-02  0.7215839E+03  0.7818609E-02  0.9681016E-01
       -1   -1    0    0    0  501  0.00000000000E+00  0.00000000000E+00  0.50983501429E+03  0.50983501431E+03  0.50400001928E-02 0. -1.
        1   -1    0    0  501    0  0.00000000000E+00  0.00000000000E+00 -0.25531955060E+03  0.25531955065E+03  0.50400001928E-02 0.  1.
    10030    2    1    2    0    0  0.00000000000E+00  0.00000000000E+00  0.25451546369E+03  0.76515456496E+03  0.72158394316E+03 0.  0.
        2    1    3    3  502    0 -0.19748938933E+03 -0.29498001310E+03  0.58901498711E+02  0.35983976098E+03  0.25500000920E-02 0.  1.
       -2    1    3    3    0  502  0.19748938933E+03  0.29498001310E+03  0.19561396498E+03  0.40531480398E+03  0.25500000920E-02 0. -1.
</event>
<event>
 5   0  0.4526837E-02  0.6533702E+03  0.7818609E-02  0.9800476E-01
        2   -1    0    0  501    0  0.00000000000E+00  0.00000000000E+00  0.96780679915E+03  0.96780679915E+03  0.25500000920E-02 0.  1.
       -2   -1    0    0    0  501  0.00000000000E+00  0.00000000000E+00 -0.11027321870E+03  0.11027321873E+03  0.25500000920E-02 0. -1.
    10030    2    1    2    0    0  0.00000000000E+00  0.00000000000E+00  0.85753358044E+03  0.10780800179E+04  0.65337024983E+03 0.  0.
        1    1    3    3  502    0 -0.13020015920E+03  0.27777751136E+03  0.24347252098E+03  0.39165200851E+03  0.50400001928E-02 0. -1.
       -1    1    3    3    0  502  0.13020015920E+03 -0.27777751136E+03  0.61406105946E+03  0.68642800937E+03  0.50400001928E-02 0.  1.
</event>
<event>
 5   0  0.4365492E-02  0.5426294E+03  0.7818609E-02  0.1003214E+00
        2   -1    0    0  501    0  0.00000000000E+00  0.00000000000E+00  0.77571328269E+03  0.77571328270E+03  0.25500000920E-02 0.  1.
       -2   -1    0    0    0  501  0.00000000000E+00  0.00000000000E+00 -0.94895442917E+02  0.94895442951E+02  0.25500000920E-02 0. -1.
    10030    2    1    2    0    0  0.00000000000E+00  0.00000000000E+00  0.68081783977E+03  0.87060872565E+03  0.54262935989E+03 0.  0.
        4    1    3    3  502    0 -0.55817943945E+02  0.63967764681E+02  0.75384847421E+03  0.75861495685E+03  0.12699999809E+01 0.  1.
       -4    1    3    3    0  502  0.55817943945E+02 -0.63967764681E+02 -0.73030634434E+02  0.11199376880E+03  0.12699999809E+01 0. -1.
</event>
<event>
 5   0  0.2758681E-02  0.7071062E+03  0.7818609E-02  0.9705156E-01
        1   -1    0    0  501    0  0.00000000000E+00  0.00000000000E+00  0.87402004538E+03  0.87402004539E+03  0.50400001928E-02 0. -1.
       -1   -1    0    0    0  501  0.00000000000E+00  0.00000000000E+00 -0.14301706894E+03  0.14301706903E+03  0.50400001928E-02 0.  1.
    10030    2    1    2    0    0  0.00000000000E+00  0.00000000000E+00  0.73100297643E+03  0.10170371144E+04  0.70710617347E+03 0.  0.
        3    1    3    3  502    0  0.12879866387E+03 -0.32724978609E+03  0.31327965001E+03  0.47098372331E+03  0.10100000352E+00 0. -1.
       -3    1    3    3    0  502 -0.12879866387E+03  0.32724978609E+03  0.41772332642E+03  0.54605339112E+03  0.10100000352E+00 0.  1.
</event>
<event>
 5   0  0.4299912E-02  0.7018927E+03  0.7818609E-02  0.9714001E-01
        2   -1    0    0  501    0  0.00000000000E+00  0.00000000000E+00  0.22349711498E+04  0.22349711498E+04  0.25500000920E-02 0. -1.
       -2   -1    0    0    0  501  0.00000000000E+00  0.00000000000E+00 -0.55107349765E+02  0.55107349824E+02  0.25500000920E-02 0.  1.
    10030    2    1    2    0    0  0.00000000000E+00  0.00000000000E+00  0.21798638000E+04  0.22900784996E+04  0.70189268963E+03 0.  0.
        3    1    3    3  502    0  0.10197658529E+03 -0.21019261632E+02  0.21834164003E+04  0.21858975778E+04  0.10100000352E+00 0. -1.
       -3    1    3    3    0  502 -0.10197658529E+03  0.21019261632E+02 -0.35526002563E+01  0.10418092184E+03  0.10100000352E+00 0.  1.
</event>
<event>
 5   0  0.2758681E-02  0.7004286E+03  0.7818609E-02  0.9716500E-01
       -1   -1    0    0    0  501  0.00000000000E+00  0.00000000000E+00  0.47792028208E+03  0.47792028210E+03  0.50400001928E-02 0.  1.
        1   -1    0    0  501    0  0.00000000000E+00  0.00000000000E+00 -0.25663287223E+03  0.25663287228E+03  0.50400001928E-02 0. -1.
    10030    2    1    2    0    0  0.00000000000E+00  0.00000000000E+00  0.22128740984E+03  0.73455315439E+03  0.70042859655E+03 0.  0.
        3    1    3    3  502    0 -0.61446787733E+01 -0.28446934489E+03  0.32477127785E+03  0.43178346238E+03  0.10100000352E+00 0. -1.
       -3    1    3    3    0  502  0.61446787733E+01  0.28446934489E+03 -0.10348386801E+03  0.30276969201E+03  0.10100000352E+00 0.  1.
</event>
<event>
 5   0  0.2750139E-02  0.7007090E+03  0.7818609E-02  0.9716020E-01
        1   -1    0    0  501    0  0.00000000000E+00  0.00000000000E+00  0.89996916690E+03  0.89996916692E+03  0.50400001928E-02 0.  1.
       -1   -1    0    0    0  501  0.00000000000E+00  0.00000000000E+00 -0.13639166030E+03  0.13639166039E+03  0.50400001928E-02 0. -1.
    10030    2    1    2    0    0  0.00000000000E+00  0.00000000000E+00  0.76357750660E+03  0.10363608273E+04  0.70070903789E+03 0.  0.
        2    1    3    3  502    0  0.51195422636E+01 -0.96634391681E+02 -0.11623369022E+03  0.15124379695E+03  0.25500000920E-02 0. -1.
       -2    1    3    3    0  502 -0.51195422636E+01  0.96634391681E+02  0.87981119682E+03  0.88511703036E+03  0.25500000920E-02 0.  1.
</event>
<event>
 5   0  0.4503289E-02  0.7039703E+03  0.7818609E-02  0.9710467E-01
        2   -1    0    0  501    0  0.00000000000E+00  0.00000000000E+00  0.37670164546E+03  0.37670164547E+03  0.25500000920E-02 0.  1.
       -2   -1    0    0    0  501  0.00000000000E+00  0.00000000000E+00 -0.32889033493E+03  0.32889033494E+03  0.25500000920E-02 0. -1.
    10030    2    1    2    0    0  0.00000000000E+00  0.00000000000E+00  0.47811310533E+02  0.70559198040E+03  0.70397025604E+03 0.  0.
        2    1    3    3  502    0  0.26070221870E+03  0.13016689341E+03 -0.17399403133E+03  0.33938619583E+03  0.25500000920E-02 0. -1.
       -2    1    3    3    0  502 -0.26070221870E+03 -0.13016689341E+03  0.22180534186E+03  0.36620578458E+03  0.25500000920E-02 0.  1.
</event>
<event>
 5   0  0.2777999E-02  0.6941662E+03  0.7818609E-02  0.9727261E-01
       -1   -1    0    0    0  501  0.00000000000E+00  0.00000000000E+00  0.84985378891E+02  0.84985379041E+02  0.50400001928E-02 0. -1.
        1   -1    0    0  501    0  0.00000000000E+00  0.00000000000E+00 -0.14174988938E+04  0.14174988938E+04  0.50400001928E-02 0.  1.
    10030    2    1    2    0    0  0.00000000000E+00  0.00000000000E+00 -0.13325135149E+04  0.15024842729E+04  0.69416620686E+03 0.  0.
        5    1    3    3  502    0 -0.76396287702E+02  0.22034637105E+03 -0.12225471166E+04  0.12446013251E+04  0.46999998093E+01 0.  1.
       -5    1    3    3    0  502  0.76396287702E+02 -0.22034637105E+03 -0.10996639831E+03  0.25788294780E+03  0.46999998093E+01 0. -1.
</event>
<event>
 5   0  0.2684924E-02  0.7172302E+03  0.7818609E-02  0.9688212E-01
       -1   -1    0    0    0  501  0.00000000000E+00  0.00000000000E+00  0.15258613826E+03  0.15258613834E+03  0.50400001928E-02 0.  1.
        1   -1    0    0  501    0  0.00000000000E+00  0.00000000000E+00 -0.84283393504E+03  0.84283393505E+03  0.50400001928E-02 0. -1.
    10030    2    1    2    0    0  0.00000000000E+00  0.00000000000E+00 -0.69024779678E+03  0.99542007340E+03  0.71723015941E+03 0.  0.
        4    1    3    3  502    0  0.22840308499E+02  0.24802378950E+03 -0.70319811144E+03  0.74600715592E+03  0.12699999809E+01 0. -1.
       -4    1    3    3    0  502 -0.22840308499E+02 -0.24802378950E+03  0.12950314666E+02  0.24941291747E+03  0.12699999809E+01 0.  1.
</event>
<event>
 5   0  0.4365492E-02  0.6983497E+03  0.7818609E-02  0.9720059E-01
        2   -1    0    0  501    0  0.00000000000E+00  0.00000000000E+00  0.28715252312E+03  0.28715252313E+03  0.25500000920E-02 0. -1.
       -2   -1    0    0    0  501  0.00000000000E+00  0.00000000000E+00 -0.42459340051E+03  0.42459340052E+03  0.25500000920E-02 0.  1.
    10030    2    1    2    0    0  0.00000000000E+00  0.00000000000E+00 -0.13744087739E+03  0.71174592365E+03  0.69834967248E+03 0.  0.
        4    1    3    3  502    0  0.61929403594E+02 -0.90849893037E+02  0.26904677229E+03  0.29064881331E+03  0.12699999809E+01 0. -1.
       -4    1    3    3    0  502 -0.61929403594E+02  0.90849893037E+02 -0.40648764969E+03  0.42109711035E+03  0.12699999809E+01 0.  1.
</event>
<event>
 5   0  0.2751729E-02  0.6922137E+03  0.7818609E-02  0.9730641E-01
       -1   -1    0    0    0  501  0.00000000000E+00  0.00000000000E+00  0.11982137526E+03  0.11982137536E+03  0.50400001928E-02 0. -1.
        1   -1    0    0  501    0  0.00000000000E+00  0.00000000000E+00 -0.99973769558E+03  0.99973769559E+03  0.50400001928E-02 0.  1.
    10030    2    1    2    0    0  0.00000000000E+00  0.00000000000E+00 -0.87991632032E+03  0.11195590710E+04  0.69221368275E+03 0.  0.
        1    1    3    3  502    0 -0.18075558750E+03 -0.19118781829E+03 -0.76269264301E+02  0.27393861534E+03  0.50400001928E-02 0. -1.
       -1    1    3    3    0  502  0.18075558750E+03  0.19118781829E+03 -0.80364705602E+03  0.84562045561E+03  0.50400001928E-02 0.  1.
</event>
<event>
 5   0  0.4365492E-02  0.7018190E+03  0.7818609E-02  0.9714126E-01
       -2   -1    0    0    0  501  0.00000000000E+00  0.00000000000E+00  0.22797470451E+03  0.22797470452E+03  0.25500000920E-02 0.  1.
        2   -1    0    0  501    0  0.00000000000E+00  0.00000000000E+00 -0.54013659838E+03  0.54013659838E+03  0.25500000920E-02 0. -1.
    10030    2    1    2    0    0  0.00000000000E+00  0.00000000000E+00 -0.31216189386E+03  0.76811130291E+03  0.70181901205E+03 0.  0.
        4    1    3    3  502    0  0.33566338546E+03  0.91739072663E+02 -0.20563345647E+03  0.40419388554E+03  0.12699999809E+01 0.  1.
       -4    1    3    3    0  502 -0.33566338546E+03 -0.91739072663E+02 -0.10652843740E+03  0.36391741737E+03  0.12699999809E+01 0. -1.
</event>
<event>
 5   0  0.4420645E-02  0.7198175E+03  0.7818609E-02  0.9683929E-01
        2   -1    0    0  501    0  0.00000000000E+00  0.00000000000E+00  0.40233190479E+03  0.40233190480E+03  0.25500000920E-02 0. -1.
       -2   -1    0    0    0  501  0.00000000000E+00  0.00000000000E+00 -0.32195885917E+03  0.32195885918E+03  0.25500000920E-02 0.  1.
    10030    2    1    2    0    0  0.00000000000E+00  0.00000000000E+00  0.80373045622E+02  0.72429076397E+03  0.71981753543E+03 0.  0.
        5    1    3    3  502    0  0.72483532389E+02  0.17375678948E+03 -0.26842280511E+03  0.32789964419E+03  0.46999998093E+01 0.  1.
       -5    1    3    3    0  502 -0.72483532389E+02 -0.17375678948E+03  0.34879585073E+03  0.39639111978E+03  0.46999998093E+01 0. -1.
</event>
<event>
 5   0  0.2684924E-02  0.6904952E+03  0.7818609E-02  0.9733626E-01
        1   -1    0    0  501    0  0.00000000000E+00  0.00000000000E+00  0.75100638773E+03  0.75100638775E+03  0.50400001928E-02 0.  1.
       -1   -1    0    0    0  501  0.00000000000E+00  0.00000000000E+00 -0.15871490915E+03  0.15871490923E+03  0.50400001928E-02 0. -1.
    10030    2    1    2    0    0  0.00000000000E+00  0.00000000000E+00  0.59229147859E+03  0.90972129697E+03  0.69049521545E+03 0.  0.
        4    1    3    3  502    0  0.18307810650E+03  0.38184815773E+02  0.67848752154E+03  0.70379159062E+03  0.12699999809E+01 0.  1.
       -4    1    3    3    0  502 -0.18307810650E+03 -0.38184815773E+02 -0.86196042958E+02  0.20592970635E+03  0.12699999809E+01 0. -1.
</event>
<event>
 5   0  0.4420645E-02  0.6940391E+03  0.7818609E-02  0.9727481E-01
        2   -1    0    0  501    0  0.00000000000E+00  0.00000000000E+00  0.79013677913E+03  0.79013677913E+03  0.25500000920E-02 0.  1.
       -2   -1    0    0    0  501  0.00000000000E+00  0.00000000000E+00 -0.15240722251E+03  0.15240722253E+03  0.25500000920E-02 0. -1.
    10030    2    1    2    0    0  0.00000000000E+00  0.00000000000E+00  0.63772955662E+03  0.94254400166E+03  0.69403905342E+03 0.  0.
        5    1    3    3  502    0  0.26728128875E+03 -0.68993010006E+02  0.33346144873E+02  0.27808879539E+03  0.46999998093E+01 0. -1.
       -5    1    3    3    0  502 -0.26728128875E+03  0.68993010006E+02  0.60438341175E+03  0.66445520627E+03  0.46999998093E+01 0.  1.
</event>
<event>
 5   0  0.1784625E-02  0.7169350E+03  0.7818609E-02  0.9688702E-01
        4   -1    0    0  501    0  0.00000000000E+00  0.00000000000E+00  0.43376879300E+03  0.43377065217E+03  0.12699999809E+01 0.  1.
       -4   -1    0    0    0  501  0.00000000000E+00  0.00000000000E+00 -0.29623446809E+03  0.29623719042E+03  0.12699999809E+01 0. -1.
    10030    2    1    2    0    0  0.00000000000E+00  0.00000000000E+00  0.13753432491E+03  0.73000784259E+03  0.71693497593E+03 0.  0.
        4    1    3    3  502    0 -0.14617489467E+03 -0.30389322168E+03  0.19255338077E+03  0.38832538851E+03  0.12699999809E+01 0.  1.
       -4    1    3    3    0  502  0.14617489467E+03  0.30389322168E+03 -0.55019055861E+02  0.34168245407E+03  0.12699999809E+01 0. -1.
</event>
<event>
 5   0  0.1784625E-02  0.7379466E+03  0.7818609E-02  0.9654452E-01
        3   -1    0    0  501    0  0.00000000000E+00  0.00000000000E+00  0.81609089967E+03  0.81609090592E+03  0.10100000352E+00 0. -1.
       -3   -1    0    0    0  501  0.00000000000E+00  0.00000000000E+00 -0.16682121961E+03  0.16682125019E+03  0.10100000352E+00 0.  1.
    10030    2    1    2    0    0  0.00000000000E+00  0.00000000000E+00  0.64926968006E+03  0.98291215611E+03  0.73794660321E+03 0.  0.
        5    1    3    3  502    0  0.19754798550E+03  0.22848204043E+03  0.60683962118E+03  0.67786847191E+03  0.46999998093E+01 0. -1.
       -5    1    3    3    0  502 -0.19754798550E+03 -0.22848204043E+03  0.42430058876E+02  0.30504368420E+03  0.46999998093E+01 0.  1.
</event>
<event>
 5   0  0.4503289E-02  0.6995392E+03  0.7818609E-02  0.9718021E-01
       -2   -1    0    0    0  501  0.00000000000E+00  0.00000000000E+00  0.33804515744E+03  0.33804515745E+03  0.25500000920E-02 0.  1.
        2   -1    0    0  501    0  0.00000000000E+00  0.00000000000E+00 -0.36190068412E+03  0.36190068413E+03  0.25500000920E-02 0. -1.
    10030    2    1    2    0    0  0.00000000000E+00  0.00000000000E+00 -0.23855526681E+02  0.69994584157E+03  0.69953920189E+03 0.  0.
        2    1    3    3  502    0 -0.10918746716E+03 -0.15083270618E+02 -0.34406855927E+03  0.36129293035E+03  0.25500000920E-02 0. -1.
       -2    1    3    3    0  502  0.10918746716E+03  0.15083270618E+02  0.32021303259E+03  0.33865291123E+03  0.25500000920E-02 0.  1.
</event>
<event>
 5   0  0.2758681E-02  0.7056003E+03  0.7818609E-02  0.9707703E-01
        1   -1    0    0  501    0  0.00000000000E+00  0.00000000000E+00  0.31091824507E+03  0.31091824511E+03  0.50400001928E-02 0. -1.
       -1   -1    0    0    0  501  0.00000000000E+00  0.00000000000E+00 -0.40032367840E+03  0.40032367843E+03  0.50400001928E-02 0.  1.
    10030    2    1    2    0    0  0.00000000000E+00  0.00000000000E+00 -0.89405433324E+02  0.71124192354E+03  0.70560027090E+03 0.  0.
        3    1    3    3  502    0 -0.90873902445E+02 -0.26778176895E+03  0.16794082473E+03  0.32889097394E+03  0.10100000352E+00 0. -1.
       -3    1    3    3    0  502  0.90873902445E+02  0.26778176895E+03 -0.25734625805E+03  0.38235094960E+03  0.10100000352E+00 0.  1.
</event>
</LesHouchesEvents>
