<LesHouchesEvents version="3.0">
<header>
<!--
#*********************************************************************
#                                                                    *
#                        MadGraph5_aMC@NLO                           *
#                                                                    *
#                           Going Beyond                             *
#                                                                    *
#                   http://madgraph.hep.uiuc.edu                     *
#                   http://madgraph.phys.ucl.ac.be                   *
#                   http://amcatnlo.cern.ch                          *
#                                                                    *
#                     The MadGraph5_aMC@NLO team                     *
#                                                                    *
#....................................................................*
#                                                                    *
# This file contains all the information necessary to reproduce      *
# the events generated:                                              *
#                                                                    *
# 1. software version                                                *
# 2. proc_card          : code generation info including model       *
# 3. param_card         : model primary parameters in the LH format  *
# 4. run_card           : running parameters (collider and cuts)     *
# 5. pythia_card        : present only if pythia has been run        *
# 6. pgs_card           : present only if pgs has been run           *
# 7. delphes_cards      : present only if delphes has been run       *
#                                                                    *
#                                                                    *
#*********************************************************************
-->
<MGVersion>
#5.2.2.3
</MGVersion>
<MG5ProcCard>
#************************************************************
#*                     MadGraph5_aMC@NLO                    *
#*                                                          *
#*                *                       *                 *
#*                  *        * *        *                   *
#*                    * * * * 5 * * * *                     *
#*                  *        * *        *                   *
#*                *                       *                 *
#*                                                          *
#*                                                          *
#*         VERSION 2.2.3                 2015-02-10         *
#*                                                          *
#*    The MadGraph5_aMC@NLO Development Team - Find us at   *
#*    https://server06.fynu.ucl.ac.be/projects/madgraph     *
#*                                                          *
#************************************************************
#*                                                          *
#*               Command File for MadGraph5_aMC@NLO         *
#*                                                          *
#*     run as ./bin/mg5_aMC  filename                       *
#*                                                          *
#************************************************************
set group_subprocesses Auto
set ignore_six_quark_processes False
set loop_optimized_output True
set gauge unitary
set complex_mass_scheme False
import model sm
define p = g u c d s u~ c~ d~ s~
define j = g u c d s u~ c~ d~ s~
define l+ = e+ mu+
define l- = e- mu-
define vl = ve vm vt
define vl~ = ve~ vm~ vt~
import model Zprime_UFO
generate p p > zph, zph > j j
add process p p > zph, zph > b b~
output Dijet_signal
</MG5ProcCard>
<MGProcCard>
#*********************************************************************
#                        MadGraph/MadEvent                           *
#                   http://madgraph.hep.uiuc.edu                     *
#                                                                    *
#                          proc_card.dat                             *
#*********************************************************************
#                                                                    *
#            This Files is generated by MADGRAPH 5                   *
#                                                                    *
# WARNING: This Files is generated for MADEVENT (compatibility issue)*
#          This files is NOT a valid MG4 proc_card.dat               *
#          Running this in MG4 will NEVER reproduce the result of MG5*
#                                                                    *
#*********************************************************************
#*********************************************************************
# Process(es) requested : mg2 input                                  *
#*********************************************************************
# Begin PROCESS # This is TAG. Do not modify this line
p p > zph , zph > j j           #Process
# Be carefull the coupling are here in MG5 convention
          
end_coup           # End the couplings input

done               # this tells MG there are no more procs
# End PROCESS  # This is TAG. Do not modify this line
#*********************************************************************
# Model information                                                  *
#*********************************************************************
# Begin MODEL  # This is TAG. Do not modify this line
Zprime_UFO
# End   MODEL  # This is TAG. Do not modify this line
#*********************************************************************
# Start multiparticle definitions                                    *
#*********************************************************************
# Begin MULTIPARTICLES # This is TAG. Do not modify this line

# End  MULTIPARTICLES # This is TAG. Do not modify this line
</MGProcCard>
<MGRunCard>
#*********************************************************************
#                       MadGraph5_aMC@NLO                            *
#                                                                    *
#                     run_card.dat MadEvent                          *
#                                                                    *
#  This file is used to set the parameters of the run.               *
#                                                                    *
#  Some notation/conventions:                                        *
#                                                                    *
#   Lines starting with a '# ' are info or comments                  *
#                                                                    *
#   mind the format:   value    = variable     ! comment             *
#*********************************************************************
#
#*******************                                                 
# Running parameters
#*******************                                                 
#                                                                    
#*********************************************************************
# Tag name for the run (one word)                                    *
#*********************************************************************
  tag_1     = run_tag ! name of the run 
#*********************************************************************
# Run to generate the grid pack                                      *
#*********************************************************************
  .false.     = gridpack  !True = setting up the grid pack
#*********************************************************************
# Number of events and rnd seed                                      *
# Warning: Do not generate more than 1M events in a single run       *
# If you want to run Pythia, avoid more than 50k events in a run.    *
#*********************************************************************
  2000 = nevents ! Number of unweighted events requested 
 498 = iseed   ! rnd seed (0=assigned automatically=default))
#*********************************************************************
# Collider type and energy                                           *
# lpp: 0=No PDF, 1=proton, -1=antiproton, 2=photon from proton,      *
#                                         3=photon from electron     *
#*********************************************************************
        1     = lpp1    ! beam 1 type 
        1     = lpp2    ! beam 2 type
     4000     = ebeam1  ! beam 1 total energy in GeV
     4000     = ebeam2  ! beam 2 total energy in GeV
#*********************************************************************
# Beam polarization from -100 (left-handed) to 100 (right-handed)    *
#*********************************************************************
        0     = polbeam1 ! beam polarization for beam 1
        0     = polbeam2 ! beam polarization for beam 2
#*********************************************************************
# PDF CHOICE: this automatically fixes also alpha_s and its evol.    *
#*********************************************************************
 'nn23lo1'    = pdlabel     ! PDF set                                     
 230000    = lhaid     ! if pdlabel=lhapdf, this is the lhapdf number
#*********************************************************************
# Renormalization and factorization scales                           *
#*********************************************************************
 F        = fixed_ren_scale  ! if .true. use fixed ren scale
 F        = fixed_fac_scale  ! if .true. use fixed fac scale
 91.1880  = scale            ! fixed ren scale
 91.1880  = dsqrt_q2fact1    ! fixed fact scale for pdf1
 91.1880  = dsqrt_q2fact2    ! fixed fact scale for pdf2
 1        = scalefact        ! scale factor for event-by-event scales
#*********************************************************************
# Matching - Warning! ickkw > 1 is still beta
#*********************************************************************
 0        = ickkw            ! 0 no matching, 1 MLM, 2 CKKW matching
 1        = highestmult      ! for ickkw=2, highest mult group
 1        = ktscheme         ! for ickkw=1, 1 Durham kT, 2 Pythia pTE
 1        = alpsfact         ! scale factor for QCD emission vx
 F        = chcluster        ! cluster only according to channel diag
 T        = pdfwgt           ! for ickkw=1, perform pdf reweighting
 5        = asrwgtflavor     ! highest quark flavor for a_s reweight
 T        = clusinfo         ! include clustering tag in output
 3.0      = lhe_version       ! Change the way clustering information pass to shower.        
#*********************************************************************
#**********************************************************
#
#**********************************************************
# Automatic ptj and mjj cuts if xqcut > 0
# (turn off for VBF and single top processes)
#**********************************************************
   T  = auto_ptj_mjj  ! Automatic setting of ptj and mjj
#**********************************************************
#                                                                    
#**********************************
# BW cutoff (M+/-bwcutoff*Gamma)
#**********************************
  15  = bwcutoff      ! (M+/-bwcutoff*Gamma)
#**********************************************************
# Apply pt/E/eta/dr/mij cuts on decay products or not
# (note that etmiss/ptll/ptheavy/ht/sorted cuts always apply)
#**********************************************************
   T  = cut_decays    ! Cut decay products 
#*************************************************************
# Number of helicities to sum per event (0 = all helicities)
# 0 gives more stable result, but longer run time (needed for
# long decay chains e.g.).
# Use >=2 if most helicities contribute, e.g. pure QCD.
#*************************************************************
   0  = nhel          ! Number of helicities used per event
#*******************                                                 
# Standard Cuts
#*******************                                                 
#                                                                    
#*********************************************************************
# Minimum and maximum pt's (for max, -1 means no cut)                *
#*********************************************************************
 20  = ptj       ! minimum pt for the jets 
  0  = ptb       ! minimum pt for the b 
 10  = pta       ! minimum pt for the photons 
 10  = ptl       ! minimum pt for the charged leptons 
  0  = misset    ! minimum missing Et (sum of neutrino's momenta)
  0  = ptheavy   ! minimum pt for one heavy final state
 1.0 = ptonium   ! minimum pt for the quarkonium states
 -1  = ptjmax    ! maximum pt for the jets
 -1  = ptbmax    ! maximum pt for the b
 -1  = ptamax    ! maximum pt for the photons
 -1  = ptlmax    ! maximum pt for the charged leptons
 -1  = missetmax ! maximum missing Et (sum of neutrino's momenta)
#*********************************************************************
# Minimum and maximum E's (in the center of mass frame)              *
#*********************************************************************
  0  = ej     ! minimum E for the jets 
  0  = eb     ! minimum E for the b 
  0  = ea     ! minimum E for the photons 
  0  = el     ! minimum E for the charged leptons 
 -1   = ejmax ! maximum E for the jets
 -1   = ebmax ! maximum E for the b
 -1   = eamax ! maximum E for the photons
 -1   = elmax ! maximum E for the charged leptons
#*********************************************************************
# Maximum and minimum absolute rapidity (for max, -1 means no cut)   *
#*********************************************************************
   5  = etaj    ! max rap for the jets 
  -1  = etab    ! max rap for the b
 2.5  = etaa    ! max rap for the photons 
 2.5  = etal    ! max rap for the charged leptons 
 0.6  = etaonium ! max rap for the quarkonium states
   0  = etajmin ! min rap for the jets
   0  = etabmin ! min rap for the b
   0  = etaamin ! min rap for the photons
   0  = etalmin ! main rap for the charged leptons
#*********************************************************************
# Minimum and maximum DeltaR distance                                *
#*********************************************************************
 0.4 = drjj    ! min distance between jets 
 0   = drbb    ! min distance between b's 
 0.4 = drll    ! min distance between leptons 
 0.4 = draa    ! min distance between gammas 
 0   = drbj    ! min distance between b and jet 
 0.4 = draj    ! min distance between gamma and jet 
 0.4 = drjl    ! min distance between jet and lepton 
 0   = drab    ! min distance between gamma and b 
 0   = drbl    ! min distance between b and lepton 
 0.4 = dral    ! min distance between gamma and lepton 
 -1  = drjjmax ! max distance between jets
 -1  = drbbmax ! max distance between b's
 -1  = drllmax ! max distance between leptons
 -1  = draamax ! max distance between gammas
 -1  = drbjmax ! max distance between b and jet
 -1  = drajmax ! max distance between gamma and jet
 -1  = drjlmax ! max distance between jet and lepton
 -1  = drabmax ! max distance between gamma and b
 -1  = drblmax ! max distance between b and lepton
 -1  = dralmax ! maxdistance between gamma and lepton
#*********************************************************************
# Minimum and maximum invariant mass for pairs                       *
# WARNING: for four lepton final state mmll cut require to have      *
#          different lepton masses for each flavor!                  *           
#*********************************************************************
 0   = mmjj    ! min invariant mass of a jet pair 
 0   = mmbb    ! min invariant mass of a b pair 
 0   = mmaa    ! min invariant mass of gamma gamma pair
 0   = mmll    ! min invariant mass of l+l- (same flavour) lepton pair
 -1  = mmjjmax ! max invariant mass of a jet pair
 -1  = mmbbmax ! max invariant mass of a b pair
 -1  = mmaamax ! max invariant mass of gamma gamma pair
 -1  = mmllmax ! max invariant mass of l+l- (same flavour) lepton pair
#*********************************************************************
# Minimum and maximum invariant mass for all letpons                 *
#*********************************************************************
 0   = mmnl    ! min invariant mass for all letpons (l+- and vl) 
 -1  = mmnlmax ! max invariant mass for all letpons (l+- and vl) 
#*********************************************************************
# Minimum and maximum pt for 4-momenta sum of leptons                *
#*********************************************************************
 0   = ptllmin  ! Minimum pt for 4-momenta sum of leptons(l and vl)
 -1  = ptllmax  ! Maximum pt for 4-momenta sum of leptons(l and vl)
#*********************************************************************
# Inclusive cuts                                                     *
#*********************************************************************
 0  = xptj ! minimum pt for at least one jet  
 0  = xptb ! minimum pt for at least one b 
 0  = xpta ! minimum pt for at least one photon 
 0  = xptl ! minimum pt for at least one charged lepton 
#*********************************************************************
# Control the pt's of the jets sorted by pt                          *
#*********************************************************************
 0   = ptj1min ! minimum pt for the leading jet in pt
 0   = ptj2min ! minimum pt for the second jet in pt
 0   = ptj3min ! minimum pt for the third jet in pt
 0   = ptj4min ! minimum pt for the fourth jet in pt
 -1  = ptj1max ! maximum pt for the leading jet in pt 
 -1  = ptj2max ! maximum pt for the second jet in pt
 -1  = ptj3max ! maximum pt for the third jet in pt
 -1  = ptj4max ! maximum pt for the fourth jet in pt
 0   = cutuse  ! reject event if fails any (0) / all (1) jet pt cuts
#*********************************************************************
# Control the pt's of leptons sorted by pt                           *
#*********************************************************************
 0   = ptl1min ! minimum pt for the leading lepton in pt
 0   = ptl2min ! minimum pt for the second lepton in pt
 0   = ptl3min ! minimum pt for the third lepton in pt
 0   = ptl4min ! minimum pt for the fourth lepton in pt
 -1  = ptl1max ! maximum pt for the leading lepton in pt 
 -1  = ptl2max ! maximum pt for the second lepton in pt
 -1  = ptl3max ! maximum pt for the third lepton in pt
 -1  = ptl4max ! maximum pt for the fourth lepton in pt
#*********************************************************************
# Control the Ht(k)=Sum of k leading jets                            *
#*********************************************************************
 0   = htjmin ! minimum jet HT=Sum(jet pt)
 -1  = htjmax ! maximum jet HT=Sum(jet pt)
 0   = ihtmin  !inclusive Ht for all partons (including b)
 -1  = ihtmax  !inclusive Ht for all partons (including b)
 0   = ht2min ! minimum Ht for the two leading jets
 0   = ht3min ! minimum Ht for the three leading jets
 0   = ht4min ! minimum Ht for the four leading jets
 -1  = ht2max ! maximum Ht for the two leading jets
 -1  = ht3max ! maximum Ht for the three leading jets
 -1  = ht4max ! maximum Ht for the four leading jets
#***********************************************************************
# Photon-isolation cuts, according to hep-ph/9801442                   *
# When ptgmin=0, all the other parameters are ignored                  *
# When ptgmin>0, pta and draj are not going to be used                 *
#***********************************************************************
   0 = ptgmin ! Min photon transverse momentum
 0.4 = R0gamma ! Radius of isolation code
 1.0 = xn ! n parameter of eq.(3.4) in hep-ph/9801442
 1.0 = epsgamma ! epsilon_gamma parameter of eq.(3.4) in hep-ph/9801442
 .true. = isoEM ! isolate photons from EM energy (photons and leptons)
#*********************************************************************
# WBF cuts                                                           *
#*********************************************************************
 0   = xetamin ! minimum rapidity for two jets in the WBF case  
 0   = deltaeta ! minimum rapidity for two jets in the WBF case 
#*********************************************************************
# KT DURHAM CUT                                                      *
#*********************************************************************
 -1    =  ktdurham        
 0.4  =  dparameter 
#*********************************************************************
# maximal pdg code for quark to be considered as a light jet         *
# (otherwise b cuts are applied)                                     *
#*********************************************************************
 4 = maxjetflavor    ! Maximum jet pdg code
#*********************************************************************
# Jet measure cuts                                                   *
#*********************************************************************
 0   = xqcut   ! minimum kt jet measure between partons
#*********************************************************************
#
#*********************************************************************
# Store info for systematics studies                                 *
# WARNING: If use_syst is T, matched Pythia output is                *
#          meaningful ONLY if plotted taking matchscale              *
#          reweighting into account!                                 *
#*********************************************************************
   F  = use_syst      ! Enable systematics studies
#
#**************************************
# Parameter of the systematics study
#  will be used by SysCalc (if installed)
#**************************************                                  
#
0.5 1 2 = sys_scalefact  # factorization/renormalization scale factor
0.5 1 2 = sys_alpsfact  # \alpha_s emission scale factors
30 50 = sys_matchscale # variation of merging scale
# PDF sets and number of members (0 or none for all members).
CT10nlo.LHgrid = sys_pdf # matching scales
# MSTW2008nlo68cl.LHgrid 1  = sys_pdf
</MGRunCard>
<slha>
######################################################################
## PARAM_CARD AUTOMATICALY GENERATED BY MG5 FOLLOWING UFO MODEL   ####
######################################################################
##                                                                  ##
##  Width set on Auto will be computed following the information    ##
##        present in the decay.py files of the model.               ##
##        See  arXiv:1402.1178 for more details.                    ##
##                                                                  ##
######################################################################

###################################
## INFORMATION FOR CKMBLOCK
###################################
Block ckmblock 
    1 2.277360e-01 # cabi 

###################################
## INFORMATION FOR FRBLOCK
###################################
Block frblock 
    1 2.000000e-01 # gz 

###################################
## INFORMATION FOR MASS
###################################
Block mass 
    1 5.040000e-03 # MD 
    2 2.550000e-03 # MU 
    3 1.010000e-01 # MS 
    4 1.270000e+00 # MC 
    5 4.700000e+00 # MB 
    6 1.720000e+02 # MT 
   11 5.110000e-04 # Me 
   13 1.056600e-01 # MM 
   15 1.777000e+00 # MTA 
   23 9.118760e+01 # MZ 
   25 1.200000e+02 # MH 
  10030 5.000000e+02 # MZph 
  10031 3.000000e+02 # MZpl 
## Dependent parameters, given by model restrictions.
## Those values should be edited following the 
## analytical expression. MG5 ignores those values 
## but they are important for interfacing the output of MG5
## to external program such as Pythia.
  12 0.000000 # ve : 0.0 
  14 0.000000 # vm : 0.0 
  16 0.000000 # vt : 0.0 
  21 0.000000 # g : 0.0 
  22 0.000000 # a : 0.0 
  24 79.824360 # w+ : cmath.sqrt(MZ__exp__2/2. + cmath.sqrt(MZ__exp__4/4. - (aEW*cmath.pi*MZ__exp__2)/(Gf*sqrt__2))) 

###################################
## INFORMATION FOR SMINPUTS
###################################
Block sminputs 
    1 1.279000e+02 # aEWM1 
    2 1.166370e-05 # Gf 
    3 1.184000e-01 # aS 

###################################
## INFORMATION FOR YUKAWA
###################################
Block yukawa 
    1 5.040000e-03 # ymdo 
    2 2.550000e-03 # ymup 
    3 1.010000e-01 # yms 
    4 1.270000e+00 # ymc 
    5 4.700000e+00 # ymb 
    6 1.720000e+02 # ymt 
   11 5.110000e-04 # yme 
   13 1.056600e-01 # ymm 
   15 1.777000e+00 # ymtau 

###################################
## INFORMATION FOR DECAY
###################################
DECAY   6 1.508336e+00 # WT 
DECAY  23 2.495200e+00 # WZ 
DECAY  24 2.085000e+00 # WW 
DECAY  25 5.753088e-03 # WH 
## Dependent parameters, given by model restrictions.
## Those values should be edited following the 
## analytical expression. MG5 ignores those values 
## but they are important for interfacing the output of MG5
## to external program such as Pythia.
DECAY  1 0.000000 # d : 0.0 
DECAY  2 0.000000 # u : 0.0 
DECAY  3 0.000000 # s : 0.0 
DECAY  4 0.000000 # c : 0.0 
DECAY  5 0.000000 # b : 0.0 
DECAY  11 0.000000 # e- : 0.0 
DECAY  12 0.000000 # ve : 0.0 
DECAY  13 0.000000 # mu- : 0.0 
DECAY  14 0.000000 # vm : 0.0 
DECAY  15 0.000000 # ta- : 0.0 
DECAY  16 0.000000 # vt : 0.0 
DECAY  21 0.000000 # g : 0.0 
DECAY  22 0.000000 # a : 0.0 
DECAY  10030 0.308725 # zph : (gz__exp__2*MZph*(5 + cmath.sqrt(1 - (4*MT__exp__2)/MZph__exp__2)))/(144.*cmath.pi) 
DECAY  10031 0.132629 # zpl : (5*gz__exp__2*MZpl)/(144.*cmath.pi) 
#===========================================================
# QUANTUM NUMBERS OF NEW STATE(S) (NON SM PDG CODE)
#===========================================================

Block QNUMBERS 10030  # zph 
        1 0  # 3 times electric charge
        2 3  # number of spin states (2S+1)
        3 1  # colour rep (1: singlet, 3: triplet, 8: octet)
        4 0  # Particle/Antiparticle distinction (0=own anti)
Block QNUMBERS 10031  # zpl 
        1 0  # 3 times electric charge
        2 3  # number of spin states (2S+1)
        3 1  # colour rep (1: singlet, 3: triplet, 8: octet)
        4 0  # Particle/Antiparticle distinction (0=own anti)
</slha>
## END BANNER##
<MGGenerationInfo>
#  Number of Events        :         4187
#  Integrated weight (pb)  :  0.16041E+01
#  Max wgt                 :  0.51189E-03
#  Average wgt             :  0.38311E-03
</MGGenerationInfo>
</header>
<init>
     2212     2212  0.40000000000E+04  0.40000000000E+04 0 0  247000  247000 2   1
  0.16017316531E+01  0.30590767985E-02  0.51188820000E-03   0
</init>
<event>
 5   0  0.4978779E-03  0.4997572E+03  0.7818609E-02  0.1013842E+00
        2   -1    0    0  501    0  0.00000000000E+00  0.00000000000E+00  0.55301962256E+03  0.55301962257E+03  0.25500000920E-02 0.  1.
       -2   -1    0    0    0  501  0.00000000000E+00  0.00000000000E+00 -0.11290612671E+03  0.11290612674E+03  0.25500000920E-02 0. -1.
    10030    2    1    2    0    0  0.00000000000E+00  0.00000000000E+00  0.44011349585E+03  0.66592574931E+03  0.49975715539E+03 0.  0.
        1    1    3    3  502    0 -0.19680826040E+03 -0.26326346918E+02  0.42219611967E+03  0.46655774711E+03  0.50400001928E-02 0.  1.
       -1    1    3    3    0  502  0.19680826040E+03  0.26326346918E+02  0.17917376185E+02  0.19936800220E+03  0.50400001928E-02 0. -1.
</event>
<event>
 5   0  0.2005125E-03  0.5005593E+03  0.7818609E-02  0.1013633E+00
        3   -1    0    0  501    0  0.00000000000E+00  0.00000000000E+00  0.35092037022E+03  0.35092038475E+03  0.10100000352E+00 0.  1.
       -3   -1    0    0    0  501  0.00000000000E+00  0.00000000000E+00 -0.17850169994E+03  0.17850172851E+03  0.10100000352E+00 0. -1.
    10030    2    1    2    0    0  0.00000000000E+00  0.00000000000E+00  0.17241867028E+03  0.52942211327E+03  0.50055926338E+03 0.  0.
        1    1    3    3  502    0  0.47125684735E+02  0.21282111379E+03  0.21628978499E+03  0.30707479179E+03  0.50400001928E-02 0.  1.
       -1    1    3    3    0  502 -0.47125684735E+02 -0.21282111379E+03 -0.43871114713E+02  0.22234732148E+03  0.50400001928E-02 0. -1.
</event>
<event>
 5   0  0.4978779E-03  0.5000921E+03  0.7818609E-02  0.1013755E+00
       -2   -1    0    0    0  501  0.00000000000E+00  0.00000000000E+00  0.24691997879E+03  0.24691997880E+03  0.25500000920E-02 0.  1.
        2   -1    0    0  501    0  0.00000000000E+00  0.00000000000E+00 -0.25321165000E+03  0.25321165001E+03  0.25500000920E-02 0. -1.
    10030    2    1    2    0    0  0.00000000000E+00  0.00000000000E+00 -0.62916712109E+01  0.50013162882E+03  0.50009205254E+03 0.  0.
        1    1    3    3  502    0  0.16827887046E+03 -0.66456034643E+02  0.16946223920E+03  0.24789439954E+03  0.50400001928E-02 0.  1.
       -1    1    3    3    0  502 -0.16827887046E+03  0.66456034643E+02 -0.17575391041E+03  0.25223722928E+03  0.50400001928E-02 0. -1.
</event>
<event>
 5   0  0.5118882E-03  0.5001795E+03  0.7818609E-02  0.1013732E+00
        2   -1    0    0  501    0  0.00000000000E+00  0.00000000000E+00  0.52780502712E+03  0.52780502713E+03  0.25500000920E-02 0.  1.
       -2   -1    0    0    0  501  0.00000000000E+00  0.00000000000E+00 -0.11849997246E+03  0.11849997249E+03  0.25500000920E-02 0. -1.
    10030    2    1    2    0    0  0.00000000000E+00  0.00000000000E+00  0.40930505466E+03  0.64630499962E+03  0.50017949254E+03 0.  0.
        3    1    3    3  502    0  0.11513974358E+03  0.14094917344E+03  0.42628870469E+03  0.46351472467E+03  0.10100000352E+00 0.  1.
       -3    1    3    3    0  502 -0.11513974358E+03 -0.14094917344E+03 -0.16983650031E+02  0.18279027494E+03  0.10100000352E+00 0. -1.
</event>
<event>
 5   0  0.4978779E-03  0.5007292E+03  0.7818609E-02  0.1013589E+00
       -2   -1    0    0    0  501  0.00000000000E+00  0.00000000000E+00  0.60436336455E+02  0.60436336509E+02  0.25500000920E-02 0. -1.
        2   -1    0    0  501    0  0.00000000000E+00  0.00000000000E+00 -0.10371645303E+04  0.10371645303E+04  0.25500000920E-02 0.  1.
    10030    2    1    2    0    0  0.00000000000E+00  0.00000000000E+00 -0.97672819384E+03  0.10976008668E+04  0.50072916649E+03 0.  0.
        1    1    3    3  502    0  0.30179119821E+02  0.17152381225E+03 -0.94100271500E+02  0.19795468816E+03  0.50400001928E-02 0. -1.
       -1    1    3    3    0  502 -0.30179119821E+02 -0.17152381225E+03 -0.88262792234E+03  0.89964617865E+03  0.50400001928E-02 0.  1.
</event>
<event>
 5   0  0.5118882E-03  0.5001775E+03  0.7818609E-02  0.1013733E+00
       -2   -1    0    0    0  501  0.00000000000E+00  0.00000000000E+00  0.35086848697E+02  0.35086848789E+02  0.25500000920E-02 0.  1.
        2   -1    0    0  501    0  0.00000000000E+00  0.00000000000E+00 -0.17825589190E+04  0.17825589190E+04  0.25500000920E-02 0. -1.
    10030    2    1    2    0    0  0.00000000000E+00  0.00000000000E+00 -0.17474720703E+04  0.18176457678E+04  0.50017746918E+03 0.  0.
        3    1    3    3  502    0 -0.12648371055E+03  0.16722006485E+03 -0.37834168142E+03  0.43255417837E+03  0.10100000352E+00 0. -1.
       -3    1    3    3    0  502  0.12648371055E+03 -0.16722006485E+03 -0.13691303889E+04  0.13850915894E+04  0.10100000352E+00 0.  1.
</event>
<event>
 5   0  0.2863538E-03  0.4997933E+03  0.7818609E-02  0.1013833E+00
        1   -1    0    0  501    0  0.00000000000E+00  0.00000000000E+00  0.39849654314E+03  0.39849654317E+03  0.50400001928E-02 0.  1.
       -1   -1    0    0    0  501  0.00000000000E+00  0.00000000000E+00 -0.15670988338E+03  0.15670988346E+03  0.50400001928E-02 0. -1.
    10030    2    1    2    0    0  0.00000000000E+00  0.00000000000E+00  0.24178665976E+03  0.55520642663E+03  0.49979334463E+03 0.  0.
        1    1    3    3  502    0 -0.24738812663E+03  0.18525881090E+01  0.81711983056E+02  0.26054014178E+03  0.50400001928E-02 0. -1.
       -1    1    3    3    0  502  0.24738812663E+03 -0.18525881090E+01  0.16007467670E+03  0.29466628485E+03  0.50400001928E-02 0.  1.
</event>
<event>
 5   0  0.3055293E-03  0.4998351E+03  0.7818609E-02  0.1013822E+00
       -1   -1    0    0    0  501  0.00000000000E+00  0.00000000000E+00  0.19663655411E+03  0.19663655418E+03  0.50400001928E-02 0. -1.
        1   -1    0    0  501    0  0.00000000000E+00  0.00000000000E+00 -0.31763571349E+03  0.31763571353E+03  0.50400001928E-02 0.  1.
    10030    2    1    2    0    0  0.00000000000E+00  0.00000000000E+00 -0.12099915938E+03  0.51427226771E+03  0.49983514159E+03 0.  0.
        3    1    3    3  502    0 -0.14237882126E+03  0.11530450979E+03  0.11438621924E+03  0.21598860173E+03  0.10100000352E+00 0. -1.
       -3    1    3    3    0  502  0.14237882126E+03 -0.11530450979E+03 -0.23538537862E+03  0.29828366598E+03  0.10100000352E+00 0.  1.
</event>
<event>
 5   0  0.4978779E-03  0.5004273E+03  0.7818609E-02  0.1013667E+00
       -2   -1    0    0    0  501  0.00000000000E+00  0.00000000000E+00  0.29809311751E+03  0.29809311752E+03  0.25500000920E-02 0. -1.
        2   -1    0    0  501    0  0.00000000000E+00  0.00000000000E+00 -0.21002455012E+03  0.21002455013E+03  0.25500000920E-02 0.  1.
    10030    2    1    2    0    0  0.00000000000E+00  0.00000000000E+00  0.88068567391E+02  0.50811766765E+03  0.50042730903E+03 0.  0.
        1    1    3    3  502    0  0.45061476509E+02  0.18760688653E+03 -0.11772493386E+03  0.22602221267E+03  0.50400001928E-02 0.  1.
       -1    1    3    3    0  502 -0.45061476509E+02 -0.18760688653E+03  0.20579350125E+03  0.28209545499E+03  0.50400001928E-02 0. -1.
</event>
<event>
 5   0  0.2005125E-03  0.4999628E+03  0.7818609E-02  0.1013789E+00
       -4   -1    0    0    0  501  0.00000000000E+00  0.00000000000E+00  0.13627949530E+03  0.13628541279E+03  0.12699999809E+01 0.  1.
        4   -1    0    0  501    0  0.00000000000E+00  0.00000000000E+00 -0.45853134907E+03  0.45853310784E+03  0.12699999809E+01 0. -1.
    10030    2    1    2    0    0  0.00000000000E+00  0.00000000000E+00 -0.32225185378E+03  0.59481852063E+03  0.49996281383E+03 0.  0.
        3    1    3    3  502    0  0.29173129155E-01 -0.12751396171E+03 -0.41693318924E+03  0.43599668092E+03  0.10100000352E+00 0. -1.
       -3    1    3    3    0  502 -0.29173129155E-01  0.12751396171E+03  0.94681335460E+02  0.15882183971E+03  0.10100000352E+00 0.  1.
</event>
<event>
 5   0  0.4978779E-03  0.5000743E+03  0.7818609E-02  0.1013760E+00
       -2   -1    0    0    0  501  0.00000000000E+00  0.00000000000E+00  0.63445367880E+02  0.63445367932E+02  0.25500000920E-02 0.  1.
        2   -1    0    0  501    0  0.00000000000E+00  0.00000000000E+00 -0.98539223862E+03  0.98539223862E+03  0.25500000920E-02 0. -1.
    10030    2    1    2    0    0  0.00000000000E+00  0.00000000000E+00 -0.92194687074E+03  0.10488376066E+04  0.50007428694E+03 0.  0.
        1    1    3    3  502    0 -0.21802298498E+03  0.11696413152E+03 -0.53670955282E+03  0.59099219467E+03  0.50400001928E-02 0.  1.
       -1    1    3    3    0  502  0.21802298498E+03 -0.11696413152E+03 -0.38523731792E+03  0.45784541188E+03  0.50400001928E-02 0. -1.
</event>
<event>
 5   0  0.2005125E-03  0.5016115E+03  0.7818609E-02  0.1013359E+00
       -4   -1    0    0    0  501  0.00000000000E+00  0.00000000000E+00  0.42991703104E+03  0.42991890686E+03  0.12699999809E+01 0. -1.
        4   -1    0    0  501    0  0.00000000000E+00  0.00000000000E+00 -0.14631053785E+03  0.14631604965E+03  0.12699999809E+01 0.  1.
    10030    2    1    2    0    0  0.00000000000E+00  0.00000000000E+00  0.28360649319E+03  0.57623495651E+03  0.50161148524E+03 0.  0.
        4    1    3    3  502    0 -0.78020625506E+02 -0.22777792967E+03  0.61128157679E+02  0.24841148889E+03  0.12699999809E+01 0.  1.
       -4    1    3    3    0  502  0.78020625506E+02  0.22777792967E+03  0.22247833551E+03  0.32782346762E+03  0.12699999809E+01 0. -1.
</event>
<event>
 5   0  0.4889251E-03  0.5000227E+03  0.7818609E-02  0.1013773E+00
        2   -1    0    0  501    0  0.00000000000E+00  0.00000000000E+00  0.83596333055E+03  0.83596333055E+03  0.25500000920E-02 0.  1.
       -2   -1    0    0    0  501  0.00000000000E+00  0.00000000000E+00 -0.74770819178E+02  0.74770819222E+02  0.25500000920E-02 0. -1.
    10030    2    1    2    0    0  0.00000000000E+00  0.00000000000E+00  0.76119251137E+03  0.91073414978E+03  0.50002265169E+03 0.  0.
        5    1    3    3  502    0  0.15106781047E+03 -0.16881282391E+03  0.57304633046E+03  0.61621703947E+03  0.46999998093E+01 0.  1.
       -5    1    3    3    0  502 -0.15106781047E+03  0.16881282391E+03  0.18814618091E+03  0.29451711031E+03  0.46999998093E+01 0. -1.
</event>
<event>
 5   0  0.3057783E-03  0.4996130E+03  0.7818609E-02  0.1013880E+00
       -1   -1    0    0    0  501  0.00000000000E+00  0.00000000000E+00  0.15015787646E+03  0.15015787654E+03  0.50400001928E-02 0. -1.
        1   -1    0    0  501    0  0.00000000000E+00  0.00000000000E+00 -0.41558449893E+03  0.41558449896E+03  0.50400001928E-02 0.  1.
    10030    2    1    2    0    0  0.00000000000E+00  0.00000000000E+00 -0.26542662247E+03  0.56574237550E+03  0.49961299375E+03 0.  0.
        5    1    3    3  502    0 -0.78143303431E+02 -0.14014365347E+03 -0.34944907073E+03  0.38455605900E+03  0.46999998093E+01 0.  1.
       -5    1    3    3    0  502  0.78143303431E+02  0.14014365347E+03  0.84022448258E+02  0.18118631650E+03  0.46999998093E+01 0. -1.
</event>
<event>
 5   0  0.2005125E-03  0.4999399E+03  0.7818609E-02  0.1013795E+00
       -3   -1    0    0    0  501  0.00000000000E+00  0.00000000000E+00  0.18673925981E+03  0.18673928712E+03  0.10100000352E+00 0. -1.
        3   -1    0    0  501    0  0.00000000000E+00  0.00000000000E+00 -0.33461070903E+03  0.33461072428E+03  0.10100000352E+00 0.  1.
    10030    2    1    2    0    0  0.00000000000E+00  0.00000000000E+00 -0.14787144922E+03  0.52135001140E+03  0.49993986528E+03 0.  0.
        2    1    3    3  502    0 -0.17116314655E+03 -0.12673178295E+03 -0.21041125755E+03  0.29938380861E+03  0.25500000920E-02 0.  1.
       -2    1    3    3    0  502  0.17116314655E+03  0.12673178295E+03  0.62539808326E+02  0.22196620279E+03  0.25500000920E-02 0. -1.
</event>
<event>
 5   0  0.2005125E-03  0.5000247E+03  0.7818609E-02  0.1013772E+00
        3   -1    0    0  501    0  0.00000000000E+00  0.00000000000E+00  0.12152810315E+04  0.12152810357E+04  0.10100000352E+00 0.  1.
       -3   -1    0    0    0  501  0.00000000000E+00  0.00000000000E+00 -0.51433454358E+02  0.51433553525E+02  0.10100000352E+00 0. -1.
    10030    2    1    2    0    0  0.00000000000E+00  0.00000000000E+00  0.11638475771E+04  0.12667145892E+04  0.50002466711E+03 0.  0.
        5    1    3    3  502    0 -0.22889154394E+02  0.75056281733E+02  0.11831592212E+04  0.11857677646E+04  0.46999998093E+01 0.  1.
       -5    1    3    3    0  502  0.22889154394E+02 -0.75056281733E+02 -0.19311644098E+02  0.80946824598E+02  0.46999998093E+01 0. -1.
</event>
<event>
 5   0  0.2863538E-03  0.5011173E+03  0.7818609E-02  0.1013488E+00
       -1   -1    0    0    0  501  0.00000000000E+00  0.00000000000E+00  0.13102126209E+03  0.13102126218E+03  0.50400001928E-02 0. -1.
        1   -1    0    0  501    0  0.00000000000E+00  0.00000000000E+00 -0.47915615232E+03  0.47915615235E+03  0.50400001928E-02 0.  1.
    10030    2    1    2    0    0  0.00000000000E+00  0.00000000000E+00 -0.34813489024E+03  0.61017741453E+03  0.50111732699E+03 0.  0.
        1    1    3    3  502    0 -0.63348406125E+02 -0.24210860643E+03 -0.15915225257E+03  0.29657888898E+03  0.50400001928E-02 0. -1.
       -1    1    3    3    0  502  0.63348406125E+02  0.24210860643E+03 -0.18898263766E+03  0.31359852555E+03  0.50400001928E-02 0.  1.
</event>
<event>
 5   0  0.3055293E-03  0.5004856E+03  0.7818609E-02  0.1013652E+00
       -1   -1    0    0    0  501  0.00000000000E+00  0.00000000000E+00  0.26657544203E+03  0.26657544208E+03  0.50400001928E-02 0. -1.
        1   -1    0    0  501    0  0.00000000000E+00  0.00000000000E+00 -0.23491084359E+03  0.23491084365E+03  0.50400001928E-02 0.  1.
    10030    2    1    2    0    0  0.00000000000E+00  0.00000000000E+00  0.31664598441E+02  0.50148628572E+03  0.50048561216E+03 0.  0.
        3    1    3    3  502    0 -0.10297912331E+03 -0.64976652019E+02  0.23488959768E+03  0.26457475020E+03  0.10100000352E+00 0. -1.
       -3    1    3    3    0  502  0.10297912331E+03  0.64976652019E+02 -0.20322499924E+03  0.23691153552E+03  0.10100000352E+00 0.  1.
</event>
<event>
 5   0  0.3055293E-03  0.4999480E+03  0.7818609E-02  0.1013792E+00
       -1   -1    0    0    0  501  0.00000000000E+00  0.00000000000E+00  0.26556511082E+03  0.26556511087E+03  0.50400001928E-02 0.  1.
        1   -1    0    0  501    0  0.00000000000E+00  0.00000000000E+00 -0.23529822809E+03  0.23529822814E+03  0.50400001928E-02 0. -1.
    10030    2    1    2    0    0  0.00000000000E+00  0.00000000000E+00  0.30266882734E+02  0.50086333902E+03  0.49994799748E+03 0.  0.
        3    1    3    3  502    0 -0.13387455353E+03 -0.69474787614E+02 -0.18457507322E+03  0.23836339914E+03  0.10100000352E+00 0. -1.
       -3    1    3    3    0  502  0.13387455353E+03  0.69474787614E+02  0.21484195595E+03  0.26249993988E+03  0.10100000352E+00 0.  1.
</event>
<event>
 5   0  0.4978779E-03  0.4998600E+03  0.7818609E-02  0.1013815E+00
        2   -1    0    0  501    0  0.00000000000E+00  0.00000000000E+00  0.19920454981E+04  0.19920454981E+04  0.25500000920E-02 0.  1.
       -2   -1    0    0    0  501  0.00000000000E+00  0.00000000000E+00 -0.31357213132E+02  0.31357213236E+02  0.25500000920E-02 0. -1.
    10030    2    1    2    0    0  0.00000000000E+00  0.00000000000E+00  0.19606882850E+04  0.20234027114E+04  0.49985996183E+03 0.  0.
        1    1    3    3  502    0  0.48383480482E+02  0.10519901013E+03  0.18769165415E+04  0.18804849100E+04  0.50400001928E-02 0.  1.
       -1    1    3    3    0  502 -0.48383480482E+02 -0.10519901013E+03  0.83771743492E+02  0.14291780137E+03  0.50400001928E-02 0. -1.
</event>
<event>
 5   0  0.3211775E-03  0.4964476E+03  0.7818609E-02  0.1014710E+00
        1   -1    0    0  501    0  0.00000000000E+00  0.00000000000E+00  0.13407584586E+04  0.13407584587E+04  0.50400001928E-02 0. -1.
       -1   -1    0    0    0  501  0.00000000000E+00  0.00000000000E+00 -0.45955378513E+02  0.45955378789E+02  0.50400001928E-02 0.  1.
    10030    2    1    2    0    0  0.00000000000E+00  0.00000000000E+00  0.12948030801E+04  0.13867138374E+04  0.49644763132E+03 0.  0.
        4    1    3    3  502    0  0.23036132123E+02  0.20371746618E+03  0.10382799757E+04  0.10583281109E+04  0.12699999809E+01 0. -1.
       -4    1    3    3    0  502 -0.23036132123E+02 -0.20371746618E+03  0.25652310443E+03  0.32838572658E+03  0.12699999809E+01 0.  1.
</event>
<event>
 5   0  0.2863538E-03  0.4998764E+03  0.7818609E-02  0.1013811E+00
        1   -1    0    0  501    0  0.00000000000E+00  0.00000000000E+00  0.13514750225E+04  0.13514750225E+04  0.50400001928E-02 0.  1.
       -1   -1    0    0    0  501  0.00000000000E+00  0.00000000000E+00 -0.46222910797E+02  0.46222911072E+02  0.50400001928E-02 0. -1.
    10030    2    1    2    0    0  0.00000000000E+00  0.00000000000E+00  0.13052521117E+04  0.13976979336E+04  0.49987642316E+03 0.  0.
        1    1    3    3  502    0 -0.83656469377E+02 -0.18924214400E+03  0.10446581409E+04  0.10649514661E+04  0.50400001928E-02 0.  1.
       -1    1    3    3    0  502  0.83656469377E+02  0.18924214400E+03  0.26059397084E+03  0.33274646745E+03  0.50400001928E-02 0. -1.
</event>
<event>
 5   0  0.4989875E-03  0.4999665E+03  0.7818609E-02  0.1013788E+00
       -2   -1    0    0    0  501  0.00000000000E+00  0.00000000000E+00  0.65994043676E+02  0.65994043726E+02  0.25500000920E-02 0.  1.
        2   -1    0    0  501    0  0.00000000000E+00  0.00000000000E+00 -0.94692832269E+03  0.94692832270E+03  0.25500000920E-02 0. -1.
    10030    2    1    2    0    0  0.00000000000E+00  0.00000000000E+00 -0.88093427902E+03  0.10129223664E+04  0.49996651533E+03 0.  0.
        2    1    3    3  502    0 -0.17349980970E+03  0.17877436710E+03 -0.39849604162E+03  0.46995909767E+03  0.25500000920E-02 0.  1.
       -2    1    3    3    0  502  0.17349980970E+03 -0.17877436710E+03 -0.48243823740E+03  0.54296326875E+03  0.25500000920E-02 0. -1.
</event>
<event>
 5   0  0.3055293E-03  0.5001359E+03  0.7818609E-02  0.1013743E+00
        1   -1    0    0  501    0  0.00000000000E+00  0.00000000000E+00  0.11747434200E+04  0.11747434201E+04  0.50400001928E-02 0.  1.
       -1   -1    0    0    0  501  0.00000000000E+00  0.00000000000E+00 -0.53232036173E+02  0.53232036411E+02  0.50400001928E-02 0. -1.
    10030    2    1    2    0    0  0.00000000000E+00  0.00000000000E+00  0.11215113839E+04  0.12279754565E+04  0.50013591906E+03 0.  0.
        3    1    3    3  502    0  0.56057636297E+02 -0.18256584626E+03  0.95712413725E+03  0.97599148106E+03  0.10100000352E+00 0.  1.
       -3    1    3    3    0  502 -0.56057636297E+02  0.18256584626E+03  0.16438724663E+03  0.25198397540E+03  0.10100000352E+00 0. -1.
</event>
<event>
 5   0  0.2005125E-03  0.5008065E+03  0.7818609E-02  0.1013569E+00
       -3   -1    0    0    0  501  0.00000000000E+00  0.00000000000E+00  0.11637131962E+03  0.11637136345E+03  0.10100000352E+00 0.  1.
        3   -1    0    0  501    0  0.00000000000E+00  0.00000000000E+00 -0.53880777037E+03  0.53880777983E+03  0.10100000352E+00 0. -1.
    10030    2    1    2    0    0  0.00000000000E+00  0.00000000000E+00 -0.42243645075E+03  0.65517914329E+03  0.50080650443E+03 0.  0.
        2    1    3    3  502    0  0.96484833497E+02 -0.13304881841E+03 -0.45837145074E+03  0.48694527212E+03  0.25500000920E-02 0. -1.
       -2    1    3    3    0  502 -0.96484833497E+02  0.13304881841E+03  0.35934999999E+02  0.16823387117E+03  0.25500000920E-02 0.  1.
</event>
<event>
 5   0  0.5118882E-03  0.4997849E+03  0.7818609E-02  0.1013835E+00
       -2   -1    0    0    0  501  0.00000000000E+00  0.00000000000E+00  0.93640479582E+03  0.93640479582E+03  0.25500000920E-02 0. -1.
        2   -1    0    0  501    0  0.00000000000E+00  0.00000000000E+00 -0.66687236935E+02  0.66687236984E+02  0.25500000920E-02 0.  1.
    10030    2    1    2    0    0  0.00000000000E+00  0.00000000000E+00  0.86971755888E+03  0.10030920328E+04  0.49978494780E+03 0.  0.
        3    1    3    3  502    0  0.87173064423E+02 -0.22180155188E+03  0.28398051860E+03  0.37072903409E+03  0.10100000352E+00 0.  1.
       -3    1    3    3    0  502 -0.87173064423E+02  0.22180155188E+03  0.58573704028E+03  0.63236299871E+03  0.10100000352E+00 0. -1.
</event>
<event>
 5   0  0.2863538E-03  0.5002280E+03  0.7818609E-02  0.1013719E+00
       -1   -1    0    0    0  501  0.00000000000E+00  0.00000000000E+00  0.34841026491E+03  0.34841026495E+03  0.50400001928E-02 0. -1.
        1   -1    0    0  501    0  0.00000000000E+00  0.00000000000E+00 -0.17954987130E+03  0.17954987137E+03  0.50400001928E-02 0.  1.
    10030    2    1    2    0    0  0.00000000000E+00  0.00000000000E+00  0.16886039361E+03  0.52796013631E+03  0.50022802101E+03 0.  0.
        1    1    3    3  502    0  0.34342229837E+01  0.20571538442E+03  0.23453426594E+03  0.31198867800E+03  0.50400001928E-02 0. -1.
       -1    1    3    3    0  502 -0.34342229837E+01 -0.20571538442E+03 -0.65673872329E+02  0.21597145831E+03  0.50400001928E-02 0.  1.
</event>
<event>
 5   0  0.4989875E-03  0.5003431E+03  0.7818609E-02  0.1013689E+00
        2   -1    0    0  501    0  0.00000000000E+00  0.00000000000E+00  0.20817111088E+04  0.20817111088E+04  0.25500000920E-02 0.  1.
       -2   -1    0    0    0  501  0.00000000000E+00  0.00000000000E+00 -0.30064597519E+02  0.30064597627E+02  0.25500000920E-02 0. -1.
    10030    2    1    2    0    0  0.00000000000E+00  0.00000000000E+00  0.20516465113E+04  0.21117757064E+04  0.50034310929E+03 0.  0.
        2    1    3    3  502    0 -0.13355260785E+03 -0.16754581383E+03  0.48075529754E+03  0.52633977136E+03  0.25500000920E-02 0. -1.
       -2    1    3    3    0  502  0.13355260785E+03  0.16754581383E+03  0.15708912138E+04  0.15854359351E+04  0.25500000920E-02 0.  1.
</event>
<event>
 5   0  0.3013734E-03  0.4982248E+03  0.7818609E-02  0.1014243E+00
        1   -1    0    0  501    0  0.00000000000E+00  0.00000000000E+00  0.46953874490E+03  0.46953874492E+03  0.50400001928E-02 0. -1.
       -1   -1    0    0    0  501  0.00000000000E+00  0.00000000000E+00 -0.13216585994E+03  0.13216586003E+03  0.50400001928E-02 0.  1.
    10030    2    1    2    0    0  0.00000000000E+00  0.00000000000E+00  0.33737288496E+03  0.60170460496E+03  0.49822481685E+03 0.  0.
        2    1    3    3  502    0  0.97674256394E+02 -0.16649360419E+03  0.35886175881E+03  0.40748268986E+03  0.25500000920E-02 0.  1.
       -2    1    3    3    0  502 -0.97674256394E+02  0.16649360419E+03 -0.21488873848E+02  0.19422191509E+03  0.25500000920E-02 0. -1.
</event>
<event>
 5   0  0.5118882E-03  0.5006659E+03  0.7818609E-02  0.1013605E+00
       -2   -1    0    0    0  501  0.00000000000E+00  0.00000000000E+00  0.37767721288E+02  0.37767721374E+02  0.25500000920E-02 0.  1.
        2   -1    0    0  501    0  0.00000000000E+00  0.00000000000E+00 -0.16592633850E+04  0.16592633850E+04  0.25500000920E-02 0. -1.
    10030    2    1    2    0    0  0.00000000000E+00  0.00000000000E+00 -0.16214956637E+04  0.16970311064E+04  0.50066594509E+03 0.  0.
        3    1    3    3  502    0  0.68860751679E+02 -0.19716253793E+03 -0.34289547997E+03  0.40148747162E+03  0.10100000352E+00 0.  1.
       -3    1    3    3    0  502 -0.68860751679E+02  0.19716253793E+03 -0.12786001838E+04  0.12955436348E+04  0.10100000352E+00 0. -1.
</event>
<event>
 5   0  0.4889251E-03  0.5000582E+03  0.7818609E-02  0.1013764E+00
        2   -1    0    0  501    0  0.00000000000E+00  0.00000000000E+00  0.33015630473E+03  0.33015630474E+03  0.25500000920E-02 0. -1.
       -2   -1    0    0    0  501  0.00000000000E+00  0.00000000000E+00 -0.18934831115E+03  0.18934831117E+03  0.25500000920E-02 0.  1.
    10030    2    1    2    0    0  0.00000000000E+00  0.00000000000E+00  0.14080799357E+03  0.51950461591E+03  0.50005815151E+03 0.  0.
        5    1    3    3  502    0  0.10632522763E+03  0.39738806509E+02 -0.16098661282E+03  0.19703554573E+03  0.46999998093E+01 0.  1.
       -5    1    3    3    0  502 -0.10632522763E+03 -0.39738806509E+02  0.30179460639E+03  0.32246907018E+03  0.46999998093E+01 0. -1.
</event>
<event>
 5   0  0.3013734E-03  0.4999079E+03  0.7818609E-02  0.1013803E+00
       -1   -1    0    0    0  501  0.00000000000E+00  0.00000000000E+00  0.14762787256E+03  0.14762787265E+03  0.50400001928E-02 0.  1.
        1   -1    0    0  501    0  0.00000000000E+00  0.00000000000E+00 -0.42320581503E+03  0.42320581506E+03  0.50400001928E-02 0. -1.
    10030    2    1    2    0    0  0.00000000000E+00  0.00000000000E+00 -0.27557794247E+03  0.57083368771E+03  0.49990788816E+03 0.  0.
        2    1    3    3  502    0  0.12960931066E+03 -0.14573148011E+03 -0.31630480778E+03  0.37159785943E+03  0.25500000920E-02 0. -1.
       -2    1    3    3    0  502 -0.12960931066E+03  0.14573148011E+03  0.40726865311E+02  0.19923582828E+03  0.25500000920E-02 0.  1.
</event>
<event>
 5   0  0.5118882E-03  0.5001699E+03  0.7818609E-02  0.1013735E+00
        2   -1    0    0  501    0  0.00000000000E+00  0.00000000000E+00  0.29165045113E+03  0.29165045114E+03  0.25500000920E-02 0.  1.
       -2   -1    0    0    0  501  0.00000000000E+00  0.00000000000E+00 -0.21444324838E+03  0.21444324839E+03  0.25500000920E-02 0. -1.
    10030    2    1    2    0    0  0.00000000000E+00  0.00000000000E+00  0.77207202750E+02  0.50609369953E+03  0.50016985170E+03 0.  0.
        3    1    3    3  502    0 -0.22703735203E+03 -0.10413856444E+03  0.26142709929E+02  0.25114587654E+03  0.10100000352E+00 0. -1.
       -3    1    3    3    0  502  0.22703735203E+03  0.10413856444E+03  0.51064492820E+02  0.25494782299E+03  0.10100000352E+00 0.  1.
</event>
<event>
 5   0  0.4978779E-03  0.5001427E+03  0.7818609E-02  0.1013742E+00
       -2   -1    0    0    0  501  0.00000000000E+00  0.00000000000E+00  0.47457873700E+03  0.47457873700E+03  0.25500000920E-02 0. -1.
        2   -1    0    0  501    0  0.00000000000E+00  0.00000000000E+00 -0.13177094568E+03  0.13177094571E+03  0.25500000920E-02 0.  1.
    10030    2    1    2    0    0  0.00000000000E+00  0.00000000000E+00  0.34280779131E+03  0.60634968271E+03  0.50014273557E+03 0.  0.
        1    1    3    3  502    0  0.68083649249E+01  0.24993639470E+03  0.16583053301E+03  0.30002386727E+03  0.50400001928E-02 0. -1.
       -1    1    3    3    0  502 -0.68083649249E+01 -0.24993639470E+03  0.17697725830E+03  0.30632581545E+03  0.50400001928E-02 0.  1.
</event>
<event>
 5   0  0.3055293E-03  0.5001067E+03  0.7818609E-02  0.1013751E+00
       -1   -1    0    0    0  501  0.00000000000E+00  0.00000000000E+00  0.45210215172E+02  0.45210215453E+02  0.50400001928E-02 0.  1.
        1   -1    0    0  501    0  0.00000000000E+00  0.00000000000E+00 -0.13830210263E+04  0.13830210263E+04  0.50400001928E-02 0. -1.
    10030    2    1    2    0    0  0.00000000000E+00  0.00000000000E+00 -0.13378108111E+04  0.14282312418E+04  0.50010670219E+03 0.  0.
        3    1    3    3  502    0  0.12642800733E+03  0.95569952926E+02 -0.11654318251E+03  0.19672310624E+03  0.10100000352E+00 0.  1.
       -3    1    3    3    0  502 -0.12642800733E+03 -0.95569952926E+02 -0.12212676286E+04  0.12315081355E+04  0.10100000352E+00 0. -1.
</event>
<event>
 5   0  0.5118882E-03  0.4999653E+03  0.7818609E-02  0.1013788E+00
        2   -1    0    0  501    0  0.00000000000E+00  0.00000000000E+00  0.73010050456E+03  0.73010050457E+03  0.25500000920E-02 0. -1.
       -2   -1    0    0    0  501  0.00000000000E+00  0.00000000000E+00 -0.85592780657E+02  0.85592780695E+02  0.25500000920E-02 0.  1.
    10030    2    1    2    0    0  0.00000000000E+00  0.00000000000E+00  0.64450772391E+03  0.81569328526E+03  0.49996532825E+03 0.  0.
        3    1    3    3  502    0  0.63335889870E+02  0.19890129786E+03  0.97851999467E+02  0.23053890179E+03  0.10100000352E+00 0.  1.
       -3    1    3    3    0  502 -0.63335889870E+02 -0.19890129786E+03  0.54665572444E+03  0.58515438347E+03  0.10100000352E+00 0. -1.
</event>
<event>
 5   0  0.3211775E-03  0.4998854E+03  0.7818609E-02  0.1013809E+00
       -1   -1    0    0    0  501  0.00000000000E+00  0.00000000000E+00  0.57421739160E+02  0.57421739381E+02  0.50400001928E-02 0.  1.
        1   -1    0    0  501    0  0.00000000000E+00  0.00000000000E+00 -0.10879390190E+04  0.10879390190E+04  0.50400001928E-02 0. -1.
    10030    2    1    2    0    0  0.00000000000E+00  0.00000000000E+00 -0.10305172798E+04  0.11453607584E+04  0.49988538967E+03 0.  0.
        4    1    3    3  502    0  0.11873626227E+03 -0.20570878526E+03 -0.33696293179E+03  0.41226209456E+03  0.12699999809E+01 0.  1.
       -4    1    3    3    0  502 -0.11873626227E+03  0.20570878526E+03 -0.69355434802E+03  0.73309866380E+03  0.12699999809E+01 0. -1.
</event>
<event>
 5   0  0.2863538E-03  0.5000566E+03  0.7818609E-02  0.1013764E+00
        1   -1    0    0  501    0  0.00000000000E+00  0.00000000000E+00  0.45856392127E+03  0.45856392130E+03  0.50400001928E-02 0.  1.
       -1   -1    0    0    0  501  0.00000000000E+00  0.00000000000E+00 -0.13632592231E+03  0.13632592241E+03  0.50400001928E-02 0. -1.
    10030    2    1    2    0    0  0.00000000000E+00  0.00000000000E+00  0.32223799896E+03  0.59488984370E+03  0.50005659497E+03 0.  0.
        1    1    3    3  502    0  0.42314277022E+02  0.18442882419E+03 -0.33305763113E+02  0.19212954774E+03  0.50400001928E-02 0. -1.
       -1    1    3    3    0  502 -0.42314277022E+02 -0.18442882419E+03  0.35554376207E+03  0.40276029597E+03  0.50400001928E-02 0.  1.
</event>
<event>
 5   0  0.3055293E-03  0.4995614E+03  0.7818609E-02  0.1013893E+00
       -1   -1    0    0    0  501  0.00000000000E+00  0.00000000000E+00  0.45748673099E+02  0.45748673376E+02  0.50400001928E-02 0.  1.
        1   -1    0    0  501    0  0.00000000000E+00  0.00000000000E+00 -0.13637641429E+04  0.13637641429E+04  0.50400001928E-02 0. -1.
    10030    2    1    2    0    0  0.00000000000E+00  0.00000000000E+00 -0.13180154698E+04  0.14095128163E+04  0.49956140827E+03 0.  0.
        3    1    3    3  502    0 -0.21575810934E+03  0.60543126386E+02 -0.97031219722E+03  0.99585280146E+03  0.10100000352E+00 0. -1.
       -3    1    3    3    0  502  0.21575810934E+03 -0.60543126386E+02 -0.34770327257E+03  0.41366001482E+03  0.10100000352E+00 0.  1.
</event>
<event>
 5   0  0.5095783E-03  0.5000205E+03  0.7818609E-02  0.1013774E+00
        2   -1    0    0  501    0  0.00000000000E+00  0.00000000000E+00  0.24099167511E+04  0.24099167511E+04  0.25500000920E-02 0. -1.
       -2   -1    0    0    0  501  0.00000000000E+00  0.00000000000E+00 -0.25936632665E+02  0.25936632790E+02  0.25500000920E-02 0.  1.
    10030    2    1    2    0    0  0.00000000000E+00  0.00000000000E+00  0.23839801184E+04  0.24358533838E+04  0.50002050230E+03 0.  0.
        4    1    3    3  502    0  0.54149067432E+02 -0.31188713657E+02  0.12736603380E+02  0.63786294209E+02  0.12699999809E+01 0.  1.
       -4    1    3    3    0  502 -0.54149067432E+02  0.31188713657E+02  0.23712435150E+04  0.23720670896E+04  0.12699999809E+01 0. -1.
</event>
<event>
 5   0  0.5095783E-03  0.4999346E+03  0.7818609E-02  0.1013796E+00
        2   -1    0    0  501    0  0.00000000000E+00  0.00000000000E+00  0.40078255258E+03  0.40078255259E+03  0.25500000920E-02 0.  1.
       -2   -1    0    0    0  501  0.00000000000E+00  0.00000000000E+00 -0.15590411091E+03  0.15590411093E+03  0.25500000920E-02 0. -1.
    10030    2    1    2    0    0  0.00000000000E+00  0.00000000000E+00  0.24487844168E+03  0.55668666352E+03  0.49993458586E+03 0.  0.
        4    1    3    3  502    0  0.11676823398E+03 -0.10220228753E+03  0.34064890863E+03  0.37433062912E+03  0.12699999809E+01 0.  1.
       -4    1    3    3    0  502 -0.11676823398E+03  0.10220228753E+03 -0.95770466952E+02  0.18235603440E+03  0.12699999809E+01 0. -1.
</event>
<event>
 5   0  0.2005125E-03  0.5001960E+03  0.7818609E-02  0.1013728E+00
        4   -1    0    0  501    0  0.00000000000E+00  0.00000000000E+00  0.34546714918E+03  0.34546948354E+03  0.12699999809E+01 0. -1.
       -4   -1    0    0    0  501  0.00000000000E+00  0.00000000000E+00 -0.18105113635E+03  0.18105559056E+03  0.12699999809E+01 0.  1.
    10030    2    1    2    0    0  0.00000000000E+00  0.00000000000E+00  0.16441601283E+03  0.52652507410E+03  0.50019598997E+03 0.  0.
        1    1    3    3  502    0 -0.11894928998E+03  0.20502489168E+03  0.16618755352E+03  0.28948651569E+03  0.50400001928E-02 0. -1.
       -1    1    3    3    0  502  0.11894928998E+03 -0.20502489168E+03 -0.17715406887E+01  0.23703855842E+03  0.50400001928E-02 0.  1.
</event>
<event>
 5   0  0.3055293E-03  0.5001525E+03  0.7818609E-02  0.1013739E+00
        1   -1    0    0  501    0  0.00000000000E+00  0.00000000000E+00  0.18122701875E+04  0.18122701875E+04  0.50400001928E-02 0. -1.
       -1   -1    0    0    0  501  0.00000000000E+00  0.00000000000E+00 -0.34508177543E+02  0.34508177911E+02  0.50400001928E-02 0.  1.
    10030    2    1    2    0    0  0.00000000000E+00  0.00000000000E+00  0.17777620099E+04  0.18467783654E+04  0.50015254366E+03 0.  0.
        3    1    3    3  502    0  0.82046523151E+02 -0.17142857458E+03  0.28871917005E+03  0.34565612608E+03  0.10100000352E+00 0.  1.
       -3    1    3    3    0  502 -0.82046523151E+02  0.17142857458E+03  0.14890428399E+04  0.15011222393E+04  0.10100000352E+00 0. -1.
</event>
<event>
 5   0  0.3057783E-03  0.5000494E+03  0.7818609E-02  0.1013766E+00
        1   -1    0    0  501    0  0.00000000000E+00  0.00000000000E+00  0.42505579697E+03  0.42505579700E+03  0.50400001928E-02 0. -1.
       -1   -1    0    0    0  501  0.00000000000E+00  0.00000000000E+00 -0.14706856615E+03  0.14706856623E+03  0.50400001928E-02 0.  1.
    10030    2    1    2    0    0  0.00000000000E+00  0.00000000000E+00  0.27798723082E+03  0.57212436323E+03  0.50004938407E+03 0.  0.
        5    1    3    3  502    0  0.10964938834E+03 -0.18596617658E+03 -0.52031193547E+01  0.21599900381E+03  0.46999998093E+01 0.  1.
       -5    1    3    3    0  502 -0.10964938834E+03  0.18596617658E+03  0.28319035017E+03  0.35612535943E+03  0.46999998093E+01 0. -1.
</event>
<event>
 5   0  0.4989875E-03  0.4999389E+03  0.7818609E-02  0.1013795E+00
        2   -1    0    0  501    0  0.00000000000E+00  0.00000000000E+00  0.10415775036E+04  0.10415775036E+04  0.25500000920E-02 0. -1.
       -2   -1    0    0    0  501  0.00000000000E+00  0.00000000000E+00 -0.59990470928E+02  0.59990470982E+02  0.25500000920E-02 0.  1.
    10030    2    1    2    0    0  0.00000000000E+00  0.00000000000E+00  0.98158703263E+03  0.11015679745E+04  0.49993889618E+03 0.  0.
        2    1    3    3  502    0  0.98076749903E+02 -0.20076740079E+03  0.73771382299E+03  0.77081014701E+03  0.25500000920E-02 0. -1.
       -2    1    3    3    0  502 -0.98076749903E+02  0.20076740079E+03  0.24387320964E+03  0.33075782754E+03  0.25500000920E-02 0.  1.
</event>
<event>
 5   0  0.5118882E-03  0.5000114E+03  0.7818609E-02  0.1013776E+00
        2   -1    0    0  501    0  0.00000000000E+00  0.00000000000E+00  0.14047872842E+03  0.14047872844E+03  0.25500000920E-02 0.  1.
       -2   -1    0    0    0  501  0.00000000000E+00  0.00000000000E+00 -0.44492742204E+03  0.44492742204E+03  0.25500000920E-02 0. -1.
    10030    2    1    2    0    0  0.00000000000E+00  0.00000000000E+00 -0.30444869362E+03  0.58540615049E+03  0.50001135385E+03 0.  0.
        3    1    3    3  502    0  0.82770124272E+02  0.14591219544E+03 -0.36925140787E+03  0.40557104761E+03  0.10100000352E+00 0. -1.
       -3    1    3    3    0  502 -0.82770124272E+02 -0.14591219544E+03  0.64802714248E+02  0.17983510287E+03  0.10100000352E+00 0.  1.
</event>
<event>
 5   0  0.4978779E-03  0.4993545E+03  0.7818609E-02  0.1013948E+00
        2   -1    0    0  501    0  0.00000000000E+00  0.00000000000E+00  0.78167690718E+03  0.78167690718E+03  0.25500000920E-02 0.  1.
       -2   -1    0    0    0  501  0.00000000000E+00  0.00000000000E+00 -0.79750003954E+02  0.79750003995E+02  0.25500000920E-02 0. -1.
    10030    2    1    2    0    0  0.00000000000E+00  0.00000000000E+00  0.70192690322E+03  0.86142691117E+03  0.49935452920E+03 0.  0.
        1    1    3    3  502    0  0.30440315665E+02 -0.20786021291E+03  0.11819733642E+03  0.24104582820E+03  0.50400001928E-02 0. -1.
       -1    1    3    3    0  502 -0.30440315665E+02  0.20786021291E+03  0.58372956680E+03  0.62038108298E+03  0.50400001928E-02 0.  1.
</event>
<event>
 5   0  0.4989875E-03  0.5001286E+03  0.7818609E-02  0.1013745E+00
       -2   -1    0    0    0  501  0.00000000000E+00  0.00000000000E+00  0.10624572150E+04  0.10624572150E+04  0.25500000920E-02 0. -1.
        2   -1    0    0  501    0  0.00000000000E+00  0.00000000000E+00 -0.58856151452E+02  0.58856151507E+02  0.25500000920E-02 0.  1.
    10030    2    1    2    0    0  0.00000000000E+00  0.00000000000E+00  0.10036010635E+04  0.11213133665E+04  0.50012855463E+03 0.  0.
        2    1    3    3  502    0 -0.66266119424E+02 -0.19353396014E+01  0.10423959975E+04  0.10445019674E+04  0.25500000920E-02 0. -1.
       -2    1    3    3    0  502  0.66266119424E+02  0.19353396014E+01 -0.38794934022E+02  0.76811399122E+02  0.25500000920E-02 0.  1.
</event>
<event>
 5   0  0.5118882E-03  0.4999179E+03  0.7818609E-02  0.1013800E+00
       -2   -1    0    0    0  501  0.00000000000E+00  0.00000000000E+00  0.13041374306E+03  0.13041374308E+03  0.25500000920E-02 0. -1.
        2   -1    0    0  501    0  0.00000000000E+00  0.00000000000E+00 -0.47908662807E+03  0.47908662808E+03  0.25500000920E-02 0.  1.
    10030    2    1    2    0    0  0.00000000000E+00  0.00000000000E+00 -0.34867288501E+03  0.60950037116E+03  0.49991791497E+03 0.  0.
        3    1    3    3  502    0  0.23967552834E+03  0.40142234628E+01 -0.26071058668E+03  0.35416167648E+03  0.10100000352E+00 0.  1.
       -3    1    3    3    0  502 -0.23967552834E+03 -0.40142234628E+01 -0.87962298332E+02  0.25533869469E+03  0.10100000352E+00 0. -1.
</event>
<event>
 5   0  0.3055293E-03  0.4999224E+03  0.7818609E-02  0.1013799E+00
        1   -1    0    0  501    0  0.00000000000E+00  0.00000000000E+00  0.42283511187E+03  0.42283511190E+03  0.50400001928E-02 0.  1.
       -1   -1    0    0    0  501  0.00000000000E+00  0.00000000000E+00 -0.14776590572E+03  0.14776590581E+03  0.50400001928E-02 0. -1.
    10030    2    1    2    0    0  0.00000000000E+00  0.00000000000E+00  0.27506920614E+03  0.57060101770E+03  0.49992244722E+03 0.  0.
        3    1    3    3  502    0 -0.21588138033E+03 -0.70779585438E+00 -0.62761330139E+01  0.21597377479E+03  0.10100000352E+00 0. -1.
       -3    1    3    3    0  502  0.21588138033E+03  0.70779585438E+00  0.28134533916E+03  0.35462724291E+03  0.10100000352E+00 0.  1.
</event>
<event>
 5   0  0.4889251E-03  0.5005048E+03  0.7818609E-02  0.1013647E+00
       -2   -1    0    0    0  501  0.00000000000E+00  0.00000000000E+00  0.48552196150E+02  0.48552196216E+02  0.25500000920E-02 0.  1.
        2   -1    0    0  501    0  0.00000000000E+00  0.00000000000E+00 -0.12898747681E+04  0.12898747681E+04  0.25500000920E-02 0. -1.
    10030    2    1    2    0    0  0.00000000000E+00  0.00000000000E+00 -0.12413225719E+04  0.13384269643E+04  0.50050475640E+03 0.  0.
        5    1    3    3  502    0  0.65791486808E+02 -0.23563566874E+03 -0.48038985457E+03  0.53911890200E+03  0.46999998093E+01 0. -1.
       -5    1    3    3    0  502 -0.65791486808E+02  0.23563566874E+03 -0.76093271737E+03  0.79930806232E+03  0.46999998093E+01 0.  1.
</event>
<event>
 5   0  0.3057783E-03  0.4999217E+03  0.7818609E-02  0.1013799E+00
       -1   -1    0    0    0  501  0.00000000000E+00  0.00000000000E+00  0.13563884955E+03  0.13563884964E+03  0.50400001928E-02 0. -1.
        1   -1    0    0  501    0  0.00000000000E+00  0.00000000000E+00 -0.46063807039E+03  0.46063807041E+03  0.50400001928E-02 0.  1.
    10030    2    1    2    0    0  0.00000000000E+00  0.00000000000E+00 -0.32499922084E+03  0.59627692005E+03  0.49992166570E+03 0.  0.
        5    1    3    3  502    0  0.47141997561E+02  0.24507982280E+03 -0.17813500280E+03  0.30666049093E+03  0.46999998093E+01 0. -1.
       -5    1    3    3    0  502 -0.47141997561E+02 -0.24507982280E+03 -0.14686421804E+03  0.28961642912E+03  0.46999998093E+01 0.  1.
</event>
<event>
 5   0  0.3055293E-03  0.4996695E+03  0.7818609E-02  0.1013865E+00
        1   -1    0    0  501    0  0.00000000000E+00  0.00000000000E+00  0.12654187031E+03  0.12654187041E+03  0.50400001928E-02 0. -1.
       -1   -1    0    0    0  501  0.00000000000E+00  0.00000000000E+00 -0.49325489749E+03  0.49325489751E+03  0.50400001928E-02 0.  1.
    10030    2    1    2    0    0  0.00000000000E+00  0.00000000000E+00 -0.36671302717E+03  0.61979676792E+03  0.49966947999E+03 0.  0.
        3    1    3    3  502    0 -0.24572649752E+03  0.43631177039E+02 -0.16909467547E+03  0.30146013114E+03  0.10100000352E+00 0.  1.
       -3    1    3    3    0  502  0.24572649752E+03 -0.43631177039E+02 -0.19761835170E+03  0.31833663679E+03  0.10100000352E+00 0. -1.
</event>
<event>
 5   0  0.2005125E-03  0.4985757E+03  0.7818609E-02  0.1014151E+00
        3   -1    0    0  501    0  0.00000000000E+00  0.00000000000E+00  0.47032493985E+03  0.47032495070E+03  0.10100000352E+00 0. -1.
       -3   -1    0    0    0  501  0.00000000000E+00  0.00000000000E+00 -0.13213078885E+03  0.13213082745E+03  0.10100000352E+00 0.  1.
    10030    2    1    2    0    0  0.00000000000E+00  0.00000000000E+00  0.33819415100E+03  0.60245577815E+03  0.49857565208E+03 0.  0.
        3    1    3    3  502    0 -0.11482178814E+03 -0.17580271853E+03  0.67374374580E+01  0.21008579709E+03  0.10100000352E+00 0.  1.
       -3    1    3    3    0  502  0.11482178814E+03  0.17580271853E+03  0.33145671355E+03  0.39236998105E+03  0.10100000352E+00 0. -1.
</event>
<event>
 5   0  0.5118882E-03  0.4990998E+03  0.7818609E-02  0.1014014E+00
       -2   -1    0    0    0  501  0.00000000000E+00  0.00000000000E+00  0.32261585800E+02  0.32261585900E+02  0.25500000920E-02 0. -1.
        2   -1    0    0  501    0  0.00000000000E+00  0.00000000000E+00 -0.19303190885E+04  0.19303190885E+04  0.25500000920E-02 0.  1.
    10030    2    1    2    0    0  0.00000000000E+00  0.00000000000E+00 -0.18980575027E+04  0.19625806744E+04  0.49909980963E+03 0.  0.
        3    1    3    3  502    0  0.24219816520E+02 -0.97761529109E+02 -0.18468483767E+04  0.18495926181E+04  0.10100000352E+00 0.  1.
       -3    1    3    3    0  502 -0.24219816520E+02  0.97761529109E+02 -0.51209125986E+02  0.11298805632E+03  0.10100000352E+00 0. -1.
</event>
<event>
 5   0  0.2863538E-03  0.5000488E+03  0.7818609E-02  0.1013766E+00
        1   -1    0    0  501    0  0.00000000000E+00  0.00000000000E+00  0.35696318843E+03  0.35696318847E+03  0.50400001928E-02 0. -1.
       -1   -1    0    0    0  501  0.00000000000E+00  0.00000000000E+00 -0.17512224840E+03  0.17512224847E+03  0.50400001928E-02 0.  1.
    10030    2    1    2    0    0  0.00000000000E+00  0.00000000000E+00  0.18184094003E+03  0.53208543693E+03  0.50004878234E+03 0.  0.
        1    1    3    3  502    0  0.14628453544E+02 -0.14898141012E+03  0.30400702254E+03  0.33886534493E+03  0.50400001928E-02 0. -1.
       -1    1    3    3    0  502 -0.14628453544E+02  0.14898141012E+03 -0.12216608250E+03  0.19322009201E+03  0.50400001928E-02 0.  1.
</event>
<event>
 5   0  0.3055293E-03  0.5001794E+03  0.7818609E-02  0.1013732E+00
        1   -1    0    0  501    0  0.00000000000E+00  0.00000000000E+00  0.68860473353E+02  0.68860473537E+02  0.50400001928E-02 0.  1.
       -1   -1    0    0    0  501  0.00000000000E+00  0.00000000000E+00 -0.90828381137E+03  0.90828381138E+03  0.50400001928E-02 0. -1.
    10030    2    1    2    0    0  0.00000000000E+00  0.00000000000E+00 -0.83942333801E+03  0.97714428492E+03  0.50017938097E+03 0.  0.
        3    1    3    3  502    0  0.20906396704E+03  0.97983446967E+02 -0.23196035625E+03  0.32728292847E+03  0.10100000352E+00 0.  1.
       -3    1    3    3    0  502 -0.20906396704E+03 -0.97983446967E+02 -0.60746298176E+03  0.64986135645E+03  0.10100000352E+00 0. -1.
</event>
<event>
 5   0  0.3013734E-03  0.5000419E+03  0.7818609E-02  0.1013768E+00
        1   -1    0    0  501    0  0.00000000000E+00  0.00000000000E+00  0.88524225385E+03  0.88524225386E+03  0.50400001928E-02 0. -1.
       -1   -1    0    0    0  501  0.00000000000E+00  0.00000000000E+00 -0.70613975150E+02  0.70613975330E+02  0.50400001928E-02 0.  1.
    10030    2    1    2    0    0  0.00000000000E+00  0.00000000000E+00  0.81462827870E+03  0.95585622919E+03  0.50004189668E+03 0.  0.
        2    1    3    3  502    0 -0.58168338260E+02 -0.21059080919E+03  0.63969498724E+03  0.67597464538E+03  0.25500000920E-02 0. -1.
       -2    1    3    3    0  502  0.58168338260E+02  0.21059080919E+03  0.17493329146E+03  0.27988158381E+03  0.25500000920E-02 0.  1.
</event>
<event>
 5   0  0.3057783E-03  0.4999963E+03  0.7818609E-02  0.1013780E+00
        1   -1    0    0  501    0  0.00000000000E+00  0.00000000000E+00  0.81693976834E+02  0.81693976989E+02  0.50400001928E-02 0.  1.
       -1   -1    0    0    0  501  0.00000000000E+00  0.00000000000E+00 -0.76503886610E+03  0.76503886612E+03  0.50400001928E-02 0. -1.
    10030    2    1    2    0    0  0.00000000000E+00  0.00000000000E+00 -0.68334488927E+03  0.84673284311E+03  0.49999626989E+03 0.  0.
        5    1    3    3  502    0 -0.55686546236E+01 -0.19229233066E+03 -0.71406742940E+02  0.20525195074E+03  0.46999998093E+01 0.  1.
       -5    1    3    3    0  502  0.55686546236E+01  0.19229233066E+03 -0.61193814633E+03  0.64148089237E+03  0.46999998093E+01 0. -1.
</event>
<event>
 5   0  0.5095783E-03  0.4996882E+03  0.7818609E-02  0.1013860E+00
       -2   -1    0    0    0  501  0.00000000000E+00  0.00000000000E+00  0.82296238196E+02  0.82296238235E+02  0.25500000920E-02 0.  1.
        2   -1    0    0  501    0  0.00000000000E+00  0.00000000000E+00 -0.75850463625E+03  0.75850463626E+03  0.25500000920E-02 0. -1.
    10030    2    1    2    0    0  0.00000000000E+00  0.00000000000E+00 -0.67620839806E+03  0.84080087449E+03  0.49968821574E+03 0.  0.
        4    1    3    3  502    0 -0.95184328776E+01  0.24965694766E+03 -0.33620551628E+03  0.41887343453E+03  0.12699999809E+01 0. -1.
       -4    1    3    3    0  502  0.95184328776E+01 -0.24965694766E+03 -0.34000288178E+03  0.42192743996E+03  0.12699999809E+01 0.  1.
</event>
<event>
 5   0  0.4978779E-03  0.4998996E+03  0.7818609E-02  0.1013805E+00
        2   -1    0    0  501    0  0.00000000000E+00  0.00000000000E+00  0.25368805518E+03  0.25368805519E+03  0.25500000920E-02 0.  1.
       -2   -1    0    0    0  501  0.00000000000E+00  0.00000000000E+00 -0.24626658923E+03  0.24626658924E+03  0.25500000920E-02 0. -1.
    10030    2    1    2    0    0  0.00000000000E+00  0.00000000000E+00  0.74214659484E+01  0.49995464443E+03  0.49989955824E+03 0.  0.
        1    1    3    3  502    0  0.71652949636E+02 -0.38306439097E+02 -0.23269078594E+03  0.24646811224E+03  0.50400001928E-02 0. -1.
       -1    1    3    3    0  502 -0.71652949636E+02  0.38306439097E+02  0.24011225189E+03  0.25348653218E+03  0.50400001928E-02 0.  1.
</event>
<event>
 5   0  0.3211775E-03  0.4998891E+03  0.7818609E-02  0.1013808E+00
       -1   -1    0    0    0  501  0.00000000000E+00  0.00000000000E+00  0.10239226728E+03  0.10239226740E+03  0.50400001928E-02 0.  1.
        1   -1    0    0  501    0  0.00000000000E+00  0.00000000000E+00 -0.61012696370E+03  0.61012696373E+03  0.50400001928E-02 0. -1.
    10030    2    1    2    0    0  0.00000000000E+00  0.00000000000E+00 -0.50773469642E+03  0.71251923113E+03  0.49988912048E+03 0.  0.
        4    1    3    3  502    0 -0.12203584754E+03  0.37426089352E+02 -0.56016012187E+03  0.57452104860E+03  0.12699999809E+01 0. -1.
       -4    1    3    3    0  502  0.12203584754E+03 -0.37426089352E+02  0.52425425442E+02  0.13799818253E+03  0.12699999809E+01 0.  1.
</event>
<event>
 5   0  0.4989875E-03  0.5007725E+03  0.7818609E-02  0.1013577E+00
        2   -1    0    0  501    0  0.00000000000E+00  0.00000000000E+00  0.77823326938E+03  0.77823326938E+03  0.25500000920E-02 0. -1.
       -2   -1    0    0    0  501  0.00000000000E+00  0.00000000000E+00 -0.80558457506E+02  0.80558457546E+02  0.25500000920E-02 0.  1.
    10030    2    1    2    0    0  0.00000000000E+00  0.00000000000E+00  0.69767481187E+03  0.85879172693E+03  0.50077249038E+03 0.  0.
        2    1    3    3  502    0 -0.11249936489E+03 -0.33495702199E+02 -0.30450781515E+02  0.12126549084E+03  0.25500000920E-02 0.  1.
       -2    1    3    3    0  502  0.11249936489E+03  0.33495702199E+02  0.72812559339E+03  0.73752623609E+03  0.25500000920E-02 0. -1.
</event>
<event>
 5   0  0.3055293E-03  0.5000714E+03  0.7818609E-02  0.1013760E+00
        1   -1    0    0  501    0  0.00000000000E+00  0.00000000000E+00  0.76207821893E+02  0.76207822060E+02  0.50400001928E-02 0.  1.
       -1   -1    0    0    0  501  0.00000000000E+00  0.00000000000E+00 -0.82035996388E+03  0.82035996389E+03  0.50400001928E-02 0. -1.
    10030    2    1    2    0    0  0.00000000000E+00  0.00000000000E+00 -0.74415214198E+03  0.89656778595E+03  0.50007137929E+03 0.  0.
        3    1    3    3  502    0  0.54548555003E+02  0.17372211805E+03 -0.64855191493E+02  0.19329026157E+03  0.10100000352E+00 0.  1.
       -3    1    3    3    0  502 -0.54548555003E+02 -0.17372211805E+03 -0.67929695049E+03  0.70327752438E+03  0.10100000352E+00 0. -1.
</event>
<event>
 5   0  0.4989875E-03  0.5002235E+03  0.7818609E-02  0.1013721E+00
       -2   -1    0    0    0  501  0.00000000000E+00  0.00000000000E+00  0.21840122308E+03  0.21840122309E+03  0.25500000920E-02 0.  1.
        2   -1    0    0  501    0  0.00000000000E+00  0.00000000000E+00 -0.28642648698E+03  0.28642648699E+03  0.25500000920E-02 0. -1.
    10030    2    1    2    0    0  0.00000000000E+00  0.00000000000E+00 -0.68025263903E+02  0.50482771009E+03  0.50022353038E+03 0.  0.
        2    1    3    3  502    0 -0.21880850788E+03  0.99557129891E+02  0.35667128363E+02  0.24302454461E+03  0.25500000920E-02 0. -1.
       -2    1    3    3    0  502  0.21880850788E+03 -0.99557129891E+02 -0.10369239227E+03  0.26180316548E+03  0.25500000920E-02 0.  1.
</event>
<event>
 5   0  0.3013734E-03  0.5000150E+03  0.7818609E-02  0.1013775E+00
       -1   -1    0    0    0  501  0.00000000000E+00  0.00000000000E+00  0.32434952489E+03  0.32434952492E+03  0.50400001928E-02 0. -1.
        1   -1    0    0  501    0  0.00000000000E+00  0.00000000000E+00 -0.19270489663E+03  0.19270489670E+03  0.50400001928E-02 0.  1.
    10030    2    1    2    0    0  0.00000000000E+00  0.00000000000E+00  0.13164462825E+03  0.51705442162E+03  0.50001496655E+03 0.  0.
        2    1    3    3  502    0 -0.10089761390E+03 -0.19396432881E+03  0.19120293572E+03  0.29044974088E+03  0.25500000920E-02 0. -1.
       -2    1    3    3    0  502  0.10089761390E+03  0.19396432881E+03 -0.59558307465E+02  0.22660468075E+03  0.25500000920E-02 0.  1.
</event>
<event>
 5   0  0.3013734E-03  0.4995335E+03  0.7818609E-02  0.1013901E+00
       -1   -1    0    0    0  501  0.00000000000E+00  0.00000000000E+00  0.66640011983E+02  0.66640012174E+02  0.50400001928E-02 0. -1.
        1   -1    0    0  501    0  0.00000000000E+00  0.00000000000E+00 -0.93612578840E+03  0.93612578841E+03  0.50400001928E-02 0.  1.
    10030    2    1    2    0    0  0.00000000000E+00  0.00000000000E+00 -0.86948577641E+03  0.10027658006E+04  0.49953351783E+03 0.  0.
        2    1    3    3  502    0  0.12301376782E+03 -0.20752887476E+03 -0.30491466896E+03  0.38881046319E+03  0.25500000920E-02 0. -1.
       -2    1    3    3    0  502 -0.12301376782E+03  0.20752887476E+03 -0.56457110746E+03  0.61395533740E+03  0.25500000920E-02 0.  1.
</event>
<event>
 5   0  0.3013734E-03  0.4999242E+03  0.7818609E-02  0.1013799E+00
       -1   -1    0    0    0  501  0.00000000000E+00  0.00000000000E+00  0.39906830025E+03  0.39906830028E+03  0.50400001928E-02 0.  1.
        1   -1    0    0  501    0  0.00000000000E+00  0.00000000000E+00 -0.15656733559E+03  0.15656733567E+03  0.50400001928E-02 0. -1.
    10030    2    1    2    0    0  0.00000000000E+00  0.00000000000E+00  0.24250096466E+03  0.55563563595E+03  0.49992423634E+03 0.  0.
        2    1    3    3  502    0 -0.23440768069E+02 -0.85394371729E+02  0.38105029258E+03  0.39120454217E+03  0.25500000920E-02 0.  1.
       -2    1    3    3    0  502  0.23440768069E+02  0.85394371729E+02 -0.13854932792E+03  0.16443109378E+03  0.25500000920E-02 0. -1.
</event>
<event>
 5   0  0.4989875E-03  0.5000749E+03  0.7818609E-02  0.1013759E+00
        2   -1    0    0  501    0  0.00000000000E+00  0.00000000000E+00  0.99138099393E+03  0.99138099394E+03  0.25500000920E-02 0.  1.
       -2   -1    0    0    0  501  0.00000000000E+00  0.00000000000E+00 -0.63062251486E+02  0.63062251538E+02  0.25500000920E-02 0. -1.
    10030    2    1    2    0    0  0.00000000000E+00  0.00000000000E+00  0.92831874245E+03  0.10544432455E+04  0.50007486474E+03 0.  0.
        2    1    3    3  502    0  0.12792167218E+03 -0.33135910494E+02  0.91173685840E+03  0.92126328579E+03  0.25500000920E-02 0.  1.
       -2    1    3    3    0  502 -0.12792167218E+03  0.33135910494E+02  0.16581884050E+02  0.13317995968E+03  0.25500000920E-02 0. -1.
</event>
<event>
 5   0  0.3057783E-03  0.4998910E+03  0.7818609E-02  0.1013807E+00
       -1   -1    0    0    0  501  0.00000000000E+00  0.00000000000E+00  0.67051691754E+02  0.67051691944E+02  0.50400001928E-02 0. -1.
        1   -1    0    0  501    0  0.00000000000E+00  0.00000000000E+00 -0.93171050126E+03  0.93171050128E+03  0.50400001928E-02 0.  1.
    10030    2    1    2    0    0  0.00000000000E+00  0.00000000000E+00 -0.86465880951E+03  0.99876219322E+03  0.49989104988E+03 0.  0.
        5    1    3    3  502    0  0.27963938115E+02  0.22022442564E+03 -0.66161559868E+03  0.69788112877E+03  0.46999998093E+01 0.  1.
       -5    1    3    3    0  502 -0.27963938115E+02 -0.22022442564E+03 -0.20304321083E+03  0.30088106445E+03  0.46999998093E+01 0. -1.
</event>
<event>
 5   0  0.4889251E-03  0.4994739E+03  0.7818609E-02  0.1013916E+00
       -2   -1    0    0    0  501  0.00000000000E+00  0.00000000000E+00  0.20535009814E+03  0.20535009816E+03  0.25500000920E-02 0. -1.
        2   -1    0    0  501    0  0.00000000000E+00  0.00000000000E+00 -0.30371815107E+03  0.30371815108E+03  0.25500000920E-02 0.  1.
    10030    2    1    2    0    0  0.00000000000E+00  0.00000000000E+00 -0.98368052928E+02  0.50906824924E+03  0.49947393180E+03 0.  0.
        5    1    3    3  502    0  0.22798895199E+03  0.82668202740E+02  0.11400787069E+02  0.24282722647E+03  0.46999998093E+01 0. -1.
       -5    1    3    3    0  502 -0.22798895199E+03 -0.82668202740E+02 -0.10976884000E+03  0.26624102277E+03  0.46999998093E+01 0.  1.
</event>
<event>
 5   0  0.4889251E-03  0.4997860E+03  0.7818609E-02  0.1013835E+00
       -2   -1    0    0    0  501  0.00000000000E+00  0.00000000000E+00  0.30100506583E+03  0.30100506584E+03  0.25500000920E-02 0. -1.
        2   -1    0    0  501    0  0.00000000000E+00  0.00000000000E+00 -0.20746002954E+03  0.20746002956E+03  0.25500000920E-02 0.  1.
    10030    2    1    2    0    0  0.00000000000E+00  0.00000000000E+00  0.93545036286E+02  0.50846509540E+03  0.49978603364E+03 0.  0.
        5    1    3    3  502    0  0.78831728035E+02 -0.31537456827E+02 -0.19228755702E+03  0.21025139027E+03  0.46999998093E+01 0.  1.
       -5    1    3    3    0  502 -0.78831728035E+02  0.31537456827E+02  0.28583259331E+03  0.29821370512E+03  0.46999998093E+01 0. -1.
</event>
<event>
 5   0  0.5095783E-03  0.5004030E+03  0.7818609E-02  0.1013674E+00
       -2   -1    0    0    0  501  0.00000000000E+00  0.00000000000E+00  0.71149047338E+02  0.71149047383E+02  0.25500000920E-02 0.  1.
        2   -1    0    0  501    0  0.00000000000E+00  0.00000000000E+00 -0.87985432397E+03  0.87985432397E+03  0.25500000920E-02 0. -1.
    10030    2    1    2    0    0  0.00000000000E+00  0.00000000000E+00 -0.80870527663E+03  0.95100337135E+03  0.50040302545E+03 0.  0.
        4    1    3    3  502    0  0.14506420664E+03  0.79938845873E+02 -0.47967532156E+02  0.17244228069E+03  0.12699999809E+01 0.  1.
       -4    1    3    3    0  502 -0.14506420664E+03 -0.79938845873E+02 -0.76073774447E+03  0.77856109066E+03  0.12699999809E+01 0. -1.
</event>
<event>
 5   0  0.3211775E-03  0.4998802E+03  0.7818609E-02  0.1013810E+00
       -1   -1    0    0    0  501  0.00000000000E+00  0.00000000000E+00  0.49029070111E+03  0.49029070113E+03  0.50400001928E-02 0.  1.
        1   -1    0    0  501    0  0.00000000000E+00  0.00000000000E+00 -0.12741430644E+03  0.12741430654E+03  0.50400001928E-02 0. -1.
    10030    2    1    2    0    0  0.00000000000E+00  0.00000000000E+00  0.36287639466E+03  0.61770500767E+03  0.49988018434E+03 0.  0.
        4    1    3    3  502    0  0.67338549279E+02 -0.15954399033E+03 -0.41262212506E+02  0.17802513348E+03  0.12699999809E+01 0. -1.
       -4    1    3    3    0  502 -0.67338549279E+02  0.15954399033E+03  0.40413860717E+03  0.43967987420E+03  0.12699999809E+01 0.  1.
</event>
<event>
 5   0  0.2005125E-03  0.5000114E+03  0.7818609E-02  0.1013776E+00
       -4   -1    0    0    0  501  0.00000000000E+00  0.00000000000E+00  0.30934680098E+03  0.30934940791E+03  0.12699999809E+01 0.  1.
        4   -1    0    0  501    0  0.00000000000E+00  0.00000000000E+00 -0.20204238624E+03  0.20204637769E+03  0.12699999809E+01 0. -1.
    10030    2    1    2    0    0  0.00000000000E+00  0.00000000000E+00  0.10730441474E+03  0.51139578560E+03  0.50001141198E+03 0.  0.
        5    1    3    3  502    0 -0.74794590002E+02  0.47500130731E+02  0.29270504391E+03  0.30585752540E+03  0.46999998093E+01 0.  1.
       -5    1    3    3    0  502  0.74794590002E+02 -0.47500130731E+02 -0.18540062917E+03  0.20553826021E+03  0.46999998093E+01 0. -1.
</event>
<event>
 5   0  0.2005125E-03  0.5001779E+03  0.7818609E-02  0.1013732E+00
        3   -1    0    0  501    0  0.00000000000E+00  0.00000000000E+00  0.13439999642E+03  0.13440003437E+03  0.10100000352E+00 0.  1.
       -3   -1    0    0    0  501  0.00000000000E+00  0.00000000000E+00 -0.46536072061E+03  0.46536073157E+03  0.10100000352E+00 0. -1.
    10030    2    1    2    0    0  0.00000000000E+00  0.00000000000E+00 -0.33096072419E+03  0.59976076594E+03  0.50017794374E+03 0.  0.
        4    1    3    3  502    0 -0.71283282072E+02 -0.19344004197E+03  0.42774348982E+01  0.20620442645E+03  0.12699999809E+01 0.  1.
       -4    1    3    3    0  502  0.71283282072E+02  0.19344004197E+03 -0.33523815909E+03  0.39355633948E+03  0.12699999809E+01 0. -1.
</event>
<event>
 5   0  0.4989875E-03  0.4998301E+03  0.7818609E-02  0.1013823E+00
        2   -1    0    0  501    0  0.00000000000E+00  0.00000000000E+00  0.22579590649E+03  0.22579590650E+03  0.25500000920E-02 0. -1.
       -2   -1    0    0    0  501  0.00000000000E+00  0.00000000000E+00 -0.27661060664E+03  0.27661060665E+03  0.25500000920E-02 0.  1.
    10030    2    1    2    0    0  0.00000000000E+00  0.00000000000E+00 -0.50814700154E+02  0.50240651316E+03  0.49983014186E+03 0.  0.
        2    1    3    3  502    0 -0.14547223360E+03  0.13022298996E+03  0.13140108338E+03  0.23534324418E+03  0.25500000920E-02 0. -1.
       -2    1    3    3    0  502  0.14547223360E+03 -0.13022298996E+03 -0.18221578354E+03  0.26706326898E+03  0.25500000920E-02 0.  1.
</event>
<event>
 5   0  0.3013734E-03  0.5000016E+03  0.7818609E-02  0.1013779E+00
        1   -1    0    0  501    0  0.00000000000E+00  0.00000000000E+00  0.64510493300E+03  0.64510493302E+03  0.50400001928E-02 0. -1.
       -1   -1    0    0    0  501  0.00000000000E+00  0.00000000000E+00 -0.96884075105E+02  0.96884075236E+02  0.50400001928E-02 0.  1.
    10030    2    1    2    0    0  0.00000000000E+00  0.00000000000E+00  0.54822085790E+03  0.74198900826E+03  0.50000157934E+03 0.  0.
        2    1    3    3  502    0  0.13786946146E+03 -0.12724932970E+03  0.28917729755E+02  0.18983312518E+03  0.25500000920E-02 0. -1.
       -2    1    3    3    0  502 -0.13786946146E+03  0.12724932970E+03  0.51930312814E+03  0.55215588308E+03  0.25500000920E-02 0.  1.
</event>
<event>
 5   0  0.5118882E-03  0.5002381E+03  0.7818609E-02  0.1013717E+00
       -2   -1    0    0    0  501  0.00000000000E+00  0.00000000000E+00  0.19149751837E+03  0.19149751839E+03  0.25500000920E-02 0. -1.
        2   -1    0    0  501    0  0.00000000000E+00  0.00000000000E+00 -0.32668592999E+03  0.32668593000E+03  0.25500000920E-02 0.  1.
    10030    2    1    2    0    0  0.00000000000E+00  0.00000000000E+00 -0.13518841162E+03  0.51818344839E+03  0.50023812285E+03 0.  0.
        3    1    3    3  502    0 -0.21432749581E+03  0.67591153132E+01  0.65778583222E+02  0.22429621778E+03  0.10100000352E+00 0. -1.
       -3    1    3    3    0  502  0.21432749581E+03 -0.67591153132E+01 -0.20096699484E+03  0.29388723061E+03  0.10100000352E+00 0.  1.
</event>
<event>
 5   0  0.4889251E-03  0.4989238E+03  0.7818609E-02  0.1014060E+00
       -2   -1    0    0    0  501  0.00000000000E+00  0.00000000000E+00  0.31357667075E+02  0.31357667179E+02  0.25500000920E-02 0. -1.
        2   -1    0    0  501    0  0.00000000000E+00  0.00000000000E+00 -0.19845624480E+04  0.19845624480E+04  0.25500000920E-02 0.  1.
    10030    2    1    2    0    0  0.00000000000E+00  0.00000000000E+00 -0.19532047810E+04  0.20159201152E+04  0.49892383644E+03 0.  0.
        5    1    3    3  502    0 -0.17266627236E+02 -0.18871675754E+03 -0.32137471698E+03  0.37311653636E+03  0.46999998093E+01 0. -1.
       -5    1    3    3    0  502  0.17266627236E+02  0.18871675754E+03 -0.16318300640E+04  0.16428035788E+04  0.46999998093E+01 0.  1.
</event>
<event>
 5   0  0.3057783E-03  0.4999274E+03  0.7818609E-02  0.1013798E+00
       -1   -1    0    0    0  501  0.00000000000E+00  0.00000000000E+00  0.45536133548E+02  0.45536133827E+02  0.50400001928E-02 0.  1.
        1   -1    0    0  501    0  0.00000000000E+00  0.00000000000E+00 -0.13721377715E+04  0.13721377715E+04  0.50400001928E-02 0. -1.
    10030    2    1    2    0    0  0.00000000000E+00  0.00000000000E+00 -0.13266016379E+04  0.14176739053E+04  0.49992739078E+03 0.  0.
        5    1    3    3  502    0 -0.33609269628E+02 -0.56240788371E+02  0.20623906831E+02  0.68847983360E+02  0.46999998093E+01 0.  1.
       -5    1    3    3    0  502  0.33609269628E+02  0.56240788371E+02 -0.13472255447E+04  0.13488259219E+04  0.46999998093E+01 0. -1.
</event>
<event>
 5   0  0.3055293E-03  0.5000951E+03  0.7818609E-02  0.1013754E+00
        1   -1    0    0  501    0  0.00000000000E+00  0.00000000000E+00  0.15608569197E+03  0.15608569205E+03  0.50400001928E-02 0. -1.
       -1   -1    0    0    0  501  0.00000000000E+00  0.00000000000E+00 -0.40057346351E+03  0.40057346355E+03  0.50400001928E-02 0.  1.
    10030    2    1    2    0    0  0.00000000000E+00  0.00000000000E+00 -0.24448777154E+03  0.55665915560E+03  0.50009513603E+03 0.  0.
        3    1    3    3  502    0 -0.20474961972E+03 -0.12489179798E+03 -0.20097922248E+03  0.31291057197E+03  0.10100000352E+00 0.  1.
       -3    1    3    3    0  502  0.20474961972E+03  0.12489179798E+03 -0.43508549062E+02  0.24374858363E+03  0.10100000352E+00 0. -1.
</event>
<event>
 5   0  0.5118882E-03  0.4998856E+03  0.7818609E-02  0.1013809E+00
       -2   -1    0    0    0  501  0.00000000000E+00  0.00000000000E+00  0.98632326328E+02  0.98632326361E+02  0.25500000920E-02 0.  1.
        2   -1    0    0  501    0  0.00000000000E+00  0.00000000000E+00 -0.63337667561E+03  0.63337667561E+03  0.25500000920E-02 0. -1.
    10030    2    1    2    0    0  0.00000000000E+00  0.00000000000E+00 -0.53474434928E+03  0.73200900197E+03  0.49988564681E+03 0.  0.
        3    1    3    3  502    0  0.12920390672E+03  0.75107445258E+02  0.25998156228E+02  0.15169275584E+03  0.10100000352E+00 0.  1.
       -3    1    3    3    0  502 -0.12920390672E+03 -0.75107445258E+02 -0.56074250551E+03  0.58031624613E+03  0.10100000352E+00 0. -1.
</event>
<event>
 5   0  0.4978779E-03  0.5000197E+03  0.7818609E-02  0.1013774E+00
        2   -1    0    0  501    0  0.00000000000E+00  0.00000000000E+00  0.13166343500E+04  0.13166343500E+04  0.25500000920E-02 0.  1.
       -2   -1    0    0    0  501  0.00000000000E+00  0.00000000000E+00 -0.47473250710E+02  0.47473250778E+02  0.25500000920E-02 0. -1.
    10030    2    1    2    0    0  0.00000000000E+00  0.00000000000E+00  0.12691610993E+04  0.13641076008E+04  0.50001965016E+03 0.  0.
        1    1    3    3  502    0 -0.12615949705E+03  0.12254969315E+03  0.11193114232E+04  0.11330457661E+04  0.50400001928E-02 0.  1.
       -1    1    3    3    0  502  0.12615949705E+03 -0.12254969315E+03  0.14984967609E+03  0.23106183466E+03  0.50400001928E-02 0. -1.
</event>
<event>
 5   0  0.4978779E-03  0.4998581E+03  0.7818609E-02  0.1013816E+00
       -2   -1    0    0    0  501  0.00000000000E+00  0.00000000000E+00  0.46332624066E+02  0.46332624136E+02  0.25500000920E-02 0.  1.
        2   -1    0    0  501    0  0.00000000000E+00  0.00000000000E+00 -0.13481757483E+04  0.13481757483E+04  0.25500000920E-02 0. -1.
    10030    2    1    2    0    0  0.00000000000E+00  0.00000000000E+00 -0.13018431243E+04  0.13945083725E+04  0.49985806055E+03 0.  0.
        1    1    3    3  502    0 -0.64138283599E+02  0.22685264309E+03 -0.41937283298E+03  0.48109189784E+03  0.50400001928E-02 0.  1.
       -1    1    3    3    0  502  0.64138283599E+02 -0.22685264309E+03 -0.88247029130E+03  0.91341647464E+03  0.50400001928E-02 0. -1.
</event>
<event>
 5   0  0.4989875E-03  0.5004648E+03  0.7818609E-02  0.1013658E+00
        2   -1    0    0  501    0  0.00000000000E+00  0.00000000000E+00  0.70770041652E+03  0.70770041652E+03  0.25500000920E-02 0.  1.
       -2   -1    0    0    0  501  0.00000000000E+00  0.00000000000E+00 -0.88478480588E+02  0.88478480625E+02  0.25500000920E-02 0. -1.
    10030    2    1    2    0    0  0.00000000000E+00  0.00000000000E+00  0.61922193593E+03  0.79617889715E+03  0.50046481427E+03 0.  0.
        2    1    3    3  502    0 -0.12942495224E+03 -0.74658666265E+02  0.62894408058E+03  0.64644828967E+03  0.25500000920E-02 0.  1.
       -2    1    3    3    0  502  0.12942495224E+03  0.74658666265E+02 -0.97221446546E+01  0.14973060748E+03  0.25500000920E-02 0. -1.
</event>
<event>
 5   0  0.2863538E-03  0.4999607E+03  0.7818609E-02  0.1013789E+00
       -1   -1    0    0    0  501  0.00000000000E+00  0.00000000000E+00  0.85926353298E+02  0.85926353446E+02  0.50400001928E-02 0. -1.
        1   -1    0    0  501    0  0.00000000000E+00  0.00000000000E+00 -0.72725263392E+03  0.72725263394E+03  0.50400001928E-02 0.  1.
    10030    2    1    2    0    0  0.00000000000E+00  0.00000000000E+00 -0.64132628062E+03  0.81317898738E+03  0.49996066576E+03 0.  0.
        1    1    3    3  502    0 -0.39176769267E+02 -0.23304276275E+03 -0.45326332987E+03  0.51116669957E+03  0.50400001928E-02 0.  1.
       -1    1    3    3    0  502  0.39176769267E+02  0.23304276275E+03 -0.18806295075E+03  0.30201228782E+03  0.50400001928E-02 0. -1.
</event>
<event>
 5   0  0.4978779E-03  0.4996598E+03  0.7818609E-02  0.1013868E+00
        2   -1    0    0  501    0  0.00000000000E+00  0.00000000000E+00  0.15687630822E+04  0.15687630822E+04  0.25500000920E-02 0.  1.
       -2   -1    0    0    0  501  0.00000000000E+00  0.00000000000E+00 -0.39786108125E+02  0.39786108207E+02  0.25500000920E-02 0. -1.
    10030    2    1    2    0    0  0.00000000000E+00  0.00000000000E+00  0.15289769740E+04  0.16085491904E+04  0.49965979497E+03 0.  0.
        1    1    3    3  502    0  0.12862031167E+03  0.21082615046E+03  0.88597675939E+03  0.91975304756E+03  0.50400001928E-02 0. -1.
       -1    1    3    3    0  502 -0.12862031167E+03 -0.21082615046E+03  0.64300021464E+03  0.68879614281E+03  0.50400001928E-02 0.  1.
</event>
<event>
 5   0  0.5095783E-03  0.5004134E+03  0.7818609E-02  0.1013671E+00
        2   -1    0    0  501    0  0.00000000000E+00  0.00000000000E+00  0.43856930660E+03  0.43856930661E+03  0.25500000920E-02 0. -1.
       -2   -1    0    0    0  501  0.00000000000E+00  0.00000000000E+00 -0.14274457200E+03  0.14274457202E+03  0.25500000920E-02 0.  1.
    10030    2    1    2    0    0  0.00000000000E+00  0.00000000000E+00  0.29582473460E+03  0.58131387863E+03  0.50041338100E+03 0.  0.
        4    1    3    3  502    0 -0.21422866974E+03 -0.12089688553E+03  0.94782178559E+02  0.26361952534E+03  0.12699999809E+01 0.  1.
       -4    1    3    3    0  502  0.21422866974E+03  0.12089688553E+03  0.20104255604E+03  0.31769435329E+03  0.12699999809E+01 0. -1.
</event>
<event>
 5   0  0.5118882E-03  0.5001014E+03  0.7818609E-02  0.1013752E+00
        2   -1    0    0  501    0  0.00000000000E+00  0.00000000000E+00  0.35600018755E+03  0.35600018756E+03  0.25500000920E-02 0.  1.
       -2   -1    0    0    0  501  0.00000000000E+00  0.00000000000E+00 -0.17563291757E+03  0.17563291758E+03  0.25500000920E-02 0. -1.
    10030    2    1    2    0    0  0.00000000000E+00  0.00000000000E+00  0.18036726998E+03  0.53163310514E+03  0.50010139612E+03 0.  0.
        3    1    3    3  502    0  0.19598693750E+03 -0.44456662127E+01 -0.74828047170E+02  0.20983300614E+03  0.10100000352E+00 0. -1.
       -3    1    3    3    0  502 -0.19598693750E+03  0.44456662127E+01  0.25519531715E+03  0.32180009900E+03  0.10100000352E+00 0.  1.
</event>
<event>
 5   0  0.3055293E-03  0.4992157E+03  0.7818609E-02  0.1013984E+00
        1   -1    0    0  501    0  0.00000000000E+00  0.00000000000E+00  0.30545348214E+03  0.30545348219E+03  0.50400001928E-02 0.  1.
       -1   -1    0    0    0  501  0.00000000000E+00  0.00000000000E+00 -0.20397240307E+03  0.20397240313E+03  0.50400001928E-02 0. -1.
    10030    2    1    2    0    0  0.00000000000E+00  0.00000000000E+00  0.10148107907E+03  0.50942588532E+03  0.49921570811E+03 0.  0.
        3    1    3    3  502    0  0.41579477258E+01 -0.11466671576E+03  0.27694592844E+03  0.29977458483E+03  0.10100000352E+00 0.  1.
       -3    1    3    3    0  502 -0.41579477258E+01  0.11466671576E+03 -0.17546484936E+03  0.20965130049E+03  0.10100000352E+00 0. -1.
</event>
<event>
 5   0  0.2005125E-03  0.4992885E+03  0.7818609E-02  0.1013965E+00
        4   -1    0    0  501    0  0.00000000000E+00  0.00000000000E+00  0.41946828730E+03  0.41947020985E+03  0.12699999809E+01 0.  1.
       -4   -1    0    0    0  501  0.00000000000E+00  0.00000000000E+00 -0.14856940947E+03  0.14857483747E+03  0.12699999809E+01 0. -1.
    10030    2    1    2    0    0  0.00000000000E+00  0.00000000000E+00  0.27089887783E+03  0.56804504732E+03  0.49928846749E+03 0.  0.
        1    1    3    3  502    0  0.33736271602E+01 -0.17004895772E+03 -0.72456481167E+02  0.18487285109E+03  0.50400001928E-02 0. -1.
       -1    1    3    3    0  502 -0.33736271602E+01  0.17004895772E+03  0.34335535900E+03  0.38317219623E+03  0.50400001928E-02 0.  1.
</event>
<event>
 5   0  0.4978779E-03  0.5000549E+03  0.7818609E-02  0.1013765E+00
        2   -1    0    0  501    0  0.00000000000E+00  0.00000000000E+00  0.11055190513E+04  0.11055190513E+04  0.25500000920E-02 0. -1.
       -2   -1    0    0    0  501  0.00000000000E+00  0.00000000000E+00 -0.56546941297E+02  0.56546941355E+02  0.25500000920E-02 0.  1.
    10030    2    1    2    0    0  0.00000000000E+00  0.00000000000E+00  0.10489721100E+04  0.11620659927E+04  0.50005488073E+03 0.  0.
        1    1    3    3  502    0  0.38836496172E+02  0.11164284738E+03  0.10364848300E+04  0.10432033367E+04  0.50400001928E-02 0. -1.
       -1    1    3    3    0  502 -0.38836496172E+02 -0.11164284738E+03  0.12487280030E+02  0.11886265601E+03  0.50400001928E-02 0.  1.
</event>
<event>
 5   0  0.5095783E-03  0.5002146E+03  0.7818609E-02  0.1013723E+00
       -2   -1    0    0    0  501  0.00000000000E+00  0.00000000000E+00  0.25495728551E+03  0.25495728552E+03  0.25500000920E-02 0. -1.
        2   -1    0    0  501    0  0.00000000000E+00  0.00000000000E+00 -0.24534958213E+03  0.24534958215E+03  0.25500000920E-02 0.  1.
    10030    2    1    2    0    0  0.00000000000E+00  0.00000000000E+00  0.96077033722E+01  0.50030686767E+03  0.50021460781E+03 0.  0.
        4    1    3    3  502    0  0.87174834850E+02 -0.13112035594E+03 -0.18955144474E+03  0.24642110842E+03  0.12699999809E+01 0.  1.
       -4    1    3    3    0  502 -0.87174834850E+02  0.13112035594E+03  0.19915914811E+03  0.25388575925E+03  0.12699999809E+01 0. -1.
</event>
<event>
 5   0  0.5118882E-03  0.5005142E+03  0.7818609E-02  0.1013645E+00
        2   -1    0    0  501    0  0.00000000000E+00  0.00000000000E+00  0.43027056135E+03  0.43027056135E+03  0.25500000920E-02 0.  1.
       -2   -1    0    0    0  501  0.00000000000E+00  0.00000000000E+00 -0.14555633530E+03  0.14555633532E+03  0.25500000920E-02 0. -1.
    10030    2    1    2    0    0  0.00000000000E+00  0.00000000000E+00  0.28471422604E+03  0.57582689668E+03  0.50051416006E+03 0.  0.
        3    1    3    3  502    0  0.22512507044E+03 -0.87845862070E+02  0.21718551198E+03  0.32491191058E+03  0.10100000352E+00 0.  1.
       -3    1    3    3    0  502 -0.22512507044E+03  0.87845862070E+02  0.67528714067E+02  0.25091498610E+03  0.10100000352E+00 0. -1.
</event>
<event>
 5   0  0.2863538E-03  0.5001996E+03  0.7818609E-02  0.1013727E+00
        1   -1    0    0  501    0  0.00000000000E+00  0.00000000000E+00  0.18838326126E+04  0.18838326126E+04  0.50400001928E-02 0.  1.
       -1   -1    0    0    0  501  0.00000000000E+00  0.00000000000E+00 -0.33203537071E+02  0.33203537454E+02  0.50400001928E-02 0. -1.
    10030    2    1    2    0    0  0.00000000000E+00  0.00000000000E+00  0.18506290755E+04  0.19170361500E+04  0.50019958560E+03 0.  0.
        1    1    3    3  502    0 -0.17028761847E+02 -0.24166311751E+03  0.11633911758E+04  0.11883476213E+04  0.50400001928E-02 0.  1.
       -1    1    3    3    0  502  0.17028761847E+02  0.24166311751E+03  0.68723789972E+03  0.72868852875E+03  0.50400001928E-02 0. -1.
</event>
<event>
 5   0  0.4989875E-03  0.5000292E+03  0.7818609E-02  0.1013771E+00
        2   -1    0    0  501    0  0.00000000000E+00  0.00000000000E+00  0.23625965625E+03  0.23625965626E+03  0.25500000920E-02 0. -1.
       -2   -1    0    0    0  501  0.00000000000E+00  0.00000000000E+00 -0.26457038133E+03  0.26457038134E+03  0.25500000920E-02 0.  1.
    10030    2    1    2    0    0  0.00000000000E+00  0.00000000000E+00 -0.28310725084E+02  0.50083003760E+03  0.50002922856E+03 0.  0.
        2    1    3    3  502    0  0.34694898264E+01  0.14982181695E+03 -0.21459755819E+03  0.26174553708E+03  0.25500000920E-02 0.  1.
       -2    1    3    3    0  502 -0.34694898264E+01 -0.14982181695E+03  0.18628683311E+03  0.23908450052E+03  0.25500000920E-02 0. -1.
</event>
<event>
 5   0  0.3211775E-03  0.5006383E+03  0.7818609E-02  0.1013612E+00
       -1   -1    0    0    0  501  0.00000000000E+00  0.00000000000E+00  0.27962251011E+03  0.27962251015E+03  0.50400001928E-02 0. -1.
        1   -1    0    0  501    0  0.00000000000E+00  0.00000000000E+00 -0.22408670497E+03  0.22408670503E+03  0.50400001928E-02 0.  1.
    10030    2    1    2    0    0  0.00000000000E+00  0.00000000000E+00  0.55535805134E+02  0.50370921519E+03  0.50063834033E+03 0.  0.
        4    1    3    3  502    0 -0.40238591586E+02 -0.68186199439E+02 -0.21115357356E+03  0.22551263063E+03  0.12699999809E+01 0.  1.
       -4    1    3    3    0  502  0.40238591586E+02  0.68186199439E+02  0.26668937870E+03  0.27819658455E+03  0.12699999809E+01 0. -1.
</event>
<event>
 5   0  0.3013734E-03  0.5000488E+03  0.7818609E-02  0.1013766E+00
       -1   -1    0    0    0  501  0.00000000000E+00  0.00000000000E+00  0.27471527558E+03  0.27471527562E+03  0.50400001928E-02 0.  1.
        1   -1    0    0  501    0  0.00000000000E+00  0.00000000000E+00 -0.22755267382E+03  0.22755267388E+03  0.50400001928E-02 0. -1.
    10030    2    1    2    0    0  0.00000000000E+00  0.00000000000E+00  0.47162601757E+02  0.50226794950E+03  0.50004877971E+03 0.  0.
        2    1    3    3  502    0 -0.79969436792E+02 -0.10078191953E+03 -0.19175315467E+03  0.23091422316E+03  0.25500000920E-02 0. -1.
       -2    1    3    3    0  502  0.79969436792E+02  0.10078191953E+03  0.23891575643E+03  0.27135372634E+03  0.25500000920E-02 0.  1.
</event>
<event>
 5   0  0.4889251E-03  0.4998583E+03  0.7818609E-02  0.1013816E+00
       -2   -1    0    0    0  501  0.00000000000E+00  0.00000000000E+00  0.38729627654E+03  0.38729627654E+03  0.25500000920E-02 0.  1.
        2   -1    0    0  501    0  0.00000000000E+00  0.00000000000E+00 -0.16128373003E+03  0.16128373005E+03  0.25500000920E-02 0. -1.
    10030    2    1    2    0    0  0.00000000000E+00  0.00000000000E+00  0.22601254650E+03  0.54858000660E+03  0.49985833239E+03 0.  0.
        5    1    3    3  502    0 -0.13491187955E+03 -0.40360083285E+02 -0.11354200429E+03  0.18095311078E+03  0.46999998093E+01 0. -1.
       -5    1    3    3    0  502  0.13491187955E+03  0.40360083285E+02  0.33955455079E+03  0.36762689581E+03  0.46999998093E+01 0.  1.
</event>
<event>
 5   0  0.2863538E-03  0.5001727E+03  0.7818609E-02  0.1013734E+00
        1   -1    0    0  501    0  0.00000000000E+00  0.00000000000E+00  0.11225912806E+04  0.11225912806E+04  0.50400001928E-02 0. -1.
       -1   -1    0    0    0  501  0.00000000000E+00  0.00000000000E+00 -0.55713230501E+02  0.55713230729E+02  0.50400001928E-02 0.  1.
    10030    2    1    2    0    0  0.00000000000E+00  0.00000000000E+00  0.10668780501E+04  0.11783045113E+04  0.50017271783E+03 0.  0.
        1    1    3    3  502    0  0.98403859848E+02 -0.40016879334E+01 -0.81062639711E+01  0.98818240625E+02  0.50400001928E-02 0.  1.
       -1    1    3    3    0  502 -0.98403859848E+02  0.40016879334E+01  0.10749843141E+04  0.10794862707E+04  0.50400001928E-02 0. -1.
</event>
<event>
 5   0  0.5095783E-03  0.4995865E+03  0.7818609E-02  0.1013887E+00
       -2   -1    0    0    0  501  0.00000000000E+00  0.00000000000E+00  0.12596445568E+03  0.12596445571E+03  0.25500000920E-02 0.  1.
        2   -1    0    0  501    0  0.00000000000E+00  0.00000000000E+00 -0.49535132737E+03  0.49535132738E+03  0.25500000920E-02 0. -1.
    10030    2    1    2    0    0  0.00000000000E+00  0.00000000000E+00 -0.36938687169E+03  0.62131578309E+03  0.49958647033E+03 0.  0.
        4    1    3    3  502    0  0.14875387633E+03  0.19832624928E+03 -0.14668480197E+03  0.28806086320E+03  0.12699999809E+01 0. -1.
       -4    1    3    3    0  502 -0.14875387633E+03 -0.19832624928E+03 -0.22270206971E+03  0.33325491989E+03  0.12699999809E+01 0.  1.
</event>
<event>
 5   0  0.3057783E-03  0.5001185E+03  0.7818609E-02  0.1013748E+00
        1   -1    0    0  501    0  0.00000000000E+00  0.00000000000E+00  0.28374536674E+03  0.28374536679E+03  0.50400001928E-02 0.  1.
       -1   -1    0    0    0  501  0.00000000000E+00  0.00000000000E+00 -0.22037233499E+03  0.22037233505E+03  0.50400001928E-02 0. -1.
    10030    2    1    2    0    0  0.00000000000E+00  0.00000000000E+00  0.63373031747E+02  0.50411770184E+03  0.50011850211E+03 0.  0.
        5    1    3    3  502    0  0.11137392579E+03 -0.14939401724E+03  0.19970721332E+03  0.27318086460E+03  0.46999998093E+01 0.  1.
       -5    1    3    3    0  502 -0.11137392579E+03  0.14939401724E+03 -0.13633418157E+03  0.23093683724E+03  0.46999998093E+01 0. -1.
</event>
<event>
 5   0  0.5118882E-03  0.5003185E+03  0.7818609E-02  0.1013696E+00
       -2   -1    0    0    0  501  0.00000000000E+00  0.00000000000E+00  0.65938147296E+02  0.65938147345E+02  0.25500000920E-02 0.  1.
        2   -1    0    0  501    0  0.00000000000E+00  0.00000000000E+00 -0.94906606528E+03  0.94906606528E+03  0.25500000920E-02 0. -1.
    10030    2    1    2    0    0  0.00000000000E+00  0.00000000000E+00 -0.88312791798E+03  0.10150042126E+04  0.50031853067E+03 0.  0.
        3    1    3    3  502    0  0.56443933868E+02 -0.14574190737E+03 -0.83782899442E+03  0.85228167605E+03  0.10100000352E+00 0. -1.
       -3    1    3    3    0  502 -0.56443933868E+02  0.14574190737E+03 -0.45298923561E+02  0.16272253658E+03  0.10100000352E+00 0.  1.
</event>
<event>
 5   0  0.4889251E-03  0.5003603E+03  0.7818609E-02  0.1013685E+00
       -2   -1    0    0    0  501  0.00000000000E+00  0.00000000000E+00  0.15371901167E+03  0.15371901169E+03  0.25500000920E-02 0. -1.
        2   -1    0    0  501    0  0.00000000000E+00  0.00000000000E+00 -0.40717225094E+03  0.40717225095E+03  0.25500000920E-02 0.  1.
    10030    2    1    2    0    0  0.00000000000E+00  0.00000000000E+00 -0.25345323927E+03  0.56089126265E+03  0.50036033417E+03 0.  0.
        5    1    3    3  502    0  0.60495066972E+02  0.20458730466E+03  0.19655709811E+02  0.21429898572E+03  0.46999998093E+01 0. -1.
       -5    1    3    3    0  502 -0.60495066972E+02 -0.20458730466E+03 -0.27310894908E+03  0.34659227692E+03  0.46999998093E+01 0.  1.
</event>
<event>
 5   0  0.3055293E-03  0.5000792E+03  0.7818609E-02  0.1013758E+00
       -1   -1    0    0    0  501  0.00000000000E+00  0.00000000000E+00  0.36028089344E+02  0.36028089697E+02  0.50400001928E-02 0.  1.
        1   -1    0    0  501    0  0.00000000000E+00  0.00000000000E+00 -0.17353074723E+04  0.17353074723E+04  0.50400001928E-02 0. -1.
    10030    2    1    2    0    0  0.00000000000E+00  0.00000000000E+00 -0.16992793829E+04  0.17713355620E+04  0.50007924560E+03 0.  0.
        3    1    3    3  502    0  0.19491491338E+03  0.13494094999E+03 -0.56807161342E+03  0.61555361393E+03  0.10100000352E+00 0.  1.
       -3    1    3    3    0  502 -0.19491491338E+03 -0.13494094999E+03 -0.11312077695E+04  0.11557819480E+04  0.10100000352E+00 0. -1.
</event>
<event>
 5   0  0.4989875E-03  0.5007668E+03  0.7818609E-02  0.1013579E+00
       -2   -1    0    0    0  501  0.00000000000E+00  0.00000000000E+00  0.16952406950E+03  0.16952406951E+03  0.25500000920E-02 0.  1.
        2   -1    0    0  501    0  0.00000000000E+00  0.00000000000E+00 -0.36981091261E+03  0.36981091262E+03  0.25500000920E-02 0. -1.
    10030    2    1    2    0    0  0.00000000000E+00  0.00000000000E+00 -0.20028684311E+03  0.53933498213E+03  0.50076681542E+03 0.  0.
        2    1    3    3  502    0  0.19381907840E+03 -0.22599224249E+02  0.68832776287E+02  0.20691667692E+03  0.25500000920E-02 0.  1.
       -2    1    3    3    0  502 -0.19381907840E+03  0.22599224249E+02 -0.26911961940E+03  0.33241830521E+03  0.25500000920E-02 0. -1.
</event>
<event>
 5   0  0.5095783E-03  0.5002361E+03  0.7818609E-02  0.1013717E+00
       -2   -1    0    0    0  501  0.00000000000E+00  0.00000000000E+00  0.12211362389E+03  0.12211362392E+03  0.25500000920E-02 0.  1.
        2   -1    0    0  501    0  0.00000000000E+00  0.00000000000E+00 -0.51230182075E+03  0.51230182076E+03  0.25500000920E-02 0. -1.
    10030    2    1    2    0    0  0.00000000000E+00  0.00000000000E+00 -0.39018819686E+03  0.63441544467E+03  0.50023607174E+03 0.  0.
        4    1    3    3  502    0 -0.94536305852E+02  0.19978354614E+03 -0.46614281948E+02  0.22588732283E+03  0.12699999809E+01 0.  1.
       -4    1    3    3    0  502  0.94536305852E+02 -0.19978354614E+03 -0.34357391491E+03  0.40852812185E+03  0.12699999809E+01 0. -1.
</event>
<event>
 5   0  0.5095783E-03  0.5004814E+03  0.7818609E-02  0.1013653E+00
       -2   -1    0    0    0  501  0.00000000000E+00  0.00000000000E+00  0.43768469800E+03  0.43768469801E+03  0.25500000920E-02 0. -1.
        2   -1    0    0  501    0  0.00000000000E+00  0.00000000000E+00 -0.14307197347E+03  0.14307197349E+03  0.25500000920E-02 0.  1.
    10030    2    1    2    0    0  0.00000000000E+00  0.00000000000E+00  0.29461272453E+03  0.58075667150E+03  0.50048142227E+03 0.  0.
        4    1    3    3  502    0  0.27665285344E+02 -0.44092263950E+02 -0.13671655671E+03  0.14629602022E+03  0.12699999809E+01 0.  1.
       -4    1    3    3    0  502 -0.27665285344E+02  0.44092263950E+02  0.43132928124E+03  0.43446065128E+03  0.12699999809E+01 0. -1.
</event>
<event>
 5   0  0.3013734E-03  0.5000153E+03  0.7818609E-02  0.1013775E+00
       -1   -1    0    0    0  501  0.00000000000E+00  0.00000000000E+00  0.69723238415E+03  0.69723238417E+03  0.50400001928E-02 0.  1.
        1   -1    0    0  501    0  0.00000000000E+00  0.00000000000E+00 -0.89645631359E+02  0.89645631500E+02  0.50400001928E-02 0. -1.
    10030    2    1    2    0    0  0.00000000000E+00  0.00000000000E+00  0.60758675279E+03  0.78687801567E+03  0.50001534914E+03 0.  0.
        2    1    3    3  502    0 -0.19610005937E+03  0.60038809899E+02  0.78780987008E+02  0.21969600792E+03  0.25500000920E-02 0. -1.
       -2    1    3    3    0  502  0.19610005937E+03 -0.60038809899E+02  0.52880576579E+03  0.56718200775E+03  0.25500000920E-02 0.  1.
</event>
<event>
 5   0  0.3055293E-03  0.4999937E+03  0.7818609E-02  0.1013781E+00
        1   -1    0    0  501    0  0.00000000000E+00  0.00000000000E+00  0.29309370294E+03  0.29309370299E+03  0.50400001928E-02 0.  1.
       -1   -1    0    0    0  501  0.00000000000E+00  0.00000000000E+00 -0.21323698272E+03  0.21323698278E+03  0.50400001928E-02 0. -1.
    10030    2    1    2    0    0  0.00000000000E+00  0.00000000000E+00  0.79856720219E+02  0.50633068577E+03  0.49999366755E+03 0.  0.
        3    1    3    3  502    0  0.21967697479E+02  0.12260055362E+03  0.25943569757E+03  0.28778527908E+03  0.10100000352E+00 0.  1.
       -3    1    3    3    0  502 -0.21967697479E+02 -0.12260055362E+03 -0.17957897735E+03  0.21854540669E+03  0.10100000352E+00 0. -1.
</event>
<event>
 5   0  0.2863538E-03  0.4999730E+03  0.7818609E-02  0.1013786E+00
       -1   -1    0    0    0  501  0.00000000000E+00  0.00000000000E+00  0.88342369886E+02  0.88342370030E+02  0.50400001928E-02 0.  1.
        1   -1    0    0  501    0  0.00000000000E+00  0.00000000000E+00 -0.70739831953E+03  0.70739831954E+03  0.50400001928E-02 0. -1.
    10030    2    1    2    0    0  0.00000000000E+00  0.00000000000E+00 -0.61905594964E+03  0.79574068957E+03  0.49997297553E+03 0.  0.
        1    1    3    3  502    0  0.83542516457E+02  0.14055016880E+03 -0.61049645106E+03  0.63201235651E+03  0.50400001928E-02 0. -1.
       -1    1    3    3    0  502 -0.83542516457E+02 -0.14055016880E+03 -0.85594985802E+01  0.16372833306E+03  0.50400001928E-02 0.  1.
</event>
<event>
 5   0  0.3013734E-03  0.4997318E+03  0.7818609E-02  0.1013849E+00
        1   -1    0    0  501    0  0.00000000000E+00  0.00000000000E+00  0.81850543190E+03  0.81850543192E+03  0.50400001928E-02 0. -1.
       -1   -1    0    0    0  501  0.00000000000E+00  0.00000000000E+00 -0.76276781188E+02  0.76276781355E+02  0.50400001928E-02 0.  1.
    10030    2    1    2    0    0  0.00000000000E+00  0.00000000000E+00  0.74222865071E+03  0.89478221327E+03  0.49973176730E+03 0.  0.
        2    1    3    3  502    0 -0.10577556317E+03  0.93317732097E+02  0.18305786868E+01  0.14106743038E+03  0.25500000920E-02 0.  1.
       -2    1    3    3    0  502  0.10577556317E+03 -0.93317732097E+02  0.74039807203E+03  0.75371478290E+03  0.25500000920E-02 0. -1.
</event>
<event>
 5   0  0.2863538E-03  0.5000438E+03  0.7818609E-02  0.1013767E+00
       -1   -1    0    0    0  501  0.00000000000E+00  0.00000000000E+00  0.31262619864E+03  0.31262619868E+03  0.50400001928E-02 0.  1.
        1   -1    0    0  501    0  0.00000000000E+00  0.00000000000E+00 -0.19995430076E+03  0.19995430083E+03  0.50400001928E-02 0. -1.
    10030    2    1    2    0    0  0.00000000000E+00  0.00000000000E+00  0.11267189787E+03  0.51258049950E+03  0.50004380998E+03 0.  0.
        1    1    3    3  502    0  0.67189661960E+02 -0.55262958553E+02  0.29661077041E+03  0.30910579809E+03  0.50400001928E-02 0.  1.
       -1    1    3    3    0  502 -0.67189661960E+02  0.55262958553E+02 -0.18393887254E+03  0.20347470142E+03  0.50400001928E-02 0. -1.
</event>
<event>
 5   0  0.4989875E-03  0.4997769E+03  0.7818609E-02  0.1013837E+00
        2   -1    0    0  501    0  0.00000000000E+00  0.00000000000E+00  0.14224149059E+04  0.14224149059E+04  0.25500000920E-02 0. -1.
       -2   -1    0    0    0  501  0.00000000000E+00  0.00000000000E+00 -0.43900159140E+02  0.43900159214E+02  0.25500000920E-02 0.  1.
    10030    2    1    2    0    0  0.00000000000E+00  0.00000000000E+00  0.13785147468E+04  0.14663150651E+04  0.49977691338E+03 0.  0.
        2    1    3    3  502    0 -0.85013359752E+02 -0.14800630235E+03  0.15377445865E+03  0.22973837514E+03  0.25500000920E-02 0.  1.
       -2    1    3    3    0  502  0.85013359752E+02  0.14800630235E+03  0.12247402881E+04  0.12365766900E+04  0.25500000920E-02 0. -1.
</event>
<event>
 5   0  0.3211775E-03  0.5003403E+03  0.7818609E-02  0.1013690E+00
       -1   -1    0    0    0  501  0.00000000000E+00  0.00000000000E+00  0.23151726666E+03  0.23151726671E+03  0.50400001928E-02 0.  1.
        1   -1    0    0  501    0  0.00000000000E+00  0.00000000000E+00 -0.27032582577E+03  0.27032582581E+03  0.50400001928E-02 0. -1.
    10030    2    1    2    0    0  0.00000000000E+00  0.00000000000E+00 -0.38808559109E+02  0.50184309253E+03  0.50034026947E+03 0.  0.
        4    1    3    3  502    0  0.31743566114E+02  0.14043152761E+01 -0.26829039718E+03  0.27016842193E+03  0.12699999809E+01 0. -1.
       -4    1    3    3    0  502 -0.31743566114E+02 -0.14043152761E+01  0.22948183807E+03  0.23167467059E+03  0.12699999809E+01 0.  1.
</event>
<event>
 5   0  0.5095783E-03  0.4998809E+03  0.7818609E-02  0.1013810E+00
        2   -1    0    0  501    0  0.00000000000E+00  0.00000000000E+00  0.70252249472E+03  0.70252249472E+03  0.25500000920E-02 0. -1.
       -2   -1    0    0    0  501  0.00000000000E+00  0.00000000000E+00 -0.88922761371E+02  0.88922761408E+02  0.25500000920E-02 0.  1.
    10030    2    1    2    0    0  0.00000000000E+00  0.00000000000E+00  0.61359973335E+03  0.79144525613E+03  0.49988094651E+03 0.  0.
        4    1    3    3  502    0  0.15601274131E+03 -0.18738092154E+03  0.21983477095E+03  0.32829944354E+03  0.12699999809E+01 0.  1.
       -4    1    3    3    0  502 -0.15601274131E+03  0.18738092154E+03  0.39376496240E+03  0.46314581259E+03  0.12699999809E+01 0. -1.
</event>
<event>
 5   0  0.3211775E-03  0.5000254E+03  0.7818609E-02  0.1013772E+00
       -1   -1    0    0    0  501  0.00000000000E+00  0.00000000000E+00  0.67248324472E+02  0.67248324661E+02  0.50400001928E-02 0.  1.
        1   -1    0    0  501    0  0.00000000000E+00  0.00000000000E+00 -0.92948560492E+03  0.92948560493E+03  0.50400001928E-02 0. -1.
    10030    2    1    2    0    0  0.00000000000E+00  0.00000000000E+00 -0.86223728045E+03  0.99673392959E+03  0.50002539797E+03 0.  0.
        4    1    3    3  502    0 -0.83024333831E+02  0.14424205671E+03 -0.59229263001E+02  0.17665935987E+03  0.12699999809E+01 0.  1.
       -4    1    3    3    0  502  0.83024333831E+02 -0.14424205671E+03 -0.80300801745E+03  0.82007456973E+03  0.12699999809E+01 0. -1.
</event>
<event>
 5   0  0.3055293E-03  0.5004786E+03  0.7818609E-02  0.1013654E+00
        1   -1    0    0  501    0  0.00000000000E+00  0.00000000000E+00  0.17861574751E+03  0.17861574758E+03  0.50400001928E-02 0.  1.
       -1   -1    0    0    0  501  0.00000000000E+00  0.00000000000E+00 -0.35058335263E+03  0.35058335267E+03  0.50400001928E-02 0. -1.
    10030    2    1    2    0    0  0.00000000000E+00  0.00000000000E+00 -0.17196760512E+03  0.52919910025E+03  0.50047860144E+03 0.  0.
        3    1    3    3  502    0 -0.68428521687E+02  0.20436148094E+03  0.48489849791E+02  0.22090122952E+03  0.10100000352E+00 0.  1.
       -3    1    3    3    0  502  0.68428521687E+02 -0.20436148094E+03 -0.22045745491E+03  0.30829787073E+03  0.10100000352E+00 0. -1.
</event>
<event>
 5   0  0.4989875E-03  0.5000144E+03  0.7818609E-02  0.1013775E+00
        2   -1    0    0  501    0  0.00000000000E+00  0.00000000000E+00  0.28752625854E+04  0.28752625854E+04  0.25500000920E-02 0.  1.
       -2   -1    0    0    0  501  0.00000000000E+00  0.00000000000E+00 -0.21738400687E+02  0.21738400837E+02  0.25500000920E-02 0. -1.
    10030    2    1    2    0    0  0.00000000000E+00  0.00000000000E+00  0.28535241847E+04  0.28970009863E+04  0.50001444132E+03 0.  0.
        2    1    3    3  502    0 -0.28764530223E+02 -0.24831558660E+03  0.14496324266E+04  0.14710276003E+04  0.25500000920E-02 0.  1.
       -2    1    3    3    0  502  0.28764530223E+02  0.24831558660E+03  0.14038917582E+04  0.14259733860E+04  0.25500000920E-02 0. -1.
</event>
<event>
 5   0  0.5118882E-03  0.4998770E+03  0.7818609E-02  0.1013811E+00
       -2   -1    0    0    0  501  0.00000000000E+00  0.00000000000E+00  0.30336746339E+03  0.30336746340E+03  0.25500000920E-02 0.  1.
        2   -1    0    0  501    0  0.00000000000E+00  0.00000000000E+00 -0.20591945992E+03  0.20591945993E+03  0.25500000920E-02 0. -1.
    10030    2    1    2    0    0  0.00000000000E+00  0.00000000000E+00  0.97448003477E+02  0.50928692333E+03  0.49987704178E+03 0.  0.
        3    1    3    3  502    0 -0.10504729202E+03 -0.14476643813E+02  0.27931335234E+03  0.29876490051E+03  0.10100000352E+00 0.  1.
       -3    1    3    3    0  502  0.10504729202E+03  0.14476643813E+02 -0.18186534887E+03  0.21052202283E+03  0.10100000352E+00 0. -1.
</event>
<event>
 5   0  0.4889251E-03  0.5000663E+03  0.7818609E-02  0.1013762E+00
       -2   -1    0    0    0  501  0.00000000000E+00  0.00000000000E+00  0.13085322250E+03  0.13085322252E+03  0.25500000920E-02 0.  1.
        2   -1    0    0  501    0  0.00000000000E+00  0.00000000000E+00 -0.47776114086E+03  0.47776114087E+03  0.25500000920E-02 0. -1.
    10030    2    1    2    0    0  0.00000000000E+00  0.00000000000E+00 -0.34690791836E+03  0.60861436339E+03  0.50006633510E+03 0.  0.
        5    1    3    3  502    0  0.12762756020E+03  0.63564533053E+02  0.76460810681E+02  0.16185669450E+03  0.46999998093E+01 0.  1.
       -5    1    3    3    0  502 -0.12762756020E+03 -0.63564533053E+02 -0.42336872904E+03  0.44675766889E+03  0.46999998093E+01 0. -1.
</event>
<event>
 5   0  0.3211775E-03  0.5000328E+03  0.7818609E-02  0.1013770E+00
       -1   -1    0    0    0  501  0.00000000000E+00  0.00000000000E+00  0.15157753351E+03  0.15157753360E+03  0.50400001928E-02 0. -1.
        1   -1    0    0  501    0  0.00000000000E+00  0.00000000000E+00 -0.41238426010E+03  0.41238426014E+03  0.50400001928E-02 0.  1.
    10030    2    1    2    0    0  0.00000000000E+00  0.00000000000E+00 -0.26080672659E+03  0.56396179373E+03  0.50003275508E+03 0.  0.
        4    1    3    3  502    0  0.12502320126E+03  0.81150311147E+02  0.95983921595E+02  0.17728705524E+03  0.12699999809E+01 0. -1.
       -4    1    3    3    0  502 -0.12502320126E+03 -0.81150311147E+02 -0.35679064819E+03  0.38667473849E+03  0.12699999809E+01 0.  1.
</event>
<event>
 5   0  0.2863538E-03  0.4995209E+03  0.7818609E-02  0.1013904E+00
        1   -1    0    0  501    0  0.00000000000E+00  0.00000000000E+00  0.10228565119E+04  0.10228565119E+04  0.50400001928E-02 0.  1.
       -1   -1    0    0    0  501  0.00000000000E+00  0.00000000000E+00 -0.60986338732E+02  0.60986338941E+02  0.50400001928E-02 0. -1.
    10030    2    1    2    0    0  0.00000000000E+00  0.00000000000E+00  0.96187017316E+03  0.10838428508E+04  0.49952086574E+03 0.  0.
        1    1    3    3  502    0 -0.13812912354E+03 -0.31579112041E+02  0.92720767403E+03  0.93797172979E+03  0.50400001928E-02 0.  1.
       -1    1    3    3    0  502  0.13812912354E+03  0.31579112041E+02  0.34662499137E+02  0.14587112106E+03  0.50400001928E-02 0. -1.
</event>
<event>
 5   0  0.3055293E-03  0.4998492E+03  0.7818609E-02  0.1013818E+00
       -1   -1    0    0    0  501  0.00000000000E+00  0.00000000000E+00  0.98738580192E+02  0.98738580320E+02  0.50400001928E-02 0. -1.
        1   -1    0    0  501    0  0.00000000000E+00  0.00000000000E+00 -0.63260293586E+03  0.63260293588E+03  0.50400001928E-02 0.  1.
    10030    2    1    2    0    0  0.00000000000E+00  0.00000000000E+00 -0.53386435567E+03  0.73134151620E+03  0.49984924034E+03 0.  0.
        3    1    3    3  502    0 -0.13253797039E+02  0.22301107967E+02  0.96763248478E+02  0.10018053209E+03  0.10100000352E+00 0. -1.
       -3    1    3    3    0  502  0.13253797039E+02 -0.22301107967E+02 -0.63062760415E+03  0.63116098411E+03  0.10100000352E+00 0.  1.
</event>
<event>
 5   0  0.5118882E-03  0.4999700E+03  0.7818609E-02  0.1013787E+00
       -2   -1    0    0    0  501  0.00000000000E+00  0.00000000000E+00  0.29452719159E+03  0.29452719160E+03  0.25500000920E-02 0.  1.
        2   -1    0    0  501    0  0.00000000000E+00  0.00000000000E+00 -0.21217908285E+03  0.21217908286E+03  0.25500000920E-02 0. -1.
    10030    2    1    2    0    0  0.00000000000E+00  0.00000000000E+00  0.82348108743E+02  0.50670627446E+03  0.49997003667E+03 0.  0.
        3    1    3    3  502    0 -0.20980630849E+03  0.13174445433E+03  0.75049099203E+02  0.25885838952E+03  0.10100000352E+00 0. -1.
       -3    1    3    3    0  502  0.20980630849E+03 -0.13174445433E+03  0.72990095401E+01  0.24784788494E+03  0.10100000352E+00 0.  1.
</event>
<event>
 5   0  0.4989875E-03  0.5003164E+03  0.7818609E-02  0.1013696E+00
       -2   -1    0    0    0  501  0.00000000000E+00  0.00000000000E+00  0.12769818191E+03  0.12769818194E+03  0.25500000920E-02 0.  1.
        2   -1    0    0  501    0  0.00000000000E+00  0.00000000000E+00 -0.49005486110E+03  0.49005486111E+03  0.25500000920E-02 0. -1.
    10030    2    1    2    0    0  0.00000000000E+00  0.00000000000E+00 -0.36235667919E+03  0.61775304305E+03  0.50031635915E+03 0.  0.
        2    1    3    3  502    0  0.15002541667E+03  0.19737953949E+03 -0.22236722366E+03  0.33303677037E+03  0.25500000920E-02 0.  1.
       -2    1    3    3    0  502 -0.15002541667E+03 -0.19737953949E+03 -0.13998945554E+03  0.28471627267E+03  0.25500000920E-02 0. -1.
</event>
<event>
 5   0  0.2005125E-03  0.4998820E+03  0.7818609E-02  0.1013810E+00
       -4   -1    0    0    0  501  0.00000000000E+00  0.00000000000E+00  0.11773598903E+04  0.11773605753E+04  0.12699999809E+01 0.  1.
        4   -1    0    0  501    0  0.00000000000E+00  0.00000000000E+00 -0.53051528226E+02  0.53066727307E+02  0.12699999809E+01 0. -1.
    10030    2    1    2    0    0  0.00000000000E+00  0.00000000000E+00  0.11243083621E+04  0.12304273026E+04  0.49988203997E+03 0.  0.
        1    1    3    3  502    0 -0.10818030017E+03  0.12130329314E+03  0.94785706745E+02  0.18815365130E+03  0.50400001928E-02 0. -1.
       -1    1    3    3    0  502  0.10818030017E+03 -0.12130329314E+03  0.10295226554E+04  0.10422736513E+04  0.50400001928E-02 0.  1.
</event>
<event>
 5   0  0.2005125E-03  0.4995992E+03  0.7818609E-02  0.1013884E+00
       -4   -1    0    0    0  501  0.00000000000E+00  0.00000000000E+00  0.10003577300E+03  0.10004383429E+03  0.12699999809E+01 0. -1.
        4   -1    0    0  501    0  0.00000000000E+00  0.00000000000E+00 -0.62374138161E+03  0.62374267453E+03  0.12699999809E+01 0.  1.
    10030    2    1    2    0    0  0.00000000000E+00  0.00000000000E+00 -0.52370560861E+03  0.72378650882E+03  0.49959918521E+03 0.  0.
        5    1    3    3  502    0 -0.16305998082E+03  0.17078057667E+03 -0.14395053492E+03  0.27658345796E+03  0.46999998093E+01 0. -1.
       -5    1    3    3    0  502  0.16305998082E+03 -0.17078057667E+03 -0.37975507369E+03  0.44720305086E+03  0.46999998093E+01 0.  1.
</event>
<event>
 5   0  0.4978779E-03  0.5000454E+03  0.7818609E-02  0.1013767E+00
       -2   -1    0    0    0  501  0.00000000000E+00  0.00000000000E+00  0.48138767827E+02  0.48138767894E+02  0.25500000920E-02 0. -1.
        2   -1    0    0  501    0  0.00000000000E+00  0.00000000000E+00 -0.12985656235E+04  0.12985656235E+04  0.25500000920E-02 0.  1.
    10030    2    1    2    0    0  0.00000000000E+00  0.00000000000E+00 -0.12504268557E+04  0.13467043914E+04  0.50004539435E+03 0.  0.
        1    1    3    3  502    0  0.44354601590E+02  0.80140656428E+02 -0.12517518821E+04  0.12550986535E+04  0.50400001928E-02 0.  1.
       -1    1    3    3    0  502 -0.44354601590E+02 -0.80140656428E+02  0.13250264894E+01  0.91605737896E+02  0.50400001928E-02 0. -1.
</event>
<event>
 5   0  0.3055293E-03  0.5002542E+03  0.7818609E-02  0.1013713E+00
       -1   -1    0    0    0  501  0.00000000000E+00  0.00000000000E+00  0.60200085503E+02  0.60200085714E+02  0.50400001928E-02 0. -1.
        1   -1    0    0  501    0  0.00000000000E+00  0.00000000000E+00 -0.10392603897E+04  0.10392603898E+04  0.50400001928E-02 0.  1.
    10030    2    1    2    0    0  0.00000000000E+00  0.00000000000E+00 -0.97906030424E+03  0.10994604755E+04  0.50025419317E+03 0.  0.
        3    1    3    3  502    0 -0.10675391226E+03 -0.93596448652E+02 -0.36938073448E+02  0.14670079909E+03  0.10100000352E+00 0. -1.
       -3    1    3    3    0  502  0.10675391226E+03  0.93596448652E+02 -0.94212223080E+03  0.95275967638E+03  0.10100000352E+00 0.  1.
</event>
<event>
 5   0  0.4978779E-03  0.5000141E+03  0.7818609E-02  0.1013775E+00
       -2   -1    0    0    0  501  0.00000000000E+00  0.00000000000E+00  0.44617114860E+02  0.44617114933E+02  0.25500000920E-02 0.  1.
        2   -1    0    0  501    0  0.00000000000E+00  0.00000000000E+00 -0.14008868989E+04  0.14008868989E+04  0.25500000920E-02 0. -1.
    10030    2    1    2    0    0  0.00000000000E+00  0.00000000000E+00 -0.13562697840E+04  0.14455040138E+04  0.50001412671E+03 0.  0.
        1    1    3    3  502    0 -0.13429028338E+03 -0.16959685187E+03 -0.10404425861E+04  0.10626936282E+04  0.50400001928E-02 0. -1.
       -1    1    3    3    0  502  0.13429028338E+03  0.16959685187E+03 -0.31582719786E+03  0.38281038558E+03  0.50400001928E-02 0.  1.
</event>
<event>
 5   0  0.2005125E-03  0.5003698E+03  0.7818609E-02  0.1013682E+00
        4   -1    0    0  501    0  0.00000000000E+00  0.00000000000E+00  0.23474573604E+03  0.23474917144E+03  0.12699999809E+01 0.  1.
       -4   -1    0    0    0  501  0.00000000000E+00  0.00000000000E+00 -0.26663262412E+03  0.26663564868E+03  0.12699999809E+01 0. -1.
    10030    2    1    2    0    0  0.00000000000E+00  0.00000000000E+00 -0.31886888081E+02  0.50138482011E+03  0.50036982744E+03 0.  0.
        1    1    3    3  502    0  0.24949660949E+02 -0.16529181299E+03  0.17057554425E+03  0.23883024378E+03  0.50400001928E-02 0.  1.
       -1    1    3    3    0  502 -0.24949660949E+02  0.16529181299E+03 -0.20246243233E+03  0.26255457633E+03  0.50400001928E-02 0. -1.
</event>
<event>
 5   0  0.3013734E-03  0.5008386E+03  0.7818609E-02  0.1013560E+00
        1   -1    0    0  501    0  0.00000000000E+00  0.00000000000E+00  0.10177687460E+04  0.10177687460E+04  0.50400001928E-02 0. -1.
       -1   -1    0    0    0  501  0.00000000000E+00  0.00000000000E+00 -0.61615014190E+02  0.61615014396E+02  0.50400001928E-02 0.  1.
    10030    2    1    2    0    0  0.00000000000E+00  0.00000000000E+00  0.95615373184E+03  0.10793837604E+04  0.50083864007E+03 0.  0.
        2    1    3    3  502    0 -0.18364645361E+03 -0.14784430793E+03  0.66000388297E+03  0.70084883167E+03  0.25500000920E-02 0. -1.
       -2    1    3    3    0  502  0.18364645361E+03  0.14784430793E+03  0.29614984887E+03  0.37853492878E+03  0.25500000920E-02 0.  1.
</event>
<event>
 5   0  0.5095783E-03  0.5000046E+03  0.7818609E-02  0.1013778E+00
        2   -1    0    0  501    0  0.00000000000E+00  0.00000000000E+00  0.88892933271E+03  0.88892933271E+03  0.25500000920E-02 0. -1.
       -2   -1    0    0    0  501  0.00000000000E+00  0.00000000000E+00 -0.70310582746E+02  0.70310582792E+02  0.25500000920E-02 0.  1.
    10030    2    1    2    0    0  0.00000000000E+00  0.00000000000E+00  0.81861874996E+03  0.95923991550E+03  0.50000455768E+03 0.  0.
        4    1    3    3  502    0  0.94706878732E+02  0.20967231088E+03  0.59696260674E+03  0.63976389206E+03  0.12699999809E+01 0. -1.
       -4    1    3    3    0  502 -0.94706878732E+02 -0.20967231088E+03  0.22165614321E+03  0.31947602344E+03  0.12699999809E+01 0.  1.
</event>
<event>
 5   0  0.4989875E-03  0.4998509E+03  0.7818609E-02  0.1013818E+00
       -2   -1    0    0    0  501  0.00000000000E+00  0.00000000000E+00  0.85242254933E+02  0.85242254971E+02  0.25500000920E-02 0. -1.
        2   -1    0    0  501    0  0.00000000000E+00  0.00000000000E+00 -0.73276735466E+03  0.73276735466E+03  0.25500000920E-02 0.  1.
    10030    2    1    2    0    0  0.00000000000E+00  0.00000000000E+00 -0.64752509972E+03  0.81800960963E+03  0.49985094446E+03 0.  0.
        2    1    3    3  502    0 -0.19100152965E+03  0.28832137731E+02 -0.64233653990E+02  0.20356531828E+03  0.25500000920E-02 0. -1.
       -2    1    3    3    0  502  0.19100152965E+03 -0.28832137731E+02 -0.58329144573E+03  0.61444429135E+03  0.25500000920E-02 0.  1.
</event>
<event>
 5   0  0.3057783E-03  0.4998281E+03  0.7818609E-02  0.1013824E+00
        1   -1    0    0  501    0  0.00000000000E+00  0.00000000000E+00  0.39118945781E+03  0.39118945785E+03  0.50400001928E-02 0.  1.
       -1   -1    0    0    0  501  0.00000000000E+00  0.00000000000E+00 -0.15965932304E+03  0.15965932312E+03  0.50400001928E-02 0. -1.
    10030    2    1    2    0    0  0.00000000000E+00  0.00000000000E+00  0.23153013477E+03  0.55084878096E+03  0.49982814665E+03 0.  0.
        5    1    3    3  502    0 -0.82953349104E+02  0.10933790570E+03 -0.11435237641E+03  0.17870252304E+03  0.46999998093E+01 0. -1.
       -5    1    3    3    0  502  0.82953349104E+02 -0.10933790570E+03  0.34588251118E+03  0.37214625793E+03  0.46999998093E+01 0.  1.
</event>
<event>
 5   0  0.4889251E-03  0.4997659E+03  0.7818609E-02  0.1013840E+00
        2   -1    0    0  501    0  0.00000000000E+00  0.00000000000E+00  0.89004169025E+03  0.89004169026E+03  0.25500000920E-02 0.  1.
       -2   -1    0    0    0  501  0.00000000000E+00  0.00000000000E+00 -0.70155680044E+02  0.70155680091E+02  0.25500000920E-02 0. -1.
    10030    2    1    2    0    0  0.00000000000E+00  0.00000000000E+00  0.81988601021E+03  0.96019737035E+03  0.49976586547E+03 0.  0.
        5    1    3    3  502    0  0.81291582130E+02 -0.26937735222E+02  0.86087627940E+03  0.86513815159E+03  0.46999998093E+01 0.  1.
       -5    1    3    3    0  502 -0.81291582130E+02  0.26937735222E+02 -0.40990269192E+02  0.95059218757E+02  0.46999998093E+01 0. -1.
</event>
<event>
 5   0  0.4989875E-03  0.5001809E+03  0.7818609E-02  0.1013732E+00
       -2   -1    0    0    0  501  0.00000000000E+00  0.00000000000E+00  0.24863784468E+03  0.24863784469E+03  0.25500000920E-02 0.  1.
        2   -1    0    0  501    0  0.00000000000E+00  0.00000000000E+00 -0.25155158974E+03  0.25155158976E+03  0.25500000920E-02 0. -1.
    10030    2    1    2    0    0  0.00000000000E+00  0.00000000000E+00 -0.29137450642E+01  0.50018943445E+03  0.50018094768E+03 0.  0.
        2    1    3    3  502    0 -0.13652434618E+03  0.11634404660E+02  0.20776185034E+03  0.24887595893E+03  0.25500000920E-02 0.  1.
       -2    1    3    3    0  502  0.13652434618E+03 -0.11634404660E+02 -0.21067559540E+03  0.25131347552E+03  0.25500000920E-02 0. -1.
</event>
<event>
 5   0  0.2005125E-03  0.5000057E+03  0.7818609E-02  0.1013777E+00
       -4   -1    0    0    0  501  0.00000000000E+00  0.00000000000E+00  0.13361941702E+03  0.13362545231E+03  0.12699999809E+01 0.  1.
        4   -1    0    0  501    0  0.00000000000E+00  0.00000000000E+00 -0.46773958193E+03  0.46774130607E+03  0.12699999809E+01 0. -1.
    10030    2    1    2    0    0  0.00000000000E+00  0.00000000000E+00 -0.33412016491E+03  0.60136675838E+03  0.50000569345E+03 0.  0.
        2    1    3    3  502    0  0.88083140310E+02 -0.13576179512E+03  0.62125173704E+02  0.17334774828E+03  0.25500000920E-02 0.  1.
       -2    1    3    3    0  502 -0.88083140310E+02  0.13576179512E+03 -0.39624533862E+03  0.42801901010E+03  0.25500000920E-02 0. -1.
</event>
<event>
 5   0  0.3055293E-03  0.4997936E+03  0.7818609E-02  0.1013833E+00
       -1   -1    0    0    0  501  0.00000000000E+00  0.00000000000E+00  0.97909349701E+03  0.97909349702E+03  0.50400001928E-02 0. -1.
        1   -1    0    0  501    0  0.00000000000E+00  0.00000000000E+00 -0.63781855373E+02  0.63781855572E+02  0.50400001928E-02 0.  1.
    10030    2    1    2    0    0  0.00000000000E+00  0.00000000000E+00  0.91531164164E+03  0.10428753526E+04  0.49979355712E+03 0.  0.
        3    1    3    3  502    0  0.22505887810E+03  0.52628056615E+02  0.65590790969E+03  0.69543972215E+03  0.10100000352E+00 0. -1.
       -3    1    3    3    0  502 -0.22505887810E+03 -0.52628056615E+02  0.25940373195E+03  0.34743563045E+03  0.10100000352E+00 0.  1.
</event>
<event>
 5   0  0.4978779E-03  0.4999745E+03  0.7818609E-02  0.1013786E+00
       -2   -1    0    0    0  501  0.00000000000E+00  0.00000000000E+00  0.32689435682E+03  0.32689435683E+03  0.25500000920E-02 0. -1.
        2   -1    0    0  501    0  0.00000000000E+00  0.00000000000E+00 -0.19117373191E+03  0.19117373193E+03  0.25500000920E-02 0.  1.
    10030    2    1    2    0    0  0.00000000000E+00  0.00000000000E+00  0.13572062490E+03  0.51806808876E+03  0.49997445591E+03 0.  0.
        1    1    3    3  502    0 -0.13372682882E+03  0.13340305522E+03 -0.10181664134E+03  0.21458301043E+03  0.50400001928E-02 0.  1.
       -1    1    3    3    0  502  0.13372682882E+03 -0.13340305522E+03  0.23753726624E+03  0.30348507832E+03  0.50400001928E-02 0. -1.
</event>
<event>
 5   0  0.3055293E-03  0.4998708E+03  0.7818609E-02  0.1013813E+00
       -1   -1    0    0    0  501  0.00000000000E+00  0.00000000000E+00  0.58778948031E+02  0.58778948247E+02  0.50400001928E-02 0. -1.
        1   -1    0    0  501    0  0.00000000000E+00  0.00000000000E+00 -0.10627563962E+04  0.10627563962E+04  0.50400001928E-02 0.  1.
    10030    2    1    2    0    0  0.00000000000E+00  0.00000000000E+00 -0.10039774482E+04  0.11215353445E+04  0.49987079575E+03 0.  0.
        3    1    3    3  502    0  0.56982588054E+02 -0.14743967160E+03 -0.67610687870E+02  0.17192058463E+03  0.10100000352E+00 0. -1.
       -3    1    3    3    0  502 -0.56982588054E+02  0.14743967160E+03 -0.93636676032E+03  0.94961475986E+03  0.10100000352E+00 0.  1.
</event>
<event>
 5   0  0.4989875E-03  0.5000865E+03  0.7818609E-02  0.1013756E+00
       -2   -1    0    0    0  501  0.00000000000E+00  0.00000000000E+00  0.39892748444E+02  0.39892748525E+02  0.25500000920E-02 0.  1.
        2   -1    0    0  501    0  0.00000000000E+00  0.00000000000E+00 -0.15672425957E+04  0.15672425957E+04  0.25500000920E-02 0. -1.
    10030    2    1    2    0    0  0.00000000000E+00  0.00000000000E+00 -0.15273498472E+04  0.16071353442E+04  0.50008645127E+03 0.  0.
        2    1    3    3  502    0  0.13335276207E+03  0.36819575130E+02 -0.14330461289E+04  0.14397082509E+04  0.25500000920E-02 0. -1.
       -2    1    3    3    0  502 -0.13335276207E+03 -0.36819575130E+02 -0.94303718364E+02  0.16742709329E+03  0.25500000920E-02 0.  1.
</event>
<event>
 5   0  0.5118882E-03  0.5001144E+03  0.7818609E-02  0.1013749E+00
        2   -1    0    0  501    0  0.00000000000E+00  0.00000000000E+00  0.11096534877E+04  0.11096534877E+04  0.25500000920E-02 0. -1.
       -2   -1    0    0    0  501  0.00000000000E+00  0.00000000000E+00 -0.56349674349E+02  0.56349674407E+02  0.25500000920E-02 0.  1.
    10030    2    1    2    0    0  0.00000000000E+00  0.00000000000E+00  0.10533038134E+04  0.11660031621E+04  0.50011443774E+03 0.  0.
        3    1    3    3  502    0  0.10097967492E+03  0.13722266166E+03  0.95339197976E+03  0.96849534376E+03  0.10100000352E+00 0. -1.
       -3    1    3    3    0  502 -0.10097967492E+03 -0.13722266166E+03  0.99911833620E+02  0.19750781837E+03  0.10100000352E+00 0.  1.
</event>
<event>
 5   0  0.4978779E-03  0.5001191E+03  0.7818609E-02  0.1013748E+00
       -2   -1    0    0    0  501  0.00000000000E+00  0.00000000000E+00  0.58013579643E+03  0.58013579644E+03  0.25500000920E-02 0. -1.
        2   -1    0    0  501    0  0.00000000000E+00  0.00000000000E+00 -0.10778472754E+03  0.10778472757E+03  0.25500000920E-02 0.  1.
    10030    2    1    2    0    0  0.00000000000E+00  0.00000000000E+00  0.47235106890E+03  0.68792052401E+03  0.50011910088E+03 0.  0.
        1    1    3    3  502    0 -0.17878787522E+03  0.17424068982E+03  0.25586299145E+03  0.35747838079E+03  0.50400001928E-02 0. -1.
       -1    1    3    3    0  502  0.17878787522E+03 -0.17424068982E+03  0.21648807744E+03  0.33044214322E+03  0.50400001928E-02 0.  1.
</event>
<event>
 5   0  0.4889251E-03  0.4998248E+03  0.7818609E-02  0.1013825E+00
        2   -1    0    0  501    0  0.00000000000E+00  0.00000000000E+00  0.96874838354E+03  0.96874838355E+03  0.25500000920E-02 0.  1.
       -2   -1    0    0    0  501  0.00000000000E+00  0.00000000000E+00 -0.64471019524E+02  0.64471019574E+02  0.25500000920E-02 0. -1.
    10030    2    1    2    0    0  0.00000000000E+00  0.00000000000E+00  0.90427736402E+03  0.10332194031E+04  0.49982475320E+03 0.  0.
        5    1    3    3  502    0 -0.16782734279E+03 -0.91398441871E+02  0.78490969432E+03  0.80785209686E+03  0.46999998093E+01 0.  1.
       -5    1    3    3    0  502  0.16782734279E+03  0.91398441871E+02  0.11936766970E+03  0.22536730626E+03  0.46999998093E+01 0. -1.
</event>
<event>
 5   0  0.3211775E-03  0.5000117E+03  0.7818609E-02  0.1013776E+00
       -1   -1    0    0    0  501  0.00000000000E+00  0.00000000000E+00  0.15044098791E+03  0.15044098799E+03  0.50400001928E-02 0. -1.
        1   -1    0    0  501    0  0.00000000000E+00  0.00000000000E+00 -0.41546480666E+03  0.41546480669E+03  0.50400001928E-02 0.  1.
    10030    2    1    2    0    0  0.00000000000E+00  0.00000000000E+00 -0.26502381876E+03  0.56590579468E+03  0.50001174381E+03 0.  0.
        4    1    3    3  502    0 -0.16518156088E+03  0.17794255084E+03 -0.19997259656E+03  0.31454594534E+03  0.12699999809E+01 0.  1.
       -4    1    3    3    0  502  0.16518156088E+03 -0.17794255084E+03 -0.65051222196E+02  0.25135984934E+03  0.12699999809E+01 0. -1.
</event>
<event>
 5   0  0.3055293E-03  0.5000985E+03  0.7818609E-02  0.1013753E+00
       -1   -1    0    0    0  501  0.00000000000E+00  0.00000000000E+00  0.92986654855E+02  0.92986654992E+02  0.50400001928E-02 0.  1.
        1   -1    0    0  501    0  0.00000000000E+00  0.00000000000E+00 -0.67240436313E+03  0.67240436315E+03  0.50400001928E-02 0. -1.
    10030    2    1    2    0    0  0.00000000000E+00  0.00000000000E+00 -0.57941770828E+03  0.76539101814E+03  0.50009852028E+03 0.  0.
        3    1    3    3  502    0  0.11862284957E+03 -0.77166744919E+02 -0.60522004901E+03  0.62154437081E+03  0.10100000352E+00 0. -1.
       -3    1    3    3    0  502 -0.11862284957E+03  0.77166744919E+02  0.25802340734E+02  0.14384664733E+03  0.10100000352E+00 0.  1.
</event>
<event>
 5   0  0.2005125E-03  0.4997663E+03  0.7818609E-02  0.1013840E+00
       -3   -1    0    0    0  501  0.00000000000E+00  0.00000000000E+00  0.35254727269E+02  0.35254871944E+02  0.10100000352E+00 0. -1.
        3   -1    0    0  501    0  0.00000000000E+00  0.00000000000E+00 -0.17711514368E+04  0.17711514397E+04  0.10100000352E+00 0.  1.
    10030    2    1    2    0    0  0.00000000000E+00  0.00000000000E+00 -0.17358967095E+04  0.18064063116E+04  0.49976632191E+03 0.  0.
        4    1    3    3  502    0 -0.17478233790E+03 -0.13955534999E+03 -0.46520427874E+03  0.51617942153E+03  0.12699999809E+01 0.  1.
       -4    1    3    3    0  502  0.17478233790E+03  0.13955534999E+03 -0.12706924308E+04  0.12902268901E+04  0.12699999809E+01 0. -1.
</event>
<event>
 5   0  0.5095783E-03  0.4999791E+03  0.7818609E-02  0.1013784E+00
        2   -1    0    0  501    0  0.00000000000E+00  0.00000000000E+00  0.80968104992E+02  0.80968105032E+02  0.25500000920E-02 0.  1.
       -2   -1    0    0    0  501  0.00000000000E+00  0.00000000000E+00 -0.77184421826E+03  0.77184421826E+03  0.25500000920E-02 0. -1.
    10030    2    1    2    0    0  0.00000000000E+00  0.00000000000E+00 -0.69087611326E+03  0.85281232329E+03  0.49997905444E+03 0.  0.
        4    1    3    3  502    0 -0.11742473668E+03 -0.34122099088E+02 -0.71734342969E+03  0.72769230823E+03  0.12699999809E+01 0. -1.
       -4    1    3    3    0  502  0.11742473668E+03  0.34122099088E+02  0.26467316428E+02  0.12512001506E+03  0.12699999809E+01 0.  1.
</event>
<event>
 5   0  0.3211775E-03  0.4998146E+03  0.7818609E-02  0.1013827E+00
        1   -1    0    0  501    0  0.00000000000E+00  0.00000000000E+00  0.70632271481E+03  0.70632271482E+03  0.50400001928E-02 0. -1.
       -1   -1    0    0    0  501  0.00000000000E+00  0.00000000000E+00 -0.88420856836E+02  0.88420856980E+02  0.50400001928E-02 0.  1.
    10030    2    1    2    0    0  0.00000000000E+00  0.00000000000E+00  0.61790185797E+03  0.79474357180E+03  0.49981460447E+03 0.  0.
        4    1    3    3  502    0 -0.21437922397E+03  0.39898873029E+02  0.11484641885E+03  0.24645828159E+03  0.12699999809E+01 0.  1.
       -4    1    3    3    0  502  0.21437922397E+03 -0.39898873029E+02  0.50305543912E+03  0.54828529022E+03  0.12699999809E+01 0. -1.
</event>
<event>
 5   0  0.2005125E-03  0.4999904E+03  0.7818609E-02  0.1013781E+00
        3   -1    0    0  501    0  0.00000000000E+00  0.00000000000E+00  0.82149402833E+03  0.82149403454E+03  0.10100000352E+00 0.  1.
       -3   -1    0    0    0  501  0.00000000000E+00  0.00000000000E+00 -0.76077937652E+02  0.76078004696E+02  0.10100000352E+00 0. -1.
    10030    2    1    2    0    0  0.00000000000E+00  0.00000000000E+00  0.74541609068E+03  0.89757203923E+03  0.49999041728E+03 0.  0.
        4    1    3    3  502    0  0.21743310505E+03 -0.38476261009E+02  0.16229341766E+03  0.27404077096E+03  0.12699999809E+01 0. -1.
       -4    1    3    3    0  502 -0.21743310505E+03  0.38476261009E+02  0.58312267302E+03  0.62353126828E+03  0.12699999809E+01 0.  1.
</event>
<event>
 5   0  0.2863538E-03  0.5010848E+03  0.7818609E-02  0.1013496E+00
        1   -1    0    0  501    0  0.00000000000E+00  0.00000000000E+00  0.77132269346E+03  0.77132269347E+03  0.50400001928E-02 0. -1.
       -1   -1    0    0    0  501  0.00000000000E+00  0.00000000000E+00 -0.81381631124E+02  0.81381631280E+02  0.50400001928E-02 0.  1.
    10030    2    1    2    0    0  0.00000000000E+00  0.00000000000E+00  0.68994106233E+03  0.85270432475E+03  0.50108481913E+03 0.  0.
        1    1    3    3  502    0  0.14562989989E+03 -0.18612544356E+03  0.48653811370E+03  0.54089748067E+03  0.50400001928E-02 0.  1.
       -1    1    3    3    0  502 -0.14562989989E+03  0.18612544356E+03  0.20340294863E+03  0.31180684409E+03  0.50400001928E-02 0. -1.
</event>
<event>
 5   0  0.4978779E-03  0.4998331E+03  0.7818609E-02  0.1013822E+00
       -2   -1    0    0    0  501  0.00000000000E+00  0.00000000000E+00  0.10963499575E+03  0.10963499578E+03  0.25500000920E-02 0. -1.
        2   -1    0    0  501    0  0.00000000000E+00  0.00000000000E+00 -0.56969298755E+03  0.56969298756E+03  0.25500000920E-02 0.  1.
    10030    2    1    2    0    0  0.00000000000E+00  0.00000000000E+00 -0.46005799181E+03  0.67932798334E+03  0.49983312527E+03 0.  0.
        1    1    3    3  502    0  0.10087894585E+03  0.86628692710E+02 -0.51762504650E+03  0.53443126865E+03  0.50400001928E-02 0.  1.
       -1    1    3    3    0  502 -0.10087894585E+03 -0.86628692710E+02  0.57567054693E+02  0.14489671469E+03  0.50400001928E-02 0. -1.
</event>
<event>
 5   0  0.3057783E-03  0.4999502E+03  0.7818609E-02  0.1013792E+00
        1   -1    0    0  501    0  0.00000000000E+00  0.00000000000E+00  0.70791989630E+03  0.70791989632E+03  0.50400001928E-02 0. -1.
       -1   -1    0    0    0  501  0.00000000000E+00  0.00000000000E+00 -0.88269227742E+02  0.88269227886E+02  0.50400001928E-02 0.  1.
    10030    2    1    2    0    0  0.00000000000E+00  0.00000000000E+00  0.61965066856E+03  0.79618912420E+03  0.49995016797E+03 0.  0.
        5    1    3    3  502    0  0.30038450389E+02  0.13708790328E+03  0.63917665230E+03  0.65441904356E+03  0.46999998093E+01 0. -1.
       -5    1    3    3    0  502 -0.30038450389E+02 -0.13708790328E+03 -0.19525983746E+02  0.14177008064E+03  0.46999998093E+01 0.  1.
</event>
<event>
 5   0  0.5095783E-03  0.4991982E+03  0.7818609E-02  0.1013988E+00
        2   -1    0    0  501    0  0.00000000000E+00  0.00000000000E+00  0.49089018148E+03  0.49089018149E+03  0.25500000920E-02 0.  1.
       -2   -1    0    0    0  501  0.00000000000E+00  0.00000000000E+00 -0.12691168902E+03  0.12691168904E+03  0.25500000920E-02 0. -1.
    10030    2    1    2    0    0  0.00000000000E+00  0.00000000000E+00  0.36397849247E+03  0.61780187053E+03  0.49919816531E+03 0.  0.
        4    1    3    3  502    0  0.11435992499E+03 -0.79463182830E+02 -0.74360397662E+02  0.15787232661E+03  0.12699999809E+01 0. -1.
       -4    1    3    3    0  502 -0.11435992499E+03  0.79463182830E+02  0.43833889013E+03  0.45992954392E+03  0.12699999809E+01 0.  1.
</event>
<event>
 5   0  0.4978779E-03  0.4999048E+03  0.7818609E-02  0.1013804E+00
        2   -1    0    0  501    0  0.00000000000E+00  0.00000000000E+00  0.54223472170E+03  0.54223472170E+03  0.25500000920E-02 0.  1.
       -2   -1    0    0    0  501  0.00000000000E+00  0.00000000000E+00 -0.11521985215E+03  0.11521985218E+03  0.25500000920E-02 0. -1.
    10030    2    1    2    0    0  0.00000000000E+00  0.00000000000E+00  0.42701486955E+03  0.65745457388E+03  0.49990480884E+03 0.  0.
        1    1    3    3  502    0  0.22579032419E+03  0.95046573357E+02  0.14826328845E+03  0.28635140009E+03  0.50400001928E-02 0.  1.
       -1    1    3    3    0  502 -0.22579032419E+03 -0.95046573357E+02  0.27875158110E+03  0.37110317379E+03  0.50400001928E-02 0. -1.
</event>
<event>
 5   0  0.5118882E-03  0.5003775E+03  0.7818609E-02  0.1013680E+00
       -2   -1    0    0    0  501  0.00000000000E+00  0.00000000000E+00  0.32368105426E+03  0.32368105427E+03  0.25500000920E-02 0.  1.
        2   -1    0    0  501    0  0.00000000000E+00  0.00000000000E+00 -0.19338302690E+03  0.19338302692E+03  0.25500000920E-02 0. -1.
    10030    2    1    2    0    0  0.00000000000E+00  0.00000000000E+00  0.13029802735E+03  0.51706408119E+03  0.50037754558E+03 0.  0.
        3    1    3    3  502    0  0.16277233973E+03 -0.47673189927E+02 -0.12490511078E+03  0.21063918087E+03  0.10100000352E+00 0. -1.
       -3    1    3    3    0  502 -0.16277233973E+03  0.47673189927E+02  0.25520313813E+03  0.30642490031E+03  0.10100000352E+00 0.  1.
</event>
<event>
 5   0  0.4989875E-03  0.4998962E+03  0.7818609E-02  0.1013806E+00
        2   -1    0    0  501    0  0.00000000000E+00  0.00000000000E+00  0.10293397814E+04  0.10293397814E+04  0.25500000920E-02 0.  1.
       -2   -1    0    0    0  501  0.00000000000E+00  0.00000000000E+00 -0.60693325953E+02  0.60693326006E+02  0.25500000920E-02 0. -1.
    10030    2    1    2    0    0  0.00000000000E+00  0.00000000000E+00  0.96864645544E+03  0.10900331074E+04  0.49989620882E+03 0.  0.
        2    1    3    3  502    0 -0.23845752068E+03  0.50187067946E+02  0.60559858051E+03  0.65278662033E+03  0.25500000920E-02 0. -1.
       -2    1    3    3    0  502  0.23845752068E+03 -0.50187067946E+02  0.36304787493E+03  0.43724648707E+03  0.25500000920E-02 0.  1.
</event>
<event>
 5   0  0.4978779E-03  0.4999199E+03  0.7818609E-02  0.1013800E+00
        2   -1    0    0  501    0  0.00000000000E+00  0.00000000000E+00  0.57995528324E+03  0.57995528324E+03  0.25500000920E-02 0. -1.
       -2   -1    0    0    0  501  0.00000000000E+00  0.00000000000E+00 -0.10773238318E+03  0.10773238321E+03  0.25500000920E-02 0.  1.
    10030    2    1    2    0    0  0.00000000000E+00  0.00000000000E+00  0.47222290006E+03  0.68768766646E+03  0.49991985284E+03 0.  0.
        1    1    3    3  502    0 -0.35814266805E+02  0.24453838625E+03  0.28754991957E+03  0.37916571618E+03  0.50400001928E-02 0. -1.
       -1    1    3    3    0  502  0.35814266805E+02 -0.24453838625E+03  0.18467298049E+03  0.30852195028E+03  0.50400001928E-02 0.  1.
</event>
<event>
 5   0  0.4889251E-03  0.4999111E+03  0.7818609E-02  0.1013802E+00
        2   -1    0    0  501    0  0.00000000000E+00  0.00000000000E+00  0.12774124378E+04  0.12774124378E+04  0.25500000920E-02 0. -1.
       -2   -1    0    0    0  501  0.00000000000E+00  0.00000000000E+00 -0.48909628693E+02  0.48909628760E+02  0.25500000920E-02 0.  1.
    10030    2    1    2    0    0  0.00000000000E+00  0.00000000000E+00  0.12285028091E+04  0.13263220666E+04  0.49991106436E+03 0.  0.
        5    1    3    3  502    0  0.20264645903E+03 -0.14096468443E+03  0.51084628048E+03  0.56738227139E+03  0.46999998093E+01 0.  1.
       -5    1    3    3    0  502 -0.20264645903E+03  0.14096468443E+03  0.71765652863E+03  0.75893979517E+03  0.46999998093E+01 0. -1.
</event>
<event>
 5   0  0.2005125E-03  0.5007712E+03  0.7818609E-02  0.1013578E+00
       -3   -1    0    0    0  501  0.00000000000E+00  0.00000000000E+00  0.82320950531E+02  0.82321012490E+02  0.10100000352E+00 0.  1.
        3   -1    0    0  501    0  0.00000000000E+00  0.00000000000E+00 -0.76156713274E+03  0.76156713944E+03  0.10100000352E+00 0. -1.
    10030    2    1    2    0    0  0.00000000000E+00  0.00000000000E+00 -0.67924618221E+03  0.84388815193E+03  0.50077124210E+03 0.  0.
        3    1    3    3  502    0  0.11633217795E+03  0.10045716195E+03 -0.65367436596E+01  0.15384263464E+03  0.10100000352E+00 0.  1.
       -3    1    3    3    0  502 -0.11633217795E+03 -0.10045716195E+03 -0.67270943855E+03  0.69004551729E+03  0.10100000352E+00 0. -1.
</event>
<event>
 5   0  0.4989875E-03  0.5001282E+03  0.7818609E-02  0.1013745E+00
        2   -1    0    0  501    0  0.00000000000E+00  0.00000000000E+00  0.75512787994E+03  0.75512787995E+03  0.25500000920E-02 0. -1.
       -2   -1    0    0    0  501  0.00000000000E+00  0.00000000000E+00 -0.82809888821E+02  0.82809888860E+02  0.25500000920E-02 0.  1.
    10030    2    1    2    0    0  0.00000000000E+00  0.00000000000E+00  0.67231799112E+03  0.83793776881E+03  0.50012820677E+03 0.  0.
        2    1    3    3  502    0 -0.24492134626E+03 -0.78975273911E+01  0.25266832896E+03  0.35198028533E+03  0.25500000920E-02 0.  1.
       -2    1    3    3    0  502  0.24492134626E+03  0.78975273911E+01  0.41964966216E+03  0.48595748348E+03  0.25500000920E-02 0. -1.
</event>
<event>
 5   0  0.3055293E-03  0.4999561E+03  0.7818609E-02  0.1013790E+00
       -1   -1    0    0    0  501  0.00000000000E+00  0.00000000000E+00  0.15486048548E+03  0.15486048556E+03  0.50400001928E-02 0.  1.
        1   -1    0    0  501    0  0.00000000000E+00  0.00000000000E+00 -0.40351814297E+03  0.40351814301E+03  0.50400001928E-02 0. -1.
    10030    2    1    2    0    0  0.00000000000E+00  0.00000000000E+00 -0.24865765749E+03  0.55837862857E+03  0.49995606028E+03 0.  0.
        3    1    3    3  502    0 -0.19891005658E+03 -0.66168986244E+02 -0.27642411538E+03  0.34692051988E+03  0.10100000352E+00 0. -1.
       -3    1    3    3    0  502  0.19891005658E+03  0.66168986244E+02  0.27766457887E+02  0.21145810869E+03  0.10100000352E+00 0.  1.
</event>
<event>
 5   0  0.2863538E-03  0.4999567E+03  0.7818609E-02  0.1013790E+00
       -1   -1    0    0    0  501  0.00000000000E+00  0.00000000000E+00  0.79985890113E+02  0.79985890272E+02  0.50400001928E-02 0. -1.
        1   -1    0    0  501    0  0.00000000000E+00  0.00000000000E+00 -0.78125263248E+03  0.78125263250E+03  0.50400001928E-02 0.  1.
    10030    2    1    2    0    0  0.00000000000E+00  0.00000000000E+00 -0.70126674237E+03  0.86123852277E+03  0.49995674728E+03 0.  0.
        1    1    3    3  502    0 -0.17798411274E+03 -0.12789463904E+03 -0.55773432390E+03  0.59925199972E+03  0.50400001928E-02 0.  1.
       -1    1    3    3    0  502  0.17798411274E+03  0.12789463904E+03 -0.14353241847E+03  0.26198652305E+03  0.50400001928E-02 0. -1.
</event>
<event>
 5   0  0.4989875E-03  0.4998129E+03  0.7818609E-02  0.1013828E+00
        2   -1    0    0  501    0  0.00000000000E+00  0.00000000000E+00  0.19105557576E+03  0.19105557578E+03  0.25500000920E-02 0.  1.
       -2   -1    0    0    0  501  0.00000000000E+00  0.00000000000E+00 -0.32688517766E+03  0.32688517767E+03  0.25500000920E-02 0. -1.
    10030    2    1    2    0    0  0.00000000000E+00  0.00000000000E+00 -0.13582960190E+03  0.51794075344E+03  0.49981290832E+03 0.  0.
        2    1    3    3  502    0 -0.80332014305E+01  0.15704868127E+03 -0.26918703826E+03  0.31175388079E+03  0.25500000920E-02 0. -1.
       -2    1    3    3    0  502  0.80332014305E+01 -0.15704868127E+03  0.13335743636E+03  0.20618687265E+03  0.25500000920E-02 0.  1.
</event>
<event>
 5   0  0.4889251E-03  0.4996599E+03  0.7818609E-02  0.1013868E+00
       -2   -1    0    0    0  501  0.00000000000E+00  0.00000000000E+00  0.16509088191E+03  0.16509088193E+03  0.25500000920E-02 0. -1.
        2   -1    0    0  501    0  0.00000000000E+00  0.00000000000E+00 -0.37806448528E+03  0.37806448529E+03  0.25500000920E-02 0.  1.
    10030    2    1    2    0    0  0.00000000000E+00  0.00000000000E+00 -0.21297360337E+03  0.54315536722E+03  0.49965988152E+03 0.  0.
        5    1    3    3  502    0 -0.75383595806E+02 -0.16089717264E+03 -0.29733245622E+03  0.34640910236E+03  0.46999998093E+01 0.  1.
       -5    1    3    3    0  502  0.75383595806E+02  0.16089717264E+03  0.84358852853E+02  0.19674626485E+03  0.46999998093E+01 0. -1.
</event>
<event>
 5   0  0.4889251E-03  0.4996405E+03  0.7818609E-02  0.1013873E+00
       -2   -1    0    0    0  501  0.00000000000E+00  0.00000000000E+00  0.24442985801E+03  0.24442985803E+03  0.25500000920E-02 0.  1.
        2   -1    0    0  501    0  0.00000000000E+00  0.00000000000E+00 -0.25532955968E+03  0.25532955970E+03  0.25500000920E-02 0. -1.
    10030    2    1    2    0    0  0.00000000000E+00  0.00000000000E+00 -0.10899701671E+02  0.49975941772E+03  0.49964054290E+03 0.  0.
        5    1    3    3  502    0  0.47955676642E+02 -0.24511342286E+03 -0.26669161955E+01  0.24981901334E+03  0.46999998093E+01 0. -1.
       -5    1    3    3    0  502 -0.47955676642E+02  0.24511342286E+03 -0.82327854753E+01  0.24994040438E+03  0.46999998093E+01 0.  1.
</event>
<event>
 5   0  0.3211775E-03  0.4999593E+03  0.7818609E-02  0.1013790E+00
        1   -1    0    0  501    0  0.00000000000E+00  0.00000000000E+00  0.24239915481E+03  0.24239915486E+03  0.50400001928E-02 0. -1.
       -1   -1    0    0    0  501  0.00000000000E+00  0.00000000000E+00 -0.25779717789E+03  0.25779717794E+03  0.50400001928E-02 0.  1.
    10030    2    1    2    0    0  0.00000000000E+00  0.00000000000E+00 -0.15398023084E+02  0.50019633280E+03  0.49995927058E+03 0.  0.
        4    1    3    3  502    0  0.24788616924E+03 -0.19077332835E+02  0.18326927839E+02  0.24929698497E+03  0.12699999809E+01 0. -1.
       -4    1    3    3    0  502 -0.24788616924E+03  0.19077332835E+02 -0.33724950923E+02  0.25089934784E+03  0.12699999809E+01 0.  1.
</event>
<event>
 5   0  0.3057783E-03  0.4996878E+03  0.7818609E-02  0.1013860E+00
        1   -1    0    0  501    0  0.00000000000E+00  0.00000000000E+00  0.82853638857E+03  0.82853638858E+03  0.50400001928E-02 0. -1.
       -1   -1    0    0    0  501  0.00000000000E+00  0.00000000000E+00 -0.75340044142E+02  0.75340044310E+02  0.50400001928E-02 0.  1.
    10030    2    1    2    0    0  0.00000000000E+00  0.00000000000E+00  0.75319634442E+03  0.90387643289E+03  0.49968777520E+03 0.  0.
        5    1    3    3  502    0 -0.74807915434E+02  0.19311650989E+02  0.80630090079E+03  0.81000765224E+03  0.46999998093E+01 0. -1.
       -5    1    3    3    0  502  0.74807915434E+02 -0.19311650989E+02 -0.53104556367E+02  0.93868780650E+02  0.46999998093E+01 0.  1.
</event>
<event>
 5   0  0.4978779E-03  0.4998757E+03  0.7818609E-02  0.1013811E+00
       -2   -1    0    0    0  501  0.00000000000E+00  0.00000000000E+00  0.35743463404E+03  0.35743463405E+03  0.25500000920E-02 0.  1.
        2   -1    0    0  501    0  0.00000000000E+00  0.00000000000E+00 -0.17477024873E+03  0.17477024874E+03  0.25500000920E-02 0. -1.
    10030    2    1    2    0    0  0.00000000000E+00  0.00000000000E+00  0.18266438532E+03  0.53220488280E+03  0.49987574417E+03 0.  0.
        1    1    3    3  502    0 -0.23616335887E+03 -0.36409883745E+02  0.13311623036E+02  0.23932407116E+03  0.50400001928E-02 0. -1.
       -1    1    3    3    0  502  0.23616335887E+03  0.36409883745E+02  0.16935276228E+03  0.29288081163E+03  0.50400001928E-02 0.  1.
</event>
<event>
 5   0  0.5095783E-03  0.5000156E+03  0.7818609E-02  0.1013775E+00
       -2   -1    0    0    0  501  0.00000000000E+00  0.00000000000E+00  0.12678705236E+03  0.12678705239E+03  0.25500000920E-02 0. -1.
        2   -1    0    0  501    0  0.00000000000E+00  0.00000000000E+00 -0.49298336241E+03  0.49298336241E+03  0.25500000920E-02 0.  1.
    10030    2    1    2    0    0  0.00000000000E+00  0.00000000000E+00 -0.36619631004E+03  0.61977041480E+03  0.50001562933E+03 0.  0.
        4    1    3    3  502    0  0.12541972921E+03 -0.18343461980E+03 -0.32509514960E+03  0.39378526815E+03  0.12699999809E+01 0.  1.
       -4    1    3    3    0  502 -0.12541972921E+03  0.18343461980E+03 -0.41101160441E+02  0.22598514665E+03  0.12699999809E+01 0. -1.
</event>
<event>
 5   0  0.4989875E-03  0.5001409E+03  0.7818609E-02  0.1013742E+00
        2   -1    0    0  501    0  0.00000000000E+00  0.00000000000E+00  0.15500952871E+03  0.15500952873E+03  0.25500000920E-02 0. -1.
       -2   -1    0    0    0  501  0.00000000000E+00  0.00000000000E+00 -0.40342837057E+03  0.40342837058E+03  0.25500000920E-02 0.  1.
    10030    2    1    2    0    0  0.00000000000E+00  0.00000000000E+00 -0.24841884186E+03  0.55843789932E+03  0.50014094653E+03 0.  0.
        2    1    3    3  502    0 -0.15884202413E+03 -0.13857445593E+03  0.26015032516E+02  0.21239220887E+03  0.25500000920E-02 0. -1.
       -2    1    3    3    0  502  0.15884202413E+03  0.13857445593E+03 -0.27443387437E+03  0.34604569045E+03  0.25500000920E-02 0.  1.
</event>
<event>
 5   0  0.4989875E-03  0.4997873E+03  0.7818609E-02  0.1013834E+00
       -2   -1    0    0    0  501  0.00000000000E+00  0.00000000000E+00  0.18088763899E+03  0.18088763901E+03  0.25500000920E-02 0. -1.
        2   -1    0    0  501    0  0.00000000000E+00  0.00000000000E+00 -0.34522447383E+03  0.34522447384E+03  0.25500000920E-02 0.  1.
    10030    2    1    2    0    0  0.00000000000E+00  0.00000000000E+00 -0.16433683484E+03  0.52611211285E+03  0.49978731477E+03 0.  0.
        2    1    3    3  502    0  0.16383694030E+03 -0.75489863122E+02  0.99872564297E+02  0.20619357785E+03  0.25500000920E-02 0. -1.
       -2    1    3    3    0  502 -0.16383694030E+03  0.75489863122E+02 -0.26420939913E+03  0.31991853500E+03  0.25500000920E-02 0.  1.
</event>
<event>
 5   0  0.2005125E-03  0.4992204E+03  0.7818609E-02  0.1013983E+00
        4   -1    0    0  501    0  0.00000000000E+00  0.00000000000E+00  0.36795343148E+03  0.36795562319E+03  0.12699999809E+01 0.  1.
       -4   -1    0    0    0  501  0.00000000000E+00  0.00000000000E+00 -0.16932406822E+03  0.16932883091E+03  0.12699999809E+01 0. -1.
    10030    2    1    2    0    0  0.00000000000E+00  0.00000000000E+00  0.19862936326E+03  0.53728445410E+03  0.49922035282E+03 0.  0.
        1    1    3    3  502    0 -0.21588131915E+03  0.55819975419E+02 -0.21420032380E+02  0.22400765930E+03  0.50400001928E-02 0. -1.
       -1    1    3    3    0  502  0.21588131915E+03 -0.55819975419E+02  0.22004939564E+03  0.31327679480E+03  0.50400001928E-02 0.  1.
</event>
<event>
 5   0  0.2863538E-03  0.5006582E+03  0.7818609E-02  0.1013607E+00
       -1   -1    0    0    0  501  0.00000000000E+00  0.00000000000E+00  0.16238519100E+03  0.16238519108E+03  0.50400001928E-02 0.  1.
        1   -1    0    0  501    0  0.00000000000E+00  0.00000000000E+00 -0.38590136849E+03  0.38590136852E+03  0.50400001928E-02 0. -1.
    10030    2    1    2    0    0  0.00000000000E+00  0.00000000000E+00 -0.22351617749E+03  0.54828655960E+03  0.50065823656E+03 0.  0.
        1    1    3    3  502    0 -0.16146115233E+03  0.10255066446E+03 -0.28860850274E+03  0.34623866100E+03  0.50400001928E-02 0. -1.
       -1    1    3    3    0  502  0.16146115233E+03 -0.10255066446E+03  0.65092325255E+02  0.20204789859E+03  0.50400001928E-02 0.  1.
</event>
<event>
 5   0  0.4889251E-03  0.4999815E+03  0.7818609E-02  0.1013784E+00
       -2   -1    0    0    0  501  0.00000000000E+00  0.00000000000E+00  0.83490184498E+02  0.83490184536E+02  0.25500000920E-02 0. -1.
        2   -1    0    0  501    0  0.00000000000E+00  0.00000000000E+00 -0.74853563193E+03  0.74853563193E+03  0.25500000920E-02 0.  1.
    10030    2    1    2    0    0  0.00000000000E+00  0.00000000000E+00 -0.66504544743E+03  0.83202581647E+03  0.49998151178E+03 0.  0.
        5    1    3    3  502    0 -0.21916818921E+03  0.14858306956E+02 -0.53094910728E+03  0.57461683665E+03  0.46999998093E+01 0.  1.
       -5    1    3    3    0  502  0.21916818921E+03 -0.14858306956E+02 -0.13409634015E+03  0.25740897982E+03  0.46999998093E+01 0. -1.
</event>
<event>
 5   0  0.4978779E-03  0.4999450E+03  0.7818609E-02  0.1013793E+00
        2   -1    0    0  501    0  0.00000000000E+00  0.00000000000E+00  0.82932960584E+03  0.82932960585E+03  0.25500000920E-02 0.  1.
       -2   -1    0    0    0  501  0.00000000000E+00  0.00000000000E+00 -0.75345501610E+02  0.75345501653E+02  0.25500000920E-02 0. -1.
    10030    2    1    2    0    0  0.00000000000E+00  0.00000000000E+00  0.75398410424E+03  0.90467510750E+03  0.49994501767E+03 0.  0.
        1    1    3    3  502    0 -0.76182496268E+02  0.20615408197E+03  0.16148866833E+03  0.27273039485E+03  0.50400001928E-02 0.  1.
       -1    1    3    3    0  502  0.76182496268E+02 -0.20615408197E+03  0.59249543591E+03  0.63194471265E+03  0.50400001928E-02 0. -1.
</event>
<event>
 5   0  0.3211775E-03  0.4999574E+03  0.7818609E-02  0.1013790E+00
        1   -1    0    0  501    0  0.00000000000E+00  0.00000000000E+00  0.23752224443E+03  0.23752224448E+03  0.50400001928E-02 0. -1.
       -1   -1    0    0    0  501  0.00000000000E+00  0.00000000000E+00 -0.26308836643E+03  0.26308836648E+03  0.50400001928E-02 0.  1.
    10030    2    1    2    0    0  0.00000000000E+00  0.00000000000E+00 -0.25566122003E+02  0.50061061096E+03  0.49995735539E+03 0.  0.
        4    1    3    3  502    0 -0.52674153856E+02  0.20985036087E+03 -0.13815043282E+03  0.25670780166E+03  0.12699999809E+01 0.  1.
       -4    1    3    3    0  502  0.52674153856E+02 -0.20985036087E+03  0.11258431082E+03  0.24390280930E+03  0.12699999809E+01 0. -1.
</event>
<event>
 5   0  0.3055293E-03  0.4998045E+03  0.7818609E-02  0.1013830E+00
        1   -1    0    0  501    0  0.00000000000E+00  0.00000000000E+00  0.58933570722E+03  0.58933570724E+03  0.50400001928E-02 0. -1.
       -1   -1    0    0    0  501  0.00000000000E+00  0.00000000000E+00 -0.10596869666E+03  0.10596869678E+03  0.50400001928E-02 0.  1.
    10030    2    1    2    0    0  0.00000000000E+00  0.00000000000E+00  0.48336701056E+03  0.69530440403E+03  0.49980450915E+03 0.  0.
        3    1    3    3  502    0  0.40138731868E+02 -0.12491188376E+03  0.53756775851E+03  0.55334727043E+03  0.10100000352E+00 0. -1.
       -3    1    3    3    0  502 -0.40138731868E+02  0.12491188376E+03 -0.54200747949E+02  0.14195713360E+03  0.10100000352E+00 0.  1.
</event>
<event>
 5   0  0.4889251E-03  0.5017311E+03  0.7818609E-02  0.1013328E+00
       -2   -1    0    0    0  501  0.00000000000E+00  0.00000000000E+00  0.16531408213E+03  0.16531408215E+03  0.25500000920E-02 0.  1.
        2   -1    0    0  501    0  0.00000000000E+00  0.00000000000E+00 -0.38069057927E+03  0.38069057928E+03  0.25500000920E-02 0. -1.
    10030    2    1    2    0    0  0.00000000000E+00  0.00000000000E+00 -0.21537649714E+03  0.54600466143E+03  0.50173105822E+03 0.  0.
        5    1    3    3  502    0 -0.16110819614E+03  0.75351837800E+02 -0.30014918071E+03  0.34892029319E+03  0.46999998093E+01 0. -1.
       -5    1    3    3    0  502  0.16110819614E+03 -0.75351837800E+02  0.84772683572E+02  0.19708436823E+03  0.46999998093E+01 0.  1.
</event>
<event>
 5   0  0.2005125E-03  0.4998930E+03  0.7818609E-02  0.1013807E+00
        4   -1    0    0  501    0  0.00000000000E+00  0.00000000000E+00  0.15404509260E+03  0.15405032767E+03  0.12699999809E+01 0.  1.
       -4   -1    0    0    0  501  0.00000000000E+00  0.00000000000E+00 -0.40553864790E+03  0.40554063648E+03  0.12699999809E+01 0. -1.
    10030    2    1    2    0    0  0.00000000000E+00  0.00000000000E+00 -0.25149355530E+03  0.55959096415E+03  0.49989302736E+03 0.  0.
        2    1    3    3  502    0 -0.73545848030E+02 -0.15883491653E+03 -0.32548035002E+03  0.36956052377E+03  0.25500000920E-02 0. -1.
       -2    1    3    3    0  502  0.73545848030E+02  0.15883491653E+03  0.73986794724E+02  0.19003044038E+03  0.25500000920E-02 0.  1.
</event>
<event>
 5   0  0.4989875E-03  0.5000464E+03  0.7818609E-02  0.1013767E+00
        2   -1    0    0  501    0  0.00000000000E+00  0.00000000000E+00  0.50062447235E+03  0.50062447236E+03  0.25500000920E-02 0.  1.
       -2   -1    0    0    0  501  0.00000000000E+00  0.00000000000E+00 -0.12486726795E+03  0.12486726798E+03  0.25500000920E-02 0. -1.
    10030    2    1    2    0    0  0.00000000000E+00  0.00000000000E+00  0.37575720440E+03  0.62549174033E+03  0.50004643841E+03 0.  0.
        2    1    3    3  502    0  0.15083114636E+03  0.12940913875E+03  0.37764325376E+03  0.42674487346E+03  0.25500000920E-02 0.  1.
       -2    1    3    3    0  502 -0.15083114636E+03 -0.12940913875E+03 -0.18860493605E+01  0.19874686688E+03  0.25500000920E-02 0. -1.
</event>
<event>
 5   0  0.5095783E-03  0.5000500E+03  0.7818609E-02  0.1013766E+00
       -2   -1    0    0    0  501  0.00000000000E+00  0.00000000000E+00  0.38438480177E+02  0.38438480261E+02  0.25500000920E-02 0.  1.
        2   -1    0    0  501    0  0.00000000000E+00  0.00000000000E+00 -0.16262999866E+04  0.16262999866E+04  0.25500000920E-02 0. -1.
    10030    2    1    2    0    0  0.00000000000E+00  0.00000000000E+00 -0.15878615064E+04  0.16647384669E+04  0.50004999697E+03 0.  0.
        4    1    3    3  502    0 -0.13960169525E+03  0.19882356272E+03 -0.99064470404E+03  0.10199990122E+04  0.12699999809E+01 0. -1.
       -4    1    3    3    0  502  0.13960169525E+03 -0.19882356272E+03 -0.59721680237E+03  0.64473945462E+03  0.12699999809E+01 0.  1.
</event>
<event>
 5   0  0.2863538E-03  0.4998553E+03  0.7818609E-02  0.1013817E+00
       -1   -1    0    0    0  501  0.00000000000E+00  0.00000000000E+00  0.75152682764E+02  0.75152682933E+02  0.50400001928E-02 0.  1.
        1   -1    0    0  501    0  0.00000000000E+00  0.00000000000E+00 -0.83115902037E+03  0.83115902038E+03  0.50400001928E-02 0. -1.
    10030    2    1    2    0    0  0.00000000000E+00  0.00000000000E+00 -0.75600633760E+03  0.90631170331E+03  0.49985530013E+03 0.  0.
        1    1    3    3  502    0  0.23847925914E+02 -0.22370105602E+03 -0.57540283172E+03  0.61781818104E+03  0.50400001928E-02 0.  1.
       -1    1    3    3    0  502 -0.23847925914E+02  0.22370105602E+03 -0.18060350588E+03  0.28849352228E+03  0.50400001928E-02 0. -1.
</event>
<event>
 5   0  0.2863538E-03  0.4988826E+03  0.7818609E-02  0.1014071E+00
       -1   -1    0    0    0  501  0.00000000000E+00  0.00000000000E+00  0.12851779558E+03  0.12851779568E+03  0.50400001928E-02 0. -1.
        1   -1    0    0  501    0  0.00000000000E+00  0.00000000000E+00 -0.48414270501E+03  0.48414270503E+03  0.50400001928E-02 0.  1.
    10030    2    1    2    0    0  0.00000000000E+00  0.00000000000E+00 -0.35562490943E+03  0.61266050071E+03  0.49888256426E+03 0.  0.
        1    1    3    3  502    0  0.79217650252E+02 -0.19125334783E+03 -0.34871962725E+03  0.40553502639E+03  0.50400001928E-02 0.  1.
       -1    1    3    3    0  502 -0.79217650252E+02  0.19125334783E+03 -0.69052821737E+01  0.20712547433E+03  0.50400001928E-02 0. -1.
</event>
<event>
 5   0  0.3055293E-03  0.5000474E+03  0.7818609E-02  0.1013767E+00
        1   -1    0    0  501    0  0.00000000000E+00  0.00000000000E+00  0.15806417473E+04  0.15806417473E+04  0.50400001928E-02 0. -1.
       -1   -1    0    0    0  501  0.00000000000E+00  0.00000000000E+00 -0.39548403745E+02  0.39548404066E+02  0.50400001928E-02 0.  1.
    10030    2    1    2    0    0  0.00000000000E+00  0.00000000000E+00  0.15410933436E+04  0.16201901514E+04  0.50004743081E+03 0.  0.
        3    1    3    3  502    0  0.77926205203E+02 -0.18883474359E+03  0.12376208502E+04  0.12543669451E+04  0.10100000352E+00 0. -1.
       -3    1    3    3    0  502 -0.77926205203E+02  0.18883474359E+03  0.30347249335E+03  0.36582320630E+03  0.10100000352E+00 0.  1.
</event>
<event>
 5   0  0.4978779E-03  0.4998164E+03  0.7818609E-02  0.1013827E+00
       -2   -1    0    0    0  501  0.00000000000E+00  0.00000000000E+00  0.51265515685E+02  0.51265515748E+02  0.25500000920E-02 0. -1.
        2   -1    0    0  501    0  0.00000000000E+00  0.00000000000E+00 -0.12182477882E+04  0.12182477882E+04  0.25500000920E-02 0.  1.
    10030    2    1    2    0    0  0.00000000000E+00  0.00000000000E+00 -0.11669822725E+04  0.12695133039E+04  0.49981637082E+03 0.  0.
        1    1    3    3  502    0 -0.11770769878E+02  0.17837985103E+03 -0.10270481925E+04  0.10424902455E+04  0.50400001928E-02 0.  1.
       -1    1    3    3    0  502  0.11770769878E+02 -0.17837985103E+03 -0.13993408000E+03  0.22702305841E+03  0.50400001928E-02 0. -1.
</event>
<event>
 5   0  0.2005125E-03  0.5000089E+03  0.7818609E-02  0.1013777E+00
       -3   -1    0    0    0  501  0.00000000000E+00  0.00000000000E+00  0.60356067524E+02  0.60356152031E+02  0.10100000352E+00 0. -1.
        3   -1    0    0  501    0  0.00000000000E+00  0.00000000000E+00 -0.10355572771E+04  0.10355572820E+04  0.10100000352E+00 0.  1.
    10030    2    1    2    0    0  0.00000000000E+00  0.00000000000E+00 -0.97520120956E+03  0.10959134340E+04  0.50000885570E+03 0.  0.
        2    1    3    3  502    0 -0.69792577910E+02 -0.56016846187E+02  0.24046122147E+02  0.92666644403E+02  0.25500000920E-02 0. -1.
       -2    1    3    3    0  502  0.69792577910E+02  0.56016846187E+02 -0.99924733171E+03  0.10032467896E+04  0.25500000920E-02 0.  1.
</event>
<event>
 5   0  0.5095783E-03  0.5001453E+03  0.7818609E-02  0.1013741E+00
        2   -1    0    0  501    0  0.00000000000E+00  0.00000000000E+00  0.68923479378E+03  0.68923479379E+03  0.25500000920E-02 0. -1.
       -2   -1    0    0    0  501  0.00000000000E+00  0.00000000000E+00 -0.90732982790E+02  0.90732982825E+02  0.25500000920E-02 0.  1.
    10030    2    1    2    0    0  0.00000000000E+00  0.00000000000E+00  0.59850181099E+03  0.77996777661E+03  0.50014529368E+03 0.  0.
        4    1    3    3  502    0  0.20008456043E+00 -0.11648994957E+03  0.64433291803E+03  0.65477971146E+03  0.12699999809E+01 0. -1.
       -4    1    3    3    0  502 -0.20008456043E+00  0.11648994957E+03 -0.45831107034E+02  0.12518806515E+03  0.12699999809E+01 0.  1.
</event>
<event>
 5   0  0.3211775E-03  0.5001792E+03  0.7818609E-02  0.1013732E+00
        1   -1    0    0  501    0  0.00000000000E+00  0.00000000000E+00  0.22246705819E+03  0.22246705825E+03  0.50400001928E-02 0. -1.
       -1   -1    0    0    0  501  0.00000000000E+00  0.00000000000E+00 -0.28114184248E+03  0.28114184253E+03  0.50400001928E-02 0.  1.
    10030    2    1    2    0    0  0.00000000000E+00  0.00000000000E+00 -0.58674784289E+02  0.50360890077E+03  0.50017916253E+03 0.  0.
        4    1    3    3  502    0  0.18868165389E+03 -0.10901522004E+02 -0.19423947472E+03  0.27101696651E+03  0.12699999809E+01 0.  1.
       -4    1    3    3    0  502 -0.18868165389E+03  0.10901522004E+02  0.13556469043E+03  0.23259193427E+03  0.12699999809E+01 0. -1.
</event>
<event>
 5   0  0.3057783E-03  0.5001246E+03  0.7818609E-02  0.1013746E+00
       -1   -1    0    0    0  501  0.00000000000E+00  0.00000000000E+00  0.85002688247E+02  0.85002688396E+02  0.50400001928E-02 0. -1.
        1   -1    0    0  501    0  0.00000000000E+00  0.00000000000E+00 -0.73563747642E+03  0.73563747643E+03  0.50400001928E-02 0.  1.
    10030    2    1    2    0    0  0.00000000000E+00  0.00000000000E+00 -0.65063478817E+03  0.82064016483E+03  0.50012463702E+03 0.  0.
        5    1    3    3  502    0 -0.18293821993E+03  0.14044077744E+03 -0.48371943766E+03  0.53590725750E+03  0.46999998093E+01 0.  1.
       -5    1    3    3    0  502  0.18293821993E+03 -0.14044077744E+03 -0.16691535051E+03  0.28473290733E+03  0.46999998093E+01 0. -1.
</event>
<event>
 5   0  0.4978779E-03  0.5001636E+03  0.7818609E-02  0.1013736E+00
       -2   -1    0    0    0  501  0.00000000000E+00  0.00000000000E+00  0.15366912231E+03  0.15366912233E+03  0.25500000920E-02 0.  1.
        2   -1    0    0  501    0  0.00000000000E+00  0.00000000000E+00 -0.40698421670E+03  0.40698421671E+03  0.25500000920E-02 0. -1.
    10030    2    1    2    0    0  0.00000000000E+00  0.00000000000E+00 -0.25331509439E+03  0.56065333904E+03  0.50016360276E+03 0.  0.
        1    1    3    3  502    0 -0.31505983349E+02  0.19399535804E+03  0.46686599002E+02  0.20200610011E+03  0.50400001928E-02 0.  1.
       -1    1    3    3    0  502  0.31505983349E+02 -0.19399535804E+03 -0.30000169340E+03  0.35864723893E+03  0.50400001928E-02 0. -1.
</event>
<event>
 5   0  0.3055293E-03  0.4992362E+03  0.7818609E-02  0.1013978E+00
       -1   -1    0    0    0  501  0.00000000000E+00  0.00000000000E+00  0.42866139049E+02  0.42866139345E+02  0.50400001928E-02 0.  1.
        1   -1    0    0  501    0  0.00000000000E+00  0.00000000000E+00 -0.14535759595E+04  0.14535759595E+04  0.50400001928E-02 0. -1.
    10030    2    1    2    0    0  0.00000000000E+00  0.00000000000E+00 -0.14107098204E+04  0.14964420988E+04  0.49923617427E+03 0.  0.
        3    1    3    3  502    0 -0.15839707060E+03 -0.11261001042E+03 -0.23580888654E+03  0.30557566591E+03  0.10100000352E+00 0.  1.
       -3    1    3    3    0  502  0.15839707060E+03  0.11261001042E+03 -0.11749009339E+04  0.11908664329E+04  0.10100000352E+00 0. -1.
</event>
<event>
 5   0  0.4989875E-03  0.5008918E+03  0.7818609E-02  0.1013546E+00
       -2   -1    0    0    0  501  0.00000000000E+00  0.00000000000E+00  0.34388844518E+02  0.34388844612E+02  0.25500000920E-02 0. -1.
        2   -1    0    0  501    0  0.00000000000E+00  0.00000000000E+00 -0.18239391841E+04  0.18239391841E+04  0.25500000920E-02 0.  1.
    10030    2    1    2    0    0  0.00000000000E+00  0.00000000000E+00 -0.17895503395E+04  0.18583280287E+04  0.50089184901E+03 0.  0.
        2    1    3    3  502    0 -0.92679774549E+01  0.22301223310E+03 -0.47334991625E+03  0.52333592915E+03  0.25500000920E-02 0. -1.
       -2    1    3    3    0  502  0.92679774549E+01 -0.22301223310E+03 -0.13162004233E+04  0.13349920995E+04  0.25500000920E-02 0.  1.
</event>
<event>
 5   0  0.4989875E-03  0.5001111E+03  0.7818609E-02  0.1013750E+00
        2   -1    0    0  501    0  0.00000000000E+00  0.00000000000E+00  0.44934294541E+03  0.44934294541E+03  0.25500000920E-02 0.  1.
       -2   -1    0    0    0  501  0.00000000000E+00  0.00000000000E+00 -0.13915379869E+03  0.13915379871E+03  0.25500000920E-02 0. -1.
    10030    2    1    2    0    0  0.00000000000E+00  0.00000000000E+00  0.31018914672E+03  0.58849674413E+03  0.50011109876E+03 0.  0.
        2    1    3    3  502    0  0.67204931792E+02 -0.23929138561E+03  0.12284894486E+03  0.27725211153E+03  0.25500000920E-02 0. -1.
       -2    1    3    3    0  502 -0.67204931792E+02  0.23929138561E+03  0.18734020185E+03  0.31124463260E+03  0.25500000920E-02 0.  1.
</event>
<event>
 5   0  0.5095783E-03  0.5000736E+03  0.7818609E-02  0.1013760E+00
       -2   -1    0    0    0  501  0.00000000000E+00  0.00000000000E+00  0.21881034686E+03  0.21881034687E+03  0.25500000920E-02 0.  1.
        2   -1    0    0  501    0  0.00000000000E+00  0.00000000000E+00 -0.28571960564E+03  0.28571960565E+03  0.25500000920E-02 0. -1.
    10030    2    1    2    0    0  0.00000000000E+00  0.00000000000E+00 -0.66909258784E+02  0.50452995252E+03  0.50007361866E+03 0.  0.
        4    1    3    3  502    0  0.11028026979E+02 -0.15627942318E+03  0.16314571545E+03  0.22619242440E+03  0.12699999809E+01 0.  1.
       -4    1    3    3    0  502 -0.11028026979E+02  0.15627942318E+03 -0.23005497424E+03  0.27833752812E+03  0.12699999809E+01 0. -1.
</event>
<event>
 5   0  0.4889251E-03  0.5000707E+03  0.7818609E-02  0.1013760E+00
        2   -1    0    0  501    0  0.00000000000E+00  0.00000000000E+00  0.46745401850E+03  0.46745401851E+03  0.25500000920E-02 0. -1.
       -2   -1    0    0    0  501  0.00000000000E+00  0.00000000000E+00 -0.13374082163E+03  0.13374082166E+03  0.25500000920E-02 0.  1.
    10030    2    1    2    0    0  0.00000000000E+00  0.00000000000E+00  0.33371319687E+03  0.60119484017E+03  0.50007073308E+03 0.  0.
        5    1    3    3  502    0 -0.24072373709E+03 -0.24811568888E+02  0.24224317796E+03  0.34244324905E+03  0.46999998093E+01 0. -1.
       -5    1    3    3    0  502  0.24072373709E+03  0.24811568888E+02  0.91470018907E+02  0.25875159112E+03  0.46999998093E+01 0.  1.
</event>
<event>
 5   0  0.4978779E-03  0.5000869E+03  0.7818609E-02  0.1013756E+00
       -2   -1    0    0    0  501  0.00000000000E+00  0.00000000000E+00  0.13897513816E+03  0.13897513818E+03  0.25500000920E-02 0. -1.
        2   -1    0    0  501    0  0.00000000000E+00  0.00000000000E+00 -0.44987712646E+03  0.44987712647E+03  0.25500000920E-02 0.  1.
    10030    2    1    2    0    0  0.00000000000E+00  0.00000000000E+00 -0.31090198830E+03  0.58885226465E+03  0.50008693569E+03 0.  0.
        1    1    3    3  502    0  0.13386914564E+03 -0.21093233125E+03 -0.16770713612E+03  0.30089712536E+03  0.50400001928E-02 0. -1.
       -1    1    3    3    0  502 -0.13386914564E+03  0.21093233125E+03 -0.14319485219E+03  0.28795513928E+03  0.50400001928E-02 0.  1.
</event>
<event>
 5   0  0.4889251E-03  0.4999076E+03  0.7818609E-02  0.1013803E+00
        2   -1    0    0  501    0  0.00000000000E+00  0.00000000000E+00  0.83683491109E+03  0.83683491110E+03  0.25500000920E-02 0. -1.
       -2   -1    0    0    0  501  0.00000000000E+00  0.00000000000E+00 -0.74658560499E+02  0.74658560542E+02  0.25500000920E-02 0.  1.
    10030    2    1    2    0    0  0.00000000000E+00  0.00000000000E+00  0.76217635059E+03  0.91149347164E+03  0.49990755089E+03 0.  0.
        5    1    3    3  502    0  0.18804050456E+01 -0.24146846936E+03  0.49846610153E+03  0.55389629173E+03  0.46999998093E+01 0. -1.
       -5    1    3    3    0  502 -0.18804050456E+01  0.24146846936E+03  0.26371024906E+03  0.35759717991E+03  0.46999998093E+01 0.  1.
</event>
<event>
 5   0  0.3211775E-03  0.4999672E+03  0.7818609E-02  0.1013787E+00
        1   -1    0    0  501    0  0.00000000000E+00  0.00000000000E+00  0.50527804369E+03  0.50527804372E+03  0.50400001928E-02 0. -1.
       -1   -1    0    0    0  501  0.00000000000E+00  0.00000000000E+00 -0.12367805209E+03  0.12367805220E+03  0.50400001928E-02 0.  1.
    10030    2    1    2    0    0  0.00000000000E+00  0.00000000000E+00  0.38159999160E+03  0.62895609591E+03  0.49996721592E+03 0.  0.
        4    1    3    3  502    0 -0.48037370395E+01 -0.11312953676E+03  0.47116302207E+03  0.48457979141E+03  0.12699999809E+01 0. -1.
       -4    1    3    3    0  502  0.48037370395E+01  0.11312953676E+03 -0.89563030469E+02  0.14437630451E+03  0.12699999809E+01 0.  1.
</event>
<event>
 5   0  0.3055293E-03  0.4996937E+03  0.7818609E-02  0.1013859E+00
        1   -1    0    0  501    0  0.00000000000E+00  0.00000000000E+00  0.78536557013E+03  0.78536557015E+03  0.50400001928E-02 0. -1.
       -1   -1    0    0    0  501  0.00000000000E+00  0.00000000000E+00 -0.79483291732E+02  0.79483291892E+02  0.50400001928E-02 0.  1.
    10030    2    1    2    0    0  0.00000000000E+00  0.00000000000E+00  0.70588227840E+03  0.86484886204E+03  0.49969366937E+03 0.  0.
        3    1    3    3  502    0 -0.61091690643E+02 -0.88765404457E+02 -0.37197760268E+02  0.11399638268E+03  0.10100000352E+00 0.  1.
       -3    1    3    3    0  502  0.61091690643E+02  0.88765404457E+02  0.74308003867E+03  0.75085247936E+03  0.10100000352E+00 0. -1.
</event>
<event>
 5   0  0.5095783E-03  0.5000050E+03  0.7818609E-02  0.1013778E+00
       -2   -1    0    0    0  501  0.00000000000E+00  0.00000000000E+00  0.49067603739E+02  0.49067603805E+02  0.25500000920E-02 0. -1.
        2   -1    0    0  501    0  0.00000000000E+00  0.00000000000E+00 -0.12737783521E+04  0.12737783521E+04  0.25500000920E-02 0.  1.
    10030    2    1    2    0    0  0.00000000000E+00  0.00000000000E+00 -0.12247107483E+04  0.13228459559E+04  0.50000500588E+03 0.  0.
        4    1    3    3  502    0 -0.15847314250E+03  0.40596845978E+02 -0.11220705327E+03  0.19837811497E+03  0.12699999809E+01 0. -1.
       -4    1    3    3    0  502  0.15847314250E+03 -0.40596845978E+02 -0.11125036951E+04  0.11244678409E+04  0.12699999809E+01 0.  1.
</event>
<event>
 5   0  0.4989875E-03  0.5002569E+03  0.7818609E-02  0.1013712E+00
       -2   -1    0    0    0  501  0.00000000000E+00  0.00000000000E+00  0.94348621502E+02  0.94348621536E+02  0.25500000920E-02 0.  1.
        2   -1    0    0  501    0  0.00000000000E+00  0.00000000000E+00 -0.66311783599E+03  0.66311783599E+03  0.25500000920E-02 0. -1.
    10030    2    1    2    0    0  0.00000000000E+00  0.00000000000E+00 -0.56876921449E+03  0.75746645753E+03  0.50025694891E+03 0.  0.
        2    1    3    3  502    0 -0.59035567346E+02  0.21147751536E+03 -0.10296184260E+03  0.24250583241E+03  0.25500000920E-02 0.  1.
       -2    1    3    3    0  502  0.59035567346E+02 -0.21147751536E+03 -0.46580737189E+03  0.51496062512E+03  0.25500000920E-02 0. -1.
</event>
<event>
 5   0  0.3057783E-03  0.5000041E+03  0.7818609E-02  0.1013778E+00
        1   -1    0    0  501    0  0.00000000000E+00  0.00000000000E+00  0.32868813196E+03  0.32868813200E+03  0.50400001928E-02 0.  1.
       -1   -1    0    0    0  501  0.00000000000E+00  0.00000000000E+00 -0.19015295199E+03  0.19015295206E+03  0.50400001928E-02 0. -1.
    10030    2    1    2    0    0  0.00000000000E+00  0.00000000000E+00  0.13853517998E+03  0.51884108406E+03  0.50000407440E+03 0.  0.
        5    1    3    3  502    0  0.11262400196E+02 -0.53360258527E+02  0.32239355970E+03  0.32700742527E+03  0.46999998093E+01 0.  1.
       -5    1    3    3    0  502 -0.11262400196E+02  0.53360258527E+02 -0.18385837973E+03  0.19183365878E+03  0.46999998093E+01 0. -1.
</event>
<event>
 5   0  0.3013734E-03  0.4999733E+03  0.7818609E-02  0.1013786E+00
        1   -1    0    0  501    0  0.00000000000E+00  0.00000000000E+00  0.11511456616E+04  0.11511456616E+04  0.50400001928E-02 0.  1.
       -1   -1    0    0    0  501  0.00000000000E+00  0.00000000000E+00 -0.54287948932E+02  0.54287949166E+02  0.50400001928E-02 0. -1.
    10030    2    1    2    0    0  0.00000000000E+00  0.00000000000E+00  0.10968577127E+04  0.12054336108E+04  0.49997334744E+03 0.  0.
        2    1    3    3  502    0  0.10145917485E+03 -0.19208573421E+03  0.84667637321E+03  0.87410055165E+03  0.25500000920E-02 0. -1.
       -2    1    3    3    0  502 -0.10145917485E+03  0.19208573421E+03  0.25018133945E+03  0.33133305911E+03  0.25500000920E-02 0.  1.
</event>
<event>
 5   0  0.4889251E-03  0.5003602E+03  0.7818609E-02  0.1013685E+00
       -2   -1    0    0    0  501  0.00000000000E+00  0.00000000000E+00  0.34332440047E+03  0.34332440048E+03  0.25500000920E-02 0.  1.
        2   -1    0    0  501    0  0.00000000000E+00  0.00000000000E+00 -0.18230593383E+03  0.18230593385E+03  0.25500000920E-02 0. -1.
    10030    2    1    2    0    0  0.00000000000E+00  0.00000000000E+00  0.16101846664E+03  0.52563033433E+03  0.50036017205E+03 0.  0.
        5    1    3    3  502    0  0.59567094447E+02  0.53447290621E+01  0.33565668272E+03  0.34097551749E+03  0.46999998093E+01 0.  1.
       -5    1    3    3    0  502 -0.59567094447E+02 -0.53447290621E+01 -0.17463821608E+03  0.18465481685E+03  0.46999998093E+01 0. -1.
</event>
<event>
 5   0  0.3013734E-03  0.5000100E+03  0.7818609E-02  0.1013776E+00
        1   -1    0    0  501    0  0.00000000000E+00  0.00000000000E+00  0.18835507016E+03  0.18835507023E+03  0.50400001928E-02 0.  1.
       -1   -1    0    0    0  501  0.00000000000E+00  0.00000000000E+00 -0.33183342393E+03  0.33183342397E+03  0.50400001928E-02 0. -1.
    10030    2    1    2    0    0  0.00000000000E+00  0.00000000000E+00 -0.14347835377E+03  0.52018849419E+03  0.50001003139E+03 0.  0.
        2    1    3    3  502    0 -0.19365114468E+03 -0.10995283654E+03 -0.18995639360E+03  0.29270091147E+03  0.25500000920E-02 0.  1.
       -2    1    3    3    0  502  0.19365114468E+03  0.10995283654E+03  0.46478039832E+02  0.22748758272E+03  0.25500000920E-02 0. -1.
</event>
<event>
 5   0  0.3055293E-03  0.4992264E+03  0.7818609E-02  0.1013981E+00
       -1   -1    0    0    0  501  0.00000000000E+00  0.00000000000E+00  0.93414737489E+03  0.93414737490E+03  0.50400001928E-02 0.  1.
        1   -1    0    0  501    0  0.00000000000E+00  0.00000000000E+00 -0.66699052760E+02  0.66699052951E+02  0.50400001928E-02 0. -1.
    10030    2    1    2    0    0  0.00000000000E+00  0.00000000000E+00  0.86744832213E+03  0.10008464279E+04  0.49922638210E+03 0.  0.
        3    1    3    3  502    0 -0.58540177953E+01 -0.74815636608E+02 -0.43547896825E+02  0.86764500369E+02  0.10100000352E+00 0. -1.
       -3    1    3    3    0  502  0.58540177953E+01  0.74815636608E+02  0.91099621895E+03  0.91408192748E+03  0.10100000352E+00 0.  1.
</event>
<event>
 5   0  0.2863538E-03  0.5001233E+03  0.7818609E-02  0.1013747E+00
       -1   -1    0    0    0  501  0.00000000000E+00  0.00000000000E+00  0.41152268119E+02  0.41152268428E+02  0.50400001928E-02 0. -1.
        1   -1    0    0  501    0  0.00000000000E+00  0.00000000000E+00 -0.15194991256E+04  0.15194991256E+04  0.50400001928E-02 0.  1.
    10030    2    1    2    0    0  0.00000000000E+00  0.00000000000E+00 -0.14783468575E+04  0.15606513940E+04  0.50012332748E+03 0.  0.
        1    1    3    3  502    0  0.19823605272E+03 -0.12996850870E+03 -0.98767231210E+03  0.10157194209E+04  0.50400001928E-02 0.  1.
       -1    1    3    3    0  502 -0.19823605272E+03  0.12996850870E+03 -0.49067454539E+03  0.54493197316E+03  0.50400001928E-02 0. -1.
</event>
<event>
 5   0  0.4978779E-03  0.5006485E+03  0.7818609E-02  0.1013610E+00
        2   -1    0    0  501    0  0.00000000000E+00  0.00000000000E+00  0.13919316583E+04  0.13919316583E+04  0.25500000920E-02 0. -1.
       -2   -1    0    0    0  501  0.00000000000E+00  0.00000000000E+00 -0.45018178787E+02  0.45018178859E+02  0.25500000920E-02 0.  1.
    10030    2    1    2    0    0  0.00000000000E+00  0.00000000000E+00  0.13469134795E+04  0.14369498372E+04  0.50064849268E+03 0.  0.
        1    1    3    3  502    0  0.18028593355E+03 -0.16272667789E+03  0.49936118602E+03  0.55528783856E+03  0.50400001928E-02 0. -1.
       -1    1    3    3    0  502 -0.18028593355E+03  0.16272667789E+03  0.84755229352E+03  0.88166199862E+03  0.50400001928E-02 0.  1.
</event>
<event>
 5   0  0.2005125E-03  0.4998620E+03  0.7818609E-02  0.1013815E+00
        3   -1    0    0  501    0  0.00000000000E+00  0.00000000000E+00  0.62380533203E+03  0.62380534021E+03  0.10100000352E+00 0. -1.
       -3   -1    0    0    0  501  0.00000000000E+00  0.00000000000E+00 -0.10013619626E+03  0.10013624719E+03  0.10100000352E+00 0.  1.
    10030    2    1    2    0    0  0.00000000000E+00  0.00000000000E+00  0.52366913577E+03  0.72394158740E+03  0.49986203917E+03 0.  0.
        2    1    3    3  502    0 -0.13328228560E+03  0.21141512208E+03  0.26507077420E+03  0.36431173030E+03  0.25500000920E-02 0.  1.
       -2    1    3    3    0  502  0.13328228560E+03 -0.21141512208E+03  0.25859836158E+03  0.35962985710E+03  0.25500000920E-02 0. -1.
</event>
<event>
 5   0  0.5118882E-03  0.5002115E+03  0.7818609E-02  0.1013724E+00
        2   -1    0    0  501    0  0.00000000000E+00  0.00000000000E+00  0.73611916844E+03  0.73611916845E+03  0.25500000920E-02 0. -1.
       -2   -1    0    0    0  501  0.00000000000E+00  0.00000000000E+00 -0.84976559412E+02  0.84976559451E+02  0.25500000920E-02 0.  1.
    10030    2    1    2    0    0  0.00000000000E+00  0.00000000000E+00  0.65114260903E+03  0.82109572790E+03  0.50021145236E+03 0.  0.
        3    1    3    3  502    0  0.15981963704E+03 -0.59290403729E+02  0.62599308915E+03  0.64878735054E+03  0.10100000352E+00 0. -1.
       -3    1    3    3    0  502 -0.15981963704E+03  0.59290403729E+02  0.25149519883E+02  0.17230837736E+03  0.10100000352E+00 0.  1.
</event>
<event>
 5   0  0.4889251E-03  0.4998283E+03  0.7818609E-02  0.1013824E+00
       -2   -1    0    0    0  501  0.00000000000E+00  0.00000000000E+00  0.12017640681E+03  0.12017640683E+03  0.25500000920E-02 0. -1.
        2   -1    0    0  501    0  0.00000000000E+00  0.00000000000E+00 -0.51971167308E+03  0.51971167308E+03  0.25500000920E-02 0.  1.
    10030    2    1    2    0    0  0.00000000000E+00  0.00000000000E+00 -0.39953526627E+03  0.63988807992E+03  0.49982829634E+03 0.  0.
        5    1    3    3  502    0  0.60715859031E+02  0.25343443725E+02 -0.50836679278E+03  0.51262812220E+03  0.46999998093E+01 0.  1.
       -5    1    3    3    0  502 -0.60715859031E+02 -0.25343443725E+02  0.10883152650E+03  0.12725995771E+03  0.46999998093E+01 0. -1.
</event>
<event>
 5   0  0.5095783E-03  0.4992780E+03  0.7818609E-02  0.1013968E+00
        2   -1    0    0  501    0  0.00000000000E+00  0.00000000000E+00  0.74940702107E+03  0.74940702108E+03  0.25500000920E-02 0.  1.
       -2   -1    0    0    0  501  0.00000000000E+00  0.00000000000E+00 -0.83158589010E+02  0.83158589049E+02  0.25500000920E-02 0. -1.
    10030    2    1    2    0    0  0.00000000000E+00  0.00000000000E+00  0.66624843206E+03  0.83256561013E+03  0.49927800066E+03 0.  0.
        4    1    3    3  502    0 -0.69033150566E+02 -0.20064406066E+03  0.11382917031E+03  0.24079515749E+03  0.12699999809E+01 0. -1.
       -4    1    3    3    0  502  0.69033150566E+02  0.20064406066E+03  0.55241926176E+03  0.59177045264E+03  0.12699999809E+01 0.  1.
</event>
<event>
 5   0  0.4978779E-03  0.4998859E+03  0.7818609E-02  0.1013809E+00
        2   -1    0    0  501    0  0.00000000000E+00  0.00000000000E+00  0.11098818526E+04  0.11098818526E+04  0.25500000920E-02 0.  1.
       -2   -1    0    0    0  501  0.00000000000E+00  0.00000000000E+00 -0.56286591106E+02  0.56286591163E+02  0.25500000920E-02 0. -1.
    10030    2    1    2    0    0  0.00000000000E+00  0.00000000000E+00  0.10535952615E+04  0.11661684437E+04  0.49988585115E+03 0.  0.
        1    1    3    3  502    0 -0.98471741187E+01  0.23761432795E+03  0.34739510915E+03  0.42099987835E+03  0.50400001928E-02 0. -1.
       -1    1    3    3    0  502  0.98471741187E+01 -0.23761432795E+03  0.70620015231E+03  0.74516856538E+03  0.50400001928E-02 0.  1.
</event>
<event>
 5   0  0.3013734E-03  0.4997372E+03  0.7818609E-02  0.1013848E+00
       -1   -1    0    0    0  501  0.00000000000E+00  0.00000000000E+00  0.30670576131E+02  0.30670576546E+02  0.50400001928E-02 0. -1.
        1   -1    0    0  501    0  0.00000000000E+00  0.00000000000E+00 -0.20356425137E+04  0.20356425137E+04  0.50400001928E-02 0.  1.
    10030    2    1    2    0    0  0.00000000000E+00  0.00000000000E+00 -0.20049719376E+04  0.20663130903E+04  0.49973724747E+03 0.  0.
        2    1    3    3  502    0  0.21912187770E+03 -0.45562615983E+02 -0.14618764676E+04  0.14789094482E+04  0.25500000920E-02 0.  1.
       -2    1    3    3    0  502 -0.21912187770E+03  0.45562615983E+02 -0.54309546997E+03  0.58740364211E+03  0.25500000920E-02 0. -1.
</event>
<event>
 5   0  0.3055293E-03  0.4985373E+03  0.7818609E-02  0.1014161E+00
       -1   -1    0    0    0  501  0.00000000000E+00  0.00000000000E+00  0.44280521641E+02  0.44280521928E+02  0.50400001928E-02 0. -1.
        1   -1    0    0  501    0  0.00000000000E+00  0.00000000000E+00 -0.14032097037E+04  0.14032097037E+04  0.50400001928E-02 0.  1.
    10030    2    1    2    0    0  0.00000000000E+00  0.00000000000E+00 -0.13589291821E+04  0.14474902257E+04  0.49853729195E+03 0.  0.
        3    1    3    3  502    0 -0.49837536119E+02  0.15337082817E+03 -0.12758708280E+03  0.20563283988E+03  0.10100000352E+00 0. -1.
       -3    1    3    3    0  502  0.49837536119E+02 -0.15337082817E+03 -0.12313420993E+04  0.12418573858E+04  0.10100000352E+00 0.  1.
</event>
<event>
 5   0  0.2005125E-03  0.4999842E+03  0.7818609E-02  0.1013783E+00
       -3   -1    0    0    0  501  0.00000000000E+00  0.00000000000E+00  0.17186749942E+03  0.17186752910E+03  0.10100000352E+00 0.  1.
        3   -1    0    0  501    0  0.00000000000E+00  0.00000000000E+00 -0.36362917777E+03  0.36362919180E+03  0.10100000352E+00 0. -1.
    10030    2    1    2    0    0  0.00000000000E+00  0.00000000000E+00 -0.19176167835E+03  0.53549672089E+03  0.49998419655E+03 0.  0.
        4    1    3    3  502    0  0.20832682072E+03 -0.60997806409E+02  0.36916351445E+02  0.22019361144E+03  0.12699999809E+01 0.  1.
       -4    1    3    3    0  502 -0.20832682072E+03  0.60997806409E+02 -0.22867802980E+03  0.31530310945E+03  0.12699999809E+01 0. -1.
</event>
<event>
 5   0  0.4889251E-03  0.4998204E+03  0.7818609E-02  0.1013826E+00
        2   -1    0    0  501    0  0.00000000000E+00  0.00000000000E+00  0.73328439272E+03  0.73328439272E+03  0.25500000920E-02 0. -1.
       -2   -1    0    0    0  501  0.00000000000E+00  0.00000000000E+00 -0.85171746301E+02  0.85171746339E+02  0.25500000920E-02 0.  1.
    10030    2    1    2    0    0  0.00000000000E+00  0.00000000000E+00  0.64811264642E+03  0.81845613906E+03  0.49982041687E+03 0.  0.
        5    1    3    3  502    0  0.23499026684E+03  0.42124967481E+02  0.44481111390E+03  0.50485042878E+03  0.46999998093E+01 0. -1.
       -5    1    3    3    0  502 -0.23499026684E+03 -0.42124967481E+02  0.20330153252E+03  0.31360571028E+03  0.46999998093E+01 0.  1.
</event>
<event>
 5   0  0.5118882E-03  0.5000667E+03  0.7818609E-02  0.1013762E+00
       -2   -1    0    0    0  501  0.00000000000E+00  0.00000000000E+00  0.10434604786E+03  0.10434604789E+03  0.25500000920E-02 0.  1.
        2   -1    0    0  501    0  0.00000000000E+00  0.00000000000E+00 -0.59912841268E+03  0.59912841268E+03  0.25500000920E-02 0. -1.
    10030    2    1    2    0    0  0.00000000000E+00  0.00000000000E+00 -0.49478236482E+03  0.70347446057E+03  0.50006672369E+03 0.  0.
        3    1    3    3  502    0 -0.13928122286E+03  0.16441853660E+02 -0.53858421911E+03  0.55654520469E+03  0.10100000352E+00 0. -1.
       -3    1    3    3    0  502  0.13928122286E+03 -0.16441853660E+02  0.43801854285E+02  0.14692925588E+03  0.10100000352E+00 0.  1.
</event>
<event>
 5   0  0.3013734E-03  0.4999842E+03  0.7818609E-02  0.1013783E+00
        1   -1    0    0  501    0  0.00000000000E+00  0.00000000000E+00  0.63166141956E+02  0.63166142157E+02  0.50400001928E-02 0.  1.
       -1   -1    0    0    0  501  0.00000000000E+00  0.00000000000E+00 -0.98939147841E+03  0.98939147842E+03  0.50400001928E-02 0. -1.
    10030    2    1    2    0    0  0.00000000000E+00  0.00000000000E+00 -0.92622533645E+03  0.10525576206E+04  0.49998417050E+03 0.  0.
        2    1    3    3  502    0 -0.23544133196E+03 -0.47057601224E+01 -0.63976336785E+03  0.68172716817E+03  0.25500000920E-02 0. -1.
       -2    1    3    3    0  502  0.23544133196E+03  0.47057601224E+01 -0.28646196860E+03  0.37083045241E+03  0.25500000920E-02 0.  1.
</event>
<event>
 5   0  0.2863538E-03  0.5000925E+03  0.7818609E-02  0.1013755E+00
        1   -1    0    0  501    0  0.00000000000E+00  0.00000000000E+00  0.24957502280E+03  0.24957502285E+03  0.50400001928E-02 0. -1.
       -1   -1    0    0    0  501  0.00000000000E+00  0.00000000000E+00 -0.25051832201E+03  0.25051832206E+03  0.50400001928E-02 0.  1.
    10030    2    1    2    0    0  0.00000000000E+00  0.00000000000E+00 -0.94329921121E+00  0.50009334491E+03  0.50009245526E+03 0.  0.
        1    1    3    3  502    0 -0.20903561284E+03 -0.24259104232E+02  0.13457941202E+03  0.24979193289E+03  0.50400001928E-02 0.  1.
       -1    1    3    3    0  502  0.20903561284E+03  0.24259104232E+02 -0.13552271123E+03  0.25030141202E+03  0.50400001928E-02 0. -1.
</event>
<event>
 5   0  0.4889251E-03  0.4995165E+03  0.7818609E-02  0.1013905E+00
       -2   -1    0    0    0  501  0.00000000000E+00  0.00000000000E+00  0.69012393724E+02  0.69012393771E+02  0.25500000920E-02 0. -1.
        2   -1    0    0  501    0  0.00000000000E+00  0.00000000000E+00 -0.90388365846E+03  0.90388365847E+03  0.25500000920E-02 0.  1.
    10030    2    1    2    0    0  0.00000000000E+00  0.00000000000E+00 -0.83487126474E+03  0.97289605224E+03  0.49951646597E+03 0.  0.
        5    1    3    3  502    0  0.19391554828E+03  0.29919830281E+02 -0.11659287894E+03  0.22828584171E+03  0.46999998093E+01 0. -1.
       -5    1    3    3    0  502 -0.19391554828E+03 -0.29919830281E+02 -0.71827838580E+03  0.74461021053E+03  0.46999998093E+01 0.  1.
</event>
<event>
 5   0  0.2005125E-03  0.4999301E+03  0.7818609E-02  0.1013797E+00
       -3   -1    0    0    0  501  0.00000000000E+00  0.00000000000E+00  0.43436551300E+03  0.43436552474E+03  0.10100000352E+00 0.  1.
        3   -1    0    0  501    0  0.00000000000E+00  0.00000000000E+00 -0.14384776987E+03  0.14384780533E+03  0.10100000352E+00 0. -1.
    10030    2    1    2    0    0  0.00000000000E+00  0.00000000000E+00  0.29051774313E+03  0.57821333007E+03  0.49993009111E+03 0.  0.
        5    1    3    3  502    0  0.25563699837E+02  0.10481250863E+02  0.43254265247E+03  0.43344964595E+03  0.46999998093E+01 0.  1.
       -5    1    3    3    0  502 -0.25563699837E+02 -0.10481250863E+02 -0.14202490934E+03  0.14476368412E+03  0.46999998093E+01 0. -1.
</event>
<event>
 5   0  0.3211775E-03  0.4998501E+03  0.7818609E-02  0.1013818E+00
        1   -1    0    0  501    0  0.00000000000E+00  0.00000000000E+00  0.21918073241E+03  0.21918073247E+03  0.50400001928E-02 0.  1.
       -1   -1    0    0    0  501  0.00000000000E+00  0.00000000000E+00 -0.28498181813E+03  0.28498181817E+03  0.50400001928E-02 0. -1.
    10030    2    1    2    0    0  0.00000000000E+00  0.00000000000E+00 -0.65801085715E+02  0.50416255064E+03  0.49985007211E+03 0.  0.
        4    1    3    3  502    0 -0.14494699505E+03  0.94512198486E+02  0.14898474426E+03  0.22834240508E+03  0.12699999809E+01 0.  1.
       -4    1    3    3    0  502  0.14494699505E+03 -0.94512198486E+02 -0.21478582997E+03  0.27582014556E+03  0.12699999809E+01 0. -1.
</event>
<event>
 5   0  0.2863538E-03  0.4987543E+03  0.7818609E-02  0.1014105E+00
        1   -1    0    0  501    0  0.00000000000E+00  0.00000000000E+00  0.19905522851E+03  0.19905522858E+03  0.50400001928E-02 0. -1.
       -1   -1    0    0    0  501  0.00000000000E+00  0.00000000000E+00 -0.31242067758E+03  0.31242067762E+03  0.50400001928E-02 0.  1.
    10030    2    1    2    0    0  0.00000000000E+00  0.00000000000E+00 -0.11336544907E+03  0.51147590619E+03  0.49875432587E+03 0.  0.
        1    1    3    3  502    0  0.14261705229E+03 -0.19572016150E+03  0.43583097360E+01  0.24220858802E+03  0.50400001928E-02 0. -1.
       -1    1    3    3    0  502 -0.14261705229E+03  0.19572016150E+03 -0.11772375880E+03  0.26926731817E+03  0.50400001928E-02 0.  1.
</event>
<event>
 5   0  0.5095783E-03  0.5001890E+03  0.7818609E-02  0.1013730E+00
       -2   -1    0    0    0  501  0.00000000000E+00  0.00000000000E+00  0.88412688483E+02  0.88412688520E+02  0.25500000920E-02 0. -1.
        2   -1    0    0  501    0  0.00000000000E+00  0.00000000000E+00 -0.70744674127E+03  0.70744674127E+03  0.25500000920E-02 0.  1.
    10030    2    1    2    0    0  0.00000000000E+00  0.00000000000E+00 -0.61903405278E+03  0.79585942979E+03  0.50018903775E+03 0.  0.
        4    1    3    3  502    0 -0.34379611124E+02 -0.22497609037E+03 -0.14455064362E+03  0.26961583850E+03  0.12699999809E+01 0.  1.
       -4    1    3    3    0  502  0.34379611124E+02  0.22497609037E+03 -0.47448340916E+03  0.52624359129E+03  0.12699999809E+01 0. -1.
</event>
<event>
 5   0  0.2863538E-03  0.4991419E+03  0.7818609E-02  0.1014003E+00
        1   -1    0    0  501    0  0.00000000000E+00  0.00000000000E+00  0.23860724834E+03  0.23860724839E+03  0.50400001928E-02 0. -1.
       -1   -1    0    0    0  501  0.00000000000E+00  0.00000000000E+00 -0.26103839590E+03  0.26103839595E+03  0.50400001928E-02 0.  1.
    10030    2    1    2    0    0  0.00000000000E+00  0.00000000000E+00 -0.22431147561E+02  0.49964564434E+03  0.49914187715E+03 0.  0.
        1    1    3    3  502    0  0.13962599431E+02  0.46402059724E+02 -0.25628412542E+03  0.26082495720E+03  0.50400001928E-02 0.  1.
       -1    1    3    3    0  502 -0.13962599431E+02 -0.46402059724E+02  0.23385297786E+03  0.23882068714E+03  0.50400001928E-02 0. -1.
</event>
<event>
 5   0  0.2863538E-03  0.4998146E+03  0.7818609E-02  0.1013827E+00
        1   -1    0    0  501    0  0.00000000000E+00  0.00000000000E+00  0.55396531482E+02  0.55396531711E+02  0.50400001928E-02 0.  1.
       -1   -1    0    0    0  501  0.00000000000E+00  0.00000000000E+00 -0.11273927668E+04  0.11273927668E+04  0.50400001928E-02 0. -1.
    10030    2    1    2    0    0  0.00000000000E+00  0.00000000000E+00 -0.10719962353E+04  0.11827892985E+04  0.49981456178E+03 0.  0.
        1    1    3    3  502    0  0.92673436203E+01 -0.73770315186E+02 -0.11006134849E+04  0.11031219272E+04  0.50400001928E-02 0. -1.
       -1    1    3    3    0  502 -0.92673436203E+01  0.73770315186E+02  0.28617249568E+02  0.79667371355E+02  0.50400001928E-02 0.  1.
</event>
<event>
 5   0  0.2863538E-03  0.4995845E+03  0.7818609E-02  0.1013887E+00
       -1   -1    0    0    0  501  0.00000000000E+00  0.00000000000E+00  0.34025198658E+03  0.34025198662E+03  0.50400001928E-02 0. -1.
        1   -1    0    0  501    0  0.00000000000E+00  0.00000000000E+00 -0.18338222233E+03  0.18338222240E+03  0.50400001928E-02 0.  1.
    10030    2    1    2    0    0  0.00000000000E+00  0.00000000000E+00  0.15686976425E+03  0.52363420902E+03  0.49958448927E+03 0.  0.
        1    1    3    3  502    0  0.22634007809E+03  0.86052583562E+02  0.14153186734E+02  0.24255966443E+03  0.50400001928E-02 0.  1.
       -1    1    3    3    0  502 -0.22634007809E+03 -0.86052583562E+02  0.14271657751E+03  0.28107454458E+03  0.50400001928E-02 0. -1.
</event>
<event>
 5   0  0.3057783E-03  0.5007894E+03  0.7818609E-02  0.1013573E+00
        1   -1    0    0  501    0  0.00000000000E+00  0.00000000000E+00  0.25970305186E+03  0.25970305191E+03  0.50400001928E-02 0.  1.
       -1   -1    0    0    0  501  0.00000000000E+00  0.00000000000E+00 -0.24141993693E+03  0.24141993698E+03  0.50400001928E-02 0. -1.
    10030    2    1    2    0    0  0.00000000000E+00  0.00000000000E+00  0.18283114928E+02  0.50112298889E+03  0.50078935462E+03 0.  0.
        5    1    3    3  502    0  0.16201802447E+03 -0.10801705637E+03  0.16659275283E+03  0.25630598904E+03  0.46999998093E+01 0.  1.
       -5    1    3    3    0  502 -0.16201802447E+03  0.10801705637E+03 -0.14830963791E+03  0.24481699985E+03  0.46999998093E+01 0. -1.
</event>
<event>
 5   0  0.3055293E-03  0.5000323E+03  0.7818609E-02  0.1013770E+00
       -1   -1    0    0    0  501  0.00000000000E+00  0.00000000000E+00  0.16168373630E+03  0.16168373638E+03  0.50400001928E-02 0.  1.
        1   -1    0    0  501    0  0.00000000000E+00  0.00000000000E+00 -0.38660701435E+03  0.38660701438E+03  0.50400001928E-02 0. -1.
    10030    2    1    2    0    0  0.00000000000E+00  0.00000000000E+00 -0.22492327805E+03  0.54829075076E+03  0.50003226532E+03 0.  0.
        3    1    3    3  502    0 -0.12994457341E+03 -0.64431695471E+02  0.11083657732E+03  0.18254257753E+03  0.10100000352E+00 0.  1.
       -3    1    3    3    0  502  0.12994457341E+03  0.64431695471E+02 -0.33575985537E+03  0.36574817323E+03  0.10100000352E+00 0. -1.
</event>
<event>
 5   0  0.3013734E-03  0.4999220E+03  0.7818609E-02  0.1013799E+00
       -1   -1    0    0    0  501  0.00000000000E+00  0.00000000000E+00  0.76565638793E+03  0.76565638794E+03  0.50400001928E-02 0.  1.
        1   -1    0    0  501    0  0.00000000000E+00  0.00000000000E+00 -0.81603850064E+02  0.81603850220E+02  0.50400001928E-02 0. -1.
    10030    2    1    2    0    0  0.00000000000E+00  0.00000000000E+00  0.68405253786E+03  0.84726023816E+03  0.49992203054E+03 0.  0.
        2    1    3    3  502    0 -0.17393273413E+03  0.59557698568E+02  0.62904492896E+03  0.65536038797E+03  0.25500000920E-02 0.  1.
       -2    1    3    3    0  502  0.17393273413E+03 -0.59557698568E+02  0.55007608906E+02  0.19189985020E+03  0.25500000920E-02 0. -1.
</event>
<event>
 5   0  0.3013734E-03  0.5003690E+03  0.7818609E-02  0.1013683E+00
       -1   -1    0    0    0  501  0.00000000000E+00  0.00000000000E+00  0.91647880357E+02  0.91647880495E+02  0.50400001928E-02 0. -1.
        1   -1    0    0  501    0  0.00000000000E+00  0.00000000000E+00 -0.68296485261E+03  0.68296485263E+03  0.50400001928E-02 0.  1.
    10030    2    1    2    0    0  0.00000000000E+00  0.00000000000E+00 -0.59131697225E+03  0.77461273312E+03  0.50036898849E+03 0.  0.
        2    1    3    3  502    0 -0.86565284229E+02  0.20142863282E+03 -0.48223453155E+03  0.52973312713E+03  0.25500000920E-02 0.  1.
       -2    1    3    3    0  502  0.86565284229E+02 -0.20142863282E+03 -0.10908244070E+03  0.24487960599E+03  0.25500000920E-02 0. -1.
</event>
<event>
 5   0  0.3013734E-03  0.5003978E+03  0.7818609E-02  0.1013675E+00
       -1   -1    0    0    0  501  0.00000000000E+00  0.00000000000E+00  0.55810153422E+02  0.55810153650E+02  0.50400001928E-02 0. -1.
        1   -1    0    0  501    0  0.00000000000E+00  0.00000000000E+00 -0.11216504307E+04  0.11216504307E+04  0.50400001928E-02 0.  1.
    10030    2    1    2    0    0  0.00000000000E+00  0.00000000000E+00 -0.10658402773E+04  0.11774605844E+04  0.50039777284E+03 0.  0.
        2    1    3    3  502    0  0.83919476203E+01  0.16471999722E+03 -0.90219205561E+02  0.18799629605E+03  0.25500000920E-02 0. -1.
       -2    1    3    3    0  502 -0.83919476203E+01 -0.16471999722E+03 -0.97562107175E+03  0.98946428835E+03  0.25500000920E-02 0.  1.
</event>
<event>
 5   0  0.4889251E-03  0.4999099E+03  0.7818609E-02  0.1013802E+00
       -2   -1    0    0    0  501  0.00000000000E+00  0.00000000000E+00  0.75346473842E+02  0.75346473885E+02  0.25500000920E-02 0.  1.
        2   -1    0    0  501    0  0.00000000000E+00  0.00000000000E+00 -0.82920245919E+03  0.82920245920E+03  0.25500000920E-02 0. -1.
    10030    2    1    2    0    0  0.00000000000E+00  0.00000000000E+00 -0.75385598535E+03  0.90454893308E+03  0.49990991757E+03 0.  0.
        5    1    3    3  502    0 -0.23504442888E+03 -0.13773263867E+02 -0.22532672265E+03  0.32592914611E+03  0.46999998093E+01 0. -1.
       -5    1    3    3    0  502  0.23504442888E+03  0.13773263867E+02 -0.52852926271E+03  0.57861978698E+03  0.46999998093E+01 0.  1.
</event>
<event>
 5   0  0.2863538E-03  0.5000006E+03  0.7818609E-02  0.1013779E+00
        1   -1    0    0  501    0  0.00000000000E+00  0.00000000000E+00  0.67124743284E+03  0.67124743286E+03  0.50400001928E-02 0.  1.
       -1   -1    0    0    0  501  0.00000000000E+00  0.00000000000E+00 -0.93110456796E+02  0.93110456932E+02  0.50400001928E-02 0. -1.
    10030    2    1    2    0    0  0.00000000000E+00  0.00000000000E+00  0.57813697605E+03  0.76435788980E+03  0.50000062062E+03 0.  0.
        1    1    3    3  502    0 -0.20249648036E+03 -0.69044004324E+02  0.48678891648E+03  0.53172864162E+03  0.50400001928E-02 0.  1.
       -1    1    3    3    0  502  0.20249648036E+03  0.69044004324E+02  0.91348059573E+02  0.23262924817E+03  0.50400001928E-02 0. -1.
</event>
<event>
 5   0  0.3057783E-03  0.5000831E+03  0.7818609E-02  0.1013757E+00
       -1   -1    0    0    0  501  0.00000000000E+00  0.00000000000E+00  0.12795458405E+03  0.12795458415E+03  0.50400001928E-02 0.  1.
        1   -1    0    0  501    0  0.00000000000E+00  0.00000000000E+00 -0.48861686372E+03  0.48861686374E+03  0.50400001928E-02 0. -1.
    10030    2    1    2    0    0  0.00000000000E+00  0.00000000000E+00 -0.36066227966E+03  0.61657144789E+03  0.50008306348E+03 0.  0.
        5    1    3    3  502    0  0.10960605902E+03 -0.10679755070E+03  0.63402576356E+02  0.16571415659E+03  0.46999998093E+01 0.  1.
       -5    1    3    3    0  502 -0.10960605902E+03  0.10679755070E+03 -0.42406485602E+03  0.45085729130E+03  0.46999998093E+01 0. -1.
</event>
<event>
 5   0  0.4889251E-03  0.5002243E+03  0.7818609E-02  0.1013720E+00
       -2   -1    0    0    0  501  0.00000000000E+00  0.00000000000E+00  0.13976554449E+03  0.13976554452E+03  0.25500000920E-02 0.  1.
        2   -1    0    0  501    0  0.00000000000E+00  0.00000000000E+00 -0.44757866776E+03  0.44757866777E+03  0.25500000920E-02 0. -1.
    10030    2    1    2    0    0  0.00000000000E+00  0.00000000000E+00 -0.30781312327E+03  0.58734421229E+03  0.50022425456E+03 0.  0.
        5    1    3    3  502    0  0.65009979030E+02  0.24682704544E+02  0.12813300076E+03  0.14586188384E+03  0.46999998093E+01 0.  1.
       -5    1    3    3    0  502 -0.65009979030E+02 -0.24682704544E+02 -0.43594612403E+03  0.44148232845E+03  0.46999998093E+01 0. -1.
</event>
<event>
 5   0  0.3211775E-03  0.4998746E+03  0.7818609E-02  0.1013812E+00
        1   -1    0    0  501    0  0.00000000000E+00  0.00000000000E+00  0.60910682432E+03  0.60910682434E+03  0.50400001928E-02 0.  1.
       -1   -1    0    0    0  501  0.00000000000E+00  0.00000000000E+00 -0.10255778034E+03  0.10255778046E+03  0.50400001928E-02 0. -1.
    10030    2    1    2    0    0  0.00000000000E+00  0.00000000000E+00  0.50654904398E+03  0.71166460480E+03  0.49987456003E+03 0.  0.
        4    1    3    3  502    0 -0.23186882002E+03 -0.91515735661E+02  0.22746094542E+03  0.33745869994E+03  0.12699999809E+01 0. -1.
       -4    1    3    3    0  502  0.23186882002E+03  0.91515735661E+02  0.27908809857E+03  0.37420590486E+03  0.12699999809E+01 0.  1.
</event>
<event>
 5   0  0.5095783E-03  0.5002895E+03  0.7818609E-02  0.1013703E+00
        2   -1    0    0  501    0  0.00000000000E+00  0.00000000000E+00  0.18528284490E+04  0.18528284490E+04  0.25500000920E-02 0.  1.
       -2   -1    0    0    0  501  0.00000000000E+00  0.00000000000E+00 -0.33771288418E+02  0.33771288515E+02  0.25500000920E-02 0. -1.
    10030    2    1    2    0    0  0.00000000000E+00  0.00000000000E+00  0.18190571605E+04  0.18865997375E+04  0.50028953230E+03 0.  0.
        4    1    3    3  502    0  0.21003533184E+03 -0.24289354426E+02  0.40548075160E+03  0.45729756853E+03  0.12699999809E+01 0. -1.
       -4    1    3    3    0  502 -0.21003533184E+03  0.24289354426E+02  0.14135764089E+04  0.14293021689E+04  0.12699999809E+01 0.  1.
</event>
<event>
 5   0  0.4978779E-03  0.4985400E+03  0.7818609E-02  0.1014161E+00
        2   -1    0    0  501    0  0.00000000000E+00  0.00000000000E+00  0.69921990123E+03  0.69921990123E+03  0.25500000920E-02 0.  1.
       -2   -1    0    0    0  501  0.00000000000E+00  0.00000000000E+00 -0.88864093411E+02  0.88864093447E+02  0.25500000920E-02 0. -1.
    10030    2    1    2    0    0  0.00000000000E+00  0.00000000000E+00  0.61035580781E+03  0.78808399468E+03  0.49854003905E+03 0.  0.
        1    1    3    3  502    0 -0.17533230674E+03 -0.17141541816E+02  0.58395346585E+03  0.60994827695E+03  0.50400001928E-02 0.  1.
       -1    1    3    3    0  502  0.17533230674E+03  0.17141541816E+02  0.26402341961E+02  0.17813571773E+03  0.50400001928E-02 0. -1.
</event>
<event>
 5   0  0.3055293E-03  0.4998822E+03  0.7818609E-02  0.1013810E+00
       -1   -1    0    0    0  501  0.00000000000E+00  0.00000000000E+00  0.97749972190E+02  0.97749972320E+02  0.50400001928E-02 0.  1.
        1   -1    0    0  501    0  0.00000000000E+00  0.00000000000E+00 -0.63908524719E+03  0.63908524721E+03  0.50400001928E-02 0. -1.
    10030    2    1    2    0    0  0.00000000000E+00  0.00000000000E+00 -0.54133527500E+03  0.73683521953E+03  0.49988224691E+03 0.  0.
        3    1    3    3  502    0  0.12043733049E+03 -0.59425115784E+02 -0.58138152288E+03  0.59669169620E+03  0.10100000352E+00 0. -1.
       -3    1    3    3    0  502 -0.12043733049E+03  0.59425115784E+02  0.40046247884E+02  0.14014352333E+03  0.10100000352E+00 0.  1.
</event>
<event>
 5   0  0.5118882E-03  0.5009703E+03  0.7818609E-02  0.1013526E+00
        2   -1    0    0  501    0  0.00000000000E+00  0.00000000000E+00  0.20789545235E+04  0.20789545235E+04  0.25500000920E-02 0.  1.
       -2   -1    0    0    0  501  0.00000000000E+00  0.00000000000E+00 -0.30179982203E+02  0.30179982311E+02  0.25500000920E-02 0. -1.
    10030    2    1    2    0    0  0.00000000000E+00  0.00000000000E+00  0.20487745413E+04  0.21091345058E+04  0.50097030106E+03 0.  0.
        3    1    3    3  502    0 -0.14683292336E+03 -0.20193591129E+03  0.11090909429E+04  0.11368468452E+04  0.10100000352E+00 0. -1.
       -3    1    3    3    0  502  0.14683292336E+03  0.20193591129E+03  0.93968359843E+03  0.97228766063E+03  0.10100000352E+00 0.  1.
</event>
<event>
 5   0  0.3211775E-03  0.4999745E+03  0.7818609E-02  0.1013786E+00
       -1   -1    0    0    0  501  0.00000000000E+00  0.00000000000E+00  0.70855007464E+02  0.70855007643E+02  0.50400001928E-02 0.  1.
        1   -1    0    0  501    0  0.00000000000E+00  0.00000000000E+00 -0.88199303809E+03  0.88199303810E+03  0.50400001928E-02 0. -1.
    10030    2    1    2    0    0  0.00000000000E+00  0.00000000000E+00 -0.81113803062E+03  0.95284804574E+03  0.49997449290E+03 0.  0.
        4    1    3    3  502    0  0.98927944989E+02 -0.22950758216E+03 -0.39486566158E+03  0.46731249947E+03  0.12699999809E+01 0. -1.
       -4    1    3    3    0  502 -0.98927944989E+02  0.22950758216E+03 -0.41627236904E+03  0.48553554627E+03  0.12699999809E+01 0.  1.
</event>
<event>
 5   0  0.4989875E-03  0.5000193E+03  0.7818609E-02  0.1013774E+00
        2   -1    0    0  501    0  0.00000000000E+00  0.00000000000E+00  0.94340259252E+03  0.94340259253E+03  0.25500000920E-02 0.  1.
       -2   -1    0    0    0  501  0.00000000000E+00  0.00000000000E+00 -0.66254670160E+02  0.66254670209E+02  0.25500000920E-02 0. -1.
    10030    2    1    2    0    0  0.00000000000E+00  0.00000000000E+00  0.87714792236E+03  0.10096572627E+04  0.50001931012E+03 0.  0.
        2    1    3    3  502    0 -0.74293374062E+02  0.57171594323E+02  0.90656979254E+03  0.91140379930E+03  0.25500000920E-02 0.  1.
       -2    1    3    3    0  502  0.74293374062E+02 -0.57171594323E+02 -0.29421870173E+02  0.98253463440E+02  0.25500000920E-02 0. -1.
</event>
<event>
 5   0  0.3211775E-03  0.5000689E+03  0.7818609E-02  0.1013761E+00
       -1   -1    0    0    0  501  0.00000000000E+00  0.00000000000E+00  0.14031641330E+03  0.14031641339E+03  0.50400001928E-02 0.  1.
        1   -1    0    0  501    0  0.00000000000E+00  0.00000000000E+00 -0.44554464440E+03  0.44554464443E+03  0.50400001928E-02 0. -1.
    10030    2    1    2    0    0  0.00000000000E+00  0.00000000000E+00 -0.30522823111E+03  0.58586105782E+03  0.50006890126E+03 0.  0.
        4    1    3    3  502    0 -0.71612399524E+02 -0.22664887646E+03 -0.24349554854E+03  0.34027892092E+03  0.12699999809E+01 0. -1.
       -4    1    3    3    0  502  0.71612399524E+02  0.22664887646E+03 -0.61732682567E+02  0.24558213690E+03  0.12699999809E+01 0.  1.
</event>
<event>
 5   0  0.3211775E-03  0.5002674E+03  0.7818609E-02  0.1013709E+00
       -1   -1    0    0    0  501  0.00000000000E+00  0.00000000000E+00  0.47630438786E+02  0.47630439053E+02  0.50400001928E-02 0.  1.
        1   -1    0    0  501    0  0.00000000000E+00  0.00000000000E+00 -0.13135899015E+04  0.13135899015E+04  0.50400001928E-02 0. -1.
    10030    2    1    2    0    0  0.00000000000E+00  0.00000000000E+00 -0.12659594627E+04  0.13612203406E+04  0.50026738283E+03 0.  0.
        4    1    3    3  502    0 -0.24614427114E+03 -0.26086389647E+02 -0.73100127789E+03  0.77177197611E+03  0.12699999809E+01 0.  1.
       -4    1    3    3    0  502  0.24614427114E+03  0.26086389647E+02 -0.53495818484E+03  0.58944836446E+03  0.12699999809E+01 0. -1.
</event>
<event>
 5   0  0.3013734E-03  0.5002363E+03  0.7818609E-02  0.1013717E+00
        1   -1    0    0  501    0  0.00000000000E+00  0.00000000000E+00  0.14960588845E+04  0.14960588846E+04  0.50400001928E-02 0. -1.
       -1   -1    0    0    0  501  0.00000000000E+00  0.00000000000E+00 -0.41815929286E+02  0.41815929589E+02  0.50400001928E-02 0.  1.
    10030    2    1    2    0    0  0.00000000000E+00  0.00000000000E+00  0.14542429553E+04  0.15378748141E+04  0.50023631521E+03 0.  0.
        2    1    3    3  502    0 -0.80465320584E+02  0.23337970732E+03  0.85079600807E+03  0.88588633750E+03  0.25500000920E-02 0. -1.
       -2    1    3    3    0  502  0.80465320584E+02 -0.23337970732E+03  0.60344694719E+03  0.65198847665E+03  0.25500000920E-02 0.  1.
</event>
<event>
 5   0  0.4989875E-03  0.5001998E+03  0.7818609E-02  0.1013727E+00
       -2   -1    0    0    0  501  0.00000000000E+00  0.00000000000E+00  0.12336476045E+03  0.12336476048E+03  0.25500000920E-02 0.  1.
        2   -1    0    0  501    0  0.00000000000E+00  0.00000000000E+00 -0.50703258842E+03  0.50703258843E+03  0.25500000920E-02 0. -1.
    10030    2    1    2    0    0  0.00000000000E+00  0.00000000000E+00 -0.38366782797E+03  0.63039734891E+03  0.50019977538E+03 0.  0.
        2    1    3    3  502    0  0.74071906915E+02  0.10980990760E+03 -0.45919716041E+03  0.47791933978E+03  0.25500000920E-02 0. -1.
       -2    1    3    3    0  502 -0.74071906915E+02 -0.10980990760E+03  0.75529332442E+02  0.15247800913E+03  0.25500000920E-02 0.  1.
</event>
<event>
 5   0  0.4978779E-03  0.5000669E+03  0.7818609E-02  0.1013761E+00
        2   -1    0    0  501    0  0.00000000000E+00  0.00000000000E+00  0.31994686689E+03  0.31994686690E+03  0.25500000920E-02 0.  1.
       -2   -1    0    0    0  501  0.00000000000E+00  0.00000000000E+00 -0.19539718560E+03  0.19539718562E+03  0.25500000920E-02 0. -1.
    10030    2    1    2    0    0  0.00000000000E+00  0.00000000000E+00  0.12454968129E+03  0.51534405252E+03  0.50006686489E+03 0.  0.
        1    1    3    3  502    0  0.14466752644E+03  0.14766005314E+03  0.20722946990E+03  0.29270503535E+03  0.50400001928E-02 0. -1.
       -1    1    3    3    0  502 -0.14466752644E+03 -0.14766005314E+03 -0.82679788607E+02  0.22263901718E+03  0.50400001928E-02 0.  1.
</event>
<event>
 5   0  0.2005125E-03  0.5000681E+03  0.7818609E-02  0.1013761E+00
        4   -1    0    0  501    0  0.00000000000E+00  0.00000000000E+00  0.12537694657E+03  0.12538337861E+03  0.12699999809E+01 0. -1.
       -4   -1    0    0    0  501  0.00000000000E+00  0.00000000000E+00 -0.49861259164E+03  0.49861420903E+03  0.12699999809E+01 0.  1.
    10030    2    1    2    0    0  0.00000000000E+00  0.00000000000E+00 -0.37323564507E+03  0.62399758764E+03  0.50006813799E+03 0.  0.
        2    1    3    3  502    0 -0.23315785809E+03  0.79029442297E+02 -0.13210062816E+03  0.27939007767E+03  0.25500000920E-02 0. -1.
       -2    1    3    3    0  502  0.23315785809E+03 -0.79029442297E+02 -0.24113501691E+03  0.34460750997E+03  0.25500000920E-02 0.  1.
</event>
<event>
 5   0  0.4978779E-03  0.4998785E+03  0.7818609E-02  0.1013811E+00
       -2   -1    0    0    0  501  0.00000000000E+00  0.00000000000E+00  0.45792472483E+02  0.45792472554E+02  0.25500000920E-02 0.  1.
        2   -1    0    0  501    0  0.00000000000E+00  0.00000000000E+00 -0.13641901511E+04  0.13641901511E+04  0.25500000920E-02 0. -1.
    10030    2    1    2    0    0  0.00000000000E+00  0.00000000000E+00 -0.13183976786E+04  0.14099826237E+04  0.49987854528E+03 0.  0.
        1    1    3    3  502    0 -0.64521996748E+02 -0.24012867933E+03 -0.58757601661E+03  0.63802072539E+03  0.50400001928E-02 0.  1.
       -1    1    3    3    0  502  0.64521996748E+02  0.24012867933E+03 -0.73082166201E+03  0.77196189827E+03  0.50400001928E-02 0. -1.
</event>
<event>
 5   0  0.2863538E-03  0.5000317E+03  0.7818609E-02  0.1013771E+00
       -1   -1    0    0    0  501  0.00000000000E+00  0.00000000000E+00  0.24842110367E+03  0.24842110372E+03  0.50400001928E-02 0.  1.
        1   -1    0    0  501    0  0.00000000000E+00  0.00000000000E+00 -0.25162083148E+03  0.25162083153E+03  0.50400001928E-02 0. -1.
    10030    2    1    2    0    0  0.00000000000E+00  0.00000000000E+00 -0.31997278022E+01  0.50004193525E+03  0.50003169775E+03 0.  0.
        1    1    3    3  502    0 -0.40767830752E+02 -0.78221628548E+01 -0.24815049036E+03  0.25159862509E+03  0.50400001928E-02 0. -1.
       -1    1    3    3    0  502  0.40767830752E+02  0.78221628548E+01  0.24495076256E+03  0.24844331016E+03  0.50400001928E-02 0.  1.
</event>
<event>
 5   0  0.4889251E-03  0.5001205E+03  0.7818609E-02  0.1013747E+00
        2   -1    0    0  501    0  0.00000000000E+00  0.00000000000E+00  0.36576814966E+03  0.36576814967E+03  0.25500000920E-02 0.  1.
       -2   -1    0    0    0  501  0.00000000000E+00  0.00000000000E+00 -0.17095562768E+03  0.17095562770E+03  0.25500000920E-02 0. -1.
    10030    2    1    2    0    0  0.00000000000E+00  0.00000000000E+00  0.19481252198E+03  0.53672377737E+03  0.50012047995E+03 0.  0.
        5    1    3    3  502    0  0.76414157159E+02 -0.23297848283E+03  0.44941294584E+02  0.24931888583E+03  0.46999998093E+01 0. -1.
       -5    1    3    3    0  502 -0.76414157159E+02  0.23297848283E+03  0.14987122740E+03  0.28740489153E+03  0.46999998093E+01 0.  1.
</event>
<event>
 5   0  0.3057783E-03  0.4998057E+03  0.7818609E-02  0.1013830E+00
        1   -1    0    0  501    0  0.00000000000E+00  0.00000000000E+00  0.33056860225E+03  0.33056860229E+03  0.50400001928E-02 0. -1.
       -1   -1    0    0    0  501  0.00000000000E+00  0.00000000000E+00 -0.18892126072E+03  0.18892126078E+03  0.50400001928E-02 0.  1.
    10030    2    1    2    0    0  0.00000000000E+00  0.00000000000E+00  0.14164734153E+03  0.51948986307E+03  0.49980571072E+03 0.  0.
        5    1    3    3  502    0  0.55095430422E+02  0.44705079703E+02  0.31983208089E+03  0.32764111550E+03  0.46999998093E+01 0. -1.
       -5    1    3    3    0  502 -0.55095430422E+02 -0.44705079703E+02 -0.17818473936E+03  0.19184874757E+03  0.46999998093E+01 0.  1.
</event>
<event>
 5   0  0.5095783E-03  0.5001401E+03  0.7818609E-02  0.1013742E+00
       -2   -1    0    0    0  501  0.00000000000E+00  0.00000000000E+00  0.51281742786E+03  0.51281742786E+03  0.25500000920E-02 0. -1.
        2   -1    0    0  501    0  0.00000000000E+00  0.00000000000E+00 -0.12194405539E+03  0.12194405542E+03  0.25500000920E-02 0.  1.
    10030    2    1    2    0    0  0.00000000000E+00  0.00000000000E+00  0.39087337246E+03  0.63476148328E+03  0.50014012772E+03 0.  0.
        4    1    3    3  502    0  0.12866797125E+03  0.41306554637E+02  0.46248029542E+03  0.48182083271E+03  0.12699999809E+01 0. -1.
       -4    1    3    3    0  502 -0.12866797125E+03 -0.41306554637E+02 -0.71606922959E+02  0.15294065057E+03  0.12699999809E+01 0.  1.
</event>
<event>
 5   0  0.5095783E-03  0.5000911E+03  0.7818609E-02  0.1013755E+00
        2   -1    0    0  501    0  0.00000000000E+00  0.00000000000E+00  0.42476950400E+03  0.42476950401E+03  0.25500000920E-02 0. -1.
       -2   -1    0    0    0  501  0.00000000000E+00  0.00000000000E+00 -0.14719223784E+03  0.14719223786E+03  0.25500000920E-02 0.  1.
    10030    2    1    2    0    0  0.00000000000E+00  0.00000000000E+00  0.27757726616E+03  0.57196174187E+03  0.50009108717E+03 0.  0.
        4    1    3    3  502    0  0.15915812093E+03 -0.15059853512E+03  0.27655734408E+03  0.35284104594E+03  0.12699999809E+01 0. -1.
       -4    1    3    3    0  502 -0.15915812093E+03  0.15059853512E+03  0.10199220827E+01  0.21912069592E+03  0.12699999809E+01 0.  1.
</event>
<event>
 5   0  0.2005125E-03  0.4999884E+03  0.7818609E-02  0.1013782E+00
        4   -1    0    0  501    0  0.00000000000E+00  0.00000000000E+00  0.66386192665E+03  0.66386314144E+03  0.12699999809E+01 0. -1.
       -4   -1    0    0    0  501  0.00000000000E+00  0.00000000000E+00 -0.94136126424E+02  0.94144692883E+02  0.12699999809E+01 0.  1.
    10030    2    1    2    0    0  0.00000000000E+00  0.00000000000E+00  0.56972580023E+03  0.75800783432E+03  0.49998838931E+03 0.  0.
        5    1    3    3  502    0 -0.25037845280E+02 -0.12529808540E+03 -0.40818222175E+02  0.13421892997E+03  0.46999998093E+01 0.  1.
       -5    1    3    3    0  502  0.25037845280E+02  0.12529808540E+03  0.61054402240E+03  0.62378890435E+03  0.46999998093E+01 0. -1.
</event>
<event>
 5   0  0.2005125E-03  0.4999201E+03  0.7818609E-02  0.1013800E+00
        3   -1    0    0  501    0  0.00000000000E+00  0.00000000000E+00  0.43038536215E+03  0.43038537400E+03  0.10100000352E+00 0.  1.
       -3   -1    0    0    0  501  0.00000000000E+00  0.00000000000E+00 -0.14517223704E+03  0.14517227218E+03  0.10100000352E+00 0. -1.
    10030    2    1    2    0    0  0.00000000000E+00  0.00000000000E+00  0.28521312511E+03  0.57555764618E+03  0.49992007096E+03 0.  0.
        3    1    3    3  502    0  0.12114117057E+03  0.64353775956E+02  0.38317969138E+03  0.40699297018E+03  0.10100000352E+00 0.  1.
       -3    1    3    3    0  502 -0.12114117057E+03 -0.64353775956E+02 -0.97966566274E+02  0.16856467600E+03  0.10100000352E+00 0. -1.
</event>
<event>
 5   0  0.2863538E-03  0.5003470E+03  0.7818609E-02  0.1013688E+00
       -1   -1    0    0    0  501  0.00000000000E+00  0.00000000000E+00  0.26349847649E+03  0.26349847654E+03  0.50400001928E-02 0.  1.
        1   -1    0    0  501    0  0.00000000000E+00  0.00000000000E+00 -0.23752233707E+03  0.23752233712E+03  0.50400001928E-02 0. -1.
    10030    2    1    2    0    0  0.00000000000E+00  0.00000000000E+00  0.25976139421E+02  0.50102081366E+03  0.50034697551E+03 0.  0.
        1    1    3    3  502    0  0.14589776163E+02  0.67367175427E+02  0.25380223067E+03  0.26299576083E+03  0.50400001928E-02 0.  1.
       -1    1    3    3    0  502 -0.14589776163E+02 -0.67367175427E+02 -0.22782609125E+03  0.23802505283E+03  0.50400001928E-02 0. -1.
</event>
<event>
 5   0  0.3057783E-03  0.5007790E+03  0.7818609E-02  0.1013576E+00
       -1   -1    0    0    0  501  0.00000000000E+00  0.00000000000E+00  0.88664618376E+02  0.88664618519E+02  0.50400001928E-02 0. -1.
        1   -1    0    0  501    0  0.00000000000E+00  0.00000000000E+00 -0.70710158385E+03  0.70710158387E+03  0.50400001928E-02 0.  1.
    10030    2    1    2    0    0  0.00000000000E+00  0.00000000000E+00 -0.61843696548E+03  0.79576620239E+03  0.50077896182E+03 0.  0.
        5    1    3    3  502    0  0.13795954018E+03 -0.63485849583E+02 -0.62547477361E+03  0.64366456346E+03  0.46999998093E+01 0.  1.
       -5    1    3    3    0  502 -0.13795954018E+03  0.63485849583E+02  0.70378081363E+01  0.15210163893E+03  0.46999998093E+01 0. -1.
</event>
<event>
 5   0  0.5095783E-03  0.5000010E+03  0.7818609E-02  0.1013779E+00
       -2   -1    0    0    0  501  0.00000000000E+00  0.00000000000E+00  0.20681626224E+03  0.20681626226E+03  0.25500000920E-02 0. -1.
        2   -1    0    0  501    0  0.00000000000E+00  0.00000000000E+00 -0.30220182298E+03  0.30220182300E+03  0.25500000920E-02 0.  1.
    10030    2    1    2    0    0  0.00000000000E+00  0.00000000000E+00 -0.95385560744E+02  0.50901808525E+03  0.50000100592E+03 0.  0.
        4    1    3    3  502    0 -0.65296955173E+02 -0.21107043449E+03 -0.16678196603E+03  0.27682531995E+03  0.12699999809E+01 0. -1.
       -4    1    3    3    0  502  0.65296955173E+02  0.21107043449E+03  0.71396405283E+02  0.23219276530E+03  0.12699999809E+01 0.  1.
</event>
<event>
 5   0  0.4889251E-03  0.4998499E+03  0.7818609E-02  0.1013818E+00
       -2   -1    0    0    0  501  0.00000000000E+00  0.00000000000E+00  0.15026437091E+03  0.15026437093E+03  0.25500000920E-02 0.  1.
        2   -1    0    0  501    0  0.00000000000E+00  0.00000000000E+00 -0.41568384376E+03  0.41568384376E+03  0.25500000920E-02 0. -1.
    10030    2    1    2    0    0  0.00000000000E+00  0.00000000000E+00 -0.26541947284E+03  0.56594821470E+03  0.49984986262E+03 0.  0.
        5    1    3    3  502    0 -0.19592033195E+03  0.15114962092E+03 -0.93334647694E+02  0.26450790316E+03  0.46999998093E+01 0.  1.
       -5    1    3    3    0  502  0.19592033195E+03 -0.15114962092E+03 -0.17208482515E+03  0.30144031154E+03  0.46999998093E+01 0. -1.
</event>
<event>
 5   0  0.4978779E-03  0.5001855E+03  0.7818609E-02  0.1013731E+00
       -2   -1    0    0    0  501  0.00000000000E+00  0.00000000000E+00  0.10533766346E+03  0.10533766349E+03  0.25500000920E-02 0. -1.
        2   -1    0    0  501    0  0.00000000000E+00  0.00000000000E+00 -0.59377036209E+03  0.59377036209E+03  0.25500000920E-02 0.  1.
    10030    2    1    2    0    0  0.00000000000E+00  0.00000000000E+00 -0.48843269863E+03  0.69910802558E+03  0.50018549593E+03 0.  0.
        1    1    3    3  502    0  0.14429648202E+03 -0.20156460740E+03 -0.19793130786E+03  0.31721691054E+03  0.50400001928E-02 0. -1.
       -1    1    3    3    0  502 -0.14429648202E+03  0.20156460740E+03 -0.29050139077E+03  0.38189111504E+03  0.50400001928E-02 0.  1.
</event>
<event>
 5   0  0.4978779E-03  0.5002567E+03  0.7818609E-02  0.1013712E+00
       -2   -1    0    0    0  501  0.00000000000E+00  0.00000000000E+00  0.86559258858E+02  0.86559258896E+02  0.25500000920E-02 0. -1.
        2   -1    0    0  501    0  0.00000000000E+00  0.00000000000E+00 -0.72279015881E+03  0.72279015881E+03  0.25500000920E-02 0.  1.
    10030    2    1    2    0    0  0.00000000000E+00  0.00000000000E+00 -0.63623089995E+03  0.80934941771E+03  0.50025665602E+03 0.  0.
        1    1    3    3  502    0  0.18116009139E+03 -0.15584749505E+03 -0.19860369875E+03  0.31072632590E+03  0.50400001928E-02 0. -1.
       -1    1    3    3    0  502 -0.18116009139E+03  0.15584749505E+03 -0.43762720120E+03  0.49862309181E+03  0.50400001928E-02 0.  1.
</event>
<event>
 5   0  0.3057783E-03  0.4984744E+03  0.7818609E-02  0.1014178E+00
        1   -1    0    0  501    0  0.00000000000E+00  0.00000000000E+00  0.17748597707E+04  0.17748597707E+04  0.50400001928E-02 0.  1.
       -1   -1    0    0    0  501  0.00000000000E+00  0.00000000000E+00 -0.34999492565E+02  0.34999492928E+02  0.50400001928E-02 0. -1.
    10030    2    1    2    0    0  0.00000000000E+00  0.00000000000E+00  0.17398602781E+04  0.18098592636E+04  0.49847443940E+03 0.  0.
        5    1    3    3  502    0  0.12854812064E+03  0.15371623621E+03  0.14077760119E+04  0.14219735195E+04  0.46999998093E+01 0.  1.
       -5    1    3    3    0  502 -0.12854812064E+03 -0.15371623621E+03  0.33208426626E+03  0.38788574412E+03  0.46999998093E+01 0. -1.
</event>
<event>
 5   0  0.3057783E-03  0.4999034E+03  0.7818609E-02  0.1013804E+00
       -1   -1    0    0    0  501  0.00000000000E+00  0.00000000000E+00  0.12617992245E+03  0.12617992255E+03  0.50400001928E-02 0. -1.
        1   -1    0    0  501    0  0.00000000000E+00  0.00000000000E+00 -0.49513305259E+03  0.49513305262E+03  0.50400001928E-02 0.  1.
    10030    2    1    2    0    0  0.00000000000E+00  0.00000000000E+00 -0.36895313014E+03  0.62131297517E+03  0.49990339154E+03 0.  0.
        5    1    3    3  502    0 -0.12126084547E+03 -0.19921324685E+03 -0.29608324033E+03  0.37693167228E+03  0.46999998093E+01 0. -1.
       -5    1    3    3    0  502  0.12126084547E+03  0.19921324685E+03 -0.72869889804E+02  0.24438130289E+03  0.46999998093E+01 0.  1.
</event>
<event>
 5   0  0.5095783E-03  0.4984632E+03  0.7818609E-02  0.1014181E+00
       -2   -1    0    0    0  501  0.00000000000E+00  0.00000000000E+00  0.30540581729E+02  0.30540581836E+02  0.25500000920E-02 0.  1.
        2   -1    0    0  501    0  0.00000000000E+00  0.00000000000E+00 -0.20338966758E+04  0.20338966758E+04  0.25500000920E-02 0. -1.
    10030    2    1    2    0    0  0.00000000000E+00  0.00000000000E+00 -0.20033560941E+04  0.20644372576E+04  0.49846318928E+03 0.  0.
        4    1    3    3  502    0 -0.15821846060E+03  0.50438407965E+02 -0.17713666487E+04  0.17791342083E+04  0.12699999809E+01 0. -1.
       -4    1    3    3    0  502  0.15821846060E+03 -0.50438407965E+02 -0.23198944536E+03  0.28530304928E+03  0.12699999809E+01 0.  1.
</event>
<event>
 5   0  0.3211775E-03  0.5000355E+03  0.7818609E-02  0.1013770E+00
       -1   -1    0    0    0  501  0.00000000000E+00  0.00000000000E+00  0.39092339745E+02  0.39092340070E+02  0.50400001928E-02 0. -1.
        1   -1    0    0  501    0  0.00000000000E+00  0.00000000000E+00 -0.15990058838E+04  0.15990058839E+04  0.50400001928E-02 0.  1.
    10030    2    1    2    0    0  0.00000000000E+00  0.00000000000E+00 -0.15599135441E+04  0.16380982239E+04  0.50003552489E+03 0.  0.
        4    1    3    3  502    0  0.12160431402E+03 -0.11489896120E+03 -0.17131579463E+03  0.23945791877E+03  0.12699999809E+01 0. -1.
       -4    1    3    3    0  502 -0.12160431402E+03  0.11489896120E+03 -0.13885977495E+04  0.13986403052E+04  0.12699999809E+01 0.  1.
</event>
<event>
 5   0  0.5095783E-03  0.4999770E+03  0.7818609E-02  0.1013785E+00
       -2   -1    0    0    0  501  0.00000000000E+00  0.00000000000E+00  0.27938417192E+03  0.27938417194E+03  0.25500000920E-02 0. -1.
        2   -1    0    0  501    0  0.00000000000E+00  0.00000000000E+00 -0.22368574656E+03  0.22368574657E+03  0.25500000920E-02 0.  1.
    10030    2    1    2    0    0  0.00000000000E+00  0.00000000000E+00  0.55698425366E+02  0.50306991851E+03  0.49997702779E+03 0.  0.
        4    1    3    3  502    0  0.96295517979E+02  0.59120118813E+01 -0.20419584953E+03  0.22584361079E+03  0.12699999809E+01 0.  1.
       -4    1    3    3    0  502 -0.96295517979E+02 -0.59120118813E+01  0.25989427490E+03  0.27722630772E+03  0.12699999809E+01 0. -1.
</event>
<event>
 5   0  0.3055293E-03  0.5001150E+03  0.7818609E-02  0.1013749E+00
       -1   -1    0    0    0  501  0.00000000000E+00  0.00000000000E+00  0.95069418730E+02  0.95069418864E+02  0.50400001928E-02 0. -1.
        1   -1    0    0  501    0  0.00000000000E+00  0.00000000000E+00 -0.65771690906E+03  0.65771690907E+03  0.50400001928E-02 0.  1.
    10030    2    1    2    0    0  0.00000000000E+00  0.00000000000E+00 -0.56264749033E+03  0.75278632794E+03  0.50011504393E+03 0.  0.
        3    1    3    3  502    0  0.37595752758E+02 -0.12420945266E+03 -0.60305975479E+03  0.61686506369E+03  0.10100000352E+00 0.  1.
       -3    1    3    3    0  502 -0.37595752758E+02  0.12420945266E+03  0.40412264462E+02  0.13592126425E+03  0.10100000352E+00 0. -1.
</event>
<event>
 5   0  0.3211775E-03  0.4997604E+03  0.7818609E-02  0.1013841E+00
        1   -1    0    0  501    0  0.00000000000E+00  0.00000000000E+00  0.49026470740E+03  0.49026470742E+03  0.50400001928E-02 0.  1.
       -1   -1    0    0    0  501  0.00000000000E+00  0.00000000000E+00 -0.12736001816E+03  0.12736001826E+03  0.50400001928E-02 0. -1.
    10030    2    1    2    0    0  0.00000000000E+00  0.00000000000E+00  0.36290468923E+03  0.61762472568E+03  0.49976043092E+03 0.  0.
        4    1    3    3  502    0 -0.24036840570E+03  0.68266958061E+02  0.18278405011E+03  0.30959484798E+03  0.12699999809E+01 0.  1.
       -4    1    3    3    0  502  0.24036840570E+03 -0.68266958061E+02  0.18012063913E+03  0.30802987771E+03  0.12699999809E+01 0. -1.
</event>
<event>
 5   0  0.3013734E-03  0.4997827E+03  0.7818609E-02  0.1013836E+00
       -1   -1    0    0    0  501  0.00000000000E+00  0.00000000000E+00  0.25326599401E+03  0.25326599406E+03  0.50400001928E-02 0.  1.
        1   -1    0    0  501    0  0.00000000000E+00  0.00000000000E+00 -0.24656167020E+03  0.24656167025E+03  0.50400001928E-02 0. -1.
    10030    2    1    2    0    0  0.00000000000E+00  0.00000000000E+00  0.67043238068E+01  0.49982766431E+03  0.49978269883E+03 0.  0.
        2    1    3    3  502    0  0.18795169422E+03  0.14677892527E+03 -0.71325797333E+02  0.24891215646E+03  0.25500000920E-02 0. -1.
       -2    1    3    3    0  502 -0.18795169422E+03 -0.14677892527E+03  0.78030121139E+02  0.25091550784E+03  0.25500000920E-02 0.  1.
</event>
<event>
 5   0  0.4978779E-03  0.4998617E+03  0.7818609E-02  0.1013815E+00
       -2   -1    0    0    0  501  0.00000000000E+00  0.00000000000E+00  0.90826571689E+02  0.90826571725E+02  0.25500000920E-02 0.  1.
        2   -1    0    0  501    0  0.00000000000E+00  0.00000000000E+00 -0.68774394272E+03  0.68774394272E+03  0.25500000920E-02 0. -1.
    10030    2    1    2    0    0  0.00000000000E+00  0.00000000000E+00 -0.59691737103E+03  0.77857051445E+03  0.49986167900E+03 0.  0.
        1    1    3    3  502    0  0.53635171101E+02  0.86660184573E+02 -0.65390842344E+03  0.66180279951E+03  0.50400001928E-02 0. -1.
       -1    1    3    3    0  502 -0.53635171101E+02 -0.86660184573E+02  0.56991052417E+02  0.11676771493E+03  0.50400001928E-02 0.  1.
</event>
<event>
 5   0  0.2863538E-03  0.4998760E+03  0.7818609E-02  0.1013811E+00
        1   -1    0    0  501    0  0.00000000000E+00  0.00000000000E+00  0.52362798841E+03  0.52362798843E+03  0.50400001928E-02 0.  1.
       -1   -1    0    0    0  501  0.00000000000E+00  0.00000000000E+00 -0.11930036191E+03  0.11930036201E+03  0.50400001928E-02 0. -1.
    10030    2    1    2    0    0  0.00000000000E+00  0.00000000000E+00  0.40432762650E+03  0.64292835045E+03  0.49987601888E+03 0.  0.
        1    1    3    3  502    0  0.95632456204E+02 -0.25214537871E+02 -0.93062298446E+02  0.13580107149E+03  0.50400001928E-02 0. -1.
       -1    1    3    3    0  502 -0.95632456204E+02  0.25214537871E+02  0.49738992495E+03  0.50712727896E+03  0.50400001928E-02 0.  1.
</event>
<event>
 5   0  0.5118882E-03  0.5001702E+03  0.7818609E-02  0.1013734E+00
       -2   -1    0    0    0  501  0.00000000000E+00  0.00000000000E+00  0.99001064753E+02  0.99001064786E+02  0.25500000920E-02 0. -1.
        2   -1    0    0  501    0  0.00000000000E+00  0.00000000000E+00 -0.63173631613E+03  0.63173631613E+03  0.25500000920E-02 0.  1.
    10030    2    1    2    0    0  0.00000000000E+00  0.00000000000E+00 -0.53273525138E+03  0.73073738092E+03  0.50017024283E+03 0.  0.
        3    1    3    3  502    0  0.87081904405E+02 -0.68612226379E+02 -0.59387319476E+03  0.60413266535E+03  0.10100000352E+00 0.  1.
       -3    1    3    3    0  502 -0.87081904405E+02  0.68612226379E+02  0.61137943383E+02  0.12660471557E+03  0.10100000352E+00 0. -1.
</event>
<event>
 5   0  0.4989875E-03  0.5000403E+03  0.7818609E-02  0.1013768E+00
        2   -1    0    0  501    0  0.00000000000E+00  0.00000000000E+00  0.13263724041E+04  0.13263724041E+04  0.25500000920E-02 0. -1.
       -2   -1    0    0    0  501  0.00000000000E+00  0.00000000000E+00 -0.47128605035E+02  0.47128605104E+02  0.25500000920E-02 0.  1.
    10030    2    1    2    0    0  0.00000000000E+00  0.00000000000E+00  0.12792437991E+04  0.13735010092E+04  0.50004032322E+03 0.  0.
        2    1    3    3  502    0  0.61326089448E+02  0.23431301491E+02  0.13022747456E+04  0.13039284598E+04  0.25500000920E-02 0. -1.
       -2    1    3    3    0  502 -0.61326089448E+02 -0.23431301491E+02 -0.23030946510E+02  0.69572549473E+02  0.25500000920E-02 0.  1.
</event>
<event>
 5   0  0.5095783E-03  0.4995306E+03  0.7818609E-02  0.1013902E+00
       -2   -1    0    0    0  501  0.00000000000E+00  0.00000000000E+00  0.42750488060E+02  0.42750488136E+02  0.25500000920E-02 0. -1.
        2   -1    0    0  501    0  0.00000000000E+00  0.00000000000E+00 -0.14592278327E+04  0.14592278327E+04  0.25500000920E-02 0.  1.
    10030    2    1    2    0    0  0.00000000000E+00  0.00000000000E+00 -0.14164773446E+04  0.15019783208E+04  0.49953058804E+03 0.  0.
        4    1    3    3  502    0  0.89297627728E+02 -0.20746519944E+03 -0.38769265566E+03  0.44869040936E+03  0.12699999809E+01 0.  1.
       -4    1    3    3    0  502 -0.89297627728E+02  0.20746519944E+03 -0.10287846889E+04  0.10532879114E+04  0.12699999809E+01 0. -1.
</event>
<event>
 5   0  0.3013734E-03  0.4998216E+03  0.7818609E-02  0.1013825E+00
        1   -1    0    0  501    0  0.00000000000E+00  0.00000000000E+00  0.19365778526E+03  0.19365778532E+03  0.50400001928E-02 0. -1.
       -1   -1    0    0    0  501  0.00000000000E+00  0.00000000000E+00 -0.32250404852E+03  0.32250404856E+03  0.50400001928E-02 0.  1.
    10030    2    1    2    0    0  0.00000000000E+00  0.00000000000E+00 -0.12884626326E+03  0.51616183388E+03  0.49982164739E+03 0.  0.
        2    1    3    3  502    0  0.18506931049E+03  0.16109165539E+03 -0.15392020163E+02  0.24584158602E+03  0.25500000920E-02 0. -1.
       -2    1    3    3    0  502 -0.18506931049E+03 -0.16109165539E+03 -0.11345424310E+03  0.27032024787E+03  0.25500000920E-02 0.  1.
</event>
<event>
 5   0  0.2863538E-03  0.4991598E+03  0.7818609E-02  0.1013998E+00
        1   -1    0    0  501    0  0.00000000000E+00  0.00000000000E+00  0.63312775949E+03  0.63312775951E+03  0.50400001928E-02 0. -1.
       -1   -1    0    0    0  501  0.00000000000E+00  0.00000000000E+00 -0.98384781260E+02  0.98384781389E+02  0.50400001928E-02 0.  1.
    10030    2    1    2    0    0  0.00000000000E+00  0.00000000000E+00  0.53474297823E+03  0.73151254089E+03  0.49915983885E+03 0.  0.
        1    1    3    3  502    0  0.72453160462E+02 -0.14533549102E+03  0.54511239650E+03  0.56878764952E+03  0.50400001928E-02 0. -1.
       -1    1    3    3    0  502 -0.72453160462E+02  0.14533549102E+03 -0.10369418270E+02  0.16272489137E+03  0.50400001928E-02 0.  1.
</event>
<event>
 5   0  0.5095783E-03  0.4999202E+03  0.7818609E-02  0.1013800E+00
        2   -1    0    0  501    0  0.00000000000E+00  0.00000000000E+00  0.23342921728E+03  0.23342921729E+03  0.25500000920E-02 0. -1.
       -2   -1    0    0    0  501  0.00000000000E+00  0.00000000000E+00 -0.26766161445E+03  0.26766161446E+03  0.25500000920E-02 0.  1.
    10030    2    1    2    0    0  0.00000000000E+00  0.00000000000E+00 -0.34232397171E+02  0.50109083176E+03  0.49992015828E+03 0.  0.
        4    1    3    3  502    0  0.47693158288E+02 -0.21515506070E+03 -0.13534192983E+03  0.25862209566E+03  0.12699999809E+01 0.  1.
       -4    1    3    3    0  502 -0.47693158288E+02  0.21515506070E+03  0.10110953266E+03  0.24246873610E+03  0.12699999809E+01 0. -1.
</event>
<event>
 5   0  0.4889251E-03  0.5012047E+03  0.7818609E-02  0.1013465E+00
       -2   -1    0    0    0  501  0.00000000000E+00  0.00000000000E+00  0.80572152535E+02  0.80572152575E+02  0.25500000920E-02 0. -1.
        2   -1    0    0  501    0  0.00000000000E+00  0.00000000000E+00 -0.77944480619E+03  0.77944480620E+03  0.25500000920E-02 0.  1.
    10030    2    1    2    0    0  0.00000000000E+00  0.00000000000E+00 -0.69887265366E+03  0.86001695877E+03  0.50120473197E+03 0.  0.
        5    1    3    3  502    0 -0.37408122684E+02 -0.23081884346E+03 -0.19497916002E+03  0.30449247770E+03  0.46999998093E+01 0. -1.
       -5    1    3    3    0  502  0.37408122684E+02  0.23081884346E+03 -0.50389349364E+03  0.55552448107E+03  0.46999998093E+01 0.  1.
</event>
<event>
 5   0  0.2005125E-03  0.4999869E+03  0.7818609E-02  0.1013782E+00
       -4   -1    0    0    0  501  0.00000000000E+00  0.00000000000E+00  0.19473632145E+03  0.19474046264E+03  0.12699999809E+01 0.  1.
        4   -1    0    0  501    0  0.00000000000E+00  0.00000000000E+00 -0.32092123874E+03  0.32092375166E+03  0.12699999809E+01 0. -1.
    10030    2    1    2    0    0  0.00000000000E+00  0.00000000000E+00 -0.12618491730E+03  0.51566421430E+03  0.49998694839E+03 0.  0.
        3    1    3    3  502    0 -0.52107198755E+02 -0.24216178425E+03 -0.28281549038E+02  0.24931375038E+03  0.10100000352E+00 0. -1.
       -3    1    3    3    0  502  0.52107198755E+02  0.24216178425E+03 -0.97903368260E+02  0.26635046392E+03  0.10100000352E+00 0.  1.
</event>
<event>
 5   0  0.2005125E-03  0.5001517E+03  0.7818609E-02  0.1013739E+00
       -3   -1    0    0    0  501  0.00000000000E+00  0.00000000000E+00  0.88159793061E+03  0.88159793640E+03  0.10100000352E+00 0.  1.
        3   -1    0    0  501    0  0.00000000000E+00  0.00000000000E+00 -0.70936981851E+02  0.70937053753E+02  0.10100000352E+00 0. -1.
    10030    2    1    2    0    0  0.00000000000E+00  0.00000000000E+00  0.81066094876E+03  0.95253499015E+03  0.50015171060E+03 0.  0.
        2    1    3    3  502    0 -0.74965775563E+02  0.14168191967E+02 -0.48231943304E+02  0.90260320910E+02  0.25500000920E-02 0. -1.
       -2    1    3    3    0  502  0.74965775563E+02 -0.14168191967E+02  0.85889289207E+03  0.86227466924E+03  0.25500000920E-02 0.  1.
</event>
<event>
 5   0  0.3055293E-03  0.4997241E+03  0.7818609E-02  0.1013851E+00
        1   -1    0    0  501    0  0.00000000000E+00  0.00000000000E+00  0.13661966312E+04  0.13661966312E+04  0.50400001928E-02 0.  1.
       -1   -1    0    0    0  501  0.00000000000E+00  0.00000000000E+00 -0.45696968960E+02  0.45696969237E+02  0.50400001928E-02 0. -1.
    10030    2    1    2    0    0  0.00000000000E+00  0.00000000000E+00  0.13204996622E+04  0.14118936004E+04  0.49972410489E+03 0.  0.
        3    1    3    3  502    0 -0.12183198526E+03  0.16798322966E+03  0.26703271693E+03  0.33818320507E+03  0.10100000352E+00 0. -1.
       -3    1    3    3    0  502  0.12183198526E+03 -0.16798322966E+03  0.10534669453E+04  0.10737103954E+04  0.10100000352E+00 0.  1.
</event>
<event>
 5   0  0.4989875E-03  0.5001750E+03  0.7818609E-02  0.1013733E+00
       -2   -1    0    0    0  501  0.00000000000E+00  0.00000000000E+00  0.19153670906E+03  0.19153670908E+03  0.25500000920E-02 0.  1.
        2   -1    0    0  501    0  0.00000000000E+00  0.00000000000E+00 -0.32653671073E+03  0.32653671074E+03  0.25500000920E-02 0. -1.
    10030    2    1    2    0    0  0.00000000000E+00  0.00000000000E+00 -0.13500000166E+03  0.51807341981E+03  0.50017503723E+03 0.  0.
        2    1    3    3  502    0  0.16000678865E+03  0.18882747386E+03 -0.30359087954E+02  0.24935850001E+03  0.25500000920E-02 0.  1.
       -2    1    3    3    0  502 -0.16000678865E+03 -0.18882747386E+03 -0.10464091371E+03  0.26871491981E+03  0.25500000920E-02 0. -1.
</event>
<event>
 5   0  0.5095783E-03  0.4997015E+03  0.7818609E-02  0.1013857E+00
       -2   -1    0    0    0  501  0.00000000000E+00  0.00000000000E+00  0.89051331813E+02  0.89051331850E+02  0.25500000920E-02 0. -1.
        2   -1    0    0  501    0  0.00000000000E+00  0.00000000000E+00 -0.70100473260E+03  0.70100473261E+03  0.25500000920E-02 0.  1.
    10030    2    1    2    0    0  0.00000000000E+00  0.00000000000E+00 -0.61195340079E+03  0.79005606446E+03  0.49970153117E+03 0.  0.
        4    1    3    3  502    0  0.87113444382E+02  0.20613240068E+03 -0.13031239843E+03  0.25896380613E+03  0.12699999809E+01 0. -1.
       -4    1    3    3    0  502 -0.87113444382E+02 -0.20613240068E+03 -0.48164100236E+03  0.53109225833E+03  0.12699999809E+01 0.  1.
</event>
<event>
 5   0  0.2863538E-03  0.4998307E+03  0.7818609E-02  0.1013823E+00
       -1   -1    0    0    0  501  0.00000000000E+00  0.00000000000E+00  0.77515143492E+02  0.77515143656E+02  0.50400001928E-02 0. -1.
        1   -1    0    0  501    0  0.00000000000E+00  0.00000000000E+00 -0.80574812540E+03  0.80574812541E+03  0.50400001928E-02 0.  1.
    10030    2    1    2    0    0  0.00000000000E+00  0.00000000000E+00 -0.72823298190E+03  0.88326326907E+03  0.49983069789E+03 0.  0.
        1    1    3    3  502    0  0.20299948721E+03 -0.43659342069E+02 -0.60988507813E+03  0.64426294206E+03  0.50400001928E-02 0. -1.
       -1    1    3    3    0  502 -0.20299948721E+03  0.43659342069E+02 -0.11834790378E+03  0.23900032701E+03  0.50400001928E-02 0.  1.
</event>
<event>
 5   0  0.2863538E-03  0.4994853E+03  0.7818609E-02  0.1013913E+00
       -1   -1    0    0    0  501  0.00000000000E+00  0.00000000000E+00  0.18517231468E+03  0.18517231475E+03  0.50400001928E-02 0.  1.
        1   -1    0    0  501    0  0.00000000000E+00  0.00000000000E+00 -0.33682893170E+03  0.33682893174E+03  0.50400001928E-02 0. -1.
    10030    2    1    2    0    0  0.00000000000E+00  0.00000000000E+00 -0.15165661701E+03  0.52200124649E+03  0.49948530694E+03 0.  0.
        1    1    3    3  502    0  0.85711608782E+02 -0.11095122766E+03  0.14016370689E+03  0.19824863064E+03  0.50400001928E-02 0.  1.
       -1    1    3    3    0  502 -0.85711608782E+02  0.11095122766E+03 -0.29182032390E+03  0.32375261584E+03  0.50400001928E-02 0. -1.
</event>
<event>
 5   0  0.5118882E-03  0.4999358E+03  0.7818609E-02  0.1013796E+00
       -2   -1    0    0    0  501  0.00000000000E+00  0.00000000000E+00  0.19245616323E+03  0.19245616325E+03  0.25500000920E-02 0.  1.
        2   -1    0    0  501    0  0.00000000000E+00  0.00000000000E+00 -0.32466588533E+03  0.32466588534E+03  0.25500000920E-02 0. -1.
    10030    2    1    2    0    0  0.00000000000E+00  0.00000000000E+00 -0.13220972210E+03  0.51712204859E+03  0.49993579840E+03 0.  0.
        3    1    3    3  502    0 -0.19582416690E+03  0.46078665508E+02 -0.21957513997E+03  0.29779791814E+03  0.10100000352E+00 0. -1.
       -3    1    3    3    0  502  0.19582416690E+03 -0.46078665508E+02  0.87365417862E+02  0.21932413045E+03  0.10100000352E+00 0.  1.
</event>
<event>
 5   0  0.3211775E-03  0.5000271E+03  0.7818609E-02  0.1013772E+00
       -1   -1    0    0    0  501  0.00000000000E+00  0.00000000000E+00  0.41934672983E+02  0.41934673286E+02  0.50400001928E-02 0. -1.
        1   -1    0    0  501    0  0.00000000000E+00  0.00000000000E+00 -0.14905748654E+04  0.14905748654E+04  0.50400001928E-02 0.  1.
    10030    2    1    2    0    0  0.00000000000E+00  0.00000000000E+00 -0.14486401924E+04  0.15325095387E+04  0.50002707837E+03 0.  0.
        4    1    3    3  502    0 -0.13819290662E+03  0.55779488392E+01 -0.13626397802E+04  0.13696412583E+04  0.12699999809E+01 0.  1.
       -4    1    3    3    0  502  0.13819290662E+03 -0.55779488392E+01 -0.86000412196E+02  0.16286828037E+03  0.12699999809E+01 0. -1.
</event>
<event>
 5   0  0.2863538E-03  0.5004831E+03  0.7818609E-02  0.1013653E+00
        1   -1    0    0  501    0  0.00000000000E+00  0.00000000000E+00  0.88321632210E+03  0.88321632212E+03  0.50400001928E-02 0. -1.
       -1   -1    0    0    0  501  0.00000000000E+00  0.00000000000E+00 -0.70900889514E+02  0.70900889693E+02  0.50400001928E-02 0.  1.
    10030    2    1    2    0    0  0.00000000000E+00  0.00000000000E+00  0.81231543259E+03  0.95411721181E+03  0.50048305851E+03 0.  0.
        1    1    3    3  502    0 -0.37602835944E+02  0.18035431399E+03  0.72900389232E+03  0.75192308575E+03  0.50400001928E-02 0. -1.
       -1    1    3    3    0  502  0.37602835944E+02 -0.18035431399E+03  0.83311540272E+02  0.20219412606E+03  0.50400001928E-02 0.  1.
</event>
<event>
 5   0  0.2005125E-03  0.4999801E+03  0.7818609E-02  0.1013784E+00
       -3   -1    0    0    0  501  0.00000000000E+00  0.00000000000E+00  0.73603398363E+03  0.73603399056E+03  0.10100000352E+00 0. -1.
        3   -1    0    0  501    0  0.00000000000E+00  0.00000000000E+00 -0.84907776525E+02  0.84907836596E+02  0.10100000352E+00 0.  1.
    10030    2    1    2    0    0  0.00000000000E+00  0.00000000000E+00  0.65112620710E+03  0.82094182715E+03  0.49998014560E+03 0.  0.
        4    1    3    3  502    0 -0.12471196737E+03 -0.16011447401E+03  0.85907722591E+02  0.22038935840E+03  0.12699999809E+01 0. -1.
       -4    1    3    3    0  502  0.12471196737E+03  0.16011447401E+03  0.56521848451E+03  0.60055246876E+03  0.12699999809E+01 0.  1.
</event>
<event>
 5   0  0.2863538E-03  0.4996443E+03  0.7818609E-02  0.1013872E+00
       -1   -1    0    0    0  501  0.00000000000E+00  0.00000000000E+00  0.17435449861E+03  0.17435449869E+03  0.50400001928E-02 0.  1.
        1   -1    0    0  501    0  0.00000000000E+00  0.00000000000E+00 -0.35795521422E+03  0.35795521425E+03  0.50400001928E-02 0. -1.
    10030    2    1    2    0    0  0.00000000000E+00  0.00000000000E+00 -0.18360071560E+03  0.53230971294E+03  0.49964428118E+03 0.  0.
        1    1    3    3  502    0  0.11181675738E+03 -0.46388399358E+02 -0.32461939679E+03  0.34645724646E+03  0.50400001928E-02 0. -1.
       -1    1    3    3    0  502 -0.11181675738E+03  0.46388399358E+02  0.14101868119E+03  0.18585246648E+03  0.50400001928E-02 0.  1.
</event>
<event>
 5   0  0.3055293E-03  0.4999823E+03  0.7818609E-02  0.1013784E+00
        1   -1    0    0  501    0  0.00000000000E+00  0.00000000000E+00  0.24158681460E+03  0.24158681466E+03  0.50400001928E-02 0. -1.
       -1   -1    0    0    0  501  0.00000000000E+00  0.00000000000E+00 -0.25868786147E+03  0.25868786152E+03  0.50400001928E-02 0.  1.
    10030    2    1    2    0    0  0.00000000000E+00  0.00000000000E+00 -0.17101046871E+02  0.50027467618E+03  0.49998230551E+03 0.  0.
        3    1    3    3  502    0 -0.96609536377E+02  0.10384303306E+03  0.19743094593E+03  0.24309620863E+03  0.10100000352E+00 0. -1.
       -3    1    3    3    0  502  0.96609536377E+02 -0.10384303306E+03 -0.21453199281E+03  0.25717846755E+03  0.10100000352E+00 0.  1.
</event>
<event>
 5   0  0.2005125E-03  0.4999821E+03  0.7818609E-02  0.1013784E+00
       -4   -1    0    0    0  501  0.00000000000E+00  0.00000000000E+00  0.68015285508E+03  0.68015404076E+03  0.12699999809E+01 0. -1.
        4   -1    0    0  501    0  0.00000000000E+00  0.00000000000E+00 -0.91878893092E+02  0.91887669987E+02  0.12699999809E+01 0.  1.
    10030    2    1    2    0    0  0.00000000000E+00  0.00000000000E+00  0.58827396198E+03  0.77204171075E+03  0.49998214847E+03 0.  0.
        2    1    3    3  502    0  0.15613467773E+03  0.19232274327E+03  0.24224239135E+03  0.34647864486E+03  0.25500000920E-02 0.  1.
       -2    1    3    3    0  502 -0.15613467773E+03 -0.19232274327E+03  0.34603157063E+03  0.42556306589E+03  0.25500000920E-02 0. -1.
</event>
<event>
 5   0  0.3211775E-03  0.5005274E+03  0.7818609E-02  0.1013641E+00
        1   -1    0    0  501    0  0.00000000000E+00  0.00000000000E+00  0.47871310722E+03  0.47871310724E+03  0.50400001928E-02 0.  1.
       -1   -1    0    0    0  501  0.00000000000E+00  0.00000000000E+00 -0.13083395527E+03  0.13083395537E+03  0.50400001928E-02 0. -1.
    10030    2    1    2    0    0  0.00000000000E+00  0.00000000000E+00  0.34787915195E+03  0.60954706261E+03  0.50052743899E+03 0.  0.
        4    1    3    3  502    0 -0.82461595569E+01  0.94385992691E+02 -0.10814464423E+03  0.14378314136E+03  0.12699999809E+01 0. -1.
       -4    1    3    3    0  502  0.82461595569E+01 -0.94385992691E+02  0.45602379618E+03  0.46576392125E+03  0.12699999809E+01 0.  1.
</event>
<event>
 5   0  0.2863538E-03  0.4997170E+03  0.7818609E-02  0.1013853E+00
       -1   -1    0    0    0  501  0.00000000000E+00  0.00000000000E+00  0.48309247811E+02  0.48309248074E+02  0.50400001928E-02 0. -1.
        1   -1    0    0  501    0  0.00000000000E+00  0.00000000000E+00 -0.12922838535E+04  0.12922838535E+04  0.50400001928E-02 0.  1.
    10030    2    1    2    0    0  0.00000000000E+00  0.00000000000E+00 -0.12439746057E+04  0.13405931016E+04  0.49971696431E+03 0.  0.
        1    1    3    3  502    0  0.24148570171E+02  0.21339169496E+03 -0.27937646674E+03  0.35237817628E+03  0.50400001928E-02 0. -1.
       -1    1    3    3    0  502 -0.24148570171E+02 -0.21339169496E+03 -0.96459813897E+03  0.98821492534E+03  0.50400001928E-02 0.  1.
</event>
<event>
 5   0  0.2863538E-03  0.4999142E+03  0.7818609E-02  0.1013801E+00
        1   -1    0    0  501    0  0.00000000000E+00  0.00000000000E+00  0.51581962666E+03  0.51581962669E+03  0.50400001928E-02 0. -1.
       -1   -1    0    0    0  501  0.00000000000E+00  0.00000000000E+00 -0.12112478524E+03  0.12112478535E+03  0.50400001928E-02 0.  1.
    10030    2    1    2    0    0  0.00000000000E+00  0.00000000000E+00  0.39469484142E+03  0.63694441204E+03  0.49991415881E+03 0.  0.
        1    1    3    3  502    0 -0.16160479908E+03 -0.10923366981E+03  0.39649347305E+03  0.44187688320E+03  0.50400001928E-02 0. -1.
       -1    1    3    3    0  502  0.16160479908E+03  0.10923366981E+03 -0.17986316340E+01  0.19506752884E+03  0.50400001928E-02 0.  1.
</event>
<event>
 5   0  0.4889251E-03  0.4979798E+03  0.7818609E-02  0.1014308E+00
       -2   -1    0    0    0  501  0.00000000000E+00  0.00000000000E+00  0.13189443017E+03  0.13189443020E+03  0.25500000920E-02 0. -1.
        2   -1    0    0  501    0  0.00000000000E+00  0.00000000000E+00 -0.47004234953E+03  0.47004234953E+03  0.25500000920E-02 0.  1.
    10030    2    1    2    0    0  0.00000000000E+00  0.00000000000E+00 -0.33814791935E+03  0.60193677973E+03  0.49797979019E+03 0.  0.
        5    1    3    3  502    0  0.20489374527E+02  0.24732652836E+03 -0.14539799082E+03  0.28766802365E+03  0.46999998093E+01 0. -1.
       -5    1    3    3    0  502 -0.20489374527E+02 -0.24732652836E+03 -0.19274992853E+03  0.31426875608E+03  0.46999998093E+01 0.  1.
</event>
<event>
 5   0  0.2005125E-03  0.5000237E+03  0.7818609E-02  0.1013773E+00
        3   -1    0    0  501    0  0.00000000000E+00  0.00000000000E+00  0.63149825696E+02  0.63149906464E+02  0.10100000352E+00 0. -1.
       -3   -1    0    0    0  501  0.00000000000E+00  0.00000000000E+00 -0.98980298191E+03  0.98980298706E+03  0.10100000352E+00 0.  1.
    10030    2    1    2    0    0  0.00000000000E+00  0.00000000000E+00 -0.92665315622E+03  0.10529528935E+04  0.50002372350E+03 0.  0.
        3    1    3    3  502    0 -0.22894668761E+03 -0.26068627128E+02 -0.66759801590E+03  0.70624590627E+03  0.10100000352E+00 0.  1.
       -3    1    3    3    0  502  0.22894668761E+03  0.26068627128E+02 -0.25905514032E+03  0.34670698726E+03  0.10100000352E+00 0. -1.
</event>
<event>
 5   0  0.5095783E-03  0.5000374E+03  0.7818609E-02  0.1013769E+00
        2   -1    0    0  501    0  0.00000000000E+00  0.00000000000E+00  0.24486431391E+04  0.24486431391E+04  0.25500000920E-02 0. -1.
       -2   -1    0    0    0  501  0.00000000000E+00  0.00000000000E+00 -0.25528158008E+02  0.25528158135E+02  0.25500000920E-02 0.  1.
    10030    2    1    2    0    0  0.00000000000E+00  0.00000000000E+00  0.24231149811E+04  0.24741712972E+04  0.50003739507E+03 0.  0.
        4    1    3    3  502    0 -0.21576439595E+03 -0.69718993696E+02  0.69042712976E+03  0.72670919015E+03  0.12699999809E+01 0.  1.
       -4    1    3    3    0  502  0.21576439595E+03  0.69718993696E+02  0.17326878513E+04  0.17474621070E+04  0.12699999809E+01 0. -1.
</event>
<event>
 5   0  0.3057783E-03  0.4996014E+03  0.7818609E-02  0.1013883E+00
       -1   -1    0    0    0  501  0.00000000000E+00  0.00000000000E+00  0.39661741787E+03  0.39661741790E+03  0.50400001928E-02 0.  1.
        1   -1    0    0  501    0  0.00000000000E+00  0.00000000000E+00 -0.15733142301E+03  0.15733142309E+03  0.50400001928E-02 0. -1.
    10030    2    1    2    0    0  0.00000000000E+00  0.00000000000E+00  0.23928599486E+03  0.55394884099E+03  0.49960137220E+03 0.  0.
        5    1    3    3  502    0 -0.23996324783E+03  0.35975917143E+01  0.42960585771E+02  0.24385037401E+03  0.46999998093E+01 0.  1.
       -5    1    3    3    0  502  0.23996324783E+03 -0.35975917143E+01  0.19632540909E+03  0.31009846699E+03  0.46999998093E+01 0. -1.
</event>
<event>
 5   0  0.5095783E-03  0.5000687E+03  0.7818609E-02  0.1013761E+00
       -2   -1    0    0    0  501  0.00000000000E+00  0.00000000000E+00  0.40298628400E+03  0.40298628401E+03  0.25500000920E-02 0. -1.
        2   -1    0    0  501    0  0.00000000000E+00  0.00000000000E+00 -0.15513472897E+03  0.15513472899E+03  0.25500000920E-02 0.  1.
    10030    2    1    2    0    0  0.00000000000E+00  0.00000000000E+00  0.24785155504E+03  0.55812101300E+03  0.50006866710E+03 0.  0.
        4    1    3    3  502    0 -0.18991607243E+03 -0.15535149392E+03  0.70244880849E+02  0.25522178084E+03  0.12699999809E+01 0. -1.
       -4    1    3    3    0  502  0.18991607243E+03  0.15535149392E+03  0.17760667419E+03  0.30289923216E+03  0.12699999809E+01 0.  1.
</event>
<event>
 5   0  0.3055293E-03  0.4999540E+03  0.7818609E-02  0.1013791E+00
       -1   -1    0    0    0  501  0.00000000000E+00  0.00000000000E+00  0.16456451275E+03  0.16456451282E+03  0.50400001928E-02 0. -1.
        1   -1    0    0  501    0  0.00000000000E+00  0.00000000000E+00 -0.37972038262E+03  0.37972038266E+03  0.50400001928E-02 0.  1.
    10030    2    1    2    0    0  0.00000000000E+00  0.00000000000E+00 -0.21515586988E+03  0.54428489548E+03  0.49995399699E+03 0.  0.
        3    1    3    3  502    0  0.17930926066E+03  0.29022384852E+02  0.79389457731E+02  0.19823422001E+03  0.10100000352E+00 0. -1.
       -3    1    3    3    0  502 -0.17930926066E+03 -0.29022384852E+02 -0.29454532761E+03  0.34605067548E+03  0.10100000352E+00 0.  1.
</event>
<event>
 5   0  0.4989875E-03  0.4999623E+03  0.7818609E-02  0.1013789E+00
        2   -1    0    0  501    0  0.00000000000E+00  0.00000000000E+00  0.11104898933E+04  0.11104898933E+04  0.25500000920E-02 0. -1.
       -2   -1    0    0    0  501  0.00000000000E+00  0.00000000000E+00 -0.56272971510E+02  0.56272971568E+02  0.25500000920E-02 0.  1.
    10030    2    1    2    0    0  0.00000000000E+00  0.00000000000E+00  0.10542169218E+04  0.11667628649E+04  0.49996226323E+03 0.  0.
        2    1    3    3  502    0  0.67337365942E+02  0.23930271139E+03  0.46578680290E+03  0.52797486142E+03  0.25500000920E-02 0.  1.
       -2    1    3    3    0  502 -0.67337365942E+02 -0.23930271139E+03  0.58843011888E+03  0.63878800344E+03  0.25500000920E-02 0. -1.
</event>
<event>
 5   0  0.4978779E-03  0.5000660E+03  0.7818609E-02  0.1013762E+00
       -2   -1    0    0    0  501  0.00000000000E+00  0.00000000000E+00  0.25450176450E+03  0.25450176452E+03  0.25500000920E-02 0. -1.
        2   -1    0    0  501    0  0.00000000000E+00  0.00000000000E+00 -0.24564267612E+03  0.24564267613E+03  0.25500000920E-02 0.  1.
    10030    2    1    2    0    0  0.00000000000E+00  0.00000000000E+00  0.88590883857E+01  0.50014444065E+03  0.50006597371E+03 0.  0.
        1    1    3    3  502    0 -0.97598107584E+02  0.21942481638E+03  0.74038265569E+02  0.25130520377E+03  0.50400001928E-02 0.  1.
       -1    1    3    3    0  502  0.97598107584E+02 -0.21942481638E+03 -0.65179177184E+02  0.24883923688E+03  0.50400001928E-02 0. -1.
</event>
<event>
 5   0  0.2005125E-03  0.4999225E+03  0.7818609E-02  0.1013799E+00
       -3   -1    0    0    0  501  0.00000000000E+00  0.00000000000E+00  0.76548464649E+03  0.76548465315E+03  0.10100000352E+00 0. -1.
        3   -1    0    0  501    0  0.00000000000E+00  0.00000000000E+00 -0.81622278729E+02  0.81622341218E+02  0.10100000352E+00 0.  1.
    10030    2    1    2    0    0  0.00000000000E+00  0.00000000000E+00  0.68386236776E+03  0.84710699437E+03  0.49992251587E+03 0.  0.
        3    1    3    3  502    0  0.86543568407E+02 -0.57220607720E+02 -0.43414671249E+02  0.11246702210E+03  0.10100000352E+00 0.  1.
       -3    1    3    3    0  502 -0.86543568407E+02  0.57220607720E+02  0.72727703901E+03  0.73463997226E+03  0.10100000352E+00 0. -1.
</event>
<event>
 5   0  0.3211775E-03  0.5000355E+03  0.7818609E-02  0.1013770E+00
        1   -1    0    0  501    0  0.00000000000E+00  0.00000000000E+00  0.13215995263E+03  0.13215995273E+03  0.50400001928E-02 0. -1.
       -1   -1    0    0    0  501  0.00000000000E+00  0.00000000000E+00 -0.47297887276E+03  0.47297887279E+03  0.50400001928E-02 0.  1.
    10030    2    1    2    0    0  0.00000000000E+00  0.00000000000E+00 -0.34081892013E+03  0.60513882551E+03  0.50003546057E+03 0.  0.
        4    1    3    3  502    0 -0.23407173503E+03  0.81423137166E+02 -0.21032649858E+03  0.32505100109E+03  0.12699999809E+01 0. -1.
       -4    1    3    3    0  502  0.23407173503E+03 -0.81423137166E+02 -0.13049242155E+03  0.28008782442E+03  0.12699999809E+01 0.  1.
</event>
<event>
 5   0  0.4978779E-03  0.5000316E+03  0.7818609E-02  0.1013771E+00
       -2   -1    0    0    0  501  0.00000000000E+00  0.00000000000E+00  0.72011492960E+02  0.72011493005E+02  0.25500000920E-02 0. -1.
        2   -1    0    0  501    0  0.00000000000E+00  0.00000000000E+00 -0.86802664804E+03  0.86802664804E+03  0.25500000920E-02 0.  1.
    10030    2    1    2    0    0  0.00000000000E+00  0.00000000000E+00 -0.79601515508E+03  0.94003814105E+03  0.50003157851E+03 0.  0.
        1    1    3    3  502    0 -0.72888245924E+02 -0.85208864499E+02  0.22088898605E+02  0.11428546036E+03  0.50400001928E-02 0. -1.
       -1    1    3    3    0  502  0.72888245924E+02  0.85208864499E+02 -0.81810405368E+03  0.82575268069E+03  0.50400001928E-02 0.  1.
</event>
<event>
 5   0  0.2005125E-03  0.5007603E+03  0.7818609E-02  0.1013581E+00
        4   -1    0    0  501    0  0.00000000000E+00  0.00000000000E+00  0.36065613896E+03  0.36065837501E+03  0.12699999809E+01 0.  1.
       -4   -1    0    0    0  501  0.00000000000E+00  0.00000000000E+00 -0.17381759912E+03  0.17382223869E+03  0.12699999809E+01 0. -1.
    10030    2    1    2    0    0  0.00000000000E+00  0.00000000000E+00  0.18683853984E+03  0.53448061371E+03  0.50076030839E+03 0.  0.
        1    1    3    3  502    0  0.21556902524E+03 -0.10361650475E+03  0.17245879528E+03  0.29487017617E+03  0.50400001928E-02 0.  1.
       -1    1    3    3    0  502 -0.21556902524E+03  0.10361650475E+03  0.14379744558E+02  0.23961043754E+03  0.50400001928E-02 0. -1.
</event>
<event>
 5   0  0.5095783E-03  0.4999713E+03  0.7818609E-02  0.1013786E+00
       -2   -1    0    0    0  501  0.00000000000E+00  0.00000000000E+00  0.74202870370E+02  0.74202870414E+02  0.25500000920E-02 0.  1.
        2   -1    0    0  501    0  0.00000000000E+00  0.00000000000E+00 -0.84218874213E+03  0.84218874213E+03  0.25500000920E-02 0. -1.
    10030    2    1    2    0    0  0.00000000000E+00  0.00000000000E+00 -0.76798587176E+03  0.91639161254E+03  0.49997128750E+03 0.  0.
        4    1    3    3  502    0  0.51711513339E-01  0.24237822355E+03 -0.49614419406E+03  0.55218464314E+03  0.12699999809E+01 0.  1.
       -4    1    3    3    0  502 -0.51711513339E-01 -0.24237822355E+03 -0.27184167770E+03  0.36420696940E+03  0.12699999809E+01 0. -1.
</event>
<event>
 5   0  0.5118882E-03  0.4995647E+03  0.7818609E-02  0.1013893E+00
       -2   -1    0    0    0  501  0.00000000000E+00  0.00000000000E+00  0.40446514294E+02  0.40446514375E+02  0.25500000920E-02 0. -1.
        2   -1    0    0  501    0  0.00000000000E+00  0.00000000000E+00 -0.15425611550E+04  0.15425611551E+04  0.25500000920E-02 0.  1.
    10030    2    1    2    0    0  0.00000000000E+00  0.00000000000E+00 -0.15021146408E+04  0.15830076694E+04  0.49956469800E+03 0.  0.
        3    1    3    3  502    0 -0.28578935938E+02  0.16016643405E+03 -0.15048334136E+03  0.22161969318E+03  0.10100000352E+00 0. -1.
       -3    1    3    3    0  502  0.28578935938E+02 -0.16016643405E+03 -0.13516312994E+04  0.13613879763E+04  0.10100000352E+00 0.  1.
</event>
<event>
 5   0  0.3013734E-03  0.5001608E+03  0.7818609E-02  0.1013737E+00
       -1   -1    0    0    0  501  0.00000000000E+00  0.00000000000E+00  0.58675207882E+02  0.58675208099E+02  0.50400001928E-02 0. -1.
        1   -1    0    0  501    0  0.00000000000E+00  0.00000000000E+00 -0.10658708634E+04  0.10658708634E+04  0.50400001928E-02 0.  1.
    10030    2    1    2    0    0  0.00000000000E+00  0.00000000000E+00 -0.10071956555E+04  0.11245460715E+04  0.50016075262E+03 0.  0.
        2    1    3    3  502    0 -0.24912718440E+03  0.21778981147E+02 -0.50636668307E+03  0.56475295109E+03  0.25500000920E-02 0.  1.
       -2    1    3    3    0  502  0.24912718440E+03 -0.21778981147E+02 -0.50082897247E+03  0.55979312044E+03  0.25500000920E-02 0. -1.
</event>
<event>
 5   0  0.3211775E-03  0.4993122E+03  0.7818609E-02  0.1013959E+00
        1   -1    0    0  501    0  0.00000000000E+00  0.00000000000E+00  0.65237904485E+02  0.65237904680E+02  0.50400001928E-02 0. -1.
       -1   -1    0    0    0  501  0.00000000000E+00  0.00000000000E+00 -0.95539797435E+03  0.95539797436E+03  0.50400001928E-02 0.  1.
    10030    2    1    2    0    0  0.00000000000E+00  0.00000000000E+00 -0.89016006986E+03  0.10206358790E+04  0.49931217451E+03 0.  0.
        4    1    3    3  502    0  0.19906478495E+02 -0.24796902002E+03 -0.40212283771E+03  0.47285229437E+03  0.12699999809E+01 0.  1.
       -4    1    3    3    0  502 -0.19906478495E+02  0.24796902002E+03 -0.48803723215E+03  0.54778358468E+03  0.12699999809E+01 0. -1.
</event>
<event>
 5   0  0.3055293E-03  0.4985315E+03  0.7818609E-02  0.1014163E+00
        1   -1    0    0  501    0  0.00000000000E+00  0.00000000000E+00  0.53203530409E+03  0.53203530411E+03  0.50400001928E-02 0.  1.
       -1   -1    0    0    0  501  0.00000000000E+00  0.00000000000E+00 -0.11678438705E+03  0.11678438716E+03  0.50400001928E-02 0. -1.
    10030    2    1    2    0    0  0.00000000000E+00  0.00000000000E+00  0.41525091704E+03  0.64881969127E+03  0.49853151123E+03 0.  0.
        3    1    3    3  502    0 -0.27043866126E+02 -0.98938423380E+02  0.50329861877E+03  0.51364354583E+03  0.10100000352E+00 0.  1.
       -3    1    3    3    0  502  0.27043866126E+02  0.98938423380E+02 -0.88047701732E+02  0.13517614545E+03  0.10100000352E+00 0. -1.
</event>
<event>
 5   0  0.3055293E-03  0.5002639E+03  0.7818609E-02  0.1013710E+00
        1   -1    0    0  501    0  0.00000000000E+00  0.00000000000E+00  0.93552683999E+03  0.93552684001E+03  0.50400001928E-02 0. -1.
       -1   -1    0    0    0  501  0.00000000000E+00  0.00000000000E+00 -0.66877804984E+02  0.66877805174E+02  0.50400001928E-02 0.  1.
    10030    2    1    2    0    0  0.00000000000E+00  0.00000000000E+00  0.86864903501E+03  0.10024046452E+04  0.50026385704E+03 0.  0.
        3    1    3    3  502    0 -0.16450943907E+03 -0.18734679515E+03  0.39405985916E+03  0.46631036874E+03  0.10100000352E+00 0.  1.
       -3    1    3    3    0  502  0.16450943907E+03  0.18734679515E+03  0.47458917585E+03  0.53609427644E+03  0.10100000352E+00 0. -1.
</event>
<event>
 5   0  0.5118882E-03  0.5001306E+03  0.7818609E-02  0.1013745E+00
       -2   -1    0    0    0  501  0.00000000000E+00  0.00000000000E+00  0.59047487714E+02  0.59047487769E+02  0.25500000920E-02 0.  1.
        2   -1    0    0  501    0  0.00000000000E+00  0.00000000000E+00 -0.10590229037E+04  0.10590229037E+04  0.25500000920E-02 0. -1.
    10030    2    1    2    0    0  0.00000000000E+00  0.00000000000E+00 -0.99997541594E+03  0.11180703914E+04  0.50013055066E+03 0.  0.
        3    1    3    3  502    0 -0.70801300398E+02  0.23216855249E+03 -0.36552734379E+03  0.43877706203E+03  0.10100000352E+00 0.  1.
       -3    1    3    3    0  502  0.70801300398E+02 -0.23216855249E+03 -0.63444807216E+03  0.67929332940E+03  0.10100000352E+00 0. -1.
</event>
<event>
 5   0  0.4889251E-03  0.5009156E+03  0.7818609E-02  0.1013540E+00
       -2   -1    0    0    0  501  0.00000000000E+00  0.00000000000E+00  0.63475452084E+02  0.63475452135E+02  0.25500000920E-02 0. -1.
        2   -1    0    0  501    0  0.00000000000E+00  0.00000000000E+00 -0.98824205490E+03  0.98824205491E+03  0.25500000920E-02 0.  1.
    10030    2    1    2    0    0  0.00000000000E+00  0.00000000000E+00 -0.92476660282E+03  0.10517175070E+04  0.50091560659E+03 0.  0.
        5    1    3    3  502    0 -0.14773991325E+03  0.19875166797E+02 -0.39927608288E+02  0.15439691747E+03  0.46999998093E+01 0. -1.
       -5    1    3    3    0  502  0.14773991325E+03 -0.19875166797E+02 -0.88483899453E+03  0.89732058957E+03  0.46999998093E+01 0.  1.
</event>
<event>
 5   0  0.4989875E-03  0.5004429E+03  0.7818609E-02  0.1013663E+00
       -2   -1    0    0    0  501  0.00000000000E+00  0.00000000000E+00  0.41411711451E+02  0.41411711529E+02  0.25500000920E-02 0. -1.
        2   -1    0    0  501    0  0.00000000000E+00  0.00000000000E+00 -0.15119097052E+04  0.15119097052E+04  0.25500000920E-02 0.  1.
    10030    2    1    2    0    0  0.00000000000E+00  0.00000000000E+00 -0.14704979938E+04  0.15533214168E+04  0.50044287792E+03 0.  0.
        2    1    3    3  502    0  0.29005697337E+02  0.19124507474E+02 -0.15043866220E+04  0.15047877543E+04  0.25500000920E-02 0.  1.
       -2    1    3    3    0  502 -0.29005697337E+02 -0.19124507474E+02  0.33888628167E+02  0.48533662438E+02  0.25500000920E-02 0. -1.
</event>
<event>
 5   0  0.2863538E-03  0.4998728E+03  0.7818609E-02  0.1013812E+00
       -1   -1    0    0    0  501  0.00000000000E+00  0.00000000000E+00  0.79663529471E+02  0.79663529631E+02  0.50400001928E-02 0. -1.
        1   -1    0    0  501    0  0.00000000000E+00  0.00000000000E+00 -0.78415065394E+03  0.78415065395E+03  0.50400001928E-02 0.  1.
    10030    2    1    2    0    0  0.00000000000E+00  0.00000000000E+00 -0.70448712446E+03  0.86381418358E+03  0.49987281905E+03 0.  0.
        1    1    3    3  502    0  0.15107277622E+03  0.60446473498E+02 -0.24404669947E+02  0.16453676736E+03  0.50400001928E-02 0. -1.
       -1    1    3    3    0  502 -0.15107277622E+03 -0.60446473498E+02 -0.68008245452E+03  0.69927741622E+03  0.50400001928E-02 0.  1.
</event>
<event>
 5   0  0.4989875E-03  0.5000632E+03  0.7818609E-02  0.1013762E+00
       -2   -1    0    0    0  501  0.00000000000E+00  0.00000000000E+00  0.36700294849E+02  0.36700294937E+02  0.25500000920E-02 0. -1.
        2   -1    0    0  501    0  0.00000000000E+00  0.00000000000E+00 -0.17034140061E+04  0.17034140061E+04  0.25500000920E-02 0.  1.
    10030    2    1    2    0    0  0.00000000000E+00  0.00000000000E+00 -0.16667137113E+04  0.17401143010E+04  0.50006318142E+03 0.  0.
        2    1    3    3  502    0  0.21263151891E+03 -0.29455307758E+02 -0.38723735690E+03  0.44275563077E+03  0.25500000920E-02 0. -1.
       -2    1    3    3    0  502 -0.21263151891E+03  0.29455307758E+02 -0.12794763543E+04  0.12973586703E+04  0.25500000920E-02 0.  1.
</event>
<event>
 5   0  0.2863538E-03  0.4996129E+03  0.7818609E-02  0.1013880E+00
        1   -1    0    0  501    0  0.00000000000E+00  0.00000000000E+00  0.97918945170E+03  0.97918945171E+03  0.50400001928E-02 0. -1.
       -1   -1    0    0    0  501  0.00000000000E+00  0.00000000000E+00 -0.63729500885E+02  0.63729501084E+02  0.50400001928E-02 0.  1.
    10030    2    1    2    0    0  0.00000000000E+00  0.00000000000E+00  0.91545995081E+03  0.10429189528E+04  0.49961287069E+03 0.  0.
        1    1    3    3  502    0  0.92838972481E+02 -0.22869656438E+03  0.53809185584E+03  0.59200003270E+03  0.50400001928E-02 0.  1.
       -1    1    3    3    0  502 -0.92838972481E+02  0.22869656438E+03  0.37736809497E+03  0.45091892009E+03  0.50400001928E-02 0. -1.
</event>
<event>
 5   0  0.3057783E-03  0.4998723E+03  0.7818609E-02  0.1013812E+00
        1   -1    0    0  501    0  0.00000000000E+00  0.00000000000E+00  0.21220657325E+03  0.21220657331E+03  0.50400001928E-02 0.  1.
       -1   -1    0    0    0  501  0.00000000000E+00  0.00000000000E+00 -0.29437385808E+03  0.29437385812E+03  0.50400001928E-02 0. -1.
    10030    2    1    2    0    0  0.00000000000E+00  0.00000000000E+00 -0.82167284828E+02  0.50658043143E+03  0.49987225449E+03 0.  0.
        5    1    3    3  502    0  0.30126525846E+02  0.18828087948E+03  0.12260382727E+03  0.22674012789E+03  0.46999998093E+01 0.  1.
       -5    1    3    3    0  502 -0.30126525846E+02 -0.18828087948E+03 -0.20477111210E+03  0.27984030354E+03  0.46999998093E+01 0. -1.
</event>
<event>
 5   0  0.5095783E-03  0.5000586E+03  0.7818609E-02  0.1013764E+00
        2   -1    0    0  501    0  0.00000000000E+00  0.00000000000E+00  0.70354764936E+03  0.70354764936E+03  0.25500000920E-02 0. -1.
       -2   -1    0    0    0  501  0.00000000000E+00  0.00000000000E+00 -0.88856297467E+02  0.88856297503E+02  0.25500000920E-02 0.  1.
    10030    2    1    2    0    0  0.00000000000E+00  0.00000000000E+00  0.61469135189E+03  0.79240394687E+03  0.50005855349E+03 0.  0.
        4    1    3    3  502    0  0.90088959725E+02  0.18760467599E+03  0.87765439336E+02  0.22586704133E+03  0.12699999809E+01 0.  1.
       -4    1    3    3    0  502 -0.90088959725E+02 -0.18760467599E+03  0.52692591256E+03  0.56653690554E+03  0.12699999809E+01 0. -1.
</event>
<event>
 5   0  0.2863538E-03  0.5001213E+03  0.7818609E-02  0.1013747E+00
       -1   -1    0    0    0  501  0.00000000000E+00  0.00000000000E+00  0.56127269096E+02  0.56127269322E+02  0.50400001928E-02 0. -1.
        1   -1    0    0  501    0  0.00000000000E+00  0.00000000000E+00 -0.11140812188E+04  0.11140812188E+04  0.50400001928E-02 0.  1.
    10030    2    1    2    0    0  0.00000000000E+00  0.00000000000E+00 -0.10579539497E+04  0.11702084881E+04  0.50012133128E+03 0.  0.
        1    1    3    3  502    0 -0.10395054713E+03 -0.22725246838E+03 -0.50792667374E+03  0.56607323426E+03  0.50400001928E-02 0. -1.
       -1    1    3    3    0  502  0.10395054713E+03  0.22725246838E+03 -0.55002727595E+03  0.60413525385E+03  0.50400001928E-02 0.  1.
</event>
<event>
 5   0  0.3057783E-03  0.5001599E+03  0.7818609E-02  0.1013737E+00
       -1   -1    0    0    0  501  0.00000000000E+00  0.00000000000E+00  0.47284308615E+02  0.47284308884E+02  0.50400001928E-02 0.  1.
        1   -1    0    0  501    0  0.00000000000E+00  0.00000000000E+00 -0.13226371036E+04  0.13226371036E+04  0.50400001928E-02 0. -1.
    10030    2    1    2    0    0  0.00000000000E+00  0.00000000000E+00 -0.12753527950E+04  0.13699214125E+04  0.50015989916E+03 0.  0.
        5    1    3    3  502    0 -0.10800647785E+03  0.38522604880E+02 -0.29104694638E+02  0.11840001517E+03  0.46999998093E+01 0.  1.
       -5    1    3    3    0  502  0.10800647785E+03 -0.38522604880E+02 -0.12462481003E+04  0.12515213973E+04  0.46999998093E+01 0. -1.
</event>
<event>
 5   0  0.2863538E-03  0.5001830E+03  0.7818609E-02  0.1013731E+00
        1   -1    0    0  501    0  0.00000000000E+00  0.00000000000E+00  0.69669035398E+03  0.69669035400E+03  0.50400001928E-02 0.  1.
       -1   -1    0    0    0  501  0.00000000000E+00  0.00000000000E+00 -0.89775550502E+02  0.89775550643E+02  0.50400001928E-02 0. -1.
    10030    2    1    2    0    0  0.00000000000E+00  0.00000000000E+00  0.60691480348E+03  0.78646590464E+03  0.50018300699E+03 0.  0.
        1    1    3    3  502    0 -0.12964174435E+03  0.20310834503E+03  0.40876746506E+03  0.47450060297E+03  0.50400001928E-02 0. -1.
       -1    1    3    3    0  502  0.12964174435E+03 -0.20310834503E+03  0.19814733842E+03  0.31196530167E+03  0.50400001928E-02 0.  1.
</event>
<event>
 5   0  0.3013734E-03  0.4999811E+03  0.7818609E-02  0.1013784E+00
        1   -1    0    0  501    0  0.00000000000E+00  0.00000000000E+00  0.72218820942E+03  0.72218820944E+03  0.50400001928E-02 0. -1.
       -1   -1    0    0    0  501  0.00000000000E+00  0.00000000000E+00 -0.86536010217E+02  0.86536010364E+02  0.50400001928E-02 0.  1.
    10030    2    1    2    0    0  0.00000000000E+00  0.00000000000E+00  0.63565219920E+03  0.80872421980E+03  0.49998114499E+03 0.  0.
        2    1    3    3  502    0  0.73644384429E+02  0.46842308821E+01 -0.68517811752E+02  0.10069820212E+03  0.25500000920E-02 0.  1.
       -2    1    3    3    0  502 -0.73644384429E+02 -0.46842308821E+01  0.70417001096E+03  0.70802601768E+03  0.25500000920E-02 0. -1.
</event>
<event>
 5   0  0.3013734E-03  0.5002613E+03  0.7818609E-02  0.1013711E+00
        1   -1    0    0  501    0  0.00000000000E+00  0.00000000000E+00  0.10895838052E+03  0.10895838064E+03  0.50400001928E-02 0. -1.
       -1   -1    0    0    0  501  0.00000000000E+00  0.00000000000E+00 -0.57421330186E+03  0.57421330188E+03  0.50400001928E-02 0.  1.
    10030    2    1    2    0    0  0.00000000000E+00  0.00000000000E+00 -0.46525492134E+03  0.68317168252E+03  0.50026133767E+03 0.  0.
        2    1    3    3  502    0  0.18942166421E+03 -0.30940492579E+02 -0.45167151091E+03  0.49075965067E+03  0.25500000920E-02 0. -1.
       -2    1    3    3    0  502 -0.18942166421E+03  0.30940492579E+02 -0.13583410428E+02  0.19241203185E+03  0.25500000920E-02 0.  1.
</event>
<event>
 5   0  0.2005125E-03  0.4999013E+03  0.7818609E-02  0.1013805E+00
       -3   -1    0    0    0  501  0.00000000000E+00  0.00000000000E+00  0.56016880483E+03  0.56016881393E+03  0.10100000352E+00 0. -1.
        3   -1    0    0  501    0  0.00000000000E+00  0.00000000000E+00 -0.11152945333E+03  0.11152949906E+03  0.10100000352E+00 0.  1.
    10030    2    1    2    0    0  0.00000000000E+00  0.00000000000E+00  0.44863935149E+03  0.67169831299E+03  0.49990134624E+03 0.  0.
        3    1    3    3  502    0  0.17001691892E+03  0.12987263321E+03  0.50666404291E+02  0.21986302168E+03  0.10100000352E+00 0.  1.
       -3    1    3    3    0  502 -0.17001691892E+03 -0.12987263321E+03  0.39797294720E+03  0.45183529132E+03  0.10100000352E+00 0. -1.
</event>
<event>
 5   0  0.2005125E-03  0.5001745E+03  0.7818609E-02  0.1013733E+00
        3   -1    0    0  501    0  0.00000000000E+00  0.00000000000E+00  0.11567386006E+03  0.11567390416E+03  0.10100000352E+00 0.  1.
       -3   -1    0    0    0  501  0.00000000000E+00  0.00000000000E+00 -0.54068937313E+03  0.54068938257E+03  0.10100000352E+00 0. -1.
    10030    2    1    2    0    0  0.00000000000E+00  0.00000000000E+00 -0.42501551307E+03  0.65636328673E+03  0.50017454735E+03 0.  0.
        5    1    3    3  502    0 -0.44936340154E+02 -0.24596273998E+03 -0.21532541686E+03  0.33000616550E+03  0.46999998093E+01 0.  1.
       -5    1    3    3    0  502  0.44936340154E+02  0.24596273998E+03 -0.20969009621E+03  0.32635712122E+03  0.46999998093E+01 0. -1.
</event>
<event>
 5   0  0.3057783E-03  0.4989477E+03  0.7818609E-02  0.1014054E+00
       -1   -1    0    0    0  501  0.00000000000E+00  0.00000000000E+00  0.20785863387E+03  0.20785863393E+03  0.50400001928E-02 0. -1.
        1   -1    0    0  501    0  0.00000000000E+00  0.00000000000E+00 -0.29942075817E+03  0.29942075821E+03  0.50400001928E-02 0.  1.
    10030    2    1    2    0    0  0.00000000000E+00  0.00000000000E+00 -0.91562124295E+02  0.50727939214E+03  0.49894765165E+03 0.  0.
        5    1    3    3  502    0  0.19809796557E+00  0.12231405847E+03  0.17522951022E+03  0.21374807459E+03  0.46999998093E+01 0. -1.
       -5    1    3    3    0  502 -0.19809796557E+00 -0.12231405847E+03 -0.26679163451E+03  0.29353131755E+03  0.46999998093E+01 0.  1.
</event>
<event>
 5   0  0.4978779E-03  0.4999939E+03  0.7818609E-02  0.1013781E+00
       -2   -1    0    0    0  501  0.00000000000E+00  0.00000000000E+00  0.30275293753E+03  0.30275293754E+03  0.25500000920E-02 0. -1.
        2   -1    0    0  501    0  0.00000000000E+00  0.00000000000E+00 -0.20643392838E+03  0.20643392839E+03  0.25500000920E-02 0.  1.
    10030    2    1    2    0    0  0.00000000000E+00  0.00000000000E+00  0.96319009148E+02  0.50918686593E+03  0.49999391288E+03 0.  0.
        1    1    3    3  502    0  0.40191414418E+01 -0.15384915359E+03  0.24879129738E+03  0.29254542423E+03  0.50400001928E-02 0. -1.
       -1    1    3    3    0  502 -0.40191414418E+01  0.15384915359E+03 -0.15247228823E+03  0.21664144170E+03  0.50400001928E-02 0.  1.
</event>
<event>
 5   0  0.3013734E-03  0.4999438E+03  0.7818609E-02  0.1013794E+00
       -1   -1    0    0    0  501  0.00000000000E+00  0.00000000000E+00  0.86608555446E+02  0.86608555593E+02  0.50400001928E-02 0.  1.
        1   -1    0    0  501    0  0.00000000000E+00  0.00000000000E+00 -0.72147559511E+03  0.72147559513E+03  0.50400001928E-02 0. -1.
    10030    2    1    2    0    0  0.00000000000E+00  0.00000000000E+00 -0.63486703967E+03  0.80808415072E+03  0.49994383344E+03 0.  0.
        2    1    3    3  502    0 -0.13865822803E+03 -0.12374368446E+02  0.18155631074E+02  0.14038823363E+03  0.25500000920E-02 0.  1.
       -2    1    3    3    0  502  0.13865822803E+03  0.12374368446E+02 -0.65302267074E+03  0.66769591709E+03  0.25500000920E-02 0. -1.
</event>
<event>
 5   0  0.5118882E-03  0.4992005E+03  0.7818609E-02  0.1013988E+00
       -2   -1    0    0    0  501  0.00000000000E+00  0.00000000000E+00  0.68634396797E+02  0.68634396845E+02  0.25500000920E-02 0. -1.
        2   -1    0    0  501    0  0.00000000000E+00  0.00000000000E+00 -0.90771217099E+03  0.90771217099E+03  0.25500000920E-02 0.  1.
    10030    2    1    2    0    0  0.00000000000E+00  0.00000000000E+00 -0.83907777419E+03  0.97634656783E+03  0.49920047014E+03 0.  0.
        3    1    3    3  502    0 -0.31499476540E+02 -0.21802655238E+03 -0.19001125496E+03  0.29091593593E+03  0.10100000352E+00 0. -1.
       -3    1    3    3    0  502  0.31499476540E+02  0.21802655238E+03 -0.64906651923E+03  0.68543063190E+03  0.10100000352E+00 0.  1.
</event>
<event>
 5   0  0.3211775E-03  0.4999721E+03  0.7818609E-02  0.1013786E+00
       -1   -1    0    0    0  501  0.00000000000E+00  0.00000000000E+00  0.34748799645E+02  0.34748800010E+02  0.50400001928E-02 0.  1.
        1   -1    0    0  501    0  0.00000000000E+00  0.00000000000E+00 -0.17984228080E+04  0.17984228080E+04  0.50400001928E-02 0. -1.
    10030    2    1    2    0    0  0.00000000000E+00  0.00000000000E+00 -0.17636740083E+04  0.18331716080E+04  0.49997213591E+03 0.  0.
        4    1    3    3  502    0 -0.11712528617E+03  0.15600473646E+03 -0.14549878278E+04  0.14680078346E+04  0.12699999809E+01 0. -1.
       -4    1    3    3    0  502  0.11712528617E+03 -0.15600473646E+03 -0.30868618053E+03  0.36516377341E+03  0.12699999809E+01 0.  1.
</event>
<event>
 5   0  0.4978779E-03  0.5000556E+03  0.7818609E-02  0.1013764E+00
        2   -1    0    0  501    0  0.00000000000E+00  0.00000000000E+00  0.19839173660E+04  0.19839173660E+04  0.25500000920E-02 0. -1.
       -2   -1    0    0    0  501  0.00000000000E+00  0.00000000000E+00 -0.31510335739E+02  0.31510335842E+02  0.25500000920E-02 0.  1.
    10030    2    1    2    0    0  0.00000000000E+00  0.00000000000E+00  0.19524070303E+04  0.20154277019E+04  0.50005560646E+03 0.  0.
        1    1    3    3  502    0  0.14316422312E+03 -0.11925514413E+03  0.30424726548E+03  0.35676908885E+03  0.50400001928E-02 0.  1.
       -1    1    3    3    0  502 -0.14316422312E+03  0.11925514413E+03  0.16481597648E+04  0.16586586130E+04  0.50400001928E-02 0. -1.
</event>
<event>
 5   0  0.2863538E-03  0.4999109E+03  0.7818609E-02  0.1013802E+00
       -1   -1    0    0    0  501  0.00000000000E+00  0.00000000000E+00  0.35187937691E+02  0.35187938052E+02  0.50400001928E-02 0. -1.
        1   -1    0    0  501    0  0.00000000000E+00  0.00000000000E+00 -0.17755435937E+04  0.17755435938E+04  0.50400001928E-02 0.  1.
    10030    2    1    2    0    0  0.00000000000E+00  0.00000000000E+00 -0.17403556561E+04  0.18107315318E+04  0.49991086276E+03 0.  0.
        1    1    3    3  502    0 -0.11760796706E+03  0.10874941887E+02 -0.16680932862E+04  0.16722694489E+04  0.50400001928E-02 0.  1.
       -1    1    3    3    0  502  0.11760796706E+03 -0.10874941887E+02 -0.72262369861E+02  0.13846208290E+03  0.50400001928E-02 0. -1.
</event>
<event>
 5   0  0.5095783E-03  0.5000774E+03  0.7818609E-02  0.1013759E+00
       -2   -1    0    0    0  501  0.00000000000E+00  0.00000000000E+00  0.30238931940E+03  0.30238931941E+03  0.25500000920E-02 0. -1.
        2   -1    0    0  501    0  0.00000000000E+00  0.00000000000E+00 -0.20675119482E+03  0.20675119483E+03  0.25500000920E-02 0.  1.
    10030    2    1    2    0    0  0.00000000000E+00  0.00000000000E+00  0.95638124587E+02  0.50914051425E+03  0.50007740638E+03 0.  0.
        4    1    3    3  502    0 -0.21606127737E+03 -0.22126249472E+02 -0.78303761618E+02  0.23087905595E+03  0.12699999809E+01 0.  1.
       -4    1    3    3    0  502  0.21606127737E+03  0.22126249472E+02  0.17394188620E+03  0.27826145829E+03  0.12699999809E+01 0. -1.
</event>
<event>
 5   0  0.2005125E-03  0.4994650E+03  0.7818609E-02  0.1013919E+00
        3   -1    0    0  501    0  0.00000000000E+00  0.00000000000E+00  0.26637364572E+03  0.26637366487E+03  0.10100000352E+00 0.  1.
       -3   -1    0    0    0  501  0.00000000000E+00  0.00000000000E+00 -0.23413091127E+03  0.23413093306E+03  0.10100000352E+00 0. -1.
    10030    2    1    2    0    0  0.00000000000E+00  0.00000000000E+00  0.32242734450E+02  0.50050459793E+03  0.49946497237E+03 0.  0.
        2    1    3    3  502    0  0.28446382357E+02  0.13094542983E+02  0.26439835507E+03  0.26624641575E+03  0.25500000920E-02 0.  1.
       -2    1    3    3    0  502 -0.28446382357E+02 -0.13094542983E+02 -0.23215562062E+03  0.23425818218E+03  0.25500000920E-02 0. -1.
</event>
<event>
 5   0  0.5095783E-03  0.4997164E+03  0.7818609E-02  0.1013853E+00
       -2   -1    0    0    0  501  0.00000000000E+00  0.00000000000E+00  0.12505543522E+03  0.12505543524E+03  0.25500000920E-02 0. -1.
        2   -1    0    0  501    0  0.00000000000E+00  0.00000000000E+00 -0.49921150242E+03  0.49921150243E+03  0.25500000920E-02 0.  1.
    10030    2    1    2    0    0  0.00000000000E+00  0.00000000000E+00 -0.37415606721E+03  0.62426693767E+03  0.49971636640E+03 0.  0.
        4    1    3    3  502    0 -0.23065416411E+03  0.72871872476E+02 -0.26525153067E+03  0.35898696444E+03  0.12699999809E+01 0.  1.
       -4    1    3    3    0  502  0.23065416411E+03 -0.72871872476E+02 -0.10890453654E+03  0.26527997323E+03  0.12699999809E+01 0. -1.
</event>
<event>
 5   0  0.4889251E-03  0.5002837E+03  0.7818609E-02  0.1013705E+00
        2   -1    0    0  501    0  0.00000000000E+00  0.00000000000E+00  0.21632521386E+03  0.21632521388E+03  0.25500000920E-02 0. -1.
       -2   -1    0    0    0  501  0.00000000000E+00  0.00000000000E+00 -0.28924483774E+03  0.28924483775E+03  0.25500000920E-02 0.  1.
    10030    2    1    2    0    0  0.00000000000E+00  0.00000000000E+00 -0.72919623877E+02  0.50557005163E+03  0.50028372506E+03 0.  0.
        5    1    3    3  502    0  0.12910914060E+03 -0.17842097800E+03  0.83306815790E+02  0.23551078772E+03  0.46999998093E+01 0. -1.
       -5    1    3    3    0  502 -0.12910914060E+03  0.17842097800E+03 -0.15622643967E+03  0.27005926391E+03  0.46999998093E+01 0.  1.
</event>
<event>
 5   0  0.4989875E-03  0.5001615E+03  0.7818609E-02  0.1013737E+00
       -2   -1    0    0    0  501  0.00000000000E+00  0.00000000000E+00  0.11084704944E+03  0.11084704947E+03  0.25500000920E-02 0.  1.
        2   -1    0    0  501    0  0.00000000000E+00  0.00000000000E+00 -0.56420419826E+03  0.56420419826E+03  0.25500000920E-02 0. -1.
    10030    2    1    2    0    0  0.00000000000E+00  0.00000000000E+00 -0.45335714882E+03  0.67505124773E+03  0.50016145661E+03 0.  0.
        2    1    3    3  502    0 -0.24754115778E+03 -0.34248027700E+02 -0.23954072555E+03  0.34616370607E+03  0.25500000920E-02 0. -1.
       -2    1    3    3    0  502  0.24754115778E+03  0.34248027700E+02 -0.21381642327E+03  0.32888754166E+03  0.25500000920E-02 0.  1.
</event>
<event>
 5   0  0.5118882E-03  0.5000892E+03  0.7818609E-02  0.1013756E+00
        2   -1    0    0  501    0  0.00000000000E+00  0.00000000000E+00  0.12547498775E+04  0.12547498775E+04  0.25500000920E-02 0.  1.
       -2   -1    0    0    0  501  0.00000000000E+00  0.00000000000E+00 -0.49828499780E+02  0.49828499845E+02  0.25500000920E-02 0. -1.
    10030    2    1    2    0    0  0.00000000000E+00  0.00000000000E+00  0.12049213777E+04  0.13045783773E+04  0.50008920820E+03 0.  0.
        3    1    3    3  502    0  0.86656068562E+02 -0.10660528666E+03  0.11474732625E+04  0.11556681443E+04  0.10100000352E+00 0.  1.
       -3    1    3    3    0  502 -0.86656068562E+02  0.10660528666E+03  0.57448115192E+02  0.14891023303E+03  0.10100000352E+00 0. -1.
</event>
<event>
 5   0  0.5118882E-03  0.5001113E+03  0.7818609E-02  0.1013750E+00
        2   -1    0    0  501    0  0.00000000000E+00  0.00000000000E+00  0.94001350717E+02  0.94001350751E+02  0.25500000920E-02 0. -1.
       -2   -1    0    0    0  501  0.00000000000E+00  0.00000000000E+00 -0.66518019163E+03  0.66518019164E+03  0.25500000920E-02 0.  1.
    10030    2    1    2    0    0  0.00000000000E+00  0.00000000000E+00 -0.57117884092E+03  0.75918154239E+03  0.50011133360E+03 0.  0.
        3    1    3    3  502    0  0.15257037536E+03 -0.66879499421E+02 -0.24981375006E+01  0.16660383481E+03  0.10100000352E+00 0. -1.
       -3    1    3    3    0  502 -0.15257037536E+03  0.66879499421E+02 -0.56868070342E+03  0.59257770758E+03  0.10100000352E+00 0.  1.
</event>
<event>
 5   0  0.4989875E-03  0.5003290E+03  0.7818609E-02  0.1013693E+00
       -2   -1    0    0    0  501  0.00000000000E+00  0.00000000000E+00  0.12020694606E+03  0.12020694609E+03  0.25500000920E-02 0. -1.
        2   -1    0    0  501    0  0.00000000000E+00  0.00000000000E+00 -0.52062109733E+03  0.52062109734E+03  0.25500000920E-02 0.  1.
    10030    2    1    2    0    0  0.00000000000E+00  0.00000000000E+00 -0.40041415127E+03  0.64082804343E+03  0.50032898048E+03 0.  0.
        2    1    3    3  502    0 -0.18279791094E+03 -0.15502688859E+03 -0.10843557163E+03  0.26307163593E+03  0.25500000920E-02 0. -1.
       -2    1    3    3    0  502  0.18279791094E+03  0.15502688859E+03 -0.29197857964E+03  0.37775640750E+03  0.25500000920E-02 0.  1.
</event>
<event>
 5   0  0.3057783E-03  0.5000453E+03  0.7818609E-02  0.1013767E+00
        1   -1    0    0  501    0  0.00000000000E+00  0.00000000000E+00  0.17490785592E+03  0.17490785600E+03  0.50400001928E-02 0. -1.
       -1   -1    0    0    0  501  0.00000000000E+00  0.00000000000E+00 -0.35739574687E+03  0.35739574691E+03  0.50400001928E-02 0.  1.
    10030    2    1    2    0    0  0.00000000000E+00  0.00000000000E+00 -0.18248789095E+03  0.53230360290E+03  0.50004529327E+03 0.  0.
        5    1    3    3  502    0  0.24440295410E+03  0.52393881559E+02 -0.94824095208E+02  0.26737917239E+03  0.46999998093E+01 0.  1.
       -5    1    3    3    0  502 -0.24440295410E+03 -0.52393881559E+02 -0.87663795740E+02  0.26492443051E+03  0.46999998093E+01 0. -1.
</event>
<event>
 5   0  0.2005125E-03  0.4999941E+03  0.7818609E-02  0.1013780E+00
       -4   -1    0    0    0  501  0.00000000000E+00  0.00000000000E+00  0.22745665984E+03  0.22746020533E+03  0.12699999809E+01 0.  1.
        4   -1    0    0  501    0  0.00000000000E+00  0.00000000000E+00 -0.27476398660E+03  0.27476692165E+03  0.12699999809E+01 0. -1.
    10030    2    1    2    0    0  0.00000000000E+00  0.00000000000E+00 -0.47307326761E+02  0.50222712698E+03  0.49999410387E+03 0.  0.
        2    1    3    3  502    0  0.24429938995E+02 -0.93126918529E+02  0.20809101398E+03  0.22928435398E+03  0.25500000920E-02 0.  1.
       -2    1    3    3    0  502 -0.24429938995E+02  0.93126918529E+02 -0.25539834074E+03  0.27294277300E+03  0.25500000920E-02 0. -1.
</event>
<event>
 5   0  0.5118882E-03  0.5000437E+03  0.7818609E-02  0.1013768E+00
        2   -1    0    0  501    0  0.00000000000E+00  0.00000000000E+00  0.45388357516E+03  0.45388357516E+03  0.25500000920E-02 0. -1.
       -2   -1    0    0    0  501  0.00000000000E+00  0.00000000000E+00 -0.13772457069E+03  0.13772457071E+03  0.25500000920E-02 0.  1.
    10030    2    1    2    0    0  0.00000000000E+00  0.00000000000E+00  0.31615900447E+03  0.59160814588E+03  0.50004368026E+03 0.  0.
        3    1    3    3  502    0  0.59470533405E+02 -0.14805973315E+03  0.38581716088E+03  0.41750846788E+03  0.10100000352E+00 0. -1.
       -3    1    3    3    0  502 -0.59470533405E+02  0.14805973315E+03 -0.69658156413E+02  0.17409967800E+03  0.10100000352E+00 0.  1.
</event>
<event>
 5   0  0.3211775E-03  0.4999781E+03  0.7818609E-02  0.1013785E+00
       -1   -1    0    0    0  501  0.00000000000E+00  0.00000000000E+00  0.38375478360E+03  0.38375478363E+03  0.50400001928E-02 0. -1.
        1   -1    0    0  501    0  0.00000000000E+00  0.00000000000E+00 -0.16285014999E+03  0.16285015007E+03  0.50400001928E-02 0.  1.
    10030    2    1    2    0    0  0.00000000000E+00  0.00000000000E+00  0.22090463361E+03  0.54660493370E+03  0.49997809591E+03 0.  0.
        4    1    3    3  502    0  0.91805727326E+02 -0.13748320250E+03 -0.94553158024E+02  0.19045166088E+03  0.12699999809E+01 0.  1.
       -4    1    3    3    0  502 -0.91805727326E+02  0.13748320250E+03  0.31545779163E+03  0.35615327282E+03  0.12699999809E+01 0. -1.
</event>
<event>
 5   0  0.4978779E-03  0.4990812E+03  0.7818609E-02  0.1014019E+00
       -2   -1    0    0    0  501  0.00000000000E+00  0.00000000000E+00  0.11677296004E+03  0.11677296007E+03  0.25500000920E-02 0.  1.
        2   -1    0    0  501    0  0.00000000000E+00  0.00000000000E+00 -0.53326143157E+03  0.53326143158E+03  0.25500000920E-02 0. -1.
    10030    2    1    2    0    0  0.00000000000E+00  0.00000000000E+00 -0.41648847153E+03  0.65003439165E+03  0.49908121925E+03 0.  0.
        1    1    3    3  502    0 -0.42629315511E+02  0.19243146735E+03 -0.89062983220E+01  0.19729787212E+03  0.50400001928E-02 0.  1.
       -1    1    3    3    0  502  0.42629315511E+02 -0.19243146735E+03 -0.40758217321E+03  0.45273651953E+03  0.50400001928E-02 0. -1.
</event>
<event>
 5   0  0.4989875E-03  0.4998425E+03  0.7818609E-02  0.1013820E+00
        2   -1    0    0  501    0  0.00000000000E+00  0.00000000000E+00  0.10770989159E+03  0.10770989162E+03  0.25500000920E-02 0. -1.
       -2   -1    0    0    0  501  0.00000000000E+00  0.00000000000E+00 -0.57989686322E+03  0.57989686322E+03  0.25500000920E-02 0.  1.
    10030    2    1    2    0    0  0.00000000000E+00  0.00000000000E+00 -0.47218697163E+03  0.68760675484E+03  0.49984248831E+03 0.  0.
        2    1    3    3  502    0  0.14457199647E+03 -0.58460463299E+02  0.32569820930E+02  0.15930938822E+03  0.25500000920E-02 0. -1.
       -2    1    3    3    0  502 -0.14457199647E+03  0.58460463299E+02 -0.50475679256E+03  0.52829736662E+03  0.25500000920E-02 0.  1.
</event>
<event>
 5   0  0.3013734E-03  0.5002168E+03  0.7818609E-02  0.1013722E+00
        1   -1    0    0  501    0  0.00000000000E+00  0.00000000000E+00  0.17333555922E+03  0.17333555929E+03  0.50400001928E-02 0.  1.
       -1   -1    0    0    0  501  0.00000000000E+00  0.00000000000E+00 -0.36088501127E+03  0.36088501131E+03  0.50400001928E-02 0. -1.
    10030    2    1    2    0    0  0.00000000000E+00  0.00000000000E+00 -0.18754945205E+03  0.53422057060E+03  0.50021677410E+03 0.  0.
        2    1    3    3  502    0  0.12638059923E+03  0.20040208552E+03 -0.17935405611E+03  0.29715472265E+03  0.25500000920E-02 0.  1.
       -2    1    3    3    0  502 -0.12638059923E+03 -0.20040208552E+03 -0.81953959419E+01  0.23706584795E+03  0.25500000920E-02 0. -1.
</event>
<event>
 5   0  0.4889251E-03  0.5000836E+03  0.7818609E-02  0.1013757E+00
        2   -1    0    0  501    0  0.00000000000E+00  0.00000000000E+00  0.39068950225E+03  0.39068950226E+03  0.25500000920E-02 0.  1.
       -2   -1    0    0    0  501  0.00000000000E+00  0.00000000000E+00 -0.16002708522E+03  0.16002708524E+03  0.25500000920E-02 0. -1.
    10030    2    1    2    0    0  0.00000000000E+00  0.00000000000E+00  0.23066241703E+03  0.55071658749E+03  0.50008360212E+03 0.  0.
        5    1    3    3  502    0 -0.23676001126E+03 -0.77643712704E+02  0.92898053910E+02  0.26596237980E+03  0.46999998093E+01 0.  1.
       -5    1    3    3    0  502  0.23676001126E+03  0.77643712704E+02  0.13776436312E+03  0.28475420769E+03  0.46999998093E+01 0. -1.
</event>
<event>
 5   0  0.3055293E-03  0.4998843E+03  0.7818609E-02  0.1013809E+00
        1   -1    0    0  501    0  0.00000000000E+00  0.00000000000E+00  0.44993221370E+03  0.44993221373E+03  0.50400001928E-02 0.  1.
       -1   -1    0    0    0  501  0.00000000000E+00  0.00000000000E+00 -0.13884551812E+03  0.13884551822E+03  0.50400001928E-02 0. -1.
    10030    2    1    2    0    0  0.00000000000E+00  0.00000000000E+00  0.31108669557E+03  0.58877773194E+03  0.49988427208E+03 0.  0.
        3    1    3    3  502    0 -0.18225761047E+03  0.17088554271E+03  0.16398401946E+03  0.29884858059E+03  0.10100000352E+00 0. -1.
       -3    1    3    3    0  502  0.18225761047E+03 -0.17088554271E+03  0.14710267612E+03  0.28992915135E+03  0.10100000352E+00 0.  1.
</event>
<event>
 5   0  0.3055293E-03  0.4998931E+03  0.7818609E-02  0.1013807E+00
       -1   -1    0    0    0  501  0.00000000000E+00  0.00000000000E+00  0.25252718830E+03  0.25252718835E+03  0.50400001928E-02 0. -1.
        1   -1    0    0  501    0  0.00000000000E+00  0.00000000000E+00 -0.24739230578E+03  0.24739230583E+03  0.50400001928E-02 0.  1.
    10030    2    1    2    0    0  0.00000000000E+00  0.00000000000E+00  0.51348825210E+01  0.49991949418E+03  0.49989312222E+03 0.  0.
        3    1    3    3  502    0 -0.86453722192E+02  0.18843845005E+03 -0.13704643384E+03  0.24852571450E+03  0.10100000352E+00 0.  1.
       -3    1    3    3    0  502  0.86453722192E+02 -0.18843845005E+03  0.14218131636E+03  0.25139377968E+03  0.10100000352E+00 0. -1.
</event>
<event>
 5   0  0.3211775E-03  0.4996592E+03  0.7818609E-02  0.1013868E+00
       -1   -1    0    0    0  501  0.00000000000E+00  0.00000000000E+00  0.10841844240E+03  0.10841844252E+03  0.50400001928E-02 0. -1.
        1   -1    0    0  501    0  0.00000000000E+00  0.00000000000E+00 -0.57568472676E+03  0.57568472678E+03  0.50400001928E-02 0.  1.
    10030    2    1    2    0    0  0.00000000000E+00  0.00000000000E+00 -0.46726628436E+03  0.68410316930E+03  0.49965924964E+03 0.  0.
        4    1    3    3  502    0  0.24609721705E+03 -0.39341776704E+02 -0.20985528955E+03  0.32581048339E+03  0.12699999809E+01 0.  1.
       -4    1    3    3    0  502 -0.24609721705E+03  0.39341776704E+02 -0.25741099481E+03  0.35829268591E+03  0.12699999809E+01 0. -1.
</event>
<event>
 5   0  0.5095783E-03  0.4964255E+03  0.7818609E-02  0.1014716E+00
       -2   -1    0    0    0  501  0.00000000000E+00  0.00000000000E+00  0.35668373227E+02  0.35668373318E+02  0.25500000920E-02 0. -1.
        2   -1    0    0  501    0  0.00000000000E+00  0.00000000000E+00 -0.17272883380E+04  0.17272883380E+04  0.25500000920E-02 0.  1.
    10030    2    1    2    0    0  0.00000000000E+00  0.00000000000E+00 -0.16916199648E+04  0.17629567114E+04  0.49642548361E+03 0.  0.
        4    1    3    3  502    0 -0.18512591743E+03 -0.10619328397E+02 -0.14317594633E+04  0.14437178218E+04  0.12699999809E+01 0.  1.
       -4    1    3    3    0  502  0.18512591743E+03  0.10619328397E+02 -0.25986050151E+03  0.31923888953E+03  0.12699999809E+01 0. -1.
</event>
<event>
 5   0  0.4989875E-03  0.5002175E+03  0.7818609E-02  0.1013722E+00
        2   -1    0    0  501    0  0.00000000000E+00  0.00000000000E+00  0.13204554657E+04  0.13204554657E+04  0.25500000920E-02 0.  1.
       -2   -1    0    0    0  501  0.00000000000E+00  0.00000000000E+00 -0.47373346020E+02  0.47373346089E+02  0.25500000920E-02 0. -1.
    10030    2    1    2    0    0  0.00000000000E+00  0.00000000000E+00  0.12730821197E+04  0.13678288118E+04  0.50021752760E+03 0.  0.
        2    1    3    3  502    0 -0.15529422544E+03 -0.12734090641E+03  0.10441730251E+04  0.10633105423E+04  0.25500000920E-02 0.  1.
       -2    1    3    3    0  502  0.15529422544E+03  0.12734090641E+03  0.22890909458E+03  0.30451826955E+03  0.25500000920E-02 0. -1.
</event>
<event>
 5   0  0.5095783E-03  0.5000782E+03  0.7818609E-02  0.1013759E+00
       -2   -1    0    0    0  501  0.00000000000E+00  0.00000000000E+00  0.41072041741E+02  0.41072041820E+02  0.25500000920E-02 0. -1.
        2   -1    0    0  501    0  0.00000000000E+00  0.00000000000E+00 -0.15221923672E+04  0.15221923673E+04  0.25500000920E-02 0.  1.
    10030    2    1    2    0    0  0.00000000000E+00  0.00000000000E+00 -0.14811203255E+04  0.15632644091E+04  0.50007818792E+03 0.  0.
        4    1    3    3  502    0 -0.21790773668E+03  0.77234211395E+02 -0.10382575063E+04  0.10636865927E+04  0.12699999809E+01 0.  1.
       -4    1    3    3    0  502  0.21790773668E+03 -0.77234211395E+02 -0.44286281921E+03  0.49957781641E+03  0.12699999809E+01 0. -1.
</event>
<event>
 5   0  0.4978779E-03  0.5000068E+03  0.7818609E-02  0.1013777E+00
       -2   -1    0    0    0  501  0.00000000000E+00  0.00000000000E+00  0.12287559941E+03  0.12287559943E+03  0.25500000920E-02 0.  1.
        2   -1    0    0  501    0  0.00000000000E+00  0.00000000000E+00 -0.50865839542E+03  0.50865839543E+03  0.25500000920E-02 0. -1.
    10030    2    1    2    0    0  0.00000000000E+00  0.00000000000E+00 -0.38578279602E+03  0.63153399486E+03  0.50000682092E+03 0.  0.
        1    1    3    3  502    0 -0.48523597826E+01 -0.20490879974E+03 -0.12091765070E+02  0.20532260571E+03  0.50400001928E-02 0.  1.
       -1    1    3    3    0  502  0.48523597826E+01  0.20490879974E+03 -0.37369103095E+03  0.42621138915E+03  0.50400001928E-02 0. -1.
</event>
<event>
 5   0  0.5118882E-03  0.4996298E+03  0.7818609E-02  0.1013876E+00
        2   -1    0    0  501    0  0.00000000000E+00  0.00000000000E+00  0.18464159743E+04  0.18464159743E+04  0.25500000920E-02 0. -1.
       -2   -1    0    0    0  501  0.00000000000E+00  0.00000000000E+00 -0.33799261651E+02  0.33799261747E+02  0.25500000920E-02 0.  1.
    10030    2    1    2    0    0  0.00000000000E+00  0.00000000000E+00  0.18126167127E+04  0.18802152361E+04  0.49962984989E+03 0.  0.
        3    1    3    3  502    0 -0.14232775643E+03  0.15712171256E+03  0.40900726772E+03  0.46068576932E+03  0.10100000352E+00 0.  1.
       -3    1    3    3    0  502  0.14232775643E+03 -0.15712171256E+03  0.14036094449E+04  0.14195294667E+04  0.10100000352E+00 0. -1.
</event>
<event>
 5   0  0.2863538E-03  0.5000426E+03  0.7818609E-02  0.1013768E+00
       -1   -1    0    0    0  501  0.00000000000E+00  0.00000000000E+00  0.63139528249E+02  0.63139528450E+02  0.50400001928E-02 0.  1.
        1   -1    0    0  501    0  0.00000000000E+00  0.00000000000E+00 -0.99004004452E+03  0.99004004453E+03  0.50400001928E-02 0. -1.
    10030    2    1    2    0    0  0.00000000000E+00  0.00000000000E+00 -0.92690051627E+03  0.10531795730E+04  0.50004264407E+03 0.  0.
        1    1    3    3  502    0  0.16275586510E+03 -0.31552668261E+01 -0.86313207113E+03  0.87834867767E+03  0.50400001928E-02 0. -1.
       -1    1    3    3    0  502 -0.16275586510E+03  0.31552668261E+01 -0.63768445136E+02  0.17483089530E+03  0.50400001928E-02 0.  1.
</event>
<event>
 5   0  0.4989875E-03  0.4999697E+03  0.7818609E-02  0.1013787E+00
        2   -1    0    0  501    0  0.00000000000E+00  0.00000000000E+00  0.17392262718E+04  0.17392262718E+04  0.25500000920E-02 0. -1.
       -2   -1    0    0    0  501  0.00000000000E+00  0.00000000000E+00 -0.35931169045E+02  0.35931169135E+02  0.25500000920E-02 0.  1.
    10030    2    1    2    0    0  0.00000000000E+00  0.00000000000E+00  0.17032951027E+04  0.17751574409E+04  0.49996973213E+03 0.  0.
        2    1    3    3  502    0 -0.42830428294E+02  0.82417938947E+02  0.16756862140E+04  0.16782584575E+04  0.25500000920E-02 0. -1.
       -2    1    3    3    0  502  0.42830428294E+02 -0.82417938947E+02  0.27608888715E+02  0.96898983435E+02  0.25500000920E-02 0.  1.
</event>
<event>
 5   0  0.3013734E-03  0.5000156E+03  0.7818609E-02  0.1013775E+00
       -1   -1    0    0    0  501  0.00000000000E+00  0.00000000000E+00  0.96601440715E+02  0.96601440846E+02  0.50400001928E-02 0. -1.
        1   -1    0    0  501    0  0.00000000000E+00  0.00000000000E+00 -0.64702872680E+03  0.64702872682E+03  0.50400001928E-02 0.  1.
    10030    2    1    2    0    0  0.00000000000E+00  0.00000000000E+00 -0.55042728608E+03  0.74363016766E+03  0.50001562875E+03 0.  0.
        2    1    3    3  502    0  0.20291366905E+03  0.53793593139E+02 -0.47714749063E+03  0.52128440949E+03  0.25500000920E-02 0.  1.
       -2    1    3    3    0  502 -0.20291366905E+03 -0.53793593139E+02 -0.73279795449E+02  0.22234575818E+03  0.25500000920E-02 0. -1.
</event>
<event>
 5   0  0.5095783E-03  0.5000019E+03  0.7818609E-02  0.1013778E+00
       -2   -1    0    0    0  501  0.00000000000E+00  0.00000000000E+00  0.75796296204E+02  0.75796296247E+02  0.25500000920E-02 0.  1.
        2   -1    0    0  501    0  0.00000000000E+00  0.00000000000E+00 -0.82458496882E+03  0.82458496883E+03  0.25500000920E-02 0. -1.
    10030    2    1    2    0    0  0.00000000000E+00  0.00000000000E+00 -0.74878867262E+03  0.90038126507E+03  0.50000194625E+03 0.  0.
        4    1    3    3  502    0 -0.16505979758E+03  0.18369121492E+03 -0.30438049745E+03  0.39196466594E+03  0.12699999809E+01 0.  1.
       -4    1    3    3    0  502  0.16505979758E+03 -0.18369121492E+03 -0.44440817517E+03  0.50841659914E+03  0.12699999809E+01 0. -1.
</event>
<event>
 5   0  0.5095783E-03  0.5000880E+03  0.7818609E-02  0.1013756E+00
        2   -1    0    0  501    0  0.00000000000E+00  0.00000000000E+00  0.78451793287E+03  0.78451793288E+03  0.25500000920E-02 0.  1.
       -2   -1    0    0    0  501  0.00000000000E+00  0.00000000000E+00 -0.79694803385E+02  0.79694803425E+02  0.25500000920E-02 0. -1.
    10030    2    1    2    0    0  0.00000000000E+00  0.00000000000E+00  0.70482312949E+03  0.86421273630E+03  0.50008800198E+03 0.  0.
        4    1    3    3  502    0 -0.90449868268E+02 -0.79084554073E+02 -0.26535313521E+02  0.12304991315E+03  0.12699999809E+01 0. -1.
       -4    1    3    3    0  502  0.90449868268E+02  0.79084554073E+02  0.73135844301E+03  0.74116282315E+03  0.12699999809E+01 0.  1.
</event>
<event>
 5   0  0.3211775E-03  0.4998495E+03  0.7818609E-02  0.1013818E+00
       -1   -1    0    0    0  501  0.00000000000E+00  0.00000000000E+00  0.24064359021E+03  0.24064359026E+03  0.50400001928E-02 0.  1.
        1   -1    0    0  501    0  0.00000000000E+00  0.00000000000E+00 -0.25956382129E+03  0.25956382134E+03  0.50400001928E-02 0. -1.
    10030    2    1    2    0    0  0.00000000000E+00  0.00000000000E+00 -0.18920231078E+02  0.50020741160E+03  0.49984945682E+03 0.  0.
        4    1    3    3  502    0 -0.24574500582E+03 -0.78253396458E+01 -0.54313113667E+02  0.25180026021E+03  0.12699999809E+01 0. -1.
       -4    1    3    3    0  502  0.24574500582E+03  0.78253396458E+01  0.35392882590E+02  0.24840715139E+03  0.12699999809E+01 0.  1.
</event>
<event>
 5   0  0.3055293E-03  0.5000379E+03  0.7818609E-02  0.1013769E+00
        1   -1    0    0  501    0  0.00000000000E+00  0.00000000000E+00  0.16247453919E+04  0.16247453919E+04  0.50400001928E-02 0.  1.
       -1   -1    0    0    0  501  0.00000000000E+00  0.00000000000E+00 -0.38473395832E+02  0.38473396162E+02  0.50400001928E-02 0. -1.
    10030    2    1    2    0    0  0.00000000000E+00  0.00000000000E+00  0.15862719961E+04  0.16632187881E+04  0.50003789004E+03 0.  0.
        3    1    3    3  502    0  0.20146603981E+03  0.78827209757E+01  0.12849028269E+04  0.13006252294E+04  0.10100000352E+00 0.  1.
       -3    1    3    3    0  502 -0.20146603981E+03 -0.78827209757E+01  0.30136916917E+03  0.36259355870E+03  0.10100000352E+00 0. -1.
</event>
<event>
 5   0  0.5118882E-03  0.5002979E+03  0.7818609E-02  0.1013701E+00
        2   -1    0    0  501    0  0.00000000000E+00  0.00000000000E+00  0.72506887511E+03  0.72506887511E+03  0.25500000920E-02 0. -1.
       -2   -1    0    0    0  501  0.00000000000E+00  0.00000000000E+00 -0.86301443412E+02  0.86301443450E+02  0.25500000920E-02 0.  1.
    10030    2    1    2    0    0  0.00000000000E+00  0.00000000000E+00  0.63876743170E+03  0.81137031856E+03  0.50029787332E+03 0.  0.
        3    1    3    3  502    0 -0.23748658770E+03  0.78578165411E+02  0.31982158268E+03  0.40602987866E+03  0.10100000352E+00 0.  1.
       -3    1    3    3    0  502  0.23748658770E+03 -0.78578165411E+02  0.31894584901E+03  0.40534043990E+03  0.10100000352E+00 0. -1.
</event>
<event>
 5   0  0.3057783E-03  0.5000274E+03  0.7818609E-02  0.1013772E+00
        1   -1    0    0  501    0  0.00000000000E+00  0.00000000000E+00  0.12298810494E+04  0.12298810494E+04  0.50400001928E-02 0.  1.
       -1   -1    0    0    0  501  0.00000000000E+00  0.00000000000E+00 -0.50823497269E+02  0.50823497519E+02  0.50400001928E-02 0. -1.
    10030    2    1    2    0    0  0.00000000000E+00  0.00000000000E+00  0.11790575522E+04  0.12807045470E+04  0.50002742454E+03 0.  0.
        5    1    3    3  502    0  0.23419426709E+03 -0.11086518794E+02  0.36749617331E+03  0.43594196062E+03  0.46999998093E+01 0. -1.
       -5    1    3    3    0  502 -0.23419426709E+03  0.11086518794E+02  0.81156137886E+03  0.84476258634E+03  0.46999998093E+01 0.  1.
</event>
<event>
 5   0  0.3211775E-03  0.4995344E+03  0.7818609E-02  0.1013901E+00
        1   -1    0    0  501    0  0.00000000000E+00  0.00000000000E+00  0.53699747829E+03  0.53699747832E+03  0.50400001928E-02 0.  1.
       -1   -1    0    0    0  501  0.00000000000E+00  0.00000000000E+00 -0.11617124079E+03  0.11617124090E+03  0.50400001928E-02 0. -1.
    10030    2    1    2    0    0  0.00000000000E+00  0.00000000000E+00  0.42082623751E+03  0.65316871921E+03  0.49953443683E+03 0.  0.
        4    1    3    3  502    0  0.10417866498E+03  0.22036778845E+03  0.28163459401E+03  0.37247122556E+03  0.12699999809E+01 0.  1.
       -4    1    3    3    0  502 -0.10417866498E+03 -0.22036778845E+03  0.13919164350E+03  0.28069749366E+03  0.12699999809E+01 0. -1.
</event>
<event>
 5   0  0.5095783E-03  0.4985775E+03  0.7818609E-02  0.1014151E+00
       -2   -1    0    0    0  501  0.00000000000E+00  0.00000000000E+00  0.39715736499E+02  0.39715736581E+02  0.25500000920E-02 0.  1.
        2   -1    0    0  501    0  0.00000000000E+00  0.00000000000E+00 -0.15647420561E+04  0.15647420561E+04  0.25500000920E-02 0. -1.
    10030    2    1    2    0    0  0.00000000000E+00  0.00000000000E+00 -0.15250263196E+04  0.16044577927E+04  0.49857750955E+03 0.  0.
        4    1    3    3  502    0 -0.21508588988E+02  0.47623667557E+02  0.21882222374E+02  0.56666371578E+02  0.12699999809E+01 0.  1.
       -4    1    3    3    0  502  0.21508588988E+02 -0.47623667557E+02 -0.15469085420E+04  0.15477914211E+04  0.12699999809E+01 0. -1.
</event>
<event>
 5   0  0.4978779E-03  0.4998692E+03  0.7818609E-02  0.1013813E+00
        2   -1    0    0  501    0  0.00000000000E+00  0.00000000000E+00  0.52538597179E+03  0.52538597179E+03  0.25500000920E-02 0.  1.
       -2   -1    0    0    0  501  0.00000000000E+00  0.00000000000E+00 -0.11889793241E+03  0.11889793244E+03  0.25500000920E-02 0. -1.
    10030    2    1    2    0    0  0.00000000000E+00  0.00000000000E+00  0.40648803938E+03  0.64428390423E+03  0.49986920599E+03 0.  0.
        1    1    3    3  502    0  0.20671160428E+02  0.50706442112E+02  0.51755946721E+03  0.52044811679E+03  0.50400001928E-02 0.  1.
       -1    1    3    3    0  502 -0.20671160428E+02 -0.50706442112E+02 -0.11107142783E+03  0.12383578744E+03  0.50400001928E-02 0. -1.
</event>
<event>
 5   0  0.3013734E-03  0.5001427E+03  0.7818609E-02  0.1013742E+00
        1   -1    0    0  501    0  0.00000000000E+00  0.00000000000E+00  0.19227717931E+03  0.19227717938E+03  0.50400001928E-02 0. -1.
       -1   -1    0    0    0  501  0.00000000000E+00  0.00000000000E+00 -0.32523709733E+03  0.32523709737E+03  0.50400001928E-02 0.  1.
    10030    2    1    2    0    0  0.00000000000E+00  0.00000000000E+00 -0.13295991802E+03  0.51751427674E+03  0.50014266648E+03 0.  0.
        2    1    3    3  502    0 -0.64174629151E+02 -0.20464900561E+03  0.66579153624E+02  0.22457155258E+03  0.25500000920E-02 0. -1.
       -2    1    3    3    0  502  0.64174629151E+02  0.20464900561E+03 -0.19953907164E+03  0.29294272417E+03  0.25500000920E-02 0.  1.
</event>
<event>
 5   0  0.4989875E-03  0.4999295E+03  0.7818609E-02  0.1013797E+00
       -2   -1    0    0    0  501  0.00000000000E+00  0.00000000000E+00  0.13373975947E+03  0.13373975949E+03  0.25500000920E-02 0. -1.
        2   -1    0    0  501    0  0.00000000000E+00  0.00000000000E+00 -0.46719378154E+03  0.46719378154E+03  0.25500000920E-02 0.  1.
    10030    2    1    2    0    0  0.00000000000E+00  0.00000000000E+00 -0.33345402207E+03  0.60093354104E+03  0.49992953094E+03 0.  0.
        2    1    3    3  502    0 -0.81666965862E+02 -0.14258959370E+03  0.59693716511E+02  0.17482741587E+03  0.25500000920E-02 0. -1.
       -2    1    3    3    0  502  0.81666965862E+02  0.14258959370E+03 -0.39314773858E+03  0.42610612516E+03  0.25500000920E-02 0.  1.
</event>
<event>
 5   0  0.2005125E-03  0.5000071E+03  0.7818609E-02  0.1013777E+00
       -3   -1    0    0    0  501  0.00000000000E+00  0.00000000000E+00  0.41795309336E+03  0.41795310556E+03  0.10100000352E+00 0.  1.
        3   -1    0    0  501    0  0.00000000000E+00  0.00000000000E+00 -0.14954252318E+03  0.14954255729E+03  0.10100000352E+00 0. -1.
    10030    2    1    2    0    0  0.00000000000E+00  0.00000000000E+00  0.26841057017E+03  0.56749566285E+03  0.50000709312E+03 0.  0.
        4    1    3    3  502    0  0.87229421215E+02 -0.19762958976E+03 -0.86111045262E+01  0.21619942344E+03  0.12699999809E+01 0. -1.
       -4    1    3    3    0  502 -0.87229421215E+02  0.19762958976E+03  0.27702167470E+03  0.35129623941E+03  0.12699999809E+01 0.  1.
</event>
<event>
 5   0  0.4978779E-03  0.5000519E+03  0.7818609E-02  0.1013765E+00
        2   -1    0    0  501    0  0.00000000000E+00  0.00000000000E+00  0.69772546641E+03  0.69772546642E+03  0.25500000920E-02 0.  1.
       -2   -1    0    0    0  501  0.00000000000E+00  0.00000000000E+00 -0.89595363377E+02  0.89595363413E+02  0.25500000920E-02 0. -1.
    10030    2    1    2    0    0  0.00000000000E+00  0.00000000000E+00  0.60813010304E+03  0.78732082983E+03  0.50005186418E+03 0.  0.
        1    1    3    3  502    0  0.30428694602E+02 -0.16866595619E+03  0.59068436396E+03  0.61504644384E+03  0.50400001928E-02 0.  1.
       -1    1    3    3    0  502 -0.30428694602E+02  0.16866595619E+03  0.17445739083E+02  0.17227438599E+03  0.50400001928E-02 0. -1.
</event>
<event>
 5   0  0.5118882E-03  0.5001944E+03  0.7818609E-02  0.1013728E+00
        2   -1    0    0  501    0  0.00000000000E+00  0.00000000000E+00  0.81731899674E+03  0.81731899674E+03  0.25500000920E-02 0.  1.
       -2   -1    0    0    0  501  0.00000000000E+00  0.00000000000E+00 -0.76528995594E+02  0.76528995636E+02  0.25500000920E-02 0. -1.
    10030    2    1    2    0    0  0.00000000000E+00  0.00000000000E+00  0.74079000114E+03  0.89384799238E+03  0.50019436990E+03 0.  0.
        3    1    3    3  502    0 -0.10743496290E+03  0.74112300840E+02 -0.10842734541E+02  0.13096747490E+03  0.10100000352E+00 0. -1.
       -3    1    3    3    0  502  0.10743496290E+03 -0.74112300840E+02  0.75163273568E+03  0.76288051747E+03  0.10100000352E+00 0.  1.
</event>
<event>
 5   0  0.4989875E-03  0.5000665E+03  0.7818609E-02  0.1013762E+00
        2   -1    0    0  501    0  0.00000000000E+00  0.00000000000E+00  0.77838825517E+03  0.77838825518E+03  0.25500000920E-02 0. -1.
       -2   -1    0    0    0  501  0.00000000000E+00  0.00000000000E+00 -0.80315478664E+02  0.80315478705E+02  0.25500000920E-02 0.  1.
    10030    2    1    2    0    0  0.00000000000E+00  0.00000000000E+00  0.69807277651E+03  0.85870373388E+03  0.50006649686E+03 0.  0.
        2    1    3    3  502    0  0.18099537305E+02 -0.44099757367E+02 -0.72440116528E+02  0.86717658753E+02  0.25500000920E-02 0.  1.
       -2    1    3    3    0  502 -0.18099537305E+02  0.44099757367E+02  0.77051289303E+03  0.77198607513E+03  0.25500000920E-02 0. -1.
</event>
<event>
 5   0  0.3057783E-03  0.5024025E+03  0.7818609E-02  0.1013154E+00
        1   -1    0    0  501    0  0.00000000000E+00  0.00000000000E+00  0.24001759569E+03  0.24001759575E+03  0.50400001928E-02 0. -1.
       -1   -1    0    0    0  501  0.00000000000E+00  0.00000000000E+00 -0.26290598108E+03  0.26290598113E+03  0.50400001928E-02 0.  1.
    10030    2    1    2    0    0  0.00000000000E+00  0.00000000000E+00 -0.22888385387E+02  0.50292357687E+03  0.50240247411E+03 0.  0.
        5    1    3    3  502    0 -0.22263099007E+02  0.19381011438E+03 -0.16979159260E+03  0.25866828358E+03  0.46999998093E+01 0.  1.
       -5    1    3    3    0  502  0.22263099007E+02 -0.19381011438E+03  0.14690320721E+03  0.24425529329E+03  0.46999998093E+01 0. -1.
</event>
<event>
 5   0  0.5095783E-03  0.5010886E+03  0.7818609E-02  0.1013495E+00
       -2   -1    0    0    0  501  0.00000000000E+00  0.00000000000E+00  0.52156018833E+02  0.52156018895E+02  0.25500000920E-02 0. -1.
        2   -1    0    0  501    0  0.00000000000E+00  0.00000000000E+00 -0.12035511283E+04  0.12035511283E+04  0.25500000920E-02 0.  1.
    10030    2    1    2    0    0  0.00000000000E+00  0.00000000000E+00 -0.11513951094E+04  0.12557071472E+04  0.50108855646E+03 0.  0.
        4    1    3    3  502    0 -0.87835250504E+00  0.18323231833E+03 -0.14750873400E+03  0.23523454995E+03  0.12699999809E+01 0. -1.
       -4    1    3    3    0  502  0.87835250504E+00 -0.18323231833E+03 -0.10038863754E+04  0.10204725972E+04  0.12699999809E+01 0.  1.
</event>
<event>
 5   0  0.3055293E-03  0.4999982E+03  0.7818609E-02  0.1013779E+00
       -1   -1    0    0    0  501  0.00000000000E+00  0.00000000000E+00  0.33665571493E+03  0.33665571497E+03  0.50400001928E-02 0.  1.
        1   -1    0    0  501    0  0.00000000000E+00  0.00000000000E+00 -0.18564829315E+03  0.18564829322E+03  0.50400001928E-02 0. -1.
    10030    2    1    2    0    0  0.00000000000E+00  0.00000000000E+00  0.15100742178E+03  0.52230400819E+03  0.49999823554E+03 0.  0.
        3    1    3    3  502    0  0.76840174980E+02  0.21878979665E+03 -0.22077566640E+02  0.23293951309E+03  0.10100000352E+00 0. -1.
       -3    1    3    3    0  502 -0.76840174980E+02 -0.21878979665E+03  0.17308498842E+03  0.28936449510E+03  0.10100000352E+00 0.  1.
</event>
<event>
 5   0  0.2863538E-03  0.4999842E+03  0.7818609E-02  0.1013783E+00
       -1   -1    0    0    0  501  0.00000000000E+00  0.00000000000E+00  0.45088071997E+02  0.45088072279E+02  0.50400001928E-02 0. -1.
        1   -1    0    0  501    0  0.00000000000E+00  0.00000000000E+00 -0.13860881543E+04  0.13860881543E+04  0.50400001928E-02 0.  1.
    10030    2    1    2    0    0  0.00000000000E+00  0.00000000000E+00 -0.13410000823E+04  0.14311762266E+04  0.49998417056E+03 0.  0.
        1    1    3    3  502    0 -0.15928534022E+03  0.94363934387E+02 -0.11513535964E+04  0.11661438486E+04  0.50400001928E-02 0.  1.
       -1    1    3    3    0  502  0.15928534022E+03 -0.94363934387E+02 -0.18964648588E+03  0.26503237794E+03  0.50400001928E-02 0. -1.
</event>
<event>
 5   0  0.5118882E-03  0.4998851E+03  0.7818609E-02  0.1013809E+00
       -2   -1    0    0    0  501  0.00000000000E+00  0.00000000000E+00  0.42555941622E+03  0.42555941623E+03  0.25500000920E-02 0.  1.
        2   -1    0    0  501    0  0.00000000000E+00  0.00000000000E+00 -0.14679803969E+03  0.14679803971E+03  0.25500000920E-02 0. -1.
    10030    2    1    2    0    0  0.00000000000E+00  0.00000000000E+00  0.27876137653E+03  0.57235745594E+03  0.49988513913E+03 0.  0.
        3    1    3    3  502    0 -0.23880616690E+03  0.29835072557E+02  0.62124274627E+02  0.24855171012E+03  0.10100000352E+00 0. -1.
       -3    1    3    3    0  502  0.23880616690E+03 -0.29835072557E+02  0.21663710191E+03  0.32380574582E+03  0.10100000352E+00 0.  1.
</event>
<event>
 5   0  0.3057783E-03  0.5000883E+03  0.7818609E-02  0.1013756E+00
       -1   -1    0    0    0  501  0.00000000000E+00  0.00000000000E+00  0.12233001934E+03  0.12233001944E+03  0.50400001928E-02 0.  1.
        1   -1    0    0  501    0  0.00000000000E+00  0.00000000000E+00 -0.51109340910E+03  0.51109340913E+03  0.50400001928E-02 0. -1.
    10030    2    1    2    0    0  0.00000000000E+00  0.00000000000E+00 -0.38876338976E+03  0.63342342857E+03  0.50008825885E+03 0.  0.
        5    1    3    3  502    0 -0.85087921652E+02 -0.18042753265E+03 -0.35207410580E+01  0.19957087604E+03  0.46999998093E+01 0.  1.
       -5    1    3    3    0  502  0.85087921652E+02  0.18042753265E+03 -0.38524264871E+03  0.43385255252E+03  0.46999998093E+01 0. -1.
</event>
<event>
 5   0  0.3055293E-03  0.4998723E+03  0.7818609E-02  0.1013812E+00
       -1   -1    0    0    0  501  0.00000000000E+00  0.00000000000E+00  0.53784250827E+02  0.53784251063E+02  0.50400001928E-02 0. -1.
        1   -1    0    0  501    0  0.00000000000E+00  0.00000000000E+00 -0.11614568995E+04  0.11614568995E+04  0.50400001928E-02 0.  1.
    10030    2    1    2    0    0  0.00000000000E+00  0.00000000000E+00 -0.11076726487E+04  0.12152411506E+04  0.49987234114E+03 0.  0.
        3    1    3    3  502    0 -0.20465681601E+02 -0.19594335509E+03 -0.92774784323E+03  0.94843487565E+03  0.10100000352E+00 0.  1.
       -3    1    3    3    0  502  0.20465681601E+02  0.19594335509E+03 -0.17992480546E+03  0.26680627494E+03  0.10100000352E+00 0. -1.
</event>
<event>
 5   0  0.3211775E-03  0.5000173E+03  0.7818609E-02  0.1013774E+00
       -1   -1    0    0    0  501  0.00000000000E+00  0.00000000000E+00  0.44581429782E+02  0.44581430067E+02  0.50400001928E-02 0. -1.
        1   -1    0    0  501    0  0.00000000000E+00  0.00000000000E+00 -0.14020259062E+04  0.14020259062E+04  0.50400001928E-02 0.  1.
    10030    2    1    2    0    0  0.00000000000E+00  0.00000000000E+00 -0.13574444764E+04  0.14466073363E+04  0.50001727851E+03 0.  0.
        4    1    3    3  502    0 -0.96414389016E+02  0.20133650995E+03 -0.10043818762E+04  0.10288910004E+04  0.12699999809E+01 0.  1.
       -4    1    3    3    0  502  0.96414389016E+02 -0.20133650995E+03 -0.35306260020E+03  0.41771633582E+03  0.12699999809E+01 0. -1.
</event>
<event>
 5   0  0.3057783E-03  0.5002165E+03  0.7818609E-02  0.1013722E+00
       -1   -1    0    0    0  501  0.00000000000E+00  0.00000000000E+00  0.58628427413E+02  0.58628427630E+02  0.50400001928E-02 0.  1.
        1   -1    0    0  501    0  0.00000000000E+00  0.00000000000E+00 -0.10669593101E+04  0.10669593101E+04  0.50400001928E-02 0. -1.
    10030    2    1    2    0    0  0.00000000000E+00  0.00000000000E+00 -0.10083308827E+04  0.11255877377E+04  0.50021653948E+03 0.  0.
        5    1    3    3  502    0  0.11703585780E+03 -0.20488744782E+03 -0.31784936829E+03  0.39588706623E+03  0.46999998093E+01 0.  1.
       -5    1    3    3    0  502 -0.11703585780E+03  0.20488744782E+03 -0.69048151439E+03  0.72970067151E+03  0.46999998093E+01 0. -1.
</event>
<event>
 5   0  0.3211775E-03  0.5001652E+03  0.7818609E-02  0.1013736E+00
        1   -1    0    0  501    0  0.00000000000E+00  0.00000000000E+00  0.85049345359E+03  0.85049345360E+03  0.50400001928E-02 0. -1.
       -1   -1    0    0    0  501  0.00000000000E+00  0.00000000000E+00 -0.73535312400E+02  0.73535312573E+02  0.50400001928E-02 0.  1.
    10030    2    1    2    0    0  0.00000000000E+00  0.00000000000E+00  0.77695814119E+03  0.92402876618E+03  0.50016518028E+03 0.  0.
        4    1    3    3  502    0  0.20870370227E+02  0.78963963124E+02 -0.48194336228E+02  0.94842958463E+02  0.12699999809E+01 0.  1.
       -4    1    3    3    0  502 -0.20870370227E+02 -0.78963963124E+02  0.82515247742E+03  0.82918580771E+03  0.12699999809E+01 0. -1.
</event>
<event>
 5   0  0.5118882E-03  0.5000203E+03  0.7818609E-02  0.1013774E+00
       -2   -1    0    0    0  501  0.00000000000E+00  0.00000000000E+00  0.10257915482E+03  0.10257915485E+03  0.25500000920E-02 0. -1.
        2   -1    0    0  501    0  0.00000000000E+00  0.00000000000E+00 -0.60933497913E+03  0.60933497914E+03  0.25500000920E-02 0.  1.
    10030    2    1    2    0    0  0.00000000000E+00  0.00000000000E+00 -0.50675582432E+03  0.71191413399E+03  0.50002026828E+03 0.  0.
        3    1    3    3  502    0 -0.23528975697E+02  0.23893387320E+03 -0.15410068233E+03  0.28528939510E+03  0.10100000352E+00 0.  1.
       -3    1    3    3    0  502  0.23528975697E+02 -0.23893387320E+03 -0.35265514199E+03  0.42662473889E+03  0.10100000352E+00 0. -1.
</event>
<event>
 5   0  0.3211775E-03  0.4999439E+03  0.7818609E-02  0.1013794E+00
       -1   -1    0    0    0  501  0.00000000000E+00  0.00000000000E+00  0.22068257104E+03  0.22068257110E+03  0.50400001928E-02 0. -1.
        1   -1    0    0  501    0  0.00000000000E+00  0.00000000000E+00 -0.28314867408E+03  0.28314867413E+03  0.50400001928E-02 0.  1.
    10030    2    1    2    0    0  0.00000000000E+00  0.00000000000E+00 -0.62466103042E+02  0.50383124523E+03  0.49994390649E+03 0.  0.
        4    1    3    3  502    0  0.14583876098E+03 -0.15422063279E+03  0.10182163015E+03  0.23541921130E+03  0.12699999809E+01 0. -1.
       -4    1    3    3    0  502 -0.14583876098E+03  0.15422063279E+03 -0.16428773319E+03  0.26841203393E+03  0.12699999809E+01 0.  1.
</event>
<event>
 5   0  0.5118882E-03  0.5000808E+03  0.7818609E-02  0.1013758E+00
        2   -1    0    0  501    0  0.00000000000E+00  0.00000000000E+00  0.17362543541E+03  0.17362543543E+03  0.25500000920E-02 0.  1.
       -2   -1    0    0    0  501  0.00000000000E+00  0.00000000000E+00 -0.36008659075E+03  0.36008659076E+03  0.25500000920E-02 0. -1.
    10030    2    1    2    0    0  0.00000000000E+00  0.00000000000E+00 -0.18646115534E+03  0.53371202619E+03  0.50008075793E+03 0.  0.
        3    1    3    3  502    0  0.62134154352E+02  0.11278633710E+03  0.13551701168E+03  0.18693924582E+03  0.10100000352E+00 0.  1.
       -3    1    3    3    0  502 -0.62134154352E+02 -0.11278633710E+03 -0.32197816701E+03  0.34677278037E+03  0.10100000352E+00 0. -1.
</event>
<event>
 5   0  0.5095783E-03  0.4999765E+03  0.7818609E-02  0.1013785E+00
        2   -1    0    0  501    0  0.00000000000E+00  0.00000000000E+00  0.23059867420E+04  0.23059867420E+04  0.25500000920E-02 0.  1.
       -2   -1    0    0    0  501  0.00000000000E+00  0.00000000000E+00 -0.27100821414E+02  0.27100821534E+02  0.25500000920E-02 0. -1.
    10030    2    1    2    0    0  0.00000000000E+00  0.00000000000E+00  0.22788859206E+04  0.23330875635E+04  0.49997653953E+03 0.  0.
        4    1    3    3  502    0  0.13396745017E+03  0.19465289189E+03  0.75875282009E+03  0.79469772928E+03  0.12699999809E+01 0. -1.
       -4    1    3    3    0  502 -0.13396745017E+03 -0.19465289189E+03  0.15201331005E+04  0.15383898342E+04  0.12699999809E+01 0.  1.
</event>
<event>
 5   0  0.3211775E-03  0.5000438E+03  0.7818609E-02  0.1013767E+00
       -1   -1    0    0    0  501  0.00000000000E+00  0.00000000000E+00  0.34055224929E+03  0.34055224933E+03  0.50400001928E-02 0.  1.
        1   -1    0    0  501    0  0.00000000000E+00  0.00000000000E+00 -0.18355757369E+03  0.18355757376E+03  0.50400001928E-02 0. -1.
    10030    2    1    2    0    0  0.00000000000E+00  0.00000000000E+00  0.15699467560E+03  0.52410982308E+03  0.50004377657E+03 0.  0.
        4    1    3    3  502    0  0.15624692445E+03  0.18289174876E+03  0.14994582948E+03  0.28345697706E+03  0.12699999809E+01 0.  1.
       -4    1    3    3    0  502 -0.15624692445E+03 -0.18289174876E+03  0.70488461204E+01  0.24065284602E+03  0.12699999809E+01 0. -1.
</event>
<event>
 5   0  0.2863538E-03  0.5000999E+03  0.7818609E-02  0.1013753E+00
       -1   -1    0    0    0  501  0.00000000000E+00  0.00000000000E+00  0.40888954387E+02  0.40888954697E+02  0.50400001928E-02 0.  1.
        1   -1    0    0  501    0  0.00000000000E+00  0.00000000000E+00 -0.15291407968E+04  0.15291407968E+04  0.50400001928E-02 0. -1.
    10030    2    1    2    0    0  0.00000000000E+00  0.00000000000E+00 -0.14882518424E+04  0.15700297515E+04  0.50009986420E+03 0.  0.
        1    1    3    3  502    0  0.20381280856E+03 -0.14464085388E+03 -0.76930623845E+03  0.80888362951E+03  0.50400001928E-02 0.  1.
       -1    1    3    3    0  502 -0.20381280856E+03  0.14464085388E+03 -0.71894560398E+03  0.76114612201E+03  0.50400001928E-02 0. -1.
</event>
<event>
 5   0  0.4989875E-03  0.4998891E+03  0.7818609E-02  0.1013808E+00
       -2   -1    0    0    0  501  0.00000000000E+00  0.00000000000E+00  0.20371856149E+03  0.20371856150E+03  0.25500000920E-02 0. -1.
        2   -1    0    0  501    0  0.00000000000E+00  0.00000000000E+00 -0.30665970287E+03  0.30665970288E+03  0.25500000920E-02 0.  1.
    10030    2    1    2    0    0  0.00000000000E+00  0.00000000000E+00 -0.10294114139E+03  0.51037826439E+03  0.49988908187E+03 0.  0.
        2    1    3    3  502    0 -0.13164370531E+03 -0.17145899162E+02  0.16474708604E+03  0.21157894359E+03  0.25500000920E-02 0. -1.
       -2    1    3    3    0  502  0.13164370531E+03  0.17145899162E+02 -0.26768822742E+03  0.29879932080E+03  0.25500000920E-02 0.  1.
</event>
<event>
 5   0  0.5118882E-03  0.5000263E+03  0.7818609E-02  0.1013772E+00
        2   -1    0    0  501    0  0.00000000000E+00  0.00000000000E+00  0.57195471772E+03  0.57195471772E+03  0.25500000920E-02 0. -1.
       -2   -1    0    0    0  501  0.00000000000E+00  0.00000000000E+00 -0.10928586711E+03  0.10928586714E+03  0.25500000920E-02 0.  1.
    10030    2    1    2    0    0  0.00000000000E+00  0.00000000000E+00  0.46266885061E+03  0.68124058486E+03  0.50002626845E+03 0.  0.
        3    1    3    3  502    0 -0.14737079291E+03  0.19489807796E+03  0.30346684948E+03  0.38960948439E+03  0.10100000352E+00 0.  1.
       -3    1    3    3    0  502  0.14737079291E+03 -0.19489807796E+03  0.15920200113E+03  0.29163110047E+03  0.10100000352E+00 0. -1.
</event>
<event>
 5   0  0.3211775E-03  0.5004401E+03  0.7818609E-02  0.1013664E+00
       -1   -1    0    0    0  501  0.00000000000E+00  0.00000000000E+00  0.96749163501E+02  0.96749163632E+02  0.50400001928E-02 0.  1.
        1   -1    0    0  501    0  0.00000000000E+00  0.00000000000E+00 -0.64713803606E+03  0.64713803608E+03  0.50400001928E-02 0. -1.
    10030    2    1    2    0    0  0.00000000000E+00  0.00000000000E+00 -0.55038887256E+03  0.74388719971E+03  0.50044006120E+03 0.  0.
        4    1    3    3  502    0 -0.28974105923E+02  0.10989967769E+03  0.56160879141E+02  0.12677971138E+03  0.12699999809E+01 0.  1.
       -4    1    3    3    0  502  0.28974105923E+02 -0.10989967769E+03 -0.60654975170E+03  0.61710748833E+03  0.12699999809E+01 0. -1.
</event>
<event>
 5   0  0.3013734E-03  0.5000928E+03  0.7818609E-02  0.1013755E+00
        1   -1    0    0  501    0  0.00000000000E+00  0.00000000000E+00  0.13136578870E+04  0.13136578871E+04  0.50400001928E-02 0. -1.
       -1   -1    0    0    0  501  0.00000000000E+00  0.00000000000E+00 -0.47594727912E+02  0.47594728179E+02  0.50400001928E-02 0.  1.
    10030    2    1    2    0    0  0.00000000000E+00  0.00000000000E+00  0.12660631591E+04  0.13612526152E+04  0.50009275097E+03 0.  0.
        2    1    3    3  502    0  0.22420694107E+03 -0.10694165969E+03  0.55518432785E+03  0.60822274612E+03  0.25500000920E-02 0.  1.
       -2    1    3    3    0  502 -0.22420694107E+03  0.10694165969E+03  0.71087883128E+03  0.75302986911E+03  0.25500000920E-02 0. -1.
</event>
<event>
 5   0  0.2863538E-03  0.5000567E+03  0.7818609E-02  0.1013764E+00
        1   -1    0    0  501    0  0.00000000000E+00  0.00000000000E+00  0.40922739454E+03  0.40922739457E+03  0.50400001928E-02 0. -1.
       -1   -1    0    0    0  501  0.00000000000E+00  0.00000000000E+00 -0.15276148457E+03  0.15276148465E+03  0.50400001928E-02 0.  1.
    10030    2    1    2    0    0  0.00000000000E+00  0.00000000000E+00  0.25646590997E+03  0.56198887922E+03  0.50005673418E+03 0.  0.
        1    1    3    3  502    0 -0.19234610656E+02  0.43235349787E+02 -0.14768296397E+03  0.15507908818E+03  0.50400001928E-02 0.  1.
       -1    1    3    3    0  502  0.19234610656E+02 -0.43235349787E+02  0.40414887394E+03  0.40690979105E+03  0.50400001928E-02 0. -1.
</event>
<event>
 5   0  0.4989875E-03  0.5006966E+03  0.7818609E-02  0.1013597E+00
        2   -1    0    0  501    0  0.00000000000E+00  0.00000000000E+00  0.75354933762E+03  0.75354933762E+03  0.25500000920E-02 0. -1.
       -2   -1    0    0    0  501  0.00000000000E+00  0.00000000000E+00 -0.83172081525E+02  0.83172081564E+02  0.25500000920E-02 0.  1.
    10030    2    1    2    0    0  0.00000000000E+00  0.00000000000E+00  0.67037725609E+03  0.83672141918E+03  0.50069658261E+03 0.  0.
        2    1    3    3  502    0 -0.10097495749E+03  0.20693545065E+03  0.49940100268E+03  0.54992688993E+03  0.25500000920E-02 0. -1.
       -2    1    3    3    0  502  0.10097495749E+03 -0.20693545065E+03  0.17097625341E+03  0.28679452926E+03  0.25500000920E-02 0.  1.
</event>
<event>
 5   0  0.2005125E-03  0.4999205E+03  0.7818609E-02  0.1013800E+00
       -3   -1    0    0    0  501  0.00000000000E+00  0.00000000000E+00  0.15757194544E+03  0.15757197781E+03  0.10100000352E+00 0. -1.
        3   -1    0    0  501    0  0.00000000000E+00  0.00000000000E+00 -0.39651808784E+03  0.39651810071E+03  0.10100000352E+00 0.  1.
    10030    2    1    2    0    0  0.00000000000E+00  0.00000000000E+00 -0.23894614240E+03  0.55409007852E+03  0.49992054983E+03 0.  0.
        1    1    3    3  502    0 -0.14968117126E+03 -0.17798878372E+03 -0.17916672174E+02  0.23324979599E+03  0.50400001928E-02 0. -1.
       -1    1    3    3    0  502  0.14968117126E+03  0.17798878372E+03 -0.22102947023E+03  0.32084028253E+03  0.50400001928E-02 0.  1.
</event>
<event>
 5   0  0.3055293E-03  0.4998879E+03  0.7818609E-02  0.1013808E+00
       -1   -1    0    0    0  501  0.00000000000E+00  0.00000000000E+00  0.15301074625E+03  0.15301074633E+03  0.50400001928E-02 0. -1.
        1   -1    0    0  501    0  0.00000000000E+00  0.00000000000E+00 -0.40828484698E+03  0.40828484701E+03  0.50400001928E-02 0.  1.
    10030    2    1    2    0    0  0.00000000000E+00  0.00000000000E+00 -0.25527410073E+03  0.56129559334E+03  0.49988786403E+03 0.  0.
        3    1    3    3  502    0  0.24172746007E+03 -0.32704650695E+02 -0.66442623312E+02  0.25281691305E+03  0.10100000352E+00 0. -1.
       -3    1    3    3    0  502 -0.24172746007E+03  0.32704650695E+02 -0.18883147742E+03  0.30847868029E+03  0.10100000352E+00 0.  1.
</event>
<event>
 5   0  0.3055293E-03  0.4999864E+03  0.7818609E-02  0.1013782E+00
       -1   -1    0    0    0  501  0.00000000000E+00  0.00000000000E+00  0.12151674816E+03  0.12151674827E+03  0.50400001928E-02 0. -1.
        1   -1    0    0  501    0  0.00000000000E+00  0.00000000000E+00 -0.51430435585E+03  0.51430435588E+03  0.50400001928E-02 0.  1.
    10030    2    1    2    0    0  0.00000000000E+00  0.00000000000E+00 -0.39278760769E+03  0.63582110414E+03  0.49998637153E+03 0.  0.
        3    1    3    3  502    0  0.13303637999E+03  0.27164610857E+02  0.70537163754E+02  0.15301011782E+03  0.10100000352E+00 0. -1.
       -3    1    3    3    0  502 -0.13303637999E+03 -0.27164610857E+02 -0.46332477144E+03  0.48281098633E+03  0.10100000352E+00 0.  1.
</event>
<event>
 5   0  0.5118882E-03  0.4997783E+03  0.7818609E-02  0.1013837E+00
        2   -1    0    0  501    0  0.00000000000E+00  0.00000000000E+00  0.61806416086E+03  0.61806416087E+03  0.25500000920E-02 0. -1.
       -2   -1    0    0    0  501  0.00000000000E+00  0.00000000000E+00 -0.10103251578E+03  0.10103251581E+03  0.25500000920E-02 0.  1.
    10030    2    1    2    0    0  0.00000000000E+00  0.00000000000E+00  0.51703164508E+03  0.71909667668E+03  0.49977825923E+03 0.  0.
        3    1    3    3  502    0 -0.36847613396E+02  0.22916106955E+03  0.12530128446E+03  0.26376687529E+03  0.10100000352E+00 0.  1.
       -3    1    3    3    0  502  0.36847613396E+02 -0.22916106955E+03  0.39173036062E+03  0.45532980139E+03  0.10100000352E+00 0. -1.
</event>
<event>
 5   0  0.5118882E-03  0.5000304E+03  0.7818609E-02  0.1013771E+00
        2   -1    0    0  501    0  0.00000000000E+00  0.00000000000E+00  0.12409180838E+04  0.12409180838E+04  0.25500000920E-02 0.  1.
       -2   -1    0    0    0  501  0.00000000000E+00  0.00000000000E+00 -0.50372056178E+02  0.50372056243E+02  0.25500000920E-02 0. -1.
    10030    2    1    2    0    0  0.00000000000E+00  0.00000000000E+00  0.11905460276E+04  0.12912901400E+04  0.50003038096E+03 0.  0.
        3    1    3    3  502    0  0.21176726949E+03 -0.12854754985E+03  0.50816697904E+03  0.56533488994E+03  0.10100000352E+00 0.  1.
       -3    1    3    3    0  502 -0.21176726949E+03  0.12854754985E+03  0.68237904856E+03  0.72595525007E+03  0.10100000352E+00 0. -1.
</event>
<event>
 5   0  0.2863538E-03  0.4991414E+03  0.7818609E-02  0.1014003E+00
        1   -1    0    0  501    0  0.00000000000E+00  0.00000000000E+00  0.44487134444E+03  0.44487134447E+03  0.50400001928E-02 0. -1.
       -1   -1    0    0    0  501  0.00000000000E+00  0.00000000000E+00 -0.14000797582E+03  0.14000797591E+03  0.50400001928E-02 0.  1.
    10030    2    1    2    0    0  0.00000000000E+00  0.00000000000E+00  0.30486336862E+03  0.58487932037E+03  0.49914140869E+03 0.  0.
        1    1    3    3  502    0 -0.20983163841E+03  0.99478814687E+02  0.25957143220E+03  0.34828534205E+03  0.50400001928E-02 0. -1.
       -1    1    3    3    0  502  0.20983163841E+03 -0.99478814687E+02  0.45291936422E+02  0.23659397832E+03  0.50400001928E-02 0.  1.
</event>
<event>
 5   0  0.2005125E-03  0.5000595E+03  0.7818609E-02  0.1013763E+00
        3   -1    0    0  501    0  0.00000000000E+00  0.00000000000E+00  0.10973597782E+03  0.10973602430E+03  0.10100000352E+00 0.  1.
       -3   -1    0    0    0  501  0.00000000000E+00  0.00000000000E+00 -0.56968414767E+03  0.56968415662E+03  0.10100000352E+00 0. -1.
    10030    2    1    2    0    0  0.00000000000E+00  0.00000000000E+00 -0.45994816985E+03  0.67942018092E+03  0.50005945975E+03 0.  0.
        3    1    3    3  502    0  0.52810426289E+02 -0.22424751563E+03 -0.36197562903E+03  0.42907138754E+03  0.10100000352E+00 0.  1.
       -3    1    3    3    0  502 -0.52810426289E+02  0.22424751563E+03 -0.97972540815E+02  0.25034879338E+03  0.10100000352E+00 0. -1.
</event>
<event>
 5   0  0.4978779E-03  0.4997712E+03  0.7818609E-02  0.1013839E+00
       -2   -1    0    0    0  501  0.00000000000E+00  0.00000000000E+00  0.95028003505E+02  0.95028003539E+02  0.25500000920E-02 0. -1.
        2   -1    0    0  501    0  0.00000000000E+00  0.00000000000E+00 -0.65709916054E+03  0.65709916054E+03  0.25500000920E-02 0.  1.
    10030    2    1    2    0    0  0.00000000000E+00  0.00000000000E+00 -0.56207115703E+03  0.75212716408E+03  0.49977123305E+03 0.  0.
        1    1    3    3  502    0  0.15843643398E+03  0.63868003011E+02 -0.65676774621E+01  0.17095133762E+03  0.50400001928E-02 0. -1.
       -1    1    3    3    0  502 -0.15843643398E+03 -0.63868003011E+02 -0.55550347957E+03  0.58117582646E+03  0.50400001928E-02 0.  1.
</event>
<event>
 5   0  0.3013734E-03  0.4998845E+03  0.7818609E-02  0.1013809E+00
        1   -1    0    0  501    0  0.00000000000E+00  0.00000000000E+00  0.33753012032E+03  0.33753012036E+03  0.50400001928E-02 0.  1.
       -1   -1    0    0    0  501  0.00000000000E+00  0.00000000000E+00 -0.18508308678E+03  0.18508308685E+03  0.50400001928E-02 0. -1.
    10030    2    1    2    0    0  0.00000000000E+00  0.00000000000E+00  0.15244703354E+03  0.52261320721E+03  0.49988445297E+03 0.  0.
        2    1    3    3  502    0  0.55363243759E+02  0.12911119392E+02 -0.17823431538E+03  0.18708088344E+03  0.25500000920E-02 0. -1.
       -2    1    3    3    0  502 -0.55363243759E+02 -0.12911119392E+02  0.33068134892E+03  0.33553232377E+03  0.25500000920E-02 0.  1.
</event>
<event>
 5   0  0.2863538E-03  0.5000771E+03  0.7818609E-02  0.1013759E+00
       -1   -1    0    0    0  501  0.00000000000E+00  0.00000000000E+00  0.60260498416E+03  0.60260498418E+03  0.50400001928E-02 0. -1.
        1   -1    0    0  501    0  0.00000000000E+00  0.00000000000E+00 -0.10374836959E+03  0.10374836971E+03  0.50400001928E-02 0.  1.
    10030    2    1    2    0    0  0.00000000000E+00  0.00000000000E+00  0.49885661457E+03  0.70635335389E+03  0.50007713270E+03 0.  0.
        1    1    3    3  502    0  0.57736204085E+02 -0.86779171758E+02 -0.71599018125E+02  0.12645360151E+03  0.50400001928E-02 0.  1.
       -1    1    3    3    0  502 -0.57736204085E+02  0.86779171758E+02  0.57045563269E+03  0.57989975238E+03  0.50400001928E-02 0. -1.
</event>
<event>
 5   0  0.2005125E-03  0.4999580E+03  0.7818609E-02  0.1013790E+00
        4   -1    0    0  501    0  0.00000000000E+00  0.00000000000E+00  0.25132302106E+03  0.25132622985E+03  0.12699999809E+01 0. -1.
       -4   -1    0    0    0  501  0.00000000000E+00  0.00000000000E+00 -0.24863577492E+03  0.24863901840E+03  0.12699999809E+01 0.  1.
    10030    2    1    2    0    0  0.00000000000E+00  0.00000000000E+00  0.26872461342E+01  0.49996524825E+03  0.49995802641E+03 0.  0.
        4    1    3    3  502    0  0.86406159658E+02  0.20159576804E+03  0.12126622933E+03  0.25062719205E+03  0.12699999809E+01 0. -1.
       -4    1    3    3    0  502 -0.86406159658E+02 -0.20159576804E+03 -0.11857898319E+03  0.24933805621E+03  0.12699999809E+01 0.  1.
</event>
<event>
 5   0  0.5118882E-03  0.4998144E+03  0.7818609E-02  0.1013827E+00
        2   -1    0    0  501    0  0.00000000000E+00  0.00000000000E+00  0.17878242128E+04  0.17878242128E+04  0.25500000920E-02 0.  1.
       -2   -1    0    0    0  501  0.00000000000E+00  0.00000000000E+00 -0.34932738829E+02  0.34932738922E+02  0.25500000920E-02 0. -1.
    10030    2    1    2    0    0  0.00000000000E+00  0.00000000000E+00  0.17528914740E+04  0.18227569517E+04  0.49981435107E+03 0.  0.
        3    1    3    3  502    0  0.52953107901E+02 -0.18439078775E+02 -0.11696192913E+02  0.57278638183E+02  0.10100000352E+00 0. -1.
       -3    1    3    3    0  502 -0.52953107901E+02  0.18439078775E+02  0.17645876669E+04  0.17654783135E+04  0.10100000352E+00 0.  1.
</event>
<event>
 5   0  0.3013734E-03  0.5001046E+03  0.7818609E-02  0.1013752E+00
        1   -1    0    0  501    0  0.00000000000E+00  0.00000000000E+00  0.12667706089E+04  0.12667706089E+04  0.50400001928E-02 0. -1.
       -1   -1    0    0    0  501  0.00000000000E+00  0.00000000000E+00 -0.49358695130E+02  0.49358695387E+02  0.50400001928E-02 0.  1.
    10030    2    1    2    0    0  0.00000000000E+00  0.00000000000E+00  0.12174119137E+04  0.13161293043E+04  0.50010456690E+03 0.  0.
        2    1    3    3  502    0  0.64609906014E+00 -0.15264145379E+03  0.11299324552E+04  0.11401961166E+04  0.25500000920E-02 0. -1.
       -2    1    3    3    0  502 -0.64609906014E+00  0.15264145379E+03  0.87479458488E+02  0.17593318767E+03  0.25500000920E-02 0.  1.
</event>
<event>
 5   0  0.3013734E-03  0.4999683E+03  0.7818609E-02  0.1013787E+00
       -1   -1    0    0    0  501  0.00000000000E+00  0.00000000000E+00  0.56961832743E+02  0.56961832966E+02  0.50400001928E-02 0. -1.
        1   -1    0    0  501    0  0.00000000000E+00  0.00000000000E+00 -0.10970866596E+04  0.10970866596E+04  0.50400001928E-02 0.  1.
    10030    2    1    2    0    0  0.00000000000E+00  0.00000000000E+00 -0.10401248268E+04  0.11540484925E+04  0.49996826676E+03 0.  0.
        2    1    3    3  502    0 -0.13360043814E+03  0.20879935113E+03 -0.59470905301E+03  0.64430202843E+03  0.25500000920E-02 0.  1.
       -2    1    3    3    0  502  0.13360043814E+03 -0.20879935113E+03 -0.44541577382E+03  0.50974646411E+03  0.25500000920E-02 0. -1.
</event>
<event>
 5   0  0.4989875E-03  0.4999330E+03  0.7818609E-02  0.1013796E+00
        2   -1    0    0  501    0  0.00000000000E+00  0.00000000000E+00  0.10456092611E+04  0.10456092611E+04  0.25500000920E-02 0. -1.
       -2   -1    0    0    0  501  0.00000000000E+00  0.00000000000E+00 -0.59757749606E+02  0.59757749661E+02  0.25500000920E-02 0.  1.
    10030    2    1    2    0    0  0.00000000000E+00  0.00000000000E+00  0.98585151150E+03  0.11053670108E+04  0.49993302129E+03 0.  0.
        2    1    3    3  502    0  0.15763744826E+03 -0.12326990323E+03  0.16172684576E+03  0.25729478577E+03  0.25500000920E-02 0.  1.
       -2    1    3    3    0  502 -0.15763744826E+03  0.12326990323E+03  0.82412466574E+03  0.84807222501E+03  0.25500000920E-02 0. -1.
</event>
<event>
 5   0  0.2005125E-03  0.4997265E+03  0.7818609E-02  0.1013850E+00
        3   -1    0    0  501    0  0.00000000000E+00  0.00000000000E+00  0.16929491661E+03  0.16929494674E+03  0.10100000352E+00 0.  1.
       -3   -1    0    0    0  501  0.00000000000E+00  0.00000000000E+00 -0.36877441751E+03  0.36877443135E+03  0.10100000352E+00 0. -1.
    10030    2    1    2    0    0  0.00000000000E+00  0.00000000000E+00 -0.19947950090E+03  0.53806937809E+03  0.49972650956E+03 0.  0.
        2    1    3    3  502    0  0.11049120575E+03 -0.10204996476E+03  0.11509142714E+03  0.18938991120E+03  0.25500000920E-02 0.  1.
       -2    1    3    3    0  502 -0.11049120575E+03  0.10204996476E+03 -0.31457092804E+03  0.34867946689E+03  0.25500000920E-02 0. -1.
</event>
<event>
 5   0  0.3055293E-03  0.5004716E+03  0.7818609E-02  0.1013656E+00
       -1   -1    0    0    0  501  0.00000000000E+00  0.00000000000E+00  0.14755246433E+03  0.14755246442E+03  0.50400001928E-02 0. -1.
        1   -1    0    0  501    0  0.00000000000E+00  0.00000000000E+00 -0.42437754715E+03  0.42437754718E+03  0.50400001928E-02 0.  1.
    10030    2    1    2    0    0  0.00000000000E+00  0.00000000000E+00 -0.27682508282E+03  0.57193001160E+03  0.50047158929E+03 0.  0.
        3    1    3    3  502    0  0.75332516268E+01 -0.95935914289E+02 -0.40238654953E+03  0.41373348302E+03  0.10100000352E+00 0.  1.
       -3    1    3    3    0  502 -0.75332516268E+01  0.95935914289E+02  0.12556146671E+03  0.15819652858E+03  0.10100000352E+00 0. -1.
</event>
<event>
 5   0  0.4889251E-03  0.4997544E+03  0.7818609E-02  0.1013843E+00
        2   -1    0    0  501    0  0.00000000000E+00  0.00000000000E+00  0.87229201523E+03  0.87229201524E+03  0.25500000920E-02 0.  1.
       -2   -1    0    0    0  501  0.00000000000E+00  0.00000000000E+00 -0.71579941622E+02  0.71579941667E+02  0.25500000920E-02 0. -1.
    10030    2    1    2    0    0  0.00000000000E+00  0.00000000000E+00  0.80071207361E+03  0.94387195690E+03  0.49975438588E+03 0.  0.
        5    1    3    3  502    0  0.70308759388E+01 -0.17574557717E+03  0.65253408196E+02  0.18765936798E+03  0.46999998093E+01 0. -1.
       -5    1    3    3    0  502 -0.70308759388E+01  0.17574557717E+03  0.73545866541E+03  0.75621258892E+03  0.46999998093E+01 0.  1.
</event>
<event>
 5   0  0.3055293E-03  0.4962544E+03  0.7818609E-02  0.1014761E+00
       -1   -1    0    0    0  501  0.00000000000E+00  0.00000000000E+00  0.29190201156E+03  0.29190201160E+03  0.50400001928E-02 0. -1.
        1   -1    0    0  501    0  0.00000000000E+00  0.00000000000E+00 -0.21091704035E+03  0.21091704041E+03  0.50400001928E-02 0.  1.
    10030    2    1    2    0    0  0.00000000000E+00  0.00000000000E+00  0.80984971204E+02  0.50281905201E+03  0.49625440402E+03 0.  0.
        3    1    3    3  502    0  0.22006397613E+03  0.90285986654E+02  0.11204811516E+03  0.26293440872E+03  0.10100000352E+00 0. -1.
       -3    1    3    3    0  502 -0.22006397613E+03 -0.90285986654E+02 -0.31063143954E+02  0.23988464330E+03  0.10100000352E+00 0.  1.
</event>
<event>
 5   0  0.4989875E-03  0.4992992E+03  0.7818609E-02  0.1013962E+00
       -2   -1    0    0    0  501  0.00000000000E+00  0.00000000000E+00  0.28984661835E+03  0.28984661836E+03  0.25500000920E-02 0.  1.
        2   -1    0    0  501    0  0.00000000000E+00  0.00000000000E+00 -0.21502723661E+03  0.21502723663E+03  0.25500000920E-02 0. -1.
    10030    2    1    2    0    0  0.00000000000E+00  0.00000000000E+00  0.74819381739E+02  0.50487385499E+03  0.49929917842E+03 0.  0.
        2    1    3    3  502    0 -0.57787439196E+02 -0.19560779466E+03 -0.10815284066E+03  0.23086540323E+03  0.25500000920E-02 0.  1.
       -2    1    3    3    0  502  0.57787439196E+02  0.19560779466E+03  0.18297222240E+03  0.27400845176E+03  0.25500000920E-02 0. -1.
</event>
<event>
 5   0  0.4989875E-03  0.5000628E+03  0.7818609E-02  0.1013763E+00
       -2   -1    0    0    0  501  0.00000000000E+00  0.00000000000E+00  0.12382025084E+03  0.12382025087E+03  0.25500000920E-02 0.  1.
        2   -1    0    0  501    0  0.00000000000E+00  0.00000000000E+00 -0.50489067986E+03  0.50489067986E+03  0.25500000920E-02 0. -1.
    10030    2    1    2    0    0  0.00000000000E+00  0.00000000000E+00 -0.38107042901E+03  0.62871093073E+03  0.50006275862E+03 0.  0.
        2    1    3    3  502    0 -0.60674637802E+02  0.22993687642E+03 -0.93446162988E+02  0.25550844251E+03  0.25500000920E-02 0. -1.
       -2    1    3    3    0  502  0.60674637802E+02 -0.22993687642E+03 -0.28762426602E+03  0.37320248823E+03  0.25500000920E-02 0.  1.
</event>
<event>
 5   0  0.2863538E-03  0.5001113E+03  0.7818609E-02  0.1013750E+00
        1   -1    0    0  501    0  0.00000000000E+00  0.00000000000E+00  0.17607981131E+03  0.17607981139E+03  0.50400001928E-02 0. -1.
       -1   -1    0    0    0  501  0.00000000000E+00  0.00000000000E+00 -0.35511072570E+03  0.35511072574E+03  0.50400001928E-02 0.  1.
    10030    2    1    2    0    0  0.00000000000E+00  0.00000000000E+00 -0.17903091439E+03  0.53119053713E+03  0.50011130603E+03 0.  0.
        1    1    3    3  502    0  0.82236838619E+02  0.23565212505E+03 -0.10572866660E+03  0.27105972153E+03  0.50400001928E-02 0.  1.
       -1    1    3    3    0  502 -0.82236838619E+02 -0.23565212505E+03 -0.73302247794E+02  0.26013081560E+03  0.50400001928E-02 0. -1.
</event>
<event>
 5   0  0.5118882E-03  0.5000187E+03  0.7818609E-02  0.1013774E+00
       -2   -1    0    0    0  501  0.00000000000E+00  0.00000000000E+00  0.18423368471E+03  0.18423368472E+03  0.25500000920E-02 0. -1.
        2   -1    0    0  501    0  0.00000000000E+00  0.00000000000E+00 -0.33926846228E+03  0.33926846229E+03  0.25500000920E-02 0.  1.
    10030    2    1    2    0    0  0.00000000000E+00  0.00000000000E+00 -0.15503477758E+03  0.52350214702E+03  0.50001871532E+03 0.  0.
        3    1    3    3  502    0  0.58499572074E+02  0.80555719456E+02 -0.31762016982E+03  0.33285733633E+03  0.10100000352E+00 0.  1.
       -3    1    3    3    0  502 -0.58499572074E+02 -0.80555719456E+02  0.16258539224E+03  0.19064481069E+03  0.10100000352E+00 0. -1.
</event>
<event>
 5   0  0.4989875E-03  0.4999058E+03  0.7818609E-02  0.1013803E+00
       -2   -1    0    0    0  501  0.00000000000E+00  0.00000000000E+00  0.14261774441E+03  0.14261774444E+03  0.25500000920E-02 0.  1.
        2   -1    0    0  501    0  0.00000000000E+00  0.00000000000E+00 -0.43806935225E+03  0.43806935225E+03  0.25500000920E-02 0. -1.
    10030    2    1    2    0    0  0.00000000000E+00  0.00000000000E+00 -0.29545160783E+03  0.58068709669E+03  0.49990584282E+03 0.  0.
        2    1    3    3  502    0 -0.59537909831E+02 -0.66910812572E+02 -0.41878954136E+03  0.42825985044E+03  0.25500000920E-02 0. -1.
       -2    1    3    3    0  502  0.59537909831E+02  0.66910812572E+02  0.12333793352E+03  0.15242724625E+03  0.25500000920E-02 0.  1.
</event>
<event>
 5   0  0.3055293E-03  0.4999570E+03  0.7818609E-02  0.1013790E+00
        1   -1    0    0  501    0  0.00000000000E+00  0.00000000000E+00  0.83447569901E+03  0.83447569903E+03  0.50400001928E-02 0.  1.
       -1   -1    0    0    0  501  0.00000000000E+00  0.00000000000E+00 -0.74884431660E+02  0.74884431829E+02  0.50400001928E-02 0. -1.
    10030    2    1    2    0    0  0.00000000000E+00  0.00000000000E+00  0.75959126736E+03  0.90936013086E+03  0.49995695230E+03 0.  0.
        3    1    3    3  502    0  0.23356523396E+03  0.82865500755E+02  0.43928760658E+03  0.50437389031E+03  0.10100000352E+00 0.  1.
       -3    1    3    3    0  502 -0.23356523396E+03 -0.82865500755E+02  0.32030366078E+03  0.40498624055E+03  0.10100000352E+00 0. -1.
</event>
<event>
 5   0  0.3055293E-03  0.5000528E+03  0.7818609E-02  0.1013765E+00
        1   -1    0    0  501    0  0.00000000000E+00  0.00000000000E+00  0.15248206795E+04  0.15248206795E+04  0.50400001928E-02 0. -1.
       -1   -1    0    0    0  501  0.00000000000E+00  0.00000000000E+00 -0.40997087633E+02  0.40997087943E+02  0.50400001928E-02 0.  1.
    10030    2    1    2    0    0  0.00000000000E+00  0.00000000000E+00  0.14838235919E+04  0.15658177675E+04  0.50005282630E+03 0.  0.
        3    1    3    3  502    0  0.24539752845E+03 -0.39782136481E+02  0.82538510406E+03  0.86201110524E+03  0.10100000352E+00 0. -1.
       -3    1    3    3    0  502 -0.24539752845E+03  0.39782136481E+02  0.65843848783E+03  0.70380666224E+03  0.10100000352E+00 0.  1.
</event>
<event>
 5   0  0.3211775E-03  0.4998696E+03  0.7818609E-02  0.1013813E+00
        1   -1    0    0  501    0  0.00000000000E+00  0.00000000000E+00  0.11679750890E+03  0.11679750901E+03  0.50400001928E-02 0. -1.
       -1   -1    0    0    0  501  0.00000000000E+00  0.00000000000E+00 -0.53483497865E+03  0.53483497868E+03  0.50400001928E-02 0.  1.
    10030    2    1    2    0    0  0.00000000000E+00  0.00000000000E+00 -0.41803746975E+03  0.65163248769E+03  0.49986955588E+03 0.  0.
        4    1    3    3  502    0  0.32178747089E+02 -0.17053675534E+03  0.25440077351E+02  0.17540543641E+03  0.12699999809E+01 0. -1.
       -4    1    3    3    0  502 -0.32178747089E+02  0.17053675534E+03 -0.44347754711E+03  0.47622705128E+03  0.12699999809E+01 0.  1.
</event>
<event>
 5   0  0.5118882E-03  0.5006968E+03  0.7818609E-02  0.1013597E+00
       -2   -1    0    0    0  501  0.00000000000E+00  0.00000000000E+00  0.95751586657E+02  0.95751586691E+02  0.25500000920E-02 0. -1.
        2   -1    0    0  501    0  0.00000000000E+00  0.00000000000E+00 -0.65455113722E+03  0.65455113723E+03  0.25500000920E-02 0.  1.
    10030    2    1    2    0    0  0.00000000000E+00  0.00000000000E+00 -0.55879955057E+03  0.75030272392E+03  0.50069675434E+03 0.  0.
        3    1    3    3  502    0  0.97597331696E+02  0.22080669212E+03 -0.18007322601E+03  0.30117637916E+03  0.10100000352E+00 0.  1.
       -3    1    3    3    0  502 -0.97597331696E+02 -0.22080669212E+03 -0.37872632456E+03  0.44912634476E+03  0.10100000352E+00 0. -1.
</event>
<event>
 5   0  0.4989875E-03  0.4993261E+03  0.7818609E-02  0.1013955E+00
        2   -1    0    0  501    0  0.00000000000E+00  0.00000000000E+00  0.11597505558E+04  0.11597505559E+04  0.25500000920E-02 0. -1.
       -2   -1    0    0    0  501  0.00000000000E+00  0.00000000000E+00 -0.53745729409E+02  0.53745729469E+02  0.25500000920E-02 0.  1.
    10030    2    1    2    0    0  0.00000000000E+00  0.00000000000E+00  0.11060048264E+04  0.12134962853E+04  0.49932610424E+03 0.  0.
        2    1    3    3  502    0 -0.91233849738E+01 -0.15068291565E+03  0.69732976561E+02  0.16628669595E+03  0.25500000920E-02 0.  1.
       -2    1    3    3    0  502  0.91233849738E+01  0.15068291565E+03  0.10362718499E+04  0.10472095894E+04  0.25500000920E-02 0. -1.
</event>
<event>
 5   0  0.5095783E-03  0.5000805E+03  0.7818609E-02  0.1013758E+00
        2   -1    0    0  501    0  0.00000000000E+00  0.00000000000E+00  0.25445134266E+03  0.25445134267E+03  0.25500000920E-02 0.  1.
       -2   -1    0    0    0  501  0.00000000000E+00  0.00000000000E+00 -0.24570567110E+03  0.24570567111E+03  0.25500000920E-02 0. -1.
    10030    2    1    2    0    0  0.00000000000E+00  0.00000000000E+00  0.87456715603E+01  0.50015701378E+03  0.50008054517E+03 0.  0.
        4    1    3    3  502    0 -0.23322282696E+03 -0.11381578778E+02 -0.85061739529E+02  0.24851466713E+03  0.12699999809E+01 0. -1.
       -4    1    3    3    0  502  0.23322282696E+03  0.11381578778E+02  0.93807411090E+02  0.25164234664E+03  0.12699999809E+01 0.  1.
</event>
<event>
 5   0  0.3013734E-03  0.4999116E+03  0.7818609E-02  0.1013802E+00
        1   -1    0    0  501    0  0.00000000000E+00  0.00000000000E+00  0.13629964811E+04  0.13629964811E+04  0.50400001928E-02 0. -1.
       -1   -1    0    0    0  501  0.00000000000E+00  0.00000000000E+00 -0.45838629754E+02  0.45838630031E+02  0.50400001928E-02 0.  1.
    10030    2    1    2    0    0  0.00000000000E+00  0.00000000000E+00  0.13171578513E+04  0.14088351111E+04  0.49991155719E+03 0.  0.
        2    1    3    3  502    0  0.92259069675E+02 -0.19799544625E+03  0.31615161225E+03  0.38427304694E+03  0.25500000920E-02 0.  1.
       -2    1    3    3    0  502 -0.92259069675E+02  0.19799544625E+03  0.10010062391E+04  0.10245620642E+04  0.25500000920E-02 0. -1.
</event>
<event>
 5   0  0.3057783E-03  0.4999659E+03  0.7818609E-02  0.1013788E+00
        1   -1    0    0  501    0  0.00000000000E+00  0.00000000000E+00  0.21360927354E+03  0.21360927360E+03  0.50400001928E-02 0.  1.
       -1   -1    0    0    0  501  0.00000000000E+00  0.00000000000E+00 -0.29255041492E+03  0.29255041496E+03  0.50400001928E-02 0. -1.
    10030    2    1    2    0    0  0.00000000000E+00  0.00000000000E+00 -0.78941141376E+02  0.50615968856E+03  0.49996592536E+03 0.  0.
        5    1    3    3  502    0 -0.17777143934E+03  0.11182618475E+03 -0.17665428064E+03  0.27447514479E+03  0.46999998093E+01 0. -1.
       -5    1    3    3    0  502  0.17777143934E+03 -0.11182618475E+03  0.97713139263E+02  0.23168454377E+03  0.46999998093E+01 0.  1.
</event>
<event>
 5   0  0.5118882E-03  0.4998300E+03  0.7818609E-02  0.1013823E+00
        2   -1    0    0  501    0  0.00000000000E+00  0.00000000000E+00  0.12611634006E+04  0.12611634006E+04  0.25500000920E-02 0. -1.
       -2   -1    0    0    0  501  0.00000000000E+00  0.00000000000E+00 -0.49523732938E+02  0.49523733004E+02  0.25500000920E-02 0.  1.
    10030    2    1    2    0    0  0.00000000000E+00  0.00000000000E+00  0.12116396676E+04  0.13106871336E+04  0.49983004906E+03 0.  0.
        3    1    3    3  502    0  0.24105476696E+02 -0.51534134299E+02 -0.32316284710E+02  0.65430829608E+02  0.10100000352E+00 0.  1.
       -3    1    3    3    0  502 -0.24105476696E+02  0.51534134299E+02  0.12439559523E+04  0.12452563040E+04  0.10100000352E+00 0. -1.
</event>
<event>
 5   0  0.4989875E-03  0.4997312E+03  0.7818609E-02  0.1013849E+00
       -2   -1    0    0    0  501  0.00000000000E+00  0.00000000000E+00  0.29560159722E+03  0.29560159723E+03  0.25500000920E-02 0. -1.
        2   -1    0    0  501    0  0.00000000000E+00  0.00000000000E+00 -0.21120599232E+03  0.21120599233E+03  0.25500000920E-02 0.  1.
    10030    2    1    2    0    0  0.00000000000E+00  0.00000000000E+00  0.84395604905E+02  0.50680758956E+03  0.49973124248E+03 0.  0.
        2    1    3    3  502    0  0.23901813928E+03 -0.70723026692E+02  0.24590762659E+02  0.25047180086E+03  0.25500000920E-02 0. -1.
       -2    1    3    3    0  502 -0.23901813928E+03  0.70723026692E+02  0.59804842246E+02  0.25633578871E+03  0.25500000920E-02 0.  1.
</event>
<event>
 5   0  0.2863538E-03  0.4999072E+03  0.7818609E-02  0.1013803E+00
        1   -1    0    0  501    0  0.00000000000E+00  0.00000000000E+00  0.18518391037E+04  0.18518391037E+04  0.50400001928E-02 0.  1.
       -1   -1    0    0    0  501  0.00000000000E+00  0.00000000000E+00 -0.33737699028E+02  0.33737699405E+02  0.50400001928E-02 0. -1.
    10030    2    1    2    0    0  0.00000000000E+00  0.00000000000E+00  0.18181014047E+04  0.18855768031E+04  0.49990715414E+03 0.  0.
        1    1    3    3  502    0 -0.14452829436E+03  0.17271046306E+03  0.50002693806E+03  0.54840155974E+03  0.50400001928E-02 0. -1.
       -1    1    3    3    0  502  0.14452829436E+03 -0.17271046306E+03  0.13180744666E+04  0.13371752434E+04  0.50400001928E-02 0.  1.
</event>
<event>
 5   0  0.3055293E-03  0.5000868E+03  0.7818609E-02  0.1013756E+00
        1   -1    0    0  501    0  0.00000000000E+00  0.00000000000E+00  0.39575518097E+03  0.39575518100E+03  0.50400001928E-02 0. -1.
       -1   -1    0    0    0  501  0.00000000000E+00  0.00000000000E+00 -0.15798076109E+03  0.15798076117E+03  0.50400001928E-02 0.  1.
    10030    2    1    2    0    0  0.00000000000E+00  0.00000000000E+00  0.23777441988E+03  0.55373594217E+03  0.50008681136E+03 0.  0.
        3    1    3    3  502    0 -0.17808898923E+03  0.10597189716E+03 -0.36036855636E+02  0.21034351960E+03  0.10100000352E+00 0.  1.
       -3    1    3    3    0  502  0.17808898923E+03 -0.10597189716E+03  0.27381127552E+03  0.34339242257E+03  0.10100000352E+00 0. -1.
</event>
<event>
 5   0  0.3211775E-03  0.5016922E+03  0.7818609E-02  0.1013338E+00
       -1   -1    0    0    0  501  0.00000000000E+00  0.00000000000E+00  0.38593871675E+03  0.38593871678E+03  0.50400001928E-02 0. -1.
        1   -1    0    0  501    0  0.00000000000E+00  0.00000000000E+00 -0.16304081146E+03  0.16304081154E+03  0.50400001928E-02 0.  1.
    10030    2    1    2    0    0  0.00000000000E+00  0.00000000000E+00  0.22289790529E+03  0.54897952832E+03  0.50169218285E+03 0.  0.
        4    1    3    3  502    0 -0.24759391820E+03  0.37925652004E+02  0.12617249840E+03  0.28046785139E+03  0.12699999809E+01 0. -1.
       -4    1    3    3    0  502  0.24759391820E+03 -0.37925652004E+02  0.96725406890E+02  0.26851167693E+03  0.12699999809E+01 0.  1.
</event>
<event>
 5   0  0.2005125E-03  0.4999657E+03  0.7818609E-02  0.1013788E+00
       -3   -1    0    0    0  501  0.00000000000E+00  0.00000000000E+00  0.42710659921E+03  0.42710661115E+03  0.10100000352E+00 0.  1.
        3   -1    0    0  501    0  0.00000000000E+00  0.00000000000E+00 -0.14631338646E+03  0.14631342132E+03  0.10100000352E+00 0. -1.
    10030    2    1    2    0    0  0.00000000000E+00  0.00000000000E+00  0.28079321275E+03  0.57342003248E+03  0.49996570415E+03 0.  0.
        2    1    3    3  502    0  0.10418201966E+03 -0.16046366373E+03 -0.44143101673E+02  0.19634432518E+03  0.25500000920E-02 0. -1.
       -2    1    3    3    0  502 -0.10418201966E+03  0.16046366373E+03  0.32493631442E+03  0.37707570730E+03  0.25500000920E-02 0.  1.
</event>
<event>
 5   0  0.2863538E-03  0.4998722E+03  0.7818609E-02  0.1013812E+00
       -1   -1    0    0    0  501  0.00000000000E+00  0.00000000000E+00  0.34403337532E+02  0.34403337901E+02  0.50400001928E-02 0. -1.
        1   -1    0    0  501    0  0.00000000000E+00  0.00000000000E+00 -0.18157559451E+04  0.18157559451E+04  0.50400001928E-02 0.  1.
    10030    2    1    2    0    0  0.00000000000E+00  0.00000000000E+00 -0.17813526076E+04  0.18501592830E+04  0.49987224369E+03 0.  0.
        1    1    3    3  502    0  0.19584542884E+03 -0.12466453591E+03 -0.54800665844E+03  0.59515374167E+03  0.50400001928E-02 0. -1.
       -1    1    3    3    0  502 -0.19584542884E+03  0.12466453591E+03 -0.12333459491E+04  0.12550055413E+04  0.50400001928E-02 0.  1.
</event>
<event>
 5   0  0.5118882E-03  0.4999069E+03  0.7818609E-02  0.1013803E+00
        2   -1    0    0  501    0  0.00000000000E+00  0.00000000000E+00  0.96022936890E+03  0.96022936890E+03  0.25500000920E-02 0. -1.
       -2   -1    0    0    0  501  0.00000000000E+00  0.00000000000E+00 -0.65064372244E+02  0.65064372294E+02  0.25500000920E-02 0.  1.
    10030    2    1    2    0    0  0.00000000000E+00  0.00000000000E+00  0.89516499666E+03  0.10252937412E+04  0.49990687583E+03 0.  0.
        3    1    3    3  502    0  0.98314650452E+02  0.19854566213E+03  0.68491574144E+03  0.71985813430E+03  0.10100000352E+00 0.  1.
       -3    1    3    3    0  502 -0.98314650452E+02 -0.19854566213E+03  0.21024925522E+03  0.30543560690E+03  0.10100000352E+00 0. -1.
</event>
<event>
 5   0  0.3013734E-03  0.4990855E+03  0.7818609E-02  0.1014018E+00
        1   -1    0    0  501    0  0.00000000000E+00  0.00000000000E+00  0.42825587992E+03  0.42825587995E+03  0.50400001928E-02 0. -1.
       -1   -1    0    0    0  501  0.00000000000E+00  0.00000000000E+00 -0.14540743581E+03  0.14540743590E+03  0.50400001928E-02 0.  1.
    10030    2    1    2    0    0  0.00000000000E+00  0.00000000000E+00  0.28284844411E+03  0.57366331585E+03  0.49908552135E+03 0.  0.
        2    1    3    3  502    0  0.24613548716E+03 -0.41093724922E+02  0.14195982193E+03  0.28709573894E+03  0.25500000920E-02 0. -1.
       -2    1    3    3    0  502 -0.24613548716E+03  0.41093724922E+02  0.14088862218E+03  0.28656757691E+03  0.25500000920E-02 0.  1.
</event>
<event>
 5   0  0.2005125E-03  0.4997180E+03  0.7818609E-02  0.1013853E+00
       -3   -1    0    0    0  501  0.00000000000E+00  0.00000000000E+00  0.69568923518E+02  0.69568996834E+02  0.10100000352E+00 0.  1.
        3   -1    0    0  501    0  0.00000000000E+00  0.00000000000E+00 -0.89737607110E+03  0.89737607678E+03  0.10100000352E+00 0. -1.
    10030    2    1    2    0    0  0.00000000000E+00  0.00000000000E+00 -0.82780714758E+03  0.96694507362E+03  0.49971802230E+03 0.  0.
        5    1    3    3  502    0  0.12509905360E+03 -0.21606085310E+03 -0.43070228840E+03  0.49785401142E+03  0.46999998093E+01 0. -1.
       -5    1    3    3    0  502 -0.12509905360E+03  0.21606085310E+03 -0.39710485918E+03  0.46909106220E+03  0.46999998093E+01 0.  1.
</event>
<event>
 5   0  0.4978779E-03  0.4996984E+03  0.7818609E-02  0.1013858E+00
       -2   -1    0    0    0  501  0.00000000000E+00  0.00000000000E+00  0.10329434967E+03  0.10329434970E+03  0.25500000920E-02 0. -1.
        2   -1    0    0  501    0  0.00000000000E+00  0.00000000000E+00 -0.60433723493E+03  0.60433723494E+03  0.25500000920E-02 0.  1.
    10030    2    1    2    0    0  0.00000000000E+00  0.00000000000E+00 -0.50104288526E+03  0.70763158464E+03  0.49969839574E+03 0.  0.
        1    1    3    3  502    0 -0.10783656431E+03 -0.13889842616E+03 -0.50186980909E+03  0.53178454537E+03  0.50400001928E-02 0.  1.
       -1    1    3    3    0  502  0.10783656431E+03  0.13889842616E+03  0.82692383254E+00  0.17584703927E+03  0.50400001928E-02 0. -1.
</event>
<event>
 5   0  0.3013734E-03  0.5000319E+03  0.7818609E-02  0.1013771E+00
        1   -1    0    0  501    0  0.00000000000E+00  0.00000000000E+00  0.64889355030E+03  0.64889355032E+03  0.50400001928E-02 0.  1.
       -1   -1    0    0    0  501  0.00000000000E+00  0.00000000000E+00 -0.96330091178E+02  0.96330091310E+02  0.50400001928E-02 0. -1.
    10030    2    1    2    0    0  0.00000000000E+00  0.00000000000E+00  0.55256345913E+03  0.74522364163E+03  0.50003189867E+03 0.  0.
        2    1    3    3  502    0 -0.36533772092E+02 -0.67597374044E+02 -0.78296373838E+02  0.10970161186E+03  0.25500000920E-02 0. -1.
       -2    1    3    3    0  502  0.36533772092E+02  0.67597374044E+02  0.63085983296E+03  0.63552202978E+03  0.25500000920E-02 0.  1.
</event>
<event>
 5   0  0.3055293E-03  0.4998984E+03  0.7818609E-02  0.1013805E+00
        1   -1    0    0  501    0  0.00000000000E+00  0.00000000000E+00  0.47991453416E+03  0.47991453418E+03  0.50400001928E-02 0. -1.
       -1   -1    0    0    0  501  0.00000000000E+00  0.00000000000E+00 -0.13017858376E+03  0.13017858386E+03  0.50400001928E-02 0.  1.
    10030    2    1    2    0    0  0.00000000000E+00  0.00000000000E+00  0.34973595040E+03  0.61009311805E+03  0.49989836736E+03 0.  0.
        3    1    3    3  502    0  0.54234774365E+02  0.68860817407E+02 -0.11080585197E+03  0.14128400460E+03  0.10100000352E+00 0.  1.
       -3    1    3    3    0  502 -0.54234774365E+02 -0.68860817407E+02  0.46054180236E+03  0.46880911345E+03  0.10100000352E+00 0. -1.
</event>
<event>
 5   0  0.4978779E-03  0.4999397E+03  0.7818609E-02  0.1013795E+00
       -2   -1    0    0    0  501  0.00000000000E+00  0.00000000000E+00  0.56844828769E+02  0.56844828826E+02  0.25500000920E-02 0.  1.
        2   -1    0    0  501    0  0.00000000000E+00  0.00000000000E+00 -0.10992192044E+04  0.10992192044E+04  0.25500000920E-02 0. -1.
    10030    2    1    2    0    0  0.00000000000E+00  0.00000000000E+00 -0.10423743757E+04  0.11560640333E+04  0.49993970632E+03 0.  0.
        1    1    3    3  502    0 -0.14760827542E+03 -0.14774461902E+02 -0.55948158086E+02  0.15854552694E+03  0.50400001928E-02 0.  1.
       -1    1    3    3    0  502  0.14760827542E+03  0.14774461902E+02 -0.98642621757E+03  0.99751850631E+03  0.50400001928E-02 0. -1.
</event>
<event>
 5   0  0.3211775E-03  0.5003787E+03  0.7818609E-02  0.1013680E+00
        1   -1    0    0  501    0  0.00000000000E+00  0.00000000000E+00  0.28384163119E+03  0.28384163123E+03  0.50400001928E-02 0.  1.
       -1   -1    0    0    0  501  0.00000000000E+00  0.00000000000E+00 -0.22052692010E+03  0.22052692016E+03  0.50400001928E-02 0. -1.
    10030    2    1    2    0    0  0.00000000000E+00  0.00000000000E+00  0.63314711086E+02  0.50436855139E+03  0.50037873955E+03 0.  0.
        4    1    3    3  502    0  0.35520415140E+02 -0.20773263142E+03 -0.10424560296E+03  0.23512401980E+03  0.12699999809E+01 0. -1.
       -4    1    3    3    0  502 -0.35520415140E+02  0.20773263142E+03  0.16756031404E+03  0.26924453159E+03  0.12699999809E+01 0.  1.
</event>
<event>
 5   0  0.4989875E-03  0.4998461E+03  0.7818609E-02  0.1013819E+00
       -2   -1    0    0    0  501  0.00000000000E+00  0.00000000000E+00  0.50988765823E+02  0.50988765887E+02  0.25500000920E-02 0. -1.
        2   -1    0    0  501    0  0.00000000000E+00  0.00000000000E+00 -0.12250058811E+04  0.12250058811E+04  0.25500000920E-02 0.  1.
    10030    2    1    2    0    0  0.00000000000E+00  0.00000000000E+00 -0.11740171152E+04  0.12759946470E+04  0.49984612850E+03 0.  0.
        2    1    3    3  502    0 -0.20419256448E+03  0.13815544826E+03 -0.69164140283E+03  0.73426790846E+03  0.25500000920E-02 0.  1.
       -2    1    3    3    0  502  0.20419256448E+03 -0.13815544826E+03 -0.48237571241E+03  0.54172673850E+03  0.25500000920E-02 0. -1.
</event>
<event>
 5   0  0.3055293E-03  0.4995338E+03  0.7818609E-02  0.1013901E+00
        1   -1    0    0  501    0  0.00000000000E+00  0.00000000000E+00  0.59194731014E+03  0.59194731017E+03  0.50400001928E-02 0.  1.
       -1   -1    0    0    0  501  0.00000000000E+00  0.00000000000E+00 -0.10538692816E+03  0.10538692828E+03  0.50400001928E-02 0. -1.
    10030    2    1    2    0    0  0.00000000000E+00  0.00000000000E+00  0.48656038198E+03  0.69733423845E+03  0.49953381747E+03 0.  0.
        3    1    3    3  502    0 -0.54004808821E+02 -0.79851090706E+01  0.58351682858E+03  0.58606499706E+03  0.10100000352E+00 0.  1.
       -3    1    3    3    0  502  0.54004808821E+02  0.79851090706E+01 -0.96956446595E+02  0.11126924139E+03  0.10100000352E+00 0. -1.
</event>
<event>
 5   0  0.5118882E-03  0.5001919E+03  0.7818609E-02  0.1013729E+00
        2   -1    0    0  501    0  0.00000000000E+00  0.00000000000E+00  0.18422663224E+04  0.18422663224E+04  0.25500000920E-02 0. -1.
       -2   -1    0    0    0  501  0.00000000000E+00  0.00000000000E+00 -0.33951646090E+02  0.33951646185E+02  0.25500000920E-02 0.  1.
    10030    2    1    2    0    0  0.00000000000E+00  0.00000000000E+00  0.18083146763E+04  0.18762179686E+04  0.50019186027E+03 0.  0.
        3    1    3    3  502    0  0.10533618980E+03 -0.21078024259E+03  0.58979024201E+03  0.63511932999E+03  0.10100000352E+00 0.  1.
       -3    1    3    3    0  502 -0.10533618980E+03  0.21078024259E+03  0.12185244343E+04  0.12410986386E+04  0.10100000352E+00 0. -1.
</event>
<event>
 5   0  0.3013734E-03  0.5000980E+03  0.7818609E-02  0.1013753E+00
        1   -1    0    0  501    0  0.00000000000E+00  0.00000000000E+00  0.11077408114E+04  0.11077408114E+04  0.50400001928E-02 0.  1.
       -1   -1    0    0    0  501  0.00000000000E+00  0.00000000000E+00 -0.56443255414E+02  0.56443255639E+02  0.50400001928E-02 0. -1.
    10030    2    1    2    0    0  0.00000000000E+00  0.00000000000E+00  0.10512975560E+04  0.11641840670E+04  0.50009798115E+03 0.  0.
        2    1    3    3  502    0  0.70990974009E+02  0.16708196650E+03  0.12535353312E+03  0.22061189948E+03  0.25500000920E-02 0. -1.
       -2    1    3    3    0  502 -0.70990974009E+02 -0.16708196650E+03  0.92594402283E+03  0.94357216753E+03  0.25500000920E-02 0.  1.
</event>
<event>
 5   0  0.4989875E-03  0.4997398E+03  0.7818609E-02  0.1013847E+00
        2   -1    0    0  501    0  0.00000000000E+00  0.00000000000E+00  0.73645299688E+03  0.73645299688E+03  0.25500000920E-02 0.  1.
       -2   -1    0    0    0  501  0.00000000000E+00  0.00000000000E+00 -0.84777928796E+02  0.84777928834E+02  0.25500000920E-02 0. -1.
    10030    2    1    2    0    0  0.00000000000E+00  0.00000000000E+00  0.65167506808E+03  0.82123092572E+03  0.49973977127E+03 0.  0.
        2    1    3    3  502    0  0.27492211442E+02  0.24109702240E+03  0.22790680982E+03  0.33290405505E+03  0.25500000920E-02 0. -1.
       -2    1    3    3    0  502 -0.27492211442E+02 -0.24109702240E+03  0.42376825826E+03  0.48832687067E+03  0.25500000920E-02 0.  1.
</event>
<event>
 5   0  0.4978779E-03  0.5001408E+03  0.7818609E-02  0.1013742E+00
        2   -1    0    0  501    0  0.00000000000E+00  0.00000000000E+00  0.75571832596E+03  0.75571832597E+03  0.25500000920E-02 0.  1.
       -2   -1    0    0    0  501  0.00000000000E+00  0.00000000000E+00 -0.82749358603E+02  0.82749358642E+02  0.25500000920E-02 0. -1.
    10030    2    1    2    0    0  0.00000000000E+00  0.00000000000E+00  0.67296896736E+03  0.83846768461E+03  0.50014080728E+03 0.  0.
        1    1    3    3  502    0 -0.61135316789E+02  0.13562714232E+03 -0.49279573368E+00  0.14876992829E+03  0.50400001928E-02 0. -1.
       -1    1    3    3    0  502  0.61135316789E+02 -0.13562714232E+03  0.67346176310E+03  0.68969775632E+03  0.50400001928E-02 0.  1.
</event>
<event>
 5   0  0.2863538E-03  0.5001573E+03  0.7818609E-02  0.1013738E+00
       -1   -1    0    0    0  501  0.00000000000E+00  0.00000000000E+00  0.12567294767E+03  0.12567294777E+03  0.50400001928E-02 0.  1.
        1   -1    0    0  501    0  0.00000000000E+00  0.00000000000E+00 -0.49763559888E+03  0.49763559891E+03  0.50400001928E-02 0. -1.
    10030    2    1    2    0    0  0.00000000000E+00  0.00000000000E+00 -0.37196265121E+03  0.62330854668E+03  0.50015730573E+03 0.  0.
        1    1    3    3  502    0 -0.10765789662E+03  0.20096007040E+03 -0.31407094937E+03  0.38809242953E+03  0.50400001928E-02 0. -1.
       -1    1    3    3    0  502  0.10765789662E+03 -0.20096007040E+03 -0.57891701842E+02  0.23521611715E+03  0.50400001928E-02 0.  1.
</event>
<event>
 5   0  0.3013734E-03  0.4997788E+03  0.7818609E-02  0.1013837E+00
       -1   -1    0    0    0  501  0.00000000000E+00  0.00000000000E+00  0.25187458742E+03  0.25187458747E+03  0.50400001928E-02 0.  1.
        1   -1    0    0  501    0  0.00000000000E+00  0.00000000000E+00 -0.24791988777E+03  0.24791988782E+03  0.50400001928E-02 0. -1.
    10030    2    1    2    0    0  0.00000000000E+00  0.00000000000E+00  0.39546996517E+01  0.49979447529E+03  0.49977882896E+03 0.  0.
        2    1    3    3  502    0  0.18919480388E+03  0.45091383000E+02 -0.15492502167E+03  0.24865572381E+03  0.25500000920E-02 0. -1.
       -2    1    3    3    0  502 -0.18919480388E+03 -0.45091383000E+02  0.15887972133E+03  0.25113875148E+03  0.25500000920E-02 0.  1.
</event>
<event>
 5   0  0.4989875E-03  0.4999468E+03  0.7818609E-02  0.1013793E+00
        2   -1    0    0  501    0  0.00000000000E+00  0.00000000000E+00  0.49654225174E+03  0.49654225175E+03  0.25500000920E-02 0.  1.
       -2   -1    0    0    0  501  0.00000000000E+00  0.00000000000E+00 -0.12584365372E+03  0.12584365374E+03  0.25500000920E-02 0. -1.
    10030    2    1    2    0    0  0.00000000000E+00  0.00000000000E+00  0.37069859802E+03  0.62238590549E+03  0.49994676195E+03 0.  0.
        2    1    3    3  502    0 -0.13277829518E+03  0.15278727247E+03  0.27567315904E+01  0.20243919056E+03  0.25500000920E-02 0. -1.
       -2    1    3    3    0  502  0.13277829518E+03 -0.15278727247E+03  0.36794186643E+03  0.41994671493E+03  0.25500000920E-02 0.  1.
</event>
<event>
 5   0  0.5095783E-03  0.4999187E+03  0.7818609E-02  0.1013800E+00
        2   -1    0    0  501    0  0.00000000000E+00  0.00000000000E+00  0.59405934239E+03  0.59405934240E+03  0.25500000920E-02 0. -1.
       -2   -1    0    0    0  501  0.00000000000E+00  0.00000000000E+00 -0.10517411368E+03  0.10517411371E+03  0.25500000920E-02 0.  1.
    10030    2    1    2    0    0  0.00000000000E+00  0.00000000000E+00  0.48888522871E+03  0.69923345611E+03  0.49991865267E+03 0.  0.
        4    1    3    3  502    0  0.23924605924E+03 -0.66800495334E+02  0.28343255891E+03  0.37687744877E+03  0.12699999809E+01 0. -1.
       -4    1    3    3    0  502 -0.23924605924E+03  0.66800495334E+02  0.20545266981E+03  0.32235600734E+03  0.12699999809E+01 0.  1.
</event>
<event>
 5   0  0.5118882E-03  0.5000615E+03  0.7818609E-02  0.1013763E+00
        2   -1    0    0  501    0  0.00000000000E+00  0.00000000000E+00  0.99217533507E+03  0.99217533507E+03  0.25500000920E-02 0.  1.
       -2   -1    0    0    0  501  0.00000000000E+00  0.00000000000E+00 -0.63008406473E+02  0.63008406524E+02  0.25500000920E-02 0. -1.
    10030    2    1    2    0    0  0.00000000000E+00  0.00000000000E+00  0.92916692860E+03  0.10551837416E+04  0.50006154355E+03 0.  0.
        3    1    3    3  502    0 -0.80249163181E+02 -0.12525822002E+02 -0.34395908930E+02  0.88203816019E+02  0.10100000352E+00 0. -1.
       -3    1    3    3    0  502  0.80249163181E+02  0.12525822002E+02  0.96356283753E+03  0.96697992558E+03  0.10100000352E+00 0.  1.
</event>
<event>
 5   0  0.4889251E-03  0.5003561E+03  0.7818609E-02  0.1013686E+00
        2   -1    0    0  501    0  0.00000000000E+00  0.00000000000E+00  0.68646903983E+03  0.68646903984E+03  0.25500000920E-02 0.  1.
       -2   -1    0    0    0  501  0.00000000000E+00  0.00000000000E+00 -0.91175349048E+02  0.91175349083E+02  0.25500000920E-02 0. -1.
    10030    2    1    2    0    0  0.00000000000E+00  0.00000000000E+00  0.59529369079E+03  0.77764438892E+03  0.50035609053E+03 0.  0.
        5    1    3    3  502    0 -0.22344156187E+01 -0.14414714264E+03 -0.20043955441E+02  0.14562706305E+03  0.46999998093E+01 0. -1.
       -5    1    3    3    0  502  0.22344156187E+01  0.14414714264E+03  0.61533764623E+03  0.63201732587E+03  0.46999998093E+01 0.  1.
</event>
<event>
 5   0  0.3211775E-03  0.4999775E+03  0.7818609E-02  0.1013785E+00
        1   -1    0    0  501    0  0.00000000000E+00  0.00000000000E+00  0.29160950488E+04  0.29160950488E+04  0.50400001928E-02 0.  1.
       -1   -1    0    0    0  501  0.00000000000E+00  0.00000000000E+00 -0.21430838683E+02  0.21430839276E+02  0.50400001928E-02 0. -1.
    10030    2    1    2    0    0  0.00000000000E+00  0.00000000000E+00  0.28946642101E+04  0.29375258881E+04  0.49997745330E+03 0.  0.
        4    1    3    3  502    0 -0.23225324335E+03  0.76971960130E+02  0.17484384389E+04  0.17654758110E+04  0.12699999809E+01 0. -1.
       -4    1    3    3    0  502  0.23225324335E+03 -0.76971960130E+02  0.11462257712E+04  0.11720500771E+04  0.12699999809E+01 0.  1.
</event>
<event>
 5   0  0.3055293E-03  0.4999620E+03  0.7818609E-02  0.1013789E+00
       -1   -1    0    0    0  501  0.00000000000E+00  0.00000000000E+00  0.66794836625E+03  0.66794836626E+03  0.50400001928E-02 0.  1.
        1   -1    0    0  501    0  0.00000000000E+00  0.00000000000E+00 -0.93555894520E+02  0.93555894656E+02  0.50400001928E-02 0. -1.
    10030    2    1    2    0    0  0.00000000000E+00  0.00000000000E+00  0.57439247173E+03  0.76150426092E+03  0.49996202638E+03 0.  0.
        3    1    3    3  502    0  0.24042454569E+03 -0.60649710276E+02  0.33555746146E+03  0.41723035564E+03  0.10100000352E+00 0.  1.
       -3    1    3    3    0  502 -0.24042454569E+03  0.60649710276E+02  0.23883501027E+03  0.34427390528E+03  0.10100000352E+00 0. -1.
</event>
<event>
 5   0  0.3211775E-03  0.5005523E+03  0.7818609E-02  0.1013635E+00
        1   -1    0    0  501    0  0.00000000000E+00  0.00000000000E+00  0.42429908965E+03  0.42429908968E+03  0.50400001928E-02 0. -1.
       -1   -1    0    0    0  501  0.00000000000E+00  0.00000000000E+00 -0.14762732943E+03  0.14762732952E+03  0.50400001928E-02 0.  1.
    10030    2    1    2    0    0  0.00000000000E+00  0.00000000000E+00  0.27667176022E+03  0.57192641920E+03  0.50055226109E+03 0.  0.
        4    1    3    3  502    0  0.13304824162E+03 -0.22187408024E+02  0.37920967021E+03  0.40248689737E+03  0.12699999809E+01 0. -1.
       -4    1    3    3    0  502 -0.13304824162E+03  0.22187408024E+02 -0.10253790999E+03  0.16943952183E+03  0.12699999809E+01 0.  1.
</event>
<event>
 5   0  0.5095783E-03  0.5000605E+03  0.7818609E-02  0.1013763E+00
        2   -1    0    0  501    0  0.00000000000E+00  0.00000000000E+00  0.40715330399E+03  0.40715330400E+03  0.25500000920E-02 0. -1.
       -2   -1    0    0    0  501  0.00000000000E+00  0.00000000000E+00 -0.15354201208E+03  0.15354201210E+03  0.25500000920E-02 0.  1.
    10030    2    1    2    0    0  0.00000000000E+00  0.00000000000E+00  0.25361129191E+03  0.56069531610E+03  0.50006054644E+03 0.  0.
        4    1    3    3  502    0 -0.19969095686E+03 -0.14385310875E+03  0.17623416018E+03  0.30270495084E+03  0.12699999809E+01 0.  1.
       -4    1    3    3    0  502  0.19969095686E+03  0.14385310875E+03  0.77377131737E+02  0.25799036526E+03  0.12699999809E+01 0. -1.
</event>
<event>
 5   0  0.5095783E-03  0.4996404E+03  0.7818609E-02  0.1013873E+00
        2   -1    0    0  501    0  0.00000000000E+00  0.00000000000E+00  0.43792387564E+03  0.43792387564E+03  0.25500000920E-02 0.  1.
       -2   -1    0    0    0  501  0.00000000000E+00  0.00000000000E+00 -0.14251364328E+03  0.14251364330E+03  0.25500000920E-02 0. -1.
    10030    2    1    2    0    0  0.00000000000E+00  0.00000000000E+00  0.29541023236E+03  0.58043751894E+03  0.49964037869E+03 0.  0.
        4    1    3    3  502    0 -0.31130577953E+02 -0.22123271636E+03  0.27756485704E+03  0.35631010431E+03  0.12699999809E+01 0.  1.
       -4    1    3    3    0  502  0.31130577953E+02  0.22123271636E+03  0.17845375324E+02  0.22412741464E+03  0.12699999809E+01 0. -1.
</event>
<event>
 5   0  0.3057783E-03  0.5000453E+03  0.7818609E-02  0.1013767E+00
        1   -1    0    0  501    0  0.00000000000E+00  0.00000000000E+00  0.97231200613E+03  0.97231200615E+03  0.50400001928E-02 0. -1.
       -1   -1    0    0    0  501  0.00000000000E+00  0.00000000000E+00 -0.64291415078E+02  0.64291415276E+02  0.50400001928E-02 0.  1.
    10030    2    1    2    0    0  0.00000000000E+00  0.00000000000E+00  0.90802059105E+03  0.10366034214E+04  0.50004525748E+03 0.  0.
        5    1    3    3  502    0 -0.84664467680E+02  0.32550627781E+02 -0.28881315504E+02  0.95309159266E+02  0.46999998093E+01 0.  1.
       -5    1    3    3    0  502  0.84664467680E+02 -0.32550627781E+02  0.93690190656E+03  0.94129426216E+03  0.46999998093E+01 0. -1.
</event>
<event>
 5   0  0.4989875E-03  0.4998958E+03  0.7818609E-02  0.1013806E+00
        2   -1    0    0  501    0  0.00000000000E+00  0.00000000000E+00  0.13058817703E+03  0.13058817706E+03  0.25500000920E-02 0.  1.
       -2   -1    0    0    0  501  0.00000000000E+00  0.00000000000E+00 -0.47840430466E+03  0.47840430467E+03  0.25500000920E-02 0. -1.
    10030    2    1    2    0    0  0.00000000000E+00  0.00000000000E+00 -0.34781612763E+03  0.60899248172E+03  0.49989577330E+03 0.  0.
        2    1    3    3  502    0 -0.79484303082E+02  0.21738233395E+03 -0.28884367537E+03  0.37013984162E+03  0.25500000920E-02 0. -1.
       -2    1    3    3    0  502  0.79484303082E+02 -0.21738233395E+03 -0.58972452260E+02  0.23885264010E+03  0.25500000920E-02 0.  1.
</event>
<event>
 5   0  0.3013734E-03  0.4999858E+03  0.7818609E-02  0.1013783E+00
        1   -1    0    0  501    0  0.00000000000E+00  0.00000000000E+00  0.56151110719E+03  0.56151110722E+03  0.50400001928E-02 0. -1.
       -1   -1    0    0    0  501  0.00000000000E+00  0.00000000000E+00 -0.11130048103E+03  0.11130048114E+03  0.50400001928E-02 0.  1.
    10030    2    1    2    0    0  0.00000000000E+00  0.00000000000E+00  0.45021062617E+03  0.67281158836E+03  0.49998582531E+03 0.  0.
        2    1    3    3  502    0  0.12888254319E+03  0.12539371289E+03 -0.85991539602E+01  0.18002288362E+03  0.25500000920E-02 0.  1.
       -2    1    3    3    0  502 -0.12888254319E+03 -0.12539371289E+03  0.45880978013E+03  0.49278870474E+03  0.25500000920E-02 0. -1.
</event>
<event>
 5   0  0.3055293E-03  0.4999367E+03  0.7818609E-02  0.1013795E+00
        1   -1    0    0  501    0  0.00000000000E+00  0.00000000000E+00  0.12297267072E+03  0.12297267083E+03  0.50400001928E-02 0. -1.
       -1   -1    0    0    0  501  0.00000000000E+00  0.00000000000E+00 -0.50811434795E+03  0.50811434798E+03  0.50400001928E-02 0.  1.
    10030    2    1    2    0    0  0.00000000000E+00  0.00000000000E+00 -0.38514167723E+03  0.63108701880E+03  0.49993670976E+03 0.  0.
        3    1    3    3  502    0 -0.92326752805E+02 -0.20499622792E+03 -0.54655536016E+02  0.23137614519E+03  0.10100000352E+00 0. -1.
       -3    1    3    3    0  502  0.92326752805E+02  0.20499622792E+03 -0.33048614121E+03  0.39971087361E+03  0.10100000352E+00 0.  1.
</event>
<event>
 5   0  0.4889251E-03  0.5001943E+03  0.7818609E-02  0.1013728E+00
       -2   -1    0    0    0  501  0.00000000000E+00  0.00000000000E+00  0.10716181281E+03  0.10716181284E+03  0.25500000920E-02 0. -1.
        2   -1    0    0  501    0  0.00000000000E+00  0.00000000000E+00 -0.58368343334E+03  0.58368343334E+03  0.25500000920E-02 0.  1.
    10030    2    1    2    0    0  0.00000000000E+00  0.00000000000E+00 -0.47652162053E+03  0.69084524618E+03  0.50019426160E+03 0.  0.
        5    1    3    3  502    0 -0.66766358283E+02 -0.89475149235E+02 -0.54729051426E+03  0.55858083204E+03  0.46999998093E+01 0.  1.
       -5    1    3    3    0  502  0.66766358283E+02  0.89475149235E+02  0.70768893730E+02  0.13226441414E+03  0.46999998093E+01 0. -1.
</event>
<event>
 5   0  0.4978779E-03  0.4994899E+03  0.7818609E-02  0.1013912E+00
       -2   -1    0    0    0  501  0.00000000000E+00  0.00000000000E+00  0.13168474150E+03  0.13168474152E+03  0.25500000920E-02 0. -1.
        2   -1    0    0  501    0  0.00000000000E+00  0.00000000000E+00 -0.47365045976E+03  0.47365045977E+03  0.25500000920E-02 0.  1.
    10030    2    1    2    0    0  0.00000000000E+00  0.00000000000E+00 -0.34196571827E+03  0.60533520129E+03  0.49948989325E+03 0.  0.
        1    1    3    3  502    0  0.46763707535E+02 -0.85828924109E+02 -0.44950817856E+03  0.46001201199E+03  0.50400001928E-02 0.  1.
       -1    1    3    3    0  502 -0.46763707535E+02  0.85828924109E+02  0.10754246030E+03  0.14532318930E+03  0.50400001928E-02 0. -1.
</event>
<event>
 5   0  0.3211775E-03  0.5000503E+03  0.7818609E-02  0.1013766E+00
       -1   -1    0    0    0  501  0.00000000000E+00  0.00000000000E+00  0.12230783328E+03  0.12230783338E+03  0.50400001928E-02 0.  1.
        1   -1    0    0  501    0  0.00000000000E+00  0.00000000000E+00 -0.51110859897E+03  0.51110859900E+03  0.50400001928E-02 0. -1.
    10030    2    1    2    0    0  0.00000000000E+00  0.00000000000E+00 -0.38880076569E+03  0.63341643238E+03  0.50005033887E+03 0.  0.
        4    1    3    3  502    0 -0.59740988303E+02  0.15613048770E+03  0.41102104646E+02  0.17215316082E+03  0.12699999809E+01 0.  1.
       -4    1    3    3    0  502  0.59740988303E+02 -0.15613048770E+03 -0.42990287034E+03  0.46126327156E+03  0.12699999809E+01 0. -1.
</event>
<event>
 5   0  0.3211775E-03  0.5002904E+03  0.7818609E-02  0.1013703E+00
       -1   -1    0    0    0  501  0.00000000000E+00  0.00000000000E+00  0.36691351542E+03  0.36691351546E+03  0.50400001928E-02 0. -1.
        1   -1    0    0  501    0  0.00000000000E+00  0.00000000000E+00 -0.17053778634E+03  0.17053778641E+03  0.50400001928E-02 0.  1.
    10030    2    1    2    0    0  0.00000000000E+00  0.00000000000E+00  0.19637572908E+03  0.53745130187E+03  0.50029039058E+03 0.  0.
        4    1    3    3  502    0 -0.89729318799E+02 -0.23125875794E+03  0.13281635184E+03  0.28137832182E+03  0.12699999809E+01 0. -1.
       -4    1    3    3    0  502  0.89729318799E+02  0.23125875794E+03  0.63559377245E+02  0.25607298005E+03  0.12699999809E+01 0.  1.
</event>
<event>
 5   0  0.3055293E-03  0.5000303E+03  0.7818609E-02  0.1013771E+00
       -1   -1    0    0    0  501  0.00000000000E+00  0.00000000000E+00  0.99580992899E+02  0.99580993026E+02  0.50400001928E-02 0.  1.
        1   -1    0    0  501    0  0.00000000000E+00  0.00000000000E+00 -0.62770598364E+03  0.62770598366E+03  0.50400001928E-02 0. -1.
    10030    2    1    2    0    0  0.00000000000E+00  0.00000000000E+00 -0.52812499075E+03  0.72728697669E+03  0.50003033969E+03 0.  0.
        3    1    3    3  502    0  0.21472135537E+03  0.19686306578E+02 -0.44812686335E+03  0.49730323443E+03  0.10100000352E+00 0. -1.
       -3    1    3    3    0  502 -0.21472135537E+03 -0.19686306578E+02 -0.79998127396E+02  0.22998374226E+03  0.10100000352E+00 0.  1.
</event>
<event>
 5   0  0.5095783E-03  0.4998639E+03  0.7818609E-02  0.1013814E+00
        2   -1    0    0  501    0  0.00000000000E+00  0.00000000000E+00  0.13441709419E+03  0.13441709422E+03  0.25500000920E-02 0. -1.
       -2   -1    0    0    0  501  0.00000000000E+00  0.00000000000E+00 -0.46471761098E+03  0.46471761099E+03  0.25500000920E-02 0.  1.
    10030    2    1    2    0    0  0.00000000000E+00  0.00000000000E+00 -0.33030051679E+03  0.59913470521E+03  0.49986394508E+03 0.  0.
        4    1    3    3  502    0 -0.72747849405E+01 -0.24868598891E+03 -0.13661627131E+03  0.28383668202E+03  0.12699999809E+01 0. -1.
       -4    1    3    3    0  502  0.72747849405E+01  0.24868598891E+03 -0.19368424548E+03  0.31529802318E+03  0.12699999809E+01 0.  1.
</event>
<event>
 5   0  0.3057783E-03  0.4999171E+03  0.7818609E-02  0.1013801E+00
       -1   -1    0    0    0  501  0.00000000000E+00  0.00000000000E+00  0.75496297690E+02  0.75496297858E+02  0.50400001928E-02 0.  1.
        1   -1    0    0  501    0  0.00000000000E+00  0.00000000000E+00 -0.82758067882E+03  0.82758067884E+03  0.50400001928E-02 0. -1.
    10030    2    1    2    0    0  0.00000000000E+00  0.00000000000E+00 -0.75208438113E+03  0.90307697670E+03  0.49991710262E+03 0.  0.
        5    1    3    3  502    0  0.13269534127E+03 -0.14989848045E+03 -0.10580025969E+03  0.22648044725E+03  0.46999998093E+01 0.  1.
       -5    1    3    3    0  502 -0.13269534127E+03  0.14989848045E+03 -0.64628412144E+03  0.67659652945E+03  0.46999998093E+01 0. -1.
</event>
<event>
 5   0  0.5118882E-03  0.5007194E+03  0.7818609E-02  0.1013591E+00
       -2   -1    0    0    0  501  0.00000000000E+00  0.00000000000E+00  0.86531962300E+02  0.86531962337E+02  0.25500000920E-02 0. -1.
        2   -1    0    0  501    0  0.00000000000E+00  0.00000000000E+00 -0.72435635948E+03  0.72435635949E+03  0.25500000920E-02 0.  1.
    10030    2    1    2    0    0  0.00000000000E+00  0.00000000000E+00 -0.63782439718E+03  0.81088832182E+03  0.50071939130E+03 0.  0.
        3    1    3    3  502    0 -0.24619483989E+03 -0.21774740366E+02 -0.38356704033E+03  0.45630003631E+03  0.10100000352E+00 0.  1.
       -3    1    3    3    0  502  0.24619483989E+03  0.21774740366E+02 -0.25425735685E+03  0.35458828551E+03  0.10100000352E+00 0. -1.
</event>
<event>
 5   0  0.5118882E-03  0.5004941E+03  0.7818609E-02  0.1013650E+00
       -2   -1    0    0    0  501  0.00000000000E+00  0.00000000000E+00  0.13763247368E+03  0.13763247370E+03  0.25500000920E-02 0. -1.
        2   -1    0    0  501    0  0.00000000000E+00  0.00000000000E+00 -0.45500587986E+03  0.45500587986E+03  0.25500000920E-02 0.  1.
    10030    2    1    2    0    0  0.00000000000E+00  0.00000000000E+00 -0.31737340618E+03  0.59263835357E+03  0.50049409504E+03 0.  0.
        3    1    3    3  502    0  0.15323636522E+03  0.11989121682E+03 -0.34504073039E+03  0.39611665368E+03  0.10100000352E+00 0.  1.
       -3    1    3    3    0  502 -0.15323636522E+03 -0.11989121682E+03  0.27667324214E+02  0.19652169988E+03  0.10100000352E+00 0. -1.
</event>
<event>
 5   0  0.3057783E-03  0.5006035E+03  0.7818609E-02  0.1013622E+00
       -1   -1    0    0    0  501  0.00000000000E+00  0.00000000000E+00  0.55184197002E+03  0.55184197004E+03  0.50400001928E-02 0.  1.
        1   -1    0    0  501    0  0.00000000000E+00  0.00000000000E+00 -0.11353063676E+03  0.11353063687E+03  0.50400001928E-02 0. -1.
    10030    2    1    2    0    0  0.00000000000E+00  0.00000000000E+00  0.43831133326E+03  0.66537260691E+03  0.50060351693E+03 0.  0.
        5    1    3    3  502    0  0.21653371530E+03  0.12472084746E+03  0.23731878622E+03  0.34465118010E+03  0.46999998093E+01 0.  1.
       -5    1    3    3    0  502 -0.21653371530E+03 -0.12472084746E+03  0.20099254704E+03  0.32072142681E+03  0.46999998093E+01 0. -1.
</event>
<event>
 5   0  0.2005125E-03  0.4995139E+03  0.7818609E-02  0.1013906E+00
       -3   -1    0    0    0  501  0.00000000000E+00  0.00000000000E+00  0.98382112527E+03  0.98382113045E+03  0.10100000352E+00 0.  1.
        3   -1    0    0  501    0  0.00000000000E+00  0.00000000000E+00 -0.63404305013E+02  0.63404385457E+02  0.10100000352E+00 0. -1.
    10030    2    1    2    0    0  0.00000000000E+00  0.00000000000E+00  0.92041682025E+03  0.10472255159E+04  0.49951392189E+03 0.  0.
        3    1    3    3  502    0  0.87617334371E+02  0.21242255573E+03  0.66539022819E+03  0.70394907872E+03  0.10100000352E+00 0.  1.
       -3    1    3    3    0  502 -0.87617334371E+02 -0.21242255573E+03  0.25502659207E+03  0.34327643719E+03  0.10100000352E+00 0. -1.
</event>
<event>
 5   0  0.2005125E-03  0.5000035E+03  0.7818609E-02  0.1013778E+00
       -3   -1    0    0    0  501  0.00000000000E+00  0.00000000000E+00  0.35338097811E+03  0.35338099254E+03  0.10100000352E+00 0.  1.
        3   -1    0    0  501    0  0.00000000000E+00  0.00000000000E+00 -0.17686538270E+03  0.17686541153E+03  0.10100000352E+00 0. -1.
    10030    2    1    2    0    0  0.00000000000E+00  0.00000000000E+00  0.17651559541E+03  0.53024640408E+03  0.50000349360E+03 0.  0.
        1    1    3    3  502    0 -0.10945434938E+03  0.22743477541E+02 -0.14888189719E+03  0.18618093271E+03  0.50400001928E-02 0. -1.
       -1    1    3    3    0  502  0.10945434938E+03 -0.22743477541E+02  0.32539749260E+03  0.34406547137E+03  0.50400001928E-02 0.  1.
</event>
<event>
 5   0  0.3057783E-03  0.5000085E+03  0.7818609E-02  0.1013777E+00
        1   -1    0    0  501    0  0.00000000000E+00  0.00000000000E+00  0.54768688254E+03  0.54768688256E+03  0.50400001928E-02 0.  1.
       -1   -1    0    0    0  501  0.00000000000E+00  0.00000000000E+00 -0.11412017922E+03  0.11412017933E+03  0.50400001928E-02 0. -1.
    10030    2    1    2    0    0  0.00000000000E+00  0.00000000000E+00  0.43356670332E+03  0.66180706189E+03  0.50000850087E+03 0.  0.
        5    1    3    3  502    0 -0.11181944643E+03 -0.19597739839E+03  0.35914980377E+03  0.42417142858E+03  0.46999998093E+01 0.  1.
       -5    1    3    3    0  502  0.11181944643E+03  0.19597739839E+03  0.74416899547E+02  0.23763563331E+03  0.46999998093E+01 0. -1.
</event>
<event>
 5   0  0.5118882E-03  0.5000402E+03  0.7818609E-02  0.1013768E+00
       -2   -1    0    0    0  501  0.00000000000E+00  0.00000000000E+00  0.94008016820E+02  0.94008016854E+02  0.25500000920E-02 0.  1.
        2   -1    0    0  501    0  0.00000000000E+00  0.00000000000E+00 -0.66494371509E+03  0.66494371509E+03  0.25500000920E-02 0. -1.
    10030    2    1    2    0    0  0.00000000000E+00  0.00000000000E+00 -0.57093569827E+03  0.75895173195E+03  0.50004015826E+03 0.  0.
        3    1    3    3  502    0 -0.30093288658E+02  0.32347059695E+02  0.88036241200E+02  0.98500397252E+02  0.10100000352E+00 0.  1.
       -3    1    3    3    0  502  0.30093288658E+02 -0.32347059695E+02 -0.65897193947E+03  0.66045133470E+03  0.10100000352E+00 0. -1.
</event>
<event>
 5   0  0.3057783E-03  0.5004674E+03  0.7818609E-02  0.1013657E+00
       -1   -1    0    0    0  501  0.00000000000E+00  0.00000000000E+00  0.21659375444E+03  0.21659375450E+03  0.50400001928E-02 0.  1.
        1   -1    0    0  501    0  0.00000000000E+00  0.00000000000E+00 -0.28909836858E+03  0.28909836862E+03  0.50400001928E-02 0. -1.
    10030    2    1    2    0    0  0.00000000000E+00  0.00000000000E+00 -0.72504614135E+02  0.50569212312E+03  0.50046738586E+03 0.  0.
        5    1    3    3  502    0 -0.12135264396E+03  0.41024561571E+01 -0.25728588920E+03  0.28453719110E+03  0.46999998093E+01 0. -1.
       -5    1    3    3    0  502  0.12135264396E+03 -0.41024561571E+01  0.18478127506E+03  0.22115493202E+03  0.46999998093E+01 0.  1.
</event>
<event>
 5   0  0.4989875E-03  0.5000489E+03  0.7818609E-02  0.1013766E+00
        2   -1    0    0  501    0  0.00000000000E+00  0.00000000000E+00  0.10159112536E+03  0.10159112539E+03  0.25500000920E-02 0. -1.
       -2   -1    0    0    0  501  0.00000000000E+00  0.00000000000E+00 -0.61533158234E+03  0.61533158235E+03  0.25500000920E-02 0.  1.
    10030    2    1    2    0    0  0.00000000000E+00  0.00000000000E+00 -0.51374045698E+03  0.71692270773E+03  0.50004890933E+03 0.  0.
        2    1    3    3  502    0 -0.71685579368E+02 -0.17224250407E+03 -0.49551184518E+03  0.52946982088E+03  0.25500000920E-02 0.  1.
       -2    1    3    3    0  502  0.71685579368E+02  0.17224250407E+03 -0.18228611802E+02  0.18745288686E+03  0.25500000920E-02 0. -1.
</event>
<event>
 5   0  0.4978779E-03  0.4998420E+03  0.7818609E-02  0.1013820E+00
        2   -1    0    0  501    0  0.00000000000E+00  0.00000000000E+00  0.86364878452E+02  0.86364878490E+02  0.25500000920E-02 0.  1.
       -2   -1    0    0    0  501  0.00000000000E+00  0.00000000000E+00 -0.72321640141E+03  0.72321640141E+03  0.25500000920E-02 0. -1.
    10030    2    1    2    0    0  0.00000000000E+00  0.00000000000E+00 -0.63685152296E+03  0.80958127990E+03  0.49984196150E+03 0.  0.
        1    1    3    3  502    0 -0.10145874707E+03  0.36361244560E+02 -0.68364163612E+03  0.69208518560E+03  0.50400001928E-02 0. -1.
       -1    1    3    3    0  502  0.10145874707E+03 -0.36361244560E+02  0.46790113161E+02  0.11749609431E+03  0.50400001928E-02 0.  1.
</event>
<event>
 5   0  0.2863538E-03  0.5000080E+03  0.7818609E-02  0.1013777E+00
        1   -1    0    0  501    0  0.00000000000E+00  0.00000000000E+00  0.85431874473E+03  0.85431874475E+03  0.50400001928E-02 0.  1.
       -1   -1    0    0    0  501  0.00000000000E+00  0.00000000000E+00 -0.73160052540E+02  0.73160052713E+02  0.50400001928E-02 0. -1.
    10030    2    1    2    0    0  0.00000000000E+00  0.00000000000E+00  0.78115869220E+03  0.92747879746E+03  0.50000801729E+03 0.  0.
        1    1    3    3  502    0  0.21069633877E+03 -0.13317775723E+03  0.35476712487E+03  0.43357695408E+03  0.50400001928E-02 0. -1.
       -1    1    3    3    0  502 -0.21069633877E+03  0.13317775723E+03  0.42639156732E+03  0.49390184339E+03  0.50400001928E-02 0.  1.
</event>
<event>
 5   0  0.5095783E-03  0.5001388E+03  0.7818609E-02  0.1013743E+00
        2   -1    0    0  501    0  0.00000000000E+00  0.00000000000E+00  0.32706203305E+03  0.32706203306E+03  0.25500000920E-02 0.  1.
       -2   -1    0    0    0  501  0.00000000000E+00  0.00000000000E+00 -0.19120133693E+03  0.19120133695E+03  0.25500000920E-02 0. -1.
    10030    2    1    2    0    0  0.00000000000E+00  0.00000000000E+00  0.13586069611E+03  0.51826337001E+03  0.50013877269E+03 0.  0.
        4    1    3    3  502    0  0.12367059139E+03  0.12151825026E+03  0.25466048166E+03  0.30808225224E+03  0.12699999809E+01 0.  1.
       -4    1    3    3    0  502 -0.12367059139E+03 -0.12151825026E+03 -0.11879978555E+03  0.21018111777E+03  0.12699999809E+01 0. -1.
</event>
<event>
 5   0  0.5095783E-03  0.4981702E+03  0.7818609E-02  0.1014258E+00
        2   -1    0    0  501    0  0.00000000000E+00  0.00000000000E+00  0.11573070752E+04  0.11573070752E+04  0.25500000920E-02 0.  1.
       -2   -1    0    0    0  501  0.00000000000E+00  0.00000000000E+00 -0.53610124261E+02  0.53610124322E+02  0.25500000920E-02 0. -1.
    10030    2    1    2    0    0  0.00000000000E+00  0.00000000000E+00  0.11036969510E+04  0.12109171996E+04  0.49817015627E+03 0.  0.
        4    1    3    3  502    0 -0.96570797251E+02 -0.25957993798E+02  0.11063641700E+04  0.11108748921E+04  0.12699999809E+01 0.  1.
       -4    1    3    3    0  502  0.96570797251E+02  0.25957993798E+02 -0.26672190368E+01  0.10004230746E+03  0.12699999809E+01 0. -1.
</event>
<event>
 5   0  0.4889251E-03  0.4998931E+03  0.7818609E-02  0.1013807E+00
        2   -1    0    0  501    0  0.00000000000E+00  0.00000000000E+00  0.11255886302E+03  0.11255886305E+03  0.25500000920E-02 0.  1.
       -2   -1    0    0    0  501  0.00000000000E+00  0.00000000000E+00 -0.55502760574E+03  0.55502760575E+03  0.25500000920E-02 0. -1.
    10030    2    1    2    0    0  0.00000000000E+00  0.00000000000E+00 -0.44246874272E+03  0.66758646880E+03  0.49989309361E+03 0.  0.
        5    1    3    3  502    0  0.59891307686E+02  0.13240346293E+03  0.50273042148E+02  0.15384119896E+03  0.46999998093E+01 0.  1.
       -5    1    3    3    0  502 -0.59891307686E+02 -0.13240346293E+03 -0.49274178487E+03  0.51374526984E+03  0.46999998093E+01 0. -1.
</event>
<event>
 5   0  0.2005125E-03  0.4999960E+03  0.7818609E-02  0.1013780E+00
        3   -1    0    0  501    0  0.00000000000E+00  0.00000000000E+00  0.37709436193E+03  0.37709437545E+03  0.10100000352E+00 0.  1.
       -3   -1    0    0    0  501  0.00000000000E+00  0.00000000000E+00 -0.16573831803E+03  0.16573834880E+03  0.10100000352E+00 0. -1.
    10030    2    1    2    0    0  0.00000000000E+00  0.00000000000E+00  0.21135604390E+03  0.54283272425E+03  0.49999598921E+03 0.  0.
        3    1    3    3  502    0 -0.88611289601E+02 -0.12274568164E+03 -0.11031527347E+03  0.18731773212E+03  0.10100000352E+00 0. -1.
       -3    1    3    3    0  502  0.88611289601E+02  0.12274568164E+03  0.32167131738E+03  0.35551499213E+03  0.10100000352E+00 0.  1.
</event>
<event>
 5   0  0.3211775E-03  0.5000720E+03  0.7818609E-02  0.1013760E+00
        1   -1    0    0  501    0  0.00000000000E+00  0.00000000000E+00  0.77377104580E+02  0.77377104744E+02  0.50400001928E-02 0. -1.
       -1   -1    0    0    0  501  0.00000000000E+00  0.00000000000E+00 -0.80796511583E+03  0.80796511584E+03  0.50400001928E-02 0.  1.
    10030    2    1    2    0    0  0.00000000000E+00  0.00000000000E+00 -0.73058801125E+03  0.88534222059E+03  0.50007200019E+03 0.  0.
        4    1    3    3  502    0  0.21907586466E+03  0.69254799578E+01 -0.15229587240E+03  0.26690418206E+03  0.12699999809E+01 0. -1.
       -4    1    3    3    0  502 -0.21907586466E+03 -0.69254799578E+01 -0.57829213885E+03  0.61843803853E+03  0.12699999809E+01 0.  1.
</event>
<event>
 5   0  0.3013734E-03  0.4999766E+03  0.7818609E-02  0.1013785E+00
       -1   -1    0    0    0  501  0.00000000000E+00  0.00000000000E+00  0.11080815841E+03  0.11080815852E+03  0.50400001928E-02 0. -1.
        1   -1    0    0  501    0  0.00000000000E+00  0.00000000000E+00 -0.56398511549E+03  0.56398511551E+03  0.50400001928E-02 0.  1.
    10030    2    1    2    0    0  0.00000000000E+00  0.00000000000E+00 -0.45317695708E+03  0.67479327404E+03  0.49997660771E+03 0.  0.
        2    1    3    3  502    0 -0.14550690738E+03 -0.11781582676E+03 -0.30133022647E+01  0.18724825534E+03  0.25500000920E-02 0. -1.
       -2    1    3    3    0  502  0.14550690738E+03  0.11781582676E+03 -0.45016365482E+03  0.48754501870E+03  0.25500000920E-02 0.  1.
</event>
<event>
 5   0  0.5118882E-03  0.4998848E+03  0.7818609E-02  0.1013809E+00
       -2   -1    0    0    0  501  0.00000000000E+00  0.00000000000E+00  0.28328225624E+02  0.28328225738E+02  0.25500000920E-02 0.  1.
        2   -1    0    0  501    0  0.00000000000E+00  0.00000000000E+00 -0.22052638927E+04  0.22052638927E+04  0.25500000920E-02 0. -1.
    10030    2    1    2    0    0  0.00000000000E+00  0.00000000000E+00 -0.21769356671E+04  0.22335921184E+04  0.49988483971E+03 0.  0.
        3    1    3    3  502    0  0.19953614965E+03  0.92759011629E+02 -0.55879522669E+03  0.60055892702E+03  0.10100000352E+00 0.  1.
       -3    1    3    3    0  502 -0.19953614965E+03 -0.92759011629E+02 -0.16181404404E+04  0.16330331914E+04  0.10100000352E+00 0. -1.
</event>
<event>
 5   0  0.4978779E-03  0.4989079E+03  0.7818609E-02  0.1014064E+00
        2   -1    0    0  501    0  0.00000000000E+00  0.00000000000E+00  0.10843132308E+04  0.10843132308E+04  0.25500000920E-02 0.  1.
       -2   -1    0    0    0  501  0.00000000000E+00  0.00000000000E+00 -0.57388648084E+02  0.57388648141E+02  0.25500000920E-02 0. -1.
    10030    2    1    2    0    0  0.00000000000E+00  0.00000000000E+00  0.10269245828E+04  0.11417018790E+04  0.49890788910E+03 0.  0.
        1    1    3    3  502    0  0.35056810568E+02  0.47137132612E+02  0.10682588598E+04  0.10698728339E+04  0.50400001928E-02 0.  1.
       -1    1    3    3    0  502 -0.35056810568E+02 -0.47137132612E+02 -0.41334276997E+02  0.71829045089E+02  0.50400001928E-02 0. -1.
</event>
<event>
 5   0  0.5095783E-03  0.4999141E+03  0.7818609E-02  0.1013801E+00
       -2   -1    0    0    0  501  0.00000000000E+00  0.00000000000E+00  0.16588540644E+03  0.16588540646E+03  0.25500000920E-02 0.  1.
        2   -1    0    0  501    0  0.00000000000E+00  0.00000000000E+00 -0.37663667436E+03  0.37663667436E+03  0.25500000920E-02 0. -1.
    10030    2    1    2    0    0  0.00000000000E+00  0.00000000000E+00 -0.21075126792E+03  0.54252208082E+03  0.49991410387E+03 0.  0.
        4    1    3    3  502    0  0.17591978816E+03  0.44316441069E+01  0.87262742693E+02  0.19642762152E+03  0.12699999809E+01 0.  1.
       -4    1    3    3    0  502 -0.17591978816E+03 -0.44316441069E+01 -0.29801401061E+03  0.34609445930E+03  0.12699999809E+01 0. -1.
</event>
<event>
 5   0  0.3055293E-03  0.4998766E+03  0.7818609E-02  0.1013811E+00
        1   -1    0    0  501    0  0.00000000000E+00  0.00000000000E+00  0.65510992744E+03  0.65510992746E+03  0.50400001928E-02 0.  1.
       -1   -1    0    0    0  501  0.00000000000E+00  0.00000000000E+00 -0.95356757767E+02  0.95356757900E+02  0.50400001928E-02 0. -1.
    10030    2    1    2    0    0  0.00000000000E+00  0.00000000000E+00  0.55975316968E+03  0.75046668536E+03  0.49987661966E+03 0.  0.
        3    1    3    3  502    0 -0.22220854279E+03 -0.22043701866E+02  0.44844156753E+03  0.50096148652E+03  0.10100000352E+00 0.  1.
       -3    1    3    3    0  502  0.22220854279E+03  0.22043701866E+02  0.11131160214E+03  0.24950519885E+03  0.10100000352E+00 0. -1.
</event>
<event>
 5   0  0.2863538E-03  0.5004431E+03  0.7818609E-02  0.1013663E+00
       -1   -1    0    0    0  501  0.00000000000E+00  0.00000000000E+00  0.68132678164E+02  0.68132678350E+02  0.50400001928E-02 0.  1.
        1   -1    0    0  501    0  0.00000000000E+00  0.00000000000E+00 -0.91895441677E+03  0.91895441679E+03  0.50400001928E-02 0. -1.
    10030    2    1    2    0    0  0.00000000000E+00  0.00000000000E+00 -0.85082173861E+03  0.98708709514E+03  0.50044310615E+03 0.  0.
        1    1    3    3  502    0  0.35902896450E+02  0.96794303431E+02  0.24166768453E+02  0.10602918406E+03  0.50400001928E-02 0.  1.
       -1    1    3    3    0  502 -0.35902896450E+02 -0.96794303431E+02 -0.87498850706E+03  0.88105791108E+03  0.50400001928E-02 0. -1.
</event>
<event>
 5   0  0.3013734E-03  0.4998175E+03  0.7818609E-02  0.1013827E+00
        1   -1    0    0  501    0  0.00000000000E+00  0.00000000000E+00  0.11808590994E+04  0.11808590994E+04  0.50400001928E-02 0. -1.
       -1   -1    0    0    0  501  0.00000000000E+00  0.00000000000E+00 -0.52888933722E+02  0.52888933962E+02  0.50400001928E-02 0.  1.
    10030    2    1    2    0    0  0.00000000000E+00  0.00000000000E+00  0.11279701657E+04  0.12337480334E+04  0.49981748188E+03 0.  0.
        2    1    3    3  502    0  0.12518016328E+03 -0.91260964763E+02  0.10480411054E+04  0.10594285232E+04  0.25500000920E-02 0. -1.
       -2    1    3    3    0  502 -0.12518016328E+03  0.91260964763E+02  0.79929060238E+02  0.17431951022E+03  0.25500000920E-02 0.  1.
</event>
<event>
 5   0  0.4978779E-03  0.5003458E+03  0.7818609E-02  0.1013689E+00
        2   -1    0    0  501    0  0.00000000000E+00  0.00000000000E+00  0.91465017994E+02  0.91465018030E+02  0.25500000920E-02 0.  1.
       -2   -1    0    0    0  501  0.00000000000E+00  0.00000000000E+00 -0.68426696486E+03  0.68426696486E+03  0.25500000920E-02 0. -1.
    10030    2    1    2    0    0  0.00000000000E+00  0.00000000000E+00 -0.59280194687E+03  0.77573198289E+03  0.50034584147E+03 0.  0.
        1    1    3    3  502    0  0.29069155134E+02  0.14104779981E+03 -0.61355740964E+03  0.63023185619E+03  0.50400001928E-02 0. -1.
       -1    1    3    3    0  502 -0.29069155134E+02 -0.14104779981E+03  0.20755462772E+02  0.14550012670E+03  0.50400001928E-02 0.  1.
</event>
<event>
 5   0  0.5095783E-03  0.5007512E+03  0.7818609E-02  0.1013583E+00
       -2   -1    0    0    0  501  0.00000000000E+00  0.00000000000E+00  0.13895358253E+03  0.13895358255E+03  0.25500000920E-02 0.  1.
        2   -1    0    0  501    0  0.00000000000E+00  0.00000000000E+00 -0.45114310127E+03  0.45114310128E+03  0.25500000920E-02 0. -1.
    10030    2    1    2    0    0  0.00000000000E+00  0.00000000000E+00 -0.31218951874E+03  0.59009668384E+03  0.50075123631E+03 0.  0.
        4    1    3    3  502    0 -0.11656368442E+03 -0.58458763899E+01  0.10493339780E+03  0.15695189603E+03  0.12699999809E+01 0.  1.
       -4    1    3    3    0  502  0.11656368442E+03  0.58458763899E+01 -0.41712291654E+03  0.43314478780E+03  0.12699999809E+01 0. -1.
</event>
<event>
 5   0  0.3057783E-03  0.4983077E+03  0.7818609E-02  0.1014222E+00
        1   -1    0    0  501    0  0.00000000000E+00  0.00000000000E+00  0.88133362115E+03  0.88133362116E+03  0.50400001928E-02 0. -1.
       -1   -1    0    0    0  501  0.00000000000E+00  0.00000000000E+00 -0.70436023579E+02  0.70436023759E+02  0.50400001928E-02 0.  1.
    10030    2    1    2    0    0  0.00000000000E+00  0.00000000000E+00  0.81089759757E+03  0.95176964492E+03  0.49830767930E+03 0.  0.
        5    1    3    3  502    0 -0.13101485345E+03  0.13145672788E+03  0.88078877794E+02  0.20548903095E+03  0.46999998093E+01 0.  1.
       -5    1    3    3    0  502  0.13101485345E+03 -0.13145672788E+03  0.72281871977E+03  0.74628061397E+03  0.46999998093E+01 0. -1.
</event>
<event>
 5   0  0.4978779E-03  0.4998907E+03  0.7818609E-02  0.1013807E+00
       -2   -1    0    0    0  501  0.00000000000E+00  0.00000000000E+00  0.44163896100E+02  0.44163896174E+02  0.25500000920E-02 0. -1.
        2   -1    0    0  501    0  0.00000000000E+00  0.00000000000E+00 -0.14145646059E+04  0.14145646059E+04  0.25500000920E-02 0.  1.
    10030    2    1    2    0    0  0.00000000000E+00  0.00000000000E+00 -0.13704007098E+04  0.14587285021E+04  0.49989072541E+03 0.  0.
        1    1    3    3  502    0 -0.18949579378E+03  0.11477632283E+02 -0.11596245227E+04  0.11750614561E+04  0.50400001928E-02 0.  1.
       -1    1    3    3    0  502  0.18949579378E+03 -0.11477632283E+02 -0.21077618708E+03  0.28366704597E+03  0.50400001928E-02 0. -1.
</event>
<event>
 5   0  0.2863538E-03  0.5003171E+03  0.7818609E-02  0.1013696E+00
       -1   -1    0    0    0  501  0.00000000000E+00  0.00000000000E+00  0.69375581378E+02  0.69375581561E+02  0.50400001928E-02 0.  1.
        1   -1    0    0  501    0  0.00000000000E+00  0.00000000000E+00 -0.90203628760E+03  0.90203628761E+03  0.50400001928E-02 0. -1.
    10030    2    1    2    0    0  0.00000000000E+00  0.00000000000E+00 -0.83266070622E+03  0.97141186917E+03  0.50031706736E+03 0.  0.
        1    1    3    3  502    0 -0.18343182002E+03 -0.10259507619E+03 -0.67974592801E+03  0.71149666825E+03  0.50400001928E-02 0.  1.
       -1    1    3    3    0  502  0.18343182002E+03  0.10259507619E+03 -0.15291477821E+03  0.25991520092E+03  0.50400001928E-02 0. -1.
</event>
<event>
 5   0  0.3057783E-03  0.5000903E+03  0.7818609E-02  0.1013755E+00
       -1   -1    0    0    0  501  0.00000000000E+00  0.00000000000E+00  0.63297606963E+02  0.63297607164E+02  0.50400001928E-02 0. -1.
        1   -1    0    0  501    0  0.00000000000E+00  0.00000000000E+00 -0.98775589568E+03  0.98775589570E+03  0.50400001928E-02 0.  1.
    10030    2    1    2    0    0  0.00000000000E+00  0.00000000000E+00 -0.92445828872E+03  0.10510535029E+04  0.50009033013E+03 0.  0.
        5    1    3    3  502    0  0.16414092497E+03 -0.17112241764E+03 -0.29573612919E+03  0.37908715776E+03  0.46999998093E+01 0.  1.
       -5    1    3    3    0  502 -0.16414092497E+03  0.17112241764E+03 -0.62872215953E+03  0.67196634510E+03  0.46999998093E+01 0. -1.
</event>
<event>
 5   0  0.3057783E-03  0.4996297E+03  0.7818609E-02  0.1013876E+00
        1   -1    0    0  501    0  0.00000000000E+00  0.00000000000E+00  0.22273339863E+03  0.22273339869E+03  0.50400001928E-02 0.  1.
       -1   -1    0    0    0  501  0.00000000000E+00  0.00000000000E+00 -0.28018903671E+03  0.28018903676E+03  0.50400001928E-02 0. -1.
    10030    2    1    2    0    0  0.00000000000E+00  0.00000000000E+00 -0.57455638078E+02  0.50292243544E+03  0.49962968860E+03 0.  0.
        5    1    3    3  502    0  0.31916181817E+02  0.13009159592E+03  0.18347637853E+03  0.22721825953E+03  0.46999998093E+01 0.  1.
       -5    1    3    3    0  502 -0.31916181817E+02 -0.13009159592E+03 -0.24093201661E+03  0.27570417591E+03  0.46999998093E+01 0. -1.
</event>
<event>
 5   0  0.2005125E-03  0.4998439E+03  0.7818609E-02  0.1013820E+00
       -4   -1    0    0    0  501  0.00000000000E+00  0.00000000000E+00  0.12116820628E+04  0.12116827283E+04  0.12699999809E+01 0.  1.
        4   -1    0    0  501    0  0.00000000000E+00  0.00000000000E+00 -0.51540484559E+02  0.51556129107E+02  0.12699999809E+01 0. -1.
    10030    2    1    2    0    0  0.00000000000E+00  0.00000000000E+00  0.11601415782E+04  0.12632388574E+04  0.49984390508E+03 0.  0.
        2    1    3    3  502    0  0.88085140005E+02 -0.15587983275E+03  0.10207399303E+04  0.10363240417E+04  0.25500000920E-02 0.  1.
       -2    1    3    3    0  502 -0.88085140005E+02  0.15587983275E+03  0.13940164794E+03  0.22691481574E+03  0.25500000920E-02 0. -1.
</event>
<event>
 5   0  0.4889251E-03  0.5003949E+03  0.7818609E-02  0.1013676E+00
        2   -1    0    0  501    0  0.00000000000E+00  0.00000000000E+00  0.70138133205E+03  0.70138133206E+03  0.25500000920E-02 0. -1.
       -2   -1    0    0    0  501  0.00000000000E+00  0.00000000000E+00 -0.89250699295E+02  0.89250699332E+02  0.25500000920E-02 0.  1.
    10030    2    1    2    0    0  0.00000000000E+00  0.00000000000E+00  0.61213063276E+03  0.79063203139E+03  0.50039494152E+03 0.  0.
        5    1    3    3  502    0 -0.32878731705E+02  0.23698286807E+03  0.42146916861E+03  0.48466508110E+03  0.46999998093E+01 0. -1.
       -5    1    3    3    0  502  0.32878731705E+02 -0.23698286807E+03  0.19066146415E+03  0.30596695029E+03  0.46999998093E+01 0.  1.
</event>
<event>
 5   0  0.5095783E-03  0.4999308E+03  0.7818609E-02  0.1013797E+00
        2   -1    0    0  501    0  0.00000000000E+00  0.00000000000E+00  0.15023050054E+04  0.15023050054E+04  0.25500000920E-02 0.  1.
       -2   -1    0    0    0  501  0.00000000000E+00  0.00000000000E+00 -0.41591228109E+02  0.41591228188E+02  0.25500000920E-02 0. -1.
    10030    2    1    2    0    0  0.00000000000E+00  0.00000000000E+00  0.14607137773E+04  0.15438962336E+04  0.49993083614E+03 0.  0.
        4    1    3    3  502    0 -0.17598515101E+03 -0.14284971058E+03  0.40492997631E+03  0.46405464312E+03  0.12699999809E+01 0. -1.
       -4    1    3    3    0  502  0.17598515101E+03  0.14284971058E+03  0.10557838010E+04  0.10798415905E+04  0.12699999809E+01 0.  1.
</event>
<event>
 5   0  0.2863538E-03  0.4999168E+03  0.7818609E-02  0.1013801E+00
       -1   -1    0    0    0  501  0.00000000000E+00  0.00000000000E+00  0.13289765325E+03  0.13289765335E+03  0.50400001928E-02 0.  1.
        1   -1    0    0  501    0  0.00000000000E+00  0.00000000000E+00 -0.47013023608E+03  0.47013023610E+03  0.50400001928E-02 0. -1.
    10030    2    1    2    0    0  0.00000000000E+00  0.00000000000E+00 -0.33723258283E+03  0.60302788945E+03  0.49991681361E+03 0.  0.
        1    1    3    3  502    0  0.33155019845E+02 -0.20753833347E+03 -0.33183036893E+03  0.39278850413E+03  0.50400001928E-02 0. -1.
       -1    1    3    3    0  502 -0.33155019845E+02  0.20753833347E+03 -0.54022138939E+01  0.21023938532E+03  0.50400001928E-02 0.  1.
</event>
<event>
 5   0  0.4889251E-03  0.5000816E+03  0.7818609E-02  0.1013758E+00
       -2   -1    0    0    0  501  0.00000000000E+00  0.00000000000E+00  0.78510405403E+02  0.78510405445E+02  0.25500000920E-02 0. -1.
        2   -1    0    0  501    0  0.00000000000E+00  0.00000000000E+00 -0.79633267454E+03  0.79633267454E+03  0.25500000920E-02 0.  1.
    10030    2    1    2    0    0  0.00000000000E+00  0.00000000000E+00 -0.71782226914E+03  0.87484307999E+03  0.50008159788E+03 0.  0.
        5    1    3    3  502    0 -0.90455067618E+02 -0.83649152967E+02  0.21634826775E+02  0.12517769681E+03  0.46999998093E+01 0. -1.
       -5    1    3    3    0  502  0.90455067618E+02  0.83649152967E+02 -0.73945709591E+03  0.74966538318E+03  0.46999998093E+01 0.  1.
</event>
<event>
 5   0  0.3055293E-03  0.5001508E+03  0.7818609E-02  0.1013740E+00
        1   -1    0    0  501    0  0.00000000000E+00  0.00000000000E+00  0.37791884512E+03  0.37791884515E+03  0.50400001928E-02 0. -1.
       -1   -1    0    0    0  501  0.00000000000E+00  0.00000000000E+00 -0.16547921151E+03  0.16547921159E+03  0.50400001928E-02 0.  1.
    10030    2    1    2    0    0  0.00000000000E+00  0.00000000000E+00  0.21243963360E+03  0.54339805674E+03  0.50015082739E+03 0.  0.
        3    1    3    3  502    0 -0.10625723123E+03 -0.48864053774E+01  0.35211530120E+03  0.36783103687E+03  0.10100000352E+00 0. -1.
       -3    1    3    3    0  502  0.10625723123E+03  0.48864053774E+01 -0.13967566759E+03  0.17556701987E+03  0.10100000352E+00 0.  1.
</event>
<event>
 5   0  0.5118882E-03  0.4998796E+03  0.7818609E-02  0.1013810E+00
        2   -1    0    0  501    0  0.00000000000E+00  0.00000000000E+00  0.45939036797E+03  0.45939036797E+03  0.25500000920E-02 0.  1.
       -2   -1    0    0    0  501  0.00000000000E+00  0.00000000000E+00 -0.13598435126E+03  0.13598435129E+03  0.25500000920E-02 0. -1.
    10030    2    1    2    0    0  0.00000000000E+00  0.00000000000E+00  0.32340601670E+03  0.59537471926E+03  0.49987959020E+03 0.  0.
        3    1    3    3  502    0 -0.17880803309E+03 -0.10188577729E+03 -0.72263580971E+01  0.20592536212E+03  0.10100000352E+00 0. -1.
       -3    1    3    3    0  502  0.17880803309E+03  0.10188577729E+03  0.33063237480E+03  0.38944935714E+03  0.10100000352E+00 0.  1.
</event>
<event>
 5   0  0.4889251E-03  0.5000870E+03  0.7818609E-02  0.1013756E+00
        2   -1    0    0  501    0  0.00000000000E+00  0.00000000000E+00  0.39944922520E+03  0.39944922521E+03  0.25500000920E-02 0.  1.
       -2   -1    0    0    0  501  0.00000000000E+00  0.00000000000E+00 -0.15651992897E+03  0.15651992899E+03  0.25500000920E-02 0. -1.
    10030    2    1    2    0    0  0.00000000000E+00  0.00000000000E+00  0.24292929624E+03  0.55596915420E+03  0.50008704987E+03 0.  0.
        5    1    3    3  502    0  0.19661207678E+03 -0.61794598707E+02  0.27878652125E+03  0.34672596614E+03  0.46999998093E+01 0.  1.
       -5    1    3    3    0  502 -0.19661207678E+03  0.61794598707E+02 -0.35857225010E+02  0.20924318806E+03  0.46999998093E+01 0. -1.
</event>
<event>
 5   0  0.3211775E-03  0.5001370E+03  0.7818609E-02  0.1013743E+00
        1   -1    0    0  501    0  0.00000000000E+00  0.00000000000E+00  0.13731212112E+04  0.13731212112E+04  0.50400001928E-02 0.  1.
       -1   -1    0    0    0  501  0.00000000000E+00  0.00000000000E+00 -0.45541692623E+02  0.45541692902E+02  0.50400001928E-02 0. -1.
    10030    2    1    2    0    0  0.00000000000E+00  0.00000000000E+00  0.13275795186E+04  0.14186629041E+04  0.50013703858E+03 0.  0.
        4    1    3    3  502    0 -0.66687931191E+02 -0.22846870132E+03  0.44614267987E+03  0.50565811706E+03  0.12699999809E+01 0. -1.
       -4    1    3    3    0  502  0.66687931191E+02  0.22846870132E+03  0.88143683875E+03  0.91300478709E+03  0.12699999809E+01 0.  1.
</event>
<event>
 5   0  0.5118882E-03  0.4999172E+03  0.7818609E-02  0.1013801E+00
       -2   -1    0    0    0  501  0.00000000000E+00  0.00000000000E+00  0.29445836425E+03  0.29445836427E+03  0.25500000920E-02 0.  1.
        2   -1    0    0  501    0  0.00000000000E+00  0.00000000000E+00 -0.21218384911E+03  0.21218384913E+03  0.25500000920E-02 0. -1.
    10030    2    1    2    0    0  0.00000000000E+00  0.00000000000E+00  0.82274515140E+02  0.50664221339E+03  0.49991722970E+03 0.  0.
        3    1    3    3  502    0 -0.96299563194E+02 -0.58901602281E+02 -0.18487915612E+03  0.21661790598E+03  0.10100000352E+00 0. -1.
       -3    1    3    3    0  502  0.96299563194E+02  0.58901602281E+02  0.26715367126E+03  0.29002430741E+03  0.10100000352E+00 0.  1.
</event>
<event>
 5   0  0.4989875E-03  0.5000624E+03  0.7818609E-02  0.1013763E+00
       -2   -1    0    0    0  501  0.00000000000E+00  0.00000000000E+00  0.94934206596E+02  0.94934206630E+02  0.25500000920E-02 0. -1.
        2   -1    0    0  501    0  0.00000000000E+00  0.00000000000E+00 -0.65851510289E+03  0.65851510290E+03  0.25500000920E-02 0.  1.
    10030    2    1    2    0    0  0.00000000000E+00  0.00000000000E+00 -0.56358089630E+03  0.75344930953E+03  0.50006243146E+03 0.  0.
        2    1    3    3  502    0  0.95627967753E+02 -0.12239738478E+03  0.13424012710E+02  0.15590391958E+03  0.25500000920E-02 0. -1.
       -2    1    3    3    0  502 -0.95627967753E+02  0.12239738478E+03 -0.57700490901E+03  0.59754538994E+03  0.25500000920E-02 0.  1.
</event>
<event>
 5   0  0.5095783E-03  0.4999106E+03  0.7818609E-02  0.1013802E+00
        2   -1    0    0  501    0  0.00000000000E+00  0.00000000000E+00  0.39605052584E+03  0.39605052585E+03  0.25500000920E-02 0.  1.
       -2   -1    0    0    0  501  0.00000000000E+00  0.00000000000E+00 -0.15775170814E+03  0.15775170816E+03  0.25500000920E-02 0. -1.
    10030    2    1    2    0    0  0.00000000000E+00  0.00000000000E+00  0.23829881770E+03  0.55380223400E+03  0.49991057987E+03 0.  0.
        4    1    3    3  502    0 -0.10845740615E+03  0.11870974827E+03  0.33114537544E+03  0.36812210726E+03  0.12699999809E+01 0.  1.
       -4    1    3    3    0  502  0.10845740615E+03 -0.11870974827E+03 -0.92846557736E+02  0.18568012674E+03  0.12699999809E+01 0. -1.
</event>
<event>
 5   0  0.4889251E-03  0.5002343E+03  0.7818609E-02  0.1013718E+00
        2   -1    0    0  501    0  0.00000000000E+00  0.00000000000E+00  0.83997840810E+02  0.83997840848E+02  0.25500000920E-02 0. -1.
       -2   -1    0    0    0  501  0.00000000000E+00  0.00000000000E+00 -0.74476421686E+03  0.74476421687E+03  0.25500000920E-02 0.  1.
    10030    2    1    2    0    0  0.00000000000E+00  0.00000000000E+00 -0.66076637605E+03  0.82876205772E+03  0.50023428969E+03 0.  0.
        5    1    3    3  502    0 -0.11465690175E+03  0.70169362927E+01 -0.69839402824E+03  0.70779357950E+03  0.46999998093E+01 0.  1.
       -5    1    3    3    0  502  0.11465690175E+03 -0.70169362927E+01  0.37627652182E+02  0.12096847821E+03  0.46999998093E+01 0. -1.
</event>
<event>
 5   0  0.4978779E-03  0.5005934E+03  0.7818609E-02  0.1013624E+00
        2   -1    0    0  501    0  0.00000000000E+00  0.00000000000E+00  0.36775442713E+03  0.36775442714E+03  0.25500000920E-02 0. -1.
       -2   -1    0    0    0  501  0.00000000000E+00  0.00000000000E+00 -0.17035399736E+03  0.17035399738E+03  0.25500000920E-02 0.  1.
    10030    2    1    2    0    0  0.00000000000E+00  0.00000000000E+00  0.19740042977E+03  0.53810842452E+03  0.50059339475E+03 0.  0.
        1    1    3    3  502    0 -0.20977012574E+03  0.12593057578E+03  0.15544266094E+03  0.28986968871E+03  0.50400001928E-02 0. -1.
       -1    1    3    3    0  502  0.20977012574E+03 -0.12593057578E+03  0.41957768834E+02  0.24823873581E+03  0.50400001928E-02 0.  1.
</event>
<event>
 5   0  0.4978779E-03  0.4999172E+03  0.7818609E-02  0.1013801E+00
        2   -1    0    0  501    0  0.00000000000E+00  0.00000000000E+00  0.21191878801E+03  0.21191878803E+03  0.25500000920E-02 0. -1.
       -2   -1    0    0    0  501  0.00000000000E+00  0.00000000000E+00 -0.29482665841E+03  0.29482665842E+03  0.25500000920E-02 0.  1.
    10030    2    1    2    0    0  0.00000000000E+00  0.00000000000E+00 -0.82907870400E+02  0.50674544645E+03  0.49991722567E+03 0.  0.
        1    1    3    3  502    0  0.18255735531E+03 -0.12387785940E+03 -0.16055946288E+03  0.27285940184E+03  0.50400001928E-02 0. -1.
       -1    1    3    3    0  502 -0.18255735531E+03  0.12387785940E+03  0.77651592482E+02  0.23388604461E+03  0.50400001928E-02 0.  1.
</event>
<event>
 5   0  0.2863538E-03  0.4999905E+03  0.7818609E-02  0.1013781E+00
       -1   -1    0    0    0  501  0.00000000000E+00  0.00000000000E+00  0.11024712538E+03  0.11024712550E+03  0.50400001928E-02 0.  1.
        1   -1    0    0  501    0  0.00000000000E+00  0.00000000000E+00 -0.56688671176E+03  0.56688671178E+03  0.50400001928E-02 0. -1.
    10030    2    1    2    0    0  0.00000000000E+00  0.00000000000E+00 -0.45663958637E+03  0.67713383728E+03  0.49999052165E+03 0.  0.
        1    1    3    3  502    0  0.11904985465E+03  0.48192149108E+02 -0.51879055268E+03  0.53445204528E+03  0.50400001928E-02 0. -1.
       -1    1    3    3    0  502 -0.11904985465E+03 -0.48192149108E+02  0.62150966310E+02  0.14268179199E+03  0.50400001928E-02 0.  1.
</event>
<event>
 5   0  0.3013734E-03  0.5000553E+03  0.7818609E-02  0.1013764E+00
        1   -1    0    0  501    0  0.00000000000E+00  0.00000000000E+00  0.96340270652E+03  0.96340270653E+03  0.50400001928E-02 0. -1.
       -1   -1    0    0    0  501  0.00000000000E+00  0.00000000000E+00 -0.64888575173E+02  0.64888575369E+02  0.50400001928E-02 0.  1.
    10030    2    1    2    0    0  0.00000000000E+00  0.00000000000E+00  0.89851413134E+03  0.10282912819E+04  0.50005531314E+03 0.  0.
        2    1    3    3  502    0  0.11984713693E+03  0.32694038754E+02  0.89545101884E+03  0.90402697058E+03  0.25500000920E-02 0. -1.
       -2    1    3    3    0  502 -0.11984713693E+03 -0.32694038754E+02  0.30631125060E+01  0.12426431131E+03  0.25500000920E-02 0.  1.
</event>
<event>
 5   0  0.4978779E-03  0.4998873E+03  0.7818609E-02  0.1013808E+00
        2   -1    0    0  501    0  0.00000000000E+00  0.00000000000E+00  0.57794321195E+03  0.57794321196E+03  0.25500000920E-02 0.  1.
       -2   -1    0    0    0  501  0.00000000000E+00  0.00000000000E+00 -0.10809337411E+03  0.10809337414E+03  0.25500000920E-02 0. -1.
    10030    2    1    2    0    0  0.00000000000E+00  0.00000000000E+00  0.46984983785E+03  0.68603658610E+03  0.49988731464E+03 0.  0.
        1    1    3    3  502    0  0.23635751634E+03  0.64156529042E+01  0.34612851788E+03  0.41917894395E+03  0.50400001928E-02 0.  1.
       -1    1    3    3    0  502 -0.23635751634E+03 -0.64156529042E+01  0.12372131997E+03  0.26685764215E+03  0.50400001928E-02 0. -1.
</event>
<event>
 5   0  0.3055293E-03  0.5000928E+03  0.7818609E-02  0.1013755E+00
        1   -1    0    0  501    0  0.00000000000E+00  0.00000000000E+00  0.11701587261E+04  0.11701587261E+04  0.50400001928E-02 0. -1.
       -1   -1    0    0    0  501  0.00000000000E+00  0.00000000000E+00 -0.53431375437E+02  0.53431375675E+02  0.50400001928E-02 0.  1.
    10030    2    1    2    0    0  0.00000000000E+00  0.00000000000E+00  0.11167273507E+04  0.12235901018E+04  0.50009275287E+03 0.  0.
        3    1    3    3  502    0 -0.96361281340E+02  0.10127185732E+03  0.51107712570E+02  0.14884049889E+03  0.10100000352E+00 0.  1.
       -3    1    3    3    0  502  0.96361281340E+02 -0.10127185732E+03  0.10656196381E+04  0.10747496029E+04  0.10100000352E+00 0. -1.
</event>
<event>
 5   0  0.4889251E-03  0.5001706E+03  0.7818609E-02  0.1013734E+00
        2   -1    0    0  501    0  0.00000000000E+00  0.00000000000E+00  0.68129032223E+03  0.68129032223E+03  0.25500000920E-02 0. -1.
       -2   -1    0    0    0  501  0.00000000000E+00  0.00000000000E+00 -0.91800301058E+02  0.91800301093E+02  0.25500000920E-02 0.  1.
    10030    2    1    2    0    0  0.00000000000E+00  0.00000000000E+00  0.58949002117E+03  0.77309062332E+03  0.50017059771E+03 0.  0.
        5    1    3    3  502    0  0.12734481657E+03  0.15551287343E+03  0.52462490345E+03  0.56183123393E+03  0.46999998093E+01 0. -1.
       -5    1    3    3    0  502 -0.12734481657E+03 -0.15551287343E+03  0.64865117723E+02  0.21125938939E+03  0.46999998093E+01 0.  1.
</event>
<event>
 5   0  0.3055293E-03  0.5000914E+03  0.7818609E-02  0.1013755E+00
       -1   -1    0    0    0  501  0.00000000000E+00  0.00000000000E+00  0.76593933394E+03  0.76593933396E+03  0.50400001928E-02 0.  1.
        1   -1    0    0  501    0  0.00000000000E+00  0.00000000000E+00 -0.81628974884E+02  0.81628975040E+02  0.50400001928E-02 0. -1.
    10030    2    1    2    0    0  0.00000000000E+00  0.00000000000E+00  0.68431035906E+03  0.84756830900E+03  0.50009136256E+03 0.  0.
        3    1    3    3  502    0  0.85258202711E+01 -0.24881905320E+03  0.30279935393E+03  0.39200901749E+03  0.10100000352E+00 0. -1.
       -3    1    3    3    0  502 -0.85258202711E+01  0.24881905320E+03  0.38151100513E+03  0.45555929151E+03  0.10100000352E+00 0.  1.
</event>
<event>
 5   0  0.4989875E-03  0.4999595E+03  0.7818609E-02  0.1013789E+00
       -2   -1    0    0    0  501  0.00000000000E+00  0.00000000000E+00  0.48934723309E+02  0.48934723376E+02  0.25500000920E-02 0. -1.
        2   -1    0    0  501    0  0.00000000000E+00  0.00000000000E+00 -0.12770048525E+04  0.12770048525E+04  0.25500000920E-02 0.  1.
    10030    2    1    2    0    0  0.00000000000E+00  0.00000000000E+00 -0.12280701291E+04  0.13259395758E+04  0.49995951502E+03 0.  0.
        2    1    3    3  502    0  0.18403025590E+03 -0.30247890088E+02 -0.17257645654E+03  0.25409585454E+03  0.25500000920E-02 0. -1.
       -2    1    3    3    0  502 -0.18403025590E+03  0.30247890088E+02 -0.10554936726E+04  0.10718437213E+04  0.25500000920E-02 0.  1.
</event>
<event>
 5   0  0.3211775E-03  0.5033817E+03  0.7818609E-02  0.1012900E+00
        1   -1    0    0  501    0  0.00000000000E+00  0.00000000000E+00  0.10211806621E+03  0.10211806633E+03  0.50400001928E-02 0. -1.
       -1   -1    0    0    0  501  0.00000000000E+00  0.00000000000E+00 -0.62034365210E+03  0.62034365212E+03  0.50400001928E-02 0.  1.
    10030    2    1    2    0    0  0.00000000000E+00  0.00000000000E+00 -0.51822558589E+03  0.72246171845E+03  0.50338174058E+03 0.  0.
        4    1    3    3  502    0  0.19593950705E+03  0.77220728772E+02 -0.61326905862E+02  0.21935800341E+03  0.12699999809E+01 0. -1.
       -4    1    3    3    0  502 -0.19593950705E+03 -0.77220728772E+02 -0.45689868003E+03  0.50310371504E+03  0.12699999809E+01 0.  1.
</event>
<event>
 5   0  0.3057783E-03  0.4999082E+03  0.7818609E-02  0.1013803E+00
       -1   -1    0    0    0  501  0.00000000000E+00  0.00000000000E+00  0.10724210531E+03  0.10724210543E+03  0.50400001928E-02 0.  1.
        1   -1    0    0  501    0  0.00000000000E+00  0.00000000000E+00 -0.58257956816E+03  0.58257956819E+03  0.50400001928E-02 0. -1.
    10030    2    1    2    0    0  0.00000000000E+00  0.00000000000E+00 -0.47533746285E+03  0.68982167361E+03  0.49990822937E+03 0.  0.
        5    1    3    3  502    0 -0.49683439742E+02 -0.17664086941E+03 -0.35554191574E+01  0.18358968363E+03  0.46999998093E+01 0.  1.
       -5    1    3    3    0  502  0.49683439742E+02  0.17664086941E+03 -0.47178204370E+03  0.50623198999E+03  0.46999998093E+01 0. -1.
</event>
<event>
 5   0  0.2863538E-03  0.5001418E+03  0.7818609E-02  0.1013742E+00
       -1   -1    0    0    0  501  0.00000000000E+00  0.00000000000E+00  0.21625329636E+03  0.21625329642E+03  0.50400001928E-02 0. -1.
        1   -1    0    0  501    0  0.00000000000E+00  0.00000000000E+00 -0.28917688326E+03  0.28917688330E+03  0.50400001928E-02 0.  1.
    10030    2    1    2    0    0  0.00000000000E+00  0.00000000000E+00 -0.72923586894E+02  0.50543017972E+03  0.50014179694E+03 0.  0.
        1    1    3    3  502    0 -0.11893986495E+03 -0.21919383428E+03 -0.55173127539E+02  0.25541476561E+03  0.50400001928E-02 0.  1.
       -1    1    3    3    0  502  0.11893986495E+03  0.21919383428E+03 -0.17750459355E+02  0.25001541411E+03  0.50400001928E-02 0. -1.
</event>
<event>
 5   0  0.3013734E-03  0.4999089E+03  0.7818609E-02  0.1013803E+00
       -1   -1    0    0    0  501  0.00000000000E+00  0.00000000000E+00  0.24004612070E+03  0.24004612076E+03  0.50400001928E-02 0.  1.
        1   -1    0    0  501    0  0.00000000000E+00  0.00000000000E+00 -0.26027176909E+03  0.26027176914E+03  0.50400001928E-02 0. -1.
    10030    2    1    2    0    0  0.00000000000E+00  0.00000000000E+00 -0.20225648387E+02  0.50031788990E+03  0.49990890580E+03 0.  0.
        2    1    3    3  502    0 -0.11533595336E+03  0.15110308199E+03 -0.17254996732E+03  0.25672556311E+03  0.25500000920E-02 0. -1.
       -2    1    3    3    0  502  0.11533595336E+03 -0.15110308199E+03  0.15232431894E+03  0.24359232679E+03  0.25500000920E-02 0.  1.
</event>
<event>
 5   0  0.5118882E-03  0.5001005E+03  0.7818609E-02  0.1013753E+00
       -2   -1    0    0    0  501  0.00000000000E+00  0.00000000000E+00  0.23429531686E+03  0.23429531687E+03  0.25500000920E-02 0. -1.
        2   -1    0    0  501    0  0.00000000000E+00  0.00000000000E+00 -0.26686458971E+03  0.26686458972E+03  0.25500000920E-02 0.  1.
    10030    2    1    2    0    0  0.00000000000E+00  0.00000000000E+00 -0.32569272852E+02  0.50115990659E+03  0.50010048435E+03 0.  0.
        3    1    3    3  502    0 -0.23684470603E+03  0.55506634859E+02  0.41706010213E+02  0.24681126955E+03  0.10100000352E+00 0. -1.
       -3    1    3    3    0  502  0.23684470603E+03 -0.55506634859E+02 -0.74275283065E+02  0.25434863704E+03  0.10100000352E+00 0.  1.
</event>
<event>
 5   0  0.4978779E-03  0.5001450E+03  0.7818609E-02  0.1013741E+00
       -2   -1    0    0    0  501  0.00000000000E+00  0.00000000000E+00  0.73322016660E+02  0.73322016704E+02  0.25500000920E-02 0. -1.
        2   -1    0    0  501    0  0.00000000000E+00  0.00000000000E+00 -0.85289878515E+03  0.85289878515E+03  0.25500000920E-02 0.  1.
    10030    2    1    2    0    0  0.00000000000E+00  0.00000000000E+00 -0.77957676849E+03  0.92622080185E+03  0.50014501479E+03 0.  0.
        1    1    3    3  502    0 -0.92688364581E+02  0.21164997421E+03 -0.56692781137E+03  0.61220420437E+03  0.50400001928E-02 0.  1.
       -1    1    3    3    0  502  0.92688364581E+02 -0.21164997421E+03 -0.21264895711E+03  0.31401659749E+03  0.50400001928E-02 0. -1.
</event>
<event>
 5   0  0.2005125E-03  0.4999854E+03  0.7818609E-02  0.1013783E+00
        4   -1    0    0  501    0  0.00000000000E+00  0.00000000000E+00  0.35041072640E+03  0.35041302783E+03  0.12699999809E+01 0.  1.
       -4   -1    0    0    0  501  0.00000000000E+00  0.00000000000E+00 -0.17834656126E+03  0.17835108302E+03  0.12699999809E+01 0. -1.
    10030    2    1    2    0    0  0.00000000000E+00  0.00000000000E+00  0.17206416514E+03  0.52876411085E+03  0.49998540778E+03 0.  0.
        5    1    3    3  502    0 -0.57564975800E+02  0.24308460928E+03  0.94906023681E+02  0.26726970842E+03  0.46999998093E+01 0.  1.
       -5    1    3    3    0  502  0.57564975800E+02 -0.24308460928E+03  0.77158141456E+02  0.26149440243E+03  0.46999998093E+01 0. -1.
</event>
<event>
 5   0  0.3013734E-03  0.5001893E+03  0.7818609E-02  0.1013730E+00
       -1   -1    0    0    0  501  0.00000000000E+00  0.00000000000E+00  0.17551018399E+03  0.17551018406E+03  0.50400001928E-02 0.  1.
        1   -1    0    0  501    0  0.00000000000E+00  0.00000000000E+00 -0.35637443004E+03  0.35637443007E+03  0.50400001928E-02 0. -1.
    10030    2    1    2    0    0  0.00000000000E+00  0.00000000000E+00 -0.18086424605E+03  0.53188461414E+03  0.50018933141E+03 0.  0.
        2    1    3    3  502    0 -0.21003477680E+03 -0.69974092410E+02  0.33286182442E+02  0.22387262232E+03  0.25500000920E-02 0.  1.
       -2    1    3    3    0  502  0.21003477680E+03  0.69974092410E+02 -0.21415042849E+03  0.30801199182E+03  0.25500000920E-02 0. -1.
</event>
<event>
 5   0  0.3055293E-03  0.4999485E+03  0.7818609E-02  0.1013792E+00
        1   -1    0    0  501    0  0.00000000000E+00  0.00000000000E+00  0.30256326046E+03  0.30256326050E+03  0.50400001928E-02 0. -1.
       -1   -1    0    0    0  501  0.00000000000E+00  0.00000000000E+00 -0.20652581253E+03  0.20652581260E+03  0.50400001928E-02 0.  1.
    10030    2    1    2    0    0  0.00000000000E+00  0.00000000000E+00  0.96037447924E+02  0.50908907310E+03  0.49994849029E+03 0.  0.
        3    1    3    3  502    0 -0.65547788410E+02  0.22024768266E+03 -0.52175147282E+02  0.23564339684E+03  0.10100000352E+00 0.  1.
       -3    1    3    3    0  502  0.65547788410E+02 -0.22024768266E+03  0.14821259521E+03  0.27344567625E+03  0.10100000352E+00 0. -1.
</event>
<event>
 5   0  0.3211775E-03  0.4996513E+03  0.7818609E-02  0.1013870E+00
        1   -1    0    0  501    0  0.00000000000E+00  0.00000000000E+00  0.34649158144E+03  0.34649158147E+03  0.50400001928E-02 0. -1.
       -1   -1    0    0    0  501  0.00000000000E+00  0.00000000000E+00 -0.18012808081E+03  0.18012808088E+03  0.50400001928E-02 0.  1.
    10030    2    1    2    0    0  0.00000000000E+00  0.00000000000E+00  0.16636350062E+03  0.52661966236E+03  0.49965133287E+03 0.  0.
        4    1    3    3  502    0  0.11169737478E+03 -0.91920139461E+02  0.29785547509E+03  0.33112703380E+03  0.12699999809E+01 0. -1.
       -4    1    3    3    0  502 -0.11169737478E+03  0.91920139461E+02 -0.13149197447E+03  0.19549262856E+03  0.12699999809E+01 0.  1.
</event>
<event>
 5   0  0.4989875E-03  0.5005124E+03  0.7818609E-02  0.1013645E+00
        2   -1    0    0  501    0  0.00000000000E+00  0.00000000000E+00  0.85521072558E+03  0.85521072558E+03  0.25500000920E-02 0. -1.
       -2   -1    0    0    0  501  0.00000000000E+00  0.00000000000E+00 -0.73231271848E+02  0.73231271892E+02  0.25500000920E-02 0.  1.
    10030    2    1    2    0    0  0.00000000000E+00  0.00000000000E+00  0.78197945373E+03  0.92844199747E+03  0.50051241405E+03 0.  0.
        2    1    3    3  502    0 -0.19831834286E+03 -0.27141455081E+02  0.66961622799E+03  0.69889392363E+03  0.25500000920E-02 0. -1.
       -2    1    3    3    0  502  0.19831834286E+03  0.27141455081E+02  0.11236322574E+03  0.22954807384E+03  0.25500000920E-02 0.  1.
</event>
<event>
 5   0  0.4978779E-03  0.4993649E+03  0.7818609E-02  0.1013945E+00
       -2   -1    0    0    0  501  0.00000000000E+00  0.00000000000E+00  0.52304677314E+03  0.52304677315E+03  0.25500000920E-02 0. -1.
        2   -1    0    0  501    0  0.00000000000E+00  0.00000000000E+00 -0.11918883815E+03  0.11918883817E+03  0.25500000920E-02 0.  1.
    10030    2    1    2    0    0  0.00000000000E+00  0.00000000000E+00  0.40385793499E+03  0.64223561132E+03  0.49936494550E+03 0.  0.
        1    1    3    3  502    0  0.67546268721E+01 -0.38497866007E+02  0.51908777913E+03  0.52055723330E+03  0.50400001928E-02 0. -1.
       -1    1    3    3    0  502 -0.67546268721E+01  0.38497866007E+02 -0.11522984414E+03  0.12167837802E+03  0.50400001928E-02 0.  1.
</event>
<event>
 5   0  0.2005125E-03  0.4999394E+03  0.7818609E-02  0.1013795E+00
       -3   -1    0    0    0  501  0.00000000000E+00  0.00000000000E+00  0.87803863357E+02  0.87803921447E+02  0.10100000352E+00 0. -1.
        3   -1    0    0  501    0  0.00000000000E+00  0.00000000000E+00 -0.71164102966E+03  0.71164103683E+03  0.10100000352E+00 0.  1.
    10030    2    1    2    0    0  0.00000000000E+00  0.00000000000E+00 -0.62383716631E+03  0.79944495828E+03  0.49993942758E+03 0.  0.
        4    1    3    3  502    0 -0.40316994719E+02  0.20805993115E+03 -0.52387318276E+03  0.56511867738E+03  0.12699999809E+01 0.  1.
       -4    1    3    3    0  502  0.40316994719E+02 -0.20805993115E+03 -0.99963983546E+02  0.23432628089E+03  0.12699999809E+01 0. -1.
</event>
<event>
 5   0  0.2863538E-03  0.5000682E+03  0.7818609E-02  0.1013761E+00
       -1   -1    0    0    0  501  0.00000000000E+00  0.00000000000E+00  0.69640640159E+02  0.69640640342E+02  0.50400001928E-02 0.  1.
        1   -1    0    0  501    0  0.00000000000E+00  0.00000000000E+00 -0.89770937988E+03  0.89770937989E+03  0.50400001928E-02 0. -1.
    10030    2    1    2    0    0  0.00000000000E+00  0.00000000000E+00 -0.82806873972E+03  0.96735002023E+03  0.50006821929E+03 0.  0.
        1    1    3    3  502    0 -0.10070126521E+03 -0.16978512705E+02 -0.85552694422E+03  0.86160046833E+03  0.50400001928E-02 0. -1.
       -1    1    3    3    0  502  0.10070126521E+03  0.16978512705E+02  0.27458204502E+02  0.10574955191E+03  0.50400001928E-02 0.  1.
</event>
<event>
 5   0  0.4989875E-03  0.5001302E+03  0.7818609E-02  0.1013745E+00
       -2   -1    0    0    0  501  0.00000000000E+00  0.00000000000E+00  0.14064932846E+03  0.14064932848E+03  0.25500000920E-02 0.  1.
        2   -1    0    0  501    0  0.00000000000E+00  0.00000000000E+00 -0.44459899299E+03  0.44459899299E+03  0.25500000920E-02 0. -1.
    10030    2    1    2    0    0  0.00000000000E+00  0.00000000000E+00 -0.30394966453E+03  0.58524832147E+03  0.50013018227E+03 0.  0.
        2    1    3    3  502    0  0.14698477300E+03  0.28723741804E+02  0.82364612728E+02  0.17091959008E+03  0.25500000920E-02 0.  1.
       -2    1    3    3    0  502 -0.14698477300E+03 -0.28723741804E+02 -0.38631427726E+03  0.41432873139E+03  0.25500000920E-02 0. -1.
</event>
<event>
 5   0  0.2863538E-03  0.4992978E+03  0.7818609E-02  0.1013962E+00
       -1   -1    0    0    0  501  0.00000000000E+00  0.00000000000E+00  0.34377401068E+03  0.34377401072E+03  0.50400001928E-02 0.  1.
        1   -1    0    0  501    0  0.00000000000E+00  0.00000000000E+00 -0.18129515555E+03  0.18129515562E+03  0.50400001928E-02 0. -1.
    10030    2    1    2    0    0  0.00000000000E+00  0.00000000000E+00  0.16247885513E+03  0.52506916634E+03  0.49929775793E+03 0.  0.
        1    1    3    3  502    0  0.20780218801E+03 -0.10658117113E+03 -0.11537048911E+02  0.23382557368E+03  0.50400001928E-02 0. -1.
       -1    1    3    3    0  502 -0.20780218801E+03  0.10658117113E+03  0.17401590404E+03  0.29124359266E+03  0.50400001928E-02 0.  1.
</event>
<event>
 5   0  0.4978779E-03  0.5001716E+03  0.7818609E-02  0.1013734E+00
        2   -1    0    0  501    0  0.00000000000E+00  0.00000000000E+00  0.11402660023E+04  0.11402660023E+04  0.25500000920E-02 0. -1.
       -2   -1    0    0    0  501  0.00000000000E+00  0.00000000000E+00 -0.54849405371E+02  0.54849405430E+02  0.25500000920E-02 0.  1.
    10030    2    1    2    0    0  0.00000000000E+00  0.00000000000E+00  0.10854165969E+04  0.11951154077E+04  0.50017161946E+03 0.  0.
        1    1    3    3  502    0 -0.60106827724E+02 -0.91446513238E+02  0.53956766288E+01  0.10956463332E+03  0.50400001928E-02 0.  1.
       -1    1    3    3    0  502  0.60106827724E+02  0.91446513238E+02  0.10800209203E+04  0.10855507744E+04  0.50400001928E-02 0. -1.
</event>
<event>
 5   0  0.3055293E-03  0.4996442E+03  0.7818609E-02  0.1013872E+00
        1   -1    0    0  501    0  0.00000000000E+00  0.00000000000E+00  0.67361245586E+03  0.67361245588E+03  0.50400001928E-02 0.  1.
       -1   -1    0    0    0  501  0.00000000000E+00  0.00000000000E+00 -0.92651333303E+02  0.92651333440E+02  0.50400001928E-02 0. -1.
    10030    2    1    2    0    0  0.00000000000E+00  0.00000000000E+00  0.58096112256E+03  0.76626378932E+03  0.49964424233E+03 0.  0.
        3    1    3    3  502    0  0.64248391522E+02 -0.19291185895E+03  0.51308383829E+03  0.55190386522E+03  0.10100000352E+00 0.  1.
       -3    1    3    3    0  502 -0.64248391522E+02  0.19291185895E+03  0.67877284268E+02  0.21435992409E+03  0.10100000352E+00 0. -1.
</event>
<event>
 5   0  0.4889251E-03  0.4999558E+03  0.7818609E-02  0.1013790E+00
        2   -1    0    0  501    0  0.00000000000E+00  0.00000000000E+00  0.74093695913E+03  0.74093695913E+03  0.25500000920E-02 0.  1.
       -2   -1    0    0    0  501  0.00000000000E+00  0.00000000000E+00 -0.84337749421E+02  0.84337749459E+02  0.25500000920E-02 0. -1.
    10030    2    1    2    0    0  0.00000000000E+00  0.00000000000E+00  0.65659920971E+03  0.82527470859E+03  0.49995582050E+03 0.  0.
        5    1    3    3  502    0 -0.22111583591E+02  0.11108990819E+03 -0.39464691070E+02  0.12003933385E+03  0.46999998093E+01 0. -1.
       -5    1    3    3    0  502  0.22111583591E+02 -0.11108990819E+03  0.69606390078E+03  0.70523537475E+03  0.46999998093E+01 0.  1.
</event>
<event>
 5   0  0.4978779E-03  0.4998486E+03  0.7818609E-02  0.1013818E+00
       -2   -1    0    0    0  501  0.00000000000E+00  0.00000000000E+00  0.10078225012E+03  0.10078225016E+03  0.25500000920E-02 0.  1.
        2   -1    0    0  501    0  0.00000000000E+00  0.00000000000E+00 -0.61977329648E+03  0.61977329649E+03  0.25500000920E-02 0. -1.
    10030    2    1    2    0    0  0.00000000000E+00  0.00000000000E+00 -0.51899104636E+03  0.72055554664E+03  0.49984856667E+03 0.  0.
        1    1    3    3  502    0 -0.26787460008E+02 -0.21646795860E+03 -0.43537735179E+03  0.48695932437E+03  0.50400001928E-02 0. -1.
       -1    1    3    3    0  502  0.26787460008E+02  0.21646795860E+03 -0.83613694563E+02  0.23359622227E+03  0.50400001928E-02 0.  1.
</event>
<event>
 5   0  0.3013734E-03  0.4991967E+03  0.7818609E-02  0.1013989E+00
       -1   -1    0    0    0  501  0.00000000000E+00  0.00000000000E+00  0.23816927107E+03  0.23816927112E+03  0.50400001928E-02 0. -1.
        1   -1    0    0  501    0  0.00000000000E+00  0.00000000000E+00 -0.26157589764E+03  0.26157589769E+03  0.50400001928E-02 0.  1.
    10030    2    1    2    0    0  0.00000000000E+00  0.00000000000E+00 -0.23406626571E+02  0.49974516881E+03  0.49919671832E+03 0.  0.
        2    1    3    3  502    0 -0.14812432193E+03  0.12817397334E+03  0.14315975414E+03  0.24261924367E+03  0.25500000920E-02 0. -1.
       -2    1    3    3    0  502  0.14812432193E+03 -0.12817397334E+03 -0.16656638071E+03  0.25712592514E+03  0.25500000920E-02 0.  1.
</event>
<event>
 5   0  0.4989875E-03  0.4998486E+03  0.7818609E-02  0.1013818E+00
       -2   -1    0    0    0  501  0.00000000000E+00  0.00000000000E+00  0.94767314085E+02  0.94767314119E+02  0.25500000920E-02 0.  1.
        2   -1    0    0  501    0  0.00000000000E+00  0.00000000000E+00 -0.65911073232E+03  0.65911073232E+03  0.25500000920E-02 0. -1.
    10030    2    1    2    0    0  0.00000000000E+00  0.00000000000E+00 -0.56434341823E+03  0.75387804644E+03  0.49984859228E+03 0.  0.
        2    1    3    3  502    0  0.14013343779E+03 -0.17266253540E+03 -0.11012685101E+03  0.24814845322E+03  0.25500000920E-02 0.  1.
       -2    1    3    3    0  502 -0.14013343779E+03  0.17266253540E+03 -0.45421656722E+03  0.50572959322E+03  0.25500000920E-02 0. -1.
</event>
<event>
 5   0  0.4978779E-03  0.4997478E+03  0.7818609E-02  0.1013845E+00
       -2   -1    0    0    0  501  0.00000000000E+00  0.00000000000E+00  0.12344924839E+03  0.12344924842E+03  0.25500000920E-02 0.  1.
        2   -1    0    0  501    0  0.00000000000E+00  0.00000000000E+00 -0.50577033613E+03  0.50577033614E+03  0.25500000920E-02 0. -1.
    10030    2    1    2    0    0  0.00000000000E+00  0.00000000000E+00 -0.38232108774E+03  0.62921958456E+03  0.49974780786E+03 0.  0.
        1    1    3    3  502    0  0.16429643710E+03 -0.16718538813E+03 -0.30014645249E+03  0.38083088926E+03  0.50400001928E-02 0.  1.
       -1    1    3    3    0  502 -0.16429643710E+03  0.16718538813E+03 -0.82174635249E+02  0.24838869530E+03  0.50400001928E-02 0. -1.
</event>
<event>
 5   0  0.3013734E-03  0.4999264E+03  0.7818609E-02  0.1013798E+00
        1   -1    0    0  501    0  0.00000000000E+00  0.00000000000E+00  0.12072019004E+04  0.12072019004E+04  0.50400001928E-02 0.  1.
       -1   -1    0    0    0  501  0.00000000000E+00  0.00000000000E+00 -0.51757377016E+02  0.51757377262E+02  0.50400001928E-02 0. -1.
    10030    2    1    2    0    0  0.00000000000E+00  0.00000000000E+00  0.11554445234E+04  0.12589592776E+04  0.49992641080E+03 0.  0.
        2    1    3    3  502    0  0.13723361011E+03  0.12377359898E+03  0.15386616180E+03  0.24047403873E+03  0.25500000920E-02 0. -1.
       -2    1    3    3    0  502 -0.13723361011E+03 -0.12377359898E+03  0.10015783616E+04  0.10184852389E+04  0.25500000920E-02 0.  1.
</event>
<event>
 5   0  0.3211775E-03  0.5000240E+03  0.7818609E-02  0.1013773E+00
       -1   -1    0    0    0  501  0.00000000000E+00  0.00000000000E+00  0.13497503185E+03  0.13497503194E+03  0.50400001928E-02 0.  1.
        1   -1    0    0  501    0  0.00000000000E+00  0.00000000000E+00 -0.46309299454E+03  0.46309299457E+03  0.50400001928E-02 0. -1.
    10030    2    1    2    0    0  0.00000000000E+00  0.00000000000E+00 -0.32811796270E+03  0.59806802651E+03  0.50002396632E+03 0.  0.
        4    1    3    3  502    0  0.18946333139E+03  0.80809136493E+02 -0.33353919312E+03  0.39201591387E+03  0.12699999809E+01 0. -1.
       -4    1    3    3    0  502 -0.18946333139E+03 -0.80809136493E+02  0.54212304196E+01  0.20605211264E+03  0.12699999809E+01 0.  1.
</event>
<event>
 5   0  0.4889251E-03  0.4999759E+03  0.7818609E-02  0.1013785E+00
       -2   -1    0    0    0  501  0.00000000000E+00  0.00000000000E+00  0.32205387808E+03  0.32205387809E+03  0.25500000920E-02 0. -1.
        2   -1    0    0  501    0  0.00000000000E+00  0.00000000000E+00 -0.19404816198E+03  0.19404816199E+03  0.25500000920E-02 0.  1.
    10030    2    1    2    0    0  0.00000000000E+00  0.00000000000E+00  0.12800571611E+03  0.51610204009E+03  0.49997585184E+03 0.  0.
        5    1    3    3  502    0  0.41955930715E+02  0.15220852321E+03  0.26401557908E+03  0.30765898435E+03  0.46999998093E+01 0. -1.
       -5    1    3    3    0  502 -0.41955930715E+02 -0.15220852321E+03 -0.13600986297E+03  0.20844305573E+03  0.46999998093E+01 0.  1.
</event>
<event>
 5   0  0.3055293E-03  0.5000760E+03  0.7818609E-02  0.1013759E+00
        1   -1    0    0  501    0  0.00000000000E+00  0.00000000000E+00  0.11446984291E+04  0.11446984291E+04  0.50400001928E-02 0.  1.
       -1   -1    0    0    0  501  0.00000000000E+00  0.00000000000E+00 -0.54616128685E+02  0.54616128917E+02  0.50400001928E-02 0. -1.
    10030    2    1    2    0    0  0.00000000000E+00  0.00000000000E+00  0.10900823004E+04  0.11993145580E+04  0.50007598165E+03 0.  0.
        3    1    3    3  502    0  0.16241435634E+03  0.17354764755E+03  0.73114675946E+03  0.76881259302E+03  0.10100000352E+00 0.  1.
       -3    1    3    3    0  502 -0.16241435634E+03 -0.17354764755E+03  0.35893554096E+03  0.43050196502E+03  0.10100000352E+00 0. -1.
</event>
<event>
 5   0  0.2863538E-03  0.4990619E+03  0.7818609E-02  0.1014024E+00
        1   -1    0    0  501    0  0.00000000000E+00  0.00000000000E+00  0.11330051699E+04  0.11330051700E+04  0.50400001928E-02 0.  1.
       -1   -1    0    0    0  501  0.00000000000E+00  0.00000000000E+00 -0.54956226019E+02  0.54956226251E+02  0.50400001928E-02 0. -1.
    10030    2    1    2    0    0  0.00000000000E+00  0.00000000000E+00  0.10780489439E+04  0.11879613962E+04  0.49906187330E+03 0.  0.
        1    1    3    3  502    0  0.71908506420E+01 -0.95570819914E+02 -0.93966895958E+01  0.96300507541E+02  0.50400001928E-02 0. -1.
       -1    1    3    3    0  502 -0.71908506420E+01  0.95570819914E+02  0.10874456335E+04  0.10916608887E+04  0.50400001928E-02 0.  1.
</event>
<event>
 5   0  0.5118882E-03  0.4997860E+03  0.7818609E-02  0.1013835E+00
        2   -1    0    0  501    0  0.00000000000E+00  0.00000000000E+00  0.36537540378E+03  0.36537540378E+03  0.25500000920E-02 0. -1.
       -2   -1    0    0    0  501  0.00000000000E+00  0.00000000000E+00 -0.17091056872E+03  0.17091056873E+03  0.25500000920E-02 0.  1.
    10030    2    1    2    0    0  0.00000000000E+00  0.00000000000E+00  0.19446483506E+03  0.53628597252E+03  0.49978602646E+03 0.  0.
        3    1    3    3  502    0 -0.41407235143E+02  0.24502961388E+03  0.68996462639E+02  0.25790423195E+03  0.10100000352E+00 0. -1.
       -3    1    3    3    0  502  0.41407235143E+02 -0.24502961388E+03  0.12546837242E+03  0.27838174057E+03  0.10100000352E+00 0.  1.
</event>
<event>
 5   0  0.4889251E-03  0.4999073E+03  0.7818609E-02  0.1013803E+00
        2   -1    0    0  501    0  0.00000000000E+00  0.00000000000E+00  0.14301262677E+04  0.14301262677E+04  0.25500000920E-02 0. -1.
       -2   -1    0    0    0  501  0.00000000000E+00  0.00000000000E+00 -0.43686231630E+02  0.43686231704E+02  0.25500000920E-02 0.  1.
    10030    2    1    2    0    0  0.00000000000E+00  0.00000000000E+00  0.13864400361E+04  0.14738124994E+04  0.49990730120E+03 0.  0.
        5    1    3    3  502    0  0.17405110582E+03  0.17352789948E+03  0.82667219255E+03  0.86244693939E+03  0.46999998093E+01 0. -1.
       -5    1    3    3    0  502 -0.17405110582E+03 -0.17352789948E+03  0.55976784356E+03  0.61136556005E+03  0.46999998093E+01 0.  1.
</event>
<event>
 5   0  0.3057783E-03  0.4998761E+03  0.7818609E-02  0.1013811E+00
       -1   -1    0    0    0  501  0.00000000000E+00  0.00000000000E+00  0.70725274238E+02  0.70725274417E+02  0.50400001928E-02 0. -1.
        1   -1    0    0  501    0  0.00000000000E+00  0.00000000000E+00 -0.88326329050E+03  0.88326329051E+03  0.50400001928E-02 0.  1.
    10030    2    1    2    0    0  0.00000000000E+00  0.00000000000E+00 -0.81253801626E+03  0.95398856493E+03  0.49987613881E+03 0.  0.
        5    1    3    3  502    0 -0.23214358006E+03  0.72048531564E+01 -0.58226489650E+03  0.62689476898E+03  0.46999998093E+01 0.  1.
       -5    1    3    3    0  502  0.23214358006E+03 -0.72048531564E+01 -0.23027311976E+03  0.32709379595E+03  0.46999998093E+01 0. -1.
</event>
<event>
 5   0  0.3013734E-03  0.5000256E+03  0.7818609E-02  0.1013772E+00
        1   -1    0    0  501    0  0.00000000000E+00  0.00000000000E+00  0.79172984459E+03  0.79172984460E+03  0.50400001928E-02 0. -1.
       -1   -1    0    0    0  501  0.00000000000E+00  0.00000000000E+00 -0.78949159229E+02  0.78949159390E+02  0.50400001928E-02 0.  1.
    10030    2    1    2    0    0  0.00000000000E+00  0.00000000000E+00  0.71278068536E+03  0.87067900399E+03  0.50002562192E+03 0.  0.
        2    1    3    3  502    0 -0.22311714028E+03 -0.93246455863E+02  0.46693342786E+03  0.52583551218E+03  0.25500000920E-02 0.  1.
       -2    1    3    3    0  502  0.22311714028E+03  0.93246455863E+02  0.24584725750E+03  0.34484349181E+03  0.25500000920E-02 0. -1.
</event>
<event>
 5   0  0.5095783E-03  0.4997836E+03  0.7818609E-02  0.1013835E+00
       -2   -1    0    0    0  501  0.00000000000E+00  0.00000000000E+00  0.13911668622E+03  0.13911668624E+03  0.25500000920E-02 0. -1.
        2   -1    0    0  501    0  0.00000000000E+00  0.00000000000E+00 -0.44887431241E+03  0.44887431242E+03  0.25500000920E-02 0.  1.
    10030    2    1    2    0    0  0.00000000000E+00  0.00000000000E+00 -0.30975762620E+03  0.58799099866E+03  0.49978358069E+03 0.  0.
        4    1    3    3  502    0  0.20257161541E+03  0.14083215319E+03 -0.10818323689E+03  0.26939595466E+03  0.12699999809E+01 0. -1.
       -4    1    3    3    0  502 -0.20257161541E+03 -0.14083215319E+03 -0.20157438930E+03  0.31859504401E+03  0.12699999809E+01 0.  1.
</event>
<event>
 5   0  0.4889251E-03  0.4999121E+03  0.7818609E-02  0.1013802E+00
        2   -1    0    0  501    0  0.00000000000E+00  0.00000000000E+00  0.99555530183E+03  0.99555530183E+03  0.25500000920E-02 0. -1.
       -2   -1    0    0    0  501  0.00000000000E+00  0.00000000000E+00 -0.62756964700E+02  0.62756964751E+02  0.25500000920E-02 0.  1.
    10030    2    1    2    0    0  0.00000000000E+00  0.00000000000E+00  0.93279833713E+03  0.10583122666E+04  0.49991210812E+03 0.  0.
        5    1    3    3  502    0  0.23153969819E+03  0.20438289928E+02  0.66074342246E+03  0.70045150856E+03  0.46999998093E+01 0. -1.
       -5    1    3    3    0  502 -0.23153969819E+03 -0.20438289928E+02  0.27205491467E+03  0.35786075802E+03  0.46999998093E+01 0.  1.
</event>
<event>
 5   0  0.3211775E-03  0.4998652E+03  0.7818609E-02  0.1013814E+00
       -1   -1    0    0    0  501  0.00000000000E+00  0.00000000000E+00  0.14869545185E+03  0.14869545194E+03  0.50400001928E-02 0. -1.
        1   -1    0    0  501    0  0.00000000000E+00  0.00000000000E+00 -0.42009559887E+03  0.42009559890E+03  0.50400001928E-02 0.  1.
    10030    2    1    2    0    0  0.00000000000E+00  0.00000000000E+00 -0.27140014702E+03  0.56879105084E+03  0.49986520155E+03 0.  0.
        4    1    3    3  502    0 -0.11841435257E+03  0.79730316890E+02 -0.36913599899E+03  0.39578009169E+03  0.12699999809E+01 0.  1.
       -4    1    3    3    0  502  0.11841435257E+03 -0.79730316890E+02  0.97735851973E+02  0.17301095915E+03  0.12699999809E+01 0. -1.
</event>
<event>
 5   0  0.4989875E-03  0.5014203E+03  0.7818609E-02  0.1013409E+00
        2   -1    0    0  501    0  0.00000000000E+00  0.00000000000E+00  0.10568451784E+04  0.10568451784E+04  0.25500000920E-02 0.  1.
       -2   -1    0    0    0  501  0.00000000000E+00  0.00000000000E+00 -0.59474720651E+02  0.59474720705E+02  0.25500000920E-02 0. -1.
    10030    2    1    2    0    0  0.00000000000E+00  0.00000000000E+00  0.99737045775E+03  0.11163198991E+04  0.50142026999E+03 0.  0.
        2    1    3    3  502    0  0.35313583898E+02  0.24658807555E+03  0.56176676309E+03  0.61451983233E+03  0.25500000920E-02 0.  1.
       -2    1    3    3    0  502 -0.35313583898E+02 -0.24658807555E+03  0.43560369466E+03  0.50180006678E+03  0.25500000920E-02 0. -1.
</event>
<event>
 5   0  0.2005125E-03  0.5000597E+03  0.7818609E-02  0.1013763E+00
        3   -1    0    0  501    0  0.00000000000E+00  0.00000000000E+00  0.25150336207E+03  0.25150338235E+03  0.10100000352E+00 0. -1.
       -3   -1    0    0    0  501  0.00000000000E+00  0.00000000000E+00 -0.24856488431E+03  0.24856490483E+03  0.10100000352E+00 0.  1.
    10030    2    1    2    0    0  0.00000000000E+00  0.00000000000E+00  0.29384777613E+01  0.50006828718E+03  0.50005965363E+03 0.  0.
        1    1    3    3  502    0  0.95741469023E+02 -0.18303737660E+03 -0.13940833006E+03  0.24920632544E+03  0.50400001928E-02 0.  1.
       -1    1    3    3    0  502 -0.95741469023E+02  0.18303737660E+03  0.14234680782E+03  0.25086196174E+03  0.50400001928E-02 0. -1.
</event>
<event>
 5   0  0.3013734E-03  0.4999351E+03  0.7818609E-02  0.1013796E+00
        1   -1    0    0  501    0  0.00000000000E+00  0.00000000000E+00  0.92521800265E+03  0.92521800266E+03  0.50400001928E-02 0.  1.
       -1   -1    0    0    0  501  0.00000000000E+00  0.00000000000E+00 -0.67534100277E+02  0.67534100465E+02  0.50400001928E-02 0. -1.
    10030    2    1    2    0    0  0.00000000000E+00  0.00000000000E+00  0.85768390237E+03  0.99275210313E+03  0.49993505766E+03 0.  0.
        2    1    3    3  502    0  0.15238106925E+03 -0.17825083156E+03  0.60070408489E+03  0.64485560154E+03  0.25500000920E-02 0.  1.
       -2    1    3    3    0  502 -0.15238106925E+03  0.17825083156E+03  0.25697981748E+03  0.34789650159E+03  0.25500000920E-02 0. -1.
</event>
<event>
 5   0  0.4978779E-03  0.4999165E+03  0.7818609E-02  0.1013801E+00
       -2   -1    0    0    0  501  0.00000000000E+00  0.00000000000E+00  0.38917039363E+03  0.38917039364E+03  0.25500000920E-02 0.  1.
        2   -1    0    0  501    0  0.00000000000E+00  0.00000000000E+00 -0.16054441344E+03  0.16054441346E+03  0.25500000920E-02 0. -1.
    10030    2    1    2    0    0  0.00000000000E+00  0.00000000000E+00  0.22862598019E+03  0.54971480710E+03  0.49991652336E+03 0.  0.
        1    1    3    3  502    0  0.62108706475E+01  0.14601201626E+03  0.33729613433E+03  0.36759592770E+03  0.50400001928E-02 0.  1.
       -1    1    3    3    0  502 -0.62108706475E+01 -0.14601201626E+03 -0.10867015414E+03  0.18211887940E+03  0.50400001928E-02 0. -1.
</event>
<event>
 5   0  0.2863538E-03  0.5000223E+03  0.7818609E-02  0.1013773E+00
       -1   -1    0    0    0  501  0.00000000000E+00  0.00000000000E+00  0.64455843805E+02  0.64455844002E+02  0.50400001928E-02 0. -1.
        1   -1    0    0  501    0  0.00000000000E+00  0.00000000000E+00 -0.96974257750E+03  0.96974257751E+03  0.50400001928E-02 0.  1.
    10030    2    1    2    0    0  0.00000000000E+00  0.00000000000E+00 -0.90528673370E+03  0.10341984215E+04  0.50002230436E+03 0.  0.
        1    1    3    3  502    0 -0.80424438939E+02  0.63560499718E+02 -0.92427826030E+03  0.92994533710E+03  0.50400001928E-02 0.  1.
       -1    1    3    3    0  502  0.80424438939E+02 -0.63560499718E+02  0.18991526602E+02  0.10425308442E+03  0.50400001928E-02 0. -1.
</event>
<event>
 5   0  0.3055293E-03  0.5002424E+03  0.7818609E-02  0.1013716E+00
        1   -1    0    0  501    0  0.00000000000E+00  0.00000000000E+00  0.43237086726E+03  0.43237086729E+03  0.50400001928E-02 0. -1.
       -1   -1    0    0    0  501  0.00000000000E+00  0.00000000000E+00 -0.14469200523E+03  0.14469200531E+03  0.50400001928E-02 0.  1.
    10030    2    1    2    0    0  0.00000000000E+00  0.00000000000E+00  0.28767886204E+03  0.57706287261E+03  0.50024237253E+03 0.  0.
        3    1    3    3  502    0 -0.35057706960E+02 -0.11259044646E+03  0.39829159935E+03  0.41538158332E+03  0.10100000352E+00 0. -1.
       -3    1    3    3    0  502  0.35057706960E+02  0.11259044646E+03 -0.11061273731E+03  0.16168128929E+03  0.10100000352E+00 0.  1.
</event>
<event>
 5   0  0.5095783E-03  0.5000746E+03  0.7818609E-02  0.1013759E+00
        2   -1    0    0  501    0  0.00000000000E+00  0.00000000000E+00  0.59728642170E+03  0.59728642170E+03  0.25500000920E-02 0. -1.
       -2   -1    0    0    0  501  0.00000000000E+00  0.00000000000E+00 -0.10467114143E+03  0.10467114146E+03  0.25500000920E-02 0.  1.
    10030    2    1    2    0    0  0.00000000000E+00  0.00000000000E+00  0.49261528027E+03  0.70195756316E+03  0.50007460056E+03 0.  0.
        4    1    3    3  502    0  0.84169863930E+02  0.64560939095E+02 -0.71514261215E+02  0.12793976437E+03  0.12699999809E+01 0.  1.
       -4    1    3    3    0  502 -0.84169863930E+02 -0.64560939095E+02  0.56412954148E+03  0.57401779879E+03  0.12699999809E+01 0. -1.
</event>
<event>
 5   0  0.4978779E-03  0.4999520E+03  0.7818609E-02  0.1013791E+00
       -2   -1    0    0    0  501  0.00000000000E+00  0.00000000000E+00  0.77865459516E+02  0.77865459558E+02  0.25500000920E-02 0. -1.
        2   -1    0    0  501    0  0.00000000000E+00  0.00000000000E+00 -0.80251234177E+03  0.80251234177E+03  0.25500000920E-02 0.  1.
    10030    2    1    2    0    0  0.00000000000E+00  0.00000000000E+00 -0.72464688225E+03  0.88037780133E+03  0.49995196681E+03 0.  0.
        1    1    3    3  502    0 -0.81417731201E+01 -0.24693156407E+03 -0.29535025054E+03  0.38506266545E+03  0.50400001928E-02 0. -1.
       -1    1    3    3    0  502  0.81417731201E+01  0.24693156407E+03 -0.42929663172E+03  0.49531513588E+03  0.50400001928E-02 0.  1.
</event>
<event>
 5   0  0.2005125E-03  0.5002931E+03  0.7818609E-02  0.1013702E+00
        4   -1    0    0  501    0  0.00000000000E+00  0.00000000000E+00  0.31292922676E+03  0.31293180385E+03  0.12699999809E+01 0.  1.
       -4   -1    0    0    0  501  0.00000000000E+00  0.00000000000E+00 -0.19995444280E+03  0.19995847593E+03  0.12699999809E+01 0. -1.
    10030    2    1    2    0    0  0.00000000000E+00  0.00000000000E+00  0.11297478396E+03  0.51289027977E+03  0.50029305140E+03 0.  0.
        4    1    3    3  502    0  0.14492419668E+03 -0.33599574946E+01 -0.15250186848E+03  0.21041089537E+03  0.12699999809E+01 0. -1.
       -4    1    3    3    0  502 -0.14492419668E+03  0.33599574946E+01  0.26547665244E+03  0.30247938440E+03  0.12699999809E+01 0.  1.
</event>
<event>
 5   0  0.3211775E-03  0.5000050E+03  0.7818609E-02  0.1013778E+00
        1   -1    0    0  501    0  0.00000000000E+00  0.00000000000E+00  0.25464929781E+03  0.25464929786E+03  0.50400001928E-02 0.  1.
       -1   -1    0    0    0  501  0.00000000000E+00  0.00000000000E+00 -0.24544053515E+03  0.24544053520E+03  0.50400001928E-02 0. -1.
    10030    2    1    2    0    0  0.00000000000E+00  0.00000000000E+00  0.92087626637E+01  0.50008983306E+03  0.50000503979E+03 0.  0.
        4    1    3    3  502    0 -0.84079720011E+01 -0.10671513033E+03  0.23056488007E+03  0.25420580217E+03  0.12699999809E+01 0.  1.
       -4    1    3    3    0  502  0.84079720011E+01  0.10671513033E+03 -0.22135611740E+03  0.24588403089E+03  0.12699999809E+01 0. -1.
</event>
<event>
 5   0  0.3057783E-03  0.5001299E+03  0.7818609E-02  0.1013745E+00
       -1   -1    0    0    0  501  0.00000000000E+00  0.00000000000E+00  0.19444462192E+03  0.19444462198E+03  0.50400001928E-02 0.  1.
        1   -1    0    0  501    0  0.00000000000E+00  0.00000000000E+00 -0.32159528536E+03  0.32159528540E+03  0.50400001928E-02 0. -1.
    10030    2    1    2    0    0  0.00000000000E+00  0.00000000000E+00 -0.12715066344E+03  0.51603990738E+03  0.50012987792E+03 0.  0.
        5    1    3    3  502    0 -0.14507161550E+03  0.86615756218E+02  0.12657591127E+03  0.21116726584E+03  0.46999998093E+01 0.  1.
       -5    1    3    3    0  502  0.14507161550E+03 -0.86615756218E+02 -0.25372657471E+03  0.30487264154E+03  0.46999998093E+01 0. -1.
</event>
<event>
 5   0  0.4989875E-03  0.5000716E+03  0.7818609E-02  0.1013760E+00
        2   -1    0    0  501    0  0.00000000000E+00  0.00000000000E+00  0.19045194360E+04  0.19045194360E+04  0.25500000920E-02 0.  1.
       -2   -1    0    0    0  501  0.00000000000E+00  0.00000000000E+00 -0.32826074698E+02  0.32826074797E+02  0.25500000920E-02 0. -1.
    10030    2    1    2    0    0  0.00000000000E+00  0.00000000000E+00  0.18716933613E+04  0.19373455108E+04  0.50007158434E+03 0.  0.
        2    1    3    3  502    0 -0.12602158327E+03 -0.94658033407E+02  0.16878315650E+04  0.16951746147E+04  0.25500000920E-02 0.  1.
       -2    1    3    3    0  502  0.12602158327E+03  0.94658033407E+02  0.18386179629E+03  0.24217089602E+03  0.25500000920E-02 0. -1.
</event>
<event>
 5   0  0.3211775E-03  0.5000162E+03  0.7818609E-02  0.1013775E+00
        1   -1    0    0  501    0  0.00000000000E+00  0.00000000000E+00  0.20700119450E+03  0.20700119456E+03  0.50400001928E-02 0. -1.
       -1   -1    0    0    0  501  0.00000000000E+00  0.00000000000E+00 -0.30195023141E+03  0.30195023145E+03  0.50400001928E-02 0.  1.
    10030    2    1    2    0    0  0.00000000000E+00  0.00000000000E+00 -0.94949036915E+02  0.50895142601E+03  0.50001623416E+03 0.  0.
        4    1    3    3  502    0 -0.81976934098E+02  0.17526534741E+03  0.11367161859E+03  0.22441258766E+03  0.12699999809E+01 0. -1.
       -4    1    3    3    0  502  0.81976934098E+02 -0.17526534741E+03 -0.20862065551E+03  0.28453883835E+03  0.12699999809E+01 0.  1.
</event>
<event>
 5   0  0.4889251E-03  0.4998779E+03  0.7818609E-02  0.1013811E+00
        2   -1    0    0  501    0  0.00000000000E+00  0.00000000000E+00  0.15891313332E+04  0.15891313332E+04  0.25500000920E-02 0. -1.
       -2   -1    0    0    0  501  0.00000000000E+00  0.00000000000E+00 -0.39310459664E+02  0.39310459747E+02  0.25500000920E-02 0.  1.
    10030    2    1    2    0    0  0.00000000000E+00  0.00000000000E+00  0.15498208736E+04  0.16284417930E+04  0.49987791808E+03 0.  0.
        5    1    3    3  502    0 -0.93412197856E+02 -0.14333394810E+03  0.18153930863E+03  0.24949763518E+03  0.46999998093E+01 0.  1.
       -5    1    3    3    0  502  0.93412197856E+02  0.14333394810E+03  0.13682815649E+04  0.13789441578E+04  0.46999998093E+01 0. -1.
</event>
<event>
 5   0  0.3057783E-03  0.5001536E+03  0.7818609E-02  0.1013739E+00
       -1   -1    0    0    0  501  0.00000000000E+00  0.00000000000E+00  0.46578495742E+02  0.46578496014E+02  0.50400001928E-02 0.  1.
        1   -1    0    0  501    0  0.00000000000E+00  0.00000000000E+00 -0.13426452606E+04  0.13426452606E+04  0.50400001928E-02 0. -1.
    10030    2    1    2    0    0  0.00000000000E+00  0.00000000000E+00 -0.12960667649E+04  0.13892237566E+04  0.50015356342E+03 0.  0.
        5    1    3    3  502    0  0.70568948933E+02 -0.17543963603E+03 -0.19368426540E+03  0.27072998930E+03  0.46999998093E+01 0.  1.
       -5    1    3    3    0  502 -0.70568948933E+02  0.17543963603E+03 -0.11023824995E+04  0.11184937673E+04  0.46999998093E+01 0. -1.
</event>
<event>
 5   0  0.3211775E-03  0.5000929E+03  0.7818609E-02  0.1013755E+00
       -1   -1    0    0    0  501  0.00000000000E+00  0.00000000000E+00  0.25381868414E+03  0.25381868419E+03  0.50400001928E-02 0. -1.
        1   -1    0    0  501    0  0.00000000000E+00  0.00000000000E+00 -0.24633031391E+03  0.24633031396E+03  0.50400001928E-02 0.  1.
    10030    2    1    2    0    0  0.00000000000E+00  0.00000000000E+00  0.74883702326E+01  0.50014899816E+03  0.50009293603E+03 0.  0.
        4    1    3    3  502    0 -0.23931804114E+03  0.31259713558E+01  0.76131348211E+02  0.25115829986E+03  0.12699999809E+01 0. -1.
       -4    1    3    3    0  502  0.23931804114E+03 -0.31259713558E+01 -0.68642977978E+02  0.24899069829E+03  0.12699999809E+01 0.  1.
</event>
<event>
 5   0  0.4989875E-03  0.4998641E+03  0.7818609E-02  0.1013814E+00
        2   -1    0    0  501    0  0.00000000000E+00  0.00000000000E+00  0.18351514257E+03  0.18351514259E+03  0.25500000920E-02 0.  1.
       -2   -1    0    0    0  501  0.00000000000E+00  0.00000000000E+00 -0.34038626887E+03  0.34038626888E+03  0.25500000920E-02 0. -1.
    10030    2    1    2    0    0  0.00000000000E+00  0.00000000000E+00 -0.15687112630E+03  0.52390141147E+03  0.49986412021E+03 0.  0.
        2    1    3    3  502    0 -0.50031644323E+01  0.58547461536E+02 -0.33304364094E+03  0.33818767523E+03  0.25500000920E-02 0. -1.
       -2    1    3    3    0  502  0.50031644323E+01 -0.58547461536E+02  0.17617251463E+03  0.18571373623E+03  0.25500000920E-02 0.  1.
</event>
<event>
 5   0  0.3057783E-03  0.4999119E+03  0.7818609E-02  0.1013802E+00
        1   -1    0    0  501    0  0.00000000000E+00  0.00000000000E+00  0.13566237798E+03  0.13566237807E+03  0.50400001928E-02 0.  1.
       -1   -1    0    0    0  501  0.00000000000E+00  0.00000000000E+00 -0.46054019127E+03  0.46054019130E+03  0.50400001928E-02 0. -1.
    10030    2    1    2    0    0  0.00000000000E+00  0.00000000000E+00 -0.32487781329E+03  0.59620256937E+03  0.49991190239E+03 0.  0.
        5    1    3    3  502    0 -0.14107676351E+03  0.87446730019E+02  0.60380133003E+02  0.17668456144E+03  0.46999998093E+01 0.  1.
       -5    1    3    3    0  502  0.14107676351E+03 -0.87446730019E+02 -0.38525794630E+03  0.41951800793E+03  0.46999998093E+01 0. -1.
</event>
<event>
 5   0  0.4978779E-03  0.5000051E+03  0.7818609E-02  0.1013778E+00
        2   -1    0    0  501    0  0.00000000000E+00  0.00000000000E+00  0.11702187634E+03  0.11702187637E+03  0.25500000920E-02 0. -1.
       -2   -1    0    0    0  501  0.00000000000E+00  0.00000000000E+00 -0.53409896442E+03  0.53409896442E+03  0.25500000920E-02 0.  1.
    10030    2    1    2    0    0  0.00000000000E+00  0.00000000000E+00 -0.41707708808E+03  0.65112084079E+03  0.50000505188E+03 0.  0.
        1    1    3    3  502    0  0.18292479756E+03 -0.15873323799E+03 -0.28927188728E+03  0.37727436595E+03  0.50400001928E-02 0. -1.
       -1    1    3    3    0  502 -0.18292479756E+03  0.15873323799E+03 -0.12780520080E+03  0.27384647484E+03  0.50400001928E-02 0.  1.
</event>
<event>
 5   0  0.2863538E-03  0.5001650E+03  0.7818609E-02  0.1013736E+00
       -1   -1    0    0    0  501  0.00000000000E+00  0.00000000000E+00  0.82351554521E+03  0.82351554523E+03  0.50400001928E-02 0.  1.
        1   -1    0    0  501    0  0.00000000000E+00  0.00000000000E+00 -0.75944243266E+02  0.75944243433E+02  0.50400001928E-02 0. -1.
    10030    2    1    2    0    0  0.00000000000E+00  0.00000000000E+00  0.74757130194E+03  0.89945978866E+03  0.50016503269E+03 0.  0.
        1    1    3    3  502    0  0.17063782544E+03  0.13557669896E+03  0.15322145175E+03  0.26641156520E+03  0.50400001928E-02 0. -1.
       -1    1    3    3    0  502 -0.17063782544E+03 -0.13557669896E+03  0.59434985020E+03  0.63304822346E+03  0.50400001928E-02 0.  1.
</event>
<event>
 5   0  0.3013734E-03  0.4996775E+03  0.7818609E-02  0.1013863E+00
        1   -1    0    0  501    0  0.00000000000E+00  0.00000000000E+00  0.20552154079E+03  0.20552154085E+03  0.50400001928E-02 0.  1.
       -1   -1    0    0    0  501  0.00000000000E+00  0.00000000000E+00 -0.30371217635E+03  0.30371217640E+03  0.50400001928E-02 0. -1.
    10030    2    1    2    0    0  0.00000000000E+00  0.00000000000E+00 -0.98190635561E+02  0.50923371725E+03  0.49967747385E+03 0.  0.
        2    1    3    3  502    0 -0.39548136180E+02 -0.24659921215E+03 -0.42322318811E+02  0.25331088643E+03  0.25500000920E-02 0.  1.
       -2    1    3    3    0  502  0.39548136180E+02  0.24659921215E+03 -0.55868316750E+02  0.25592283082E+03  0.25500000920E-02 0. -1.
</event>
<event>
 5   0  0.5095783E-03  0.5000712E+03  0.7818609E-02  0.1013760E+00
       -2   -1    0    0    0  501  0.00000000000E+00  0.00000000000E+00  0.95811014882E+02  0.95811014916E+02  0.25500000920E-02 0.  1.
        2   -1    0    0  501    0  0.00000000000E+00  0.00000000000E+00 -0.65251161465E+03  0.65251161465E+03  0.25500000920E-02 0. -1.
    10030    2    1    2    0    0  0.00000000000E+00  0.00000000000E+00 -0.55670059977E+03  0.74832262957E+03  0.50007119508E+03 0.  0.
        4    1    3    3  502    0  0.13680439762E+03  0.44781532210E+02  0.27578995052E+02  0.14657094768E+03  0.12699999809E+01 0.  1.
       -4    1    3    3    0  502 -0.13680439762E+03 -0.44781532210E+02 -0.58427959482E+03  0.60175168189E+03  0.12699999809E+01 0. -1.
</event>
<event>
 5   0  0.4989875E-03  0.4998258E+03  0.7818609E-02  0.1013824E+00
        2   -1    0    0  501    0  0.00000000000E+00  0.00000000000E+00  0.67087836036E+02  0.67087836084E+02  0.25500000920E-02 0. -1.
       -2   -1    0    0    0  501  0.00000000000E+00  0.00000000000E+00 -0.93096551348E+03  0.93096551349E+03  0.25500000920E-02 0.  1.
    10030    2    1    2    0    0  0.00000000000E+00  0.00000000000E+00 -0.86387767745E+03  0.99805334957E+03  0.49982581666E+03 0.  0.
        2    1    3    3  502    0  0.27708752835E+02 -0.18082162751E+03 -0.91941238763E+02  0.20473745957E+03  0.25500000920E-02 0. -1.
       -2    1    3    3    0  502 -0.27708752835E+02  0.18082162751E+03 -0.77193643868E+03  0.79331589000E+03  0.25500000920E-02 0.  1.
</event>
<event>
 5   0  0.5095783E-03  0.5001312E+03  0.7818609E-02  0.1013745E+00
       -2   -1    0    0    0  501  0.00000000000E+00  0.00000000000E+00  0.87693095765E+02  0.87693095802E+02  0.25500000920E-02 0. -1.
        2   -1    0    0  501    0  0.00000000000E+00  0.00000000000E+00 -0.71308703832E+03  0.71308703833E+03  0.25500000920E-02 0.  1.
    10030    2    1    2    0    0  0.00000000000E+00  0.00000000000E+00 -0.62539394256E+03  0.80078013413E+03  0.50013122261E+03 0.  0.
        4    1    3    3  502    0 -0.13653463978E+03 -0.11889380464E+02  0.22198348889E+02  0.13884323829E+03  0.12699999809E+01 0. -1.
       -4    1    3    3    0  502  0.13653463978E+03  0.11889380464E+02 -0.64759229145E+03  0.66193689584E+03  0.12699999809E+01 0.  1.
</event>
<event>
 5   0  0.2005125E-03  0.4999064E+03  0.7818609E-02  0.1013803E+00
        4   -1    0    0  501    0  0.00000000000E+00  0.00000000000E+00  0.15831002630E+03  0.15831512034E+03  0.12699999809E+01 0.  1.
       -4   -1    0    0    0  501  0.00000000000E+00  0.00000000000E+00 -0.39463470843E+03  0.39463675196E+03  0.12699999809E+01 0. -1.
    10030    2    1    2    0    0  0.00000000000E+00  0.00000000000E+00 -0.23632468212E+03  0.55295187230E+03  0.49990640894E+03 0.  0.
        5    1    3    3  502    0  0.99407817728E+02  0.76837208749E+02 -0.35711464232E+03  0.37860114716E+03  0.46999998093E+01 0. -1.
       -5    1    3    3    0  502 -0.99407817728E+02 -0.76837208749E+02  0.12078996019E+03  0.17435072514E+03  0.46999998093E+01 0.  1.
</event>
<event>
 5   0  0.4978779E-03  0.4998930E+03  0.7818609E-02  0.1013807E+00
       -2   -1    0    0    0  501  0.00000000000E+00  0.00000000000E+00  0.55874861697E+02  0.55874861755E+02  0.25500000920E-02 0. -1.
        2   -1    0    0  501    0  0.00000000000E+00  0.00000000000E+00 -0.11180921738E+04  0.11180921738E+04  0.25500000920E-02 0.  1.
    10030    2    1    2    0    0  0.00000000000E+00  0.00000000000E+00 -0.10622173121E+04  0.11739670355E+04  0.49989297099E+03 0.  0.
        1    1    3    3  502    0 -0.19695339414E+03  0.14005307921E+03 -0.38132807011E+03  0.45146052047E+03  0.50400001928E-02 0. -1.
       -1    1    3    3    0  502  0.19695339414E+03 -0.14005307921E+03 -0.68088924197E+03  0.72250651507E+03  0.50400001928E-02 0.  1.
</event>
<event>
 5   0  0.3211775E-03  0.4998483E+03  0.7818609E-02  0.1013819E+00
       -1   -1    0    0    0  501  0.00000000000E+00  0.00000000000E+00  0.78813680559E+02  0.78813680720E+02  0.50400001928E-02 0.  1.
        1   -1    0    0  501    0  0.00000000000E+00  0.00000000000E+00 -0.79252840933E+03  0.79252840935E+03  0.50400001928E-02 0. -1.
    10030    2    1    2    0    0  0.00000000000E+00  0.00000000000E+00 -0.71371472877E+03  0.87134209007E+03  0.49984830084E+03 0.  0.
        4    1    3    3  502    0  0.10186368043E+03  0.22559246146E+03 -0.41704998421E+03  0.48497471098E+03  0.12699999809E+01 0. -1.
       -4    1    3    3    0  502 -0.10186368043E+03 -0.22559246146E+03 -0.29666474456E+03  0.38636737909E+03  0.12699999809E+01 0.  1.
</event>
<event>
 5   0  0.3013734E-03  0.4997020E+03  0.7818609E-02  0.1013857E+00
       -1   -1    0    0    0  501  0.00000000000E+00  0.00000000000E+00  0.19938485607E+03  0.19938485613E+03  0.50400001928E-02 0.  1.
        1   -1    0    0  501    0  0.00000000000E+00  0.00000000000E+00 -0.31309056840E+03  0.31309056845E+03  0.50400001928E-02 0. -1.
    10030    2    1    2    0    0  0.00000000000E+00  0.00000000000E+00 -0.11370571234E+03  0.51247542457E+03  0.49970198296E+03 0.  0.
        2    1    3    3  502    0  0.10054367024E+03 -0.21875574694E+03  0.11656009832E+02  0.24103727723E+03  0.25500000920E-02 0.  1.
       -2    1    3    3    0  502 -0.10054367024E+03  0.21875574694E+03 -0.12536172217E+03  0.27143814735E+03  0.25500000920E-02 0. -1.
</event>
<event>
 5   0  0.2863538E-03  0.4999180E+03  0.7818609E-02  0.1013800E+00
       -1   -1    0    0    0  501  0.00000000000E+00  0.00000000000E+00  0.69897184685E+02  0.69897184867E+02  0.50400001928E-02 0.  1.
        1   -1    0    0  501    0  0.00000000000E+00  0.00000000000E+00 -0.89387705398E+03  0.89387705400E+03  0.50400001928E-02 0. -1.
    10030    2    1    2    0    0  0.00000000000E+00  0.00000000000E+00 -0.82397986930E+03  0.96377423886E+03  0.49991795176E+03 0.  0.
        1    1    3    3  502    0 -0.13475715173E+03 -0.14685933863E+03 -0.12119317587E+03  0.23327010351E+03  0.50400001928E-02 0.  1.
       -1    1    3    3    0  502  0.13475715173E+03  0.14685933863E+03 -0.70278669343E+03  0.73050413536E+03  0.50400001928E-02 0. -1.
</event>
<event>
 5   0  0.4978779E-03  0.4997916E+03  0.7818609E-02  0.1013833E+00
        2   -1    0    0  501    0  0.00000000000E+00  0.00000000000E+00  0.39276364814E+03  0.39276364815E+03  0.25500000920E-02 0.  1.
       -2   -1    0    0    0  501  0.00000000000E+00  0.00000000000E+00 -0.15899618490E+03  0.15899618492E+03  0.25500000920E-02 0. -1.
    10030    2    1    2    0    0  0.00000000000E+00  0.00000000000E+00  0.23376746324E+03  0.55175983307E+03  0.49979164311E+03 0.  0.
        1    1    3    3  502    0  0.20040620653E+03 -0.77187738842E+02  0.25794852476E+03  0.33564570025E+03  0.50400001928E-02 0. -1.
       -1    1    3    3    0  502 -0.20040620653E+03  0.77187738842E+02 -0.24181061519E+02  0.21611413282E+03  0.50400001928E-02 0.  1.
</event>
<event>
 5   0  0.2863538E-03  0.5001048E+03  0.7818609E-02  0.1013752E+00
       -1   -1    0    0    0  501  0.00000000000E+00  0.00000000000E+00  0.43488682619E+02  0.43488682911E+02  0.50400001928E-02 0. -1.
        1   -1    0    0  501    0  0.00000000000E+00  0.00000000000E+00 -0.14377579658E+04  0.14377579659E+04  0.50400001928E-02 0.  1.
    10030    2    1    2    0    0  0.00000000000E+00  0.00000000000E+00 -0.13942692832E+04  0.14812466488E+04  0.50010478935E+03 0.  0.
        1    1    3    3  502    0  0.21301099873E+03 -0.19280445531E+02 -0.10808175246E+04  0.11017767209E+04  0.50400001928E-02 0.  1.
       -1    1    3    3    0  502 -0.21301099873E+03  0.19280445531E+02 -0.31345175861E+03  0.37946992787E+03  0.50400001928E-02 0. -1.
</event>
<event>
 5   0  0.3057783E-03  0.4993898E+03  0.7818609E-02  0.1013938E+00
        1   -1    0    0  501    0  0.00000000000E+00  0.00000000000E+00  0.41389583915E+03  0.41389583918E+03  0.50400001928E-02 0.  1.
       -1   -1    0    0    0  501  0.00000000000E+00  0.00000000000E+00 -0.15063583316E+03  0.15063583324E+03  0.50400001928E-02 0. -1.
    10030    2    1    2    0    0  0.00000000000E+00  0.00000000000E+00  0.26326000599E+03  0.56453167243E+03  0.49938980608E+03 0.  0.
        5    1    3    3  502    0 -0.15644095031E+03  0.59988434673E+02  0.34084769140E+03  0.37983104397E+03  0.46999998093E+01 0.  1.
       -5    1    3    3    0  502  0.15644095031E+03 -0.59988434673E+02 -0.77587685410E+02  0.18470062846E+03  0.46999998093E+01 0. -1.
</event>
<event>
 5   0  0.3055293E-03  0.4999929E+03  0.7818609E-02  0.1013781E+00
        1   -1    0    0  501    0  0.00000000000E+00  0.00000000000E+00  0.93167936896E+03  0.93167936898E+03  0.50400001928E-02 0. -1.
       -1   -1    0    0    0  501  0.00000000000E+00  0.00000000000E+00 -0.67081250256E+02  0.67081250446E+02  0.50400001928E-02 0.  1.
    10030    2    1    2    0    0  0.00000000000E+00  0.00000000000E+00  0.86459811871E+03  0.99876061942E+03  0.49999286799E+03 0.  0.
        3    1    3    3  502    0  0.97369044629E+02  0.22988231404E+03  0.40613209952E+03  0.47672833104E+03  0.10100000352E+00 0. -1.
       -3    1    3    3    0  502 -0.97369044629E+02 -0.22988231404E+03  0.45846601919E+03  0.52203228838E+03  0.10100000352E+00 0.  1.
</event>
<event>
 5   0  0.4989875E-03  0.4998802E+03  0.7818609E-02  0.1013810E+00
       -2   -1    0    0    0  501  0.00000000000E+00  0.00000000000E+00  0.10526548062E+03  0.10526548065E+03  0.25500000920E-02 0.  1.
        2   -1    0    0  501    0  0.00000000000E+00  0.00000000000E+00 -0.59345240330E+03  0.59345240331E+03  0.25500000920E-02 0. -1.
    10030    2    1    2    0    0  0.00000000000E+00  0.00000000000E+00 -0.48818692268E+03  0.69871788396E+03  0.49988019554E+03 0.  0.
        2    1    3    3  502    0  0.24059925313E+03  0.63384889600E+02 -0.27730066973E+03  0.37256047331E+03  0.25500000920E-02 0. -1.
       -2    1    3    3    0  502 -0.24059925313E+03 -0.63384889600E+02 -0.21088625294E+03  0.32615741065E+03  0.25500000920E-02 0.  1.
</event>
<event>
 5   0  0.4989875E-03  0.4980171E+03  0.7818609E-02  0.1014298E+00
       -2   -1    0    0    0  501  0.00000000000E+00  0.00000000000E+00  0.60475193447E+02  0.60475193501E+02  0.25500000920E-02 0. -1.
        2   -1    0    0  501    0  0.00000000000E+00  0.00000000000E+00 -0.10253005153E+04  0.10253005153E+04  0.25500000920E-02 0.  1.
    10030    2    1    2    0    0  0.00000000000E+00  0.00000000000E+00 -0.96482532181E+03  0.10857757088E+04  0.49801705606E+03 0.  0.
        2    1    3    3  502    0  0.31782903587E+02  0.23861932029E+03 -0.34356445386E+03  0.41950669475E+03  0.25500000920E-02 0. -1.
       -2    1    3    3    0  502 -0.31782903587E+02 -0.23861932029E+03 -0.62126086796E+03  0.66626901402E+03  0.25500000920E-02 0.  1.
</event>
<event>
 5   0  0.2005125E-03  0.4999958E+03  0.7818609E-02  0.1013780E+00
        3   -1    0    0  501    0  0.00000000000E+00  0.00000000000E+00  0.15552202751E+03  0.15552206031E+03  0.10100000352E+00 0.  1.
       -3   -1    0    0    0  501  0.00000000000E+00  0.00000000000E+00 -0.40186548238E+03  0.40186549507E+03  0.10100000352E+00 0. -1.
    10030    2    1    2    0    0  0.00000000000E+00  0.00000000000E+00 -0.24634345487E+03  0.55738755538E+03  0.49999578912E+03 0.  0.
        1    1    3    3  502    0  0.21692580265E+03 -0.94346722145E+02 -0.33013022423E+02  0.23884716349E+03  0.50400001928E-02 0.  1.
       -1    1    3    3    0  502 -0.21692580265E+03  0.94346722145E+02 -0.21333043245E+03  0.31854039189E+03  0.50400001928E-02 0. -1.
</event>
<event>
 5   0  0.5095783E-03  0.5002565E+03  0.7818609E-02  0.1013712E+00
        2   -1    0    0  501    0  0.00000000000E+00  0.00000000000E+00  0.59842988323E+03  0.59842988323E+03  0.25500000920E-02 0.  1.
       -2   -1    0    0    0  501  0.00000000000E+00  0.00000000000E+00 -0.10454715591E+03  0.10454715594E+03  0.25500000920E-02 0. -1.
    10030    2    1    2    0    0  0.00000000000E+00  0.00000000000E+00  0.49388272731E+03  0.70297703918E+03  0.50025650348E+03 0.  0.
        4    1    3    3  502    0 -0.95225051025E+01 -0.21647842497E+03  0.42250523222E+03  0.47483246597E+03  0.12699999809E+01 0.  1.
       -4    1    3    3    0  502  0.95225051025E+01  0.21647842497E+03  0.71377495090E+02  0.22814457321E+03  0.12699999809E+01 0. -1.
</event>
<event>
 5   0  0.2005125E-03  0.5001383E+03  0.7818609E-02  0.1013743E+00
        3   -1    0    0  501    0  0.00000000000E+00  0.00000000000E+00  0.27922365664E+03  0.27922367490E+03  0.10100000352E+00 0. -1.
       -3   -1    0    0    0  501  0.00000000000E+00  0.00000000000E+00 -0.22395873021E+03  0.22395875299E+03  0.10100000352E+00 0.  1.
    10030    2    1    2    0    0  0.00000000000E+00  0.00000000000E+00  0.55264926424E+02  0.50318242789E+03  0.50013832451E+03 0.  0.
        1    1    3    3  502    0  0.61916593542E+02 -0.18055805670E+03 -0.13490488429E+03  0.23373960774E+03  0.50400001928E-02 0.  1.
       -1    1    3    3    0  502 -0.61916593542E+02  0.18055805670E+03  0.19016981071E+03  0.26944282015E+03  0.50400001928E-02 0. -1.
</event>
<event>
 5   0  0.3057783E-03  0.5000344E+03  0.7818609E-02  0.1013770E+00
        1   -1    0    0  501    0  0.00000000000E+00  0.00000000000E+00  0.64180927968E+03  0.64180927970E+03  0.50400001928E-02 0. -1.
       -1   -1    0    0    0  501  0.00000000000E+00  0.00000000000E+00 -0.97394355061E+02  0.97394355191E+02  0.50400001928E-02 0.  1.
    10030    2    1    2    0    0  0.00000000000E+00  0.00000000000E+00  0.54441492462E+03  0.73920363489E+03  0.50003440250E+03 0.  0.
        5    1    3    3  502    0  0.12027511221E+03  0.37976344070E+02  0.59125513839E+03  0.60457673954E+03  0.46999998093E+01 0. -1.
       -5    1    3    3    0  502 -0.12027511221E+03 -0.37976344070E+02 -0.46840213770E+02  0.13462689535E+03  0.46999998093E+01 0.  1.
</event>
<event>
 5   0  0.2863538E-03  0.5001102E+03  0.7818609E-02  0.1013750E+00
        1   -1    0    0  501    0  0.00000000000E+00  0.00000000000E+00  0.19841114567E+03  0.19841114573E+03  0.50400001928E-02 0. -1.
       -1   -1    0    0    0  501  0.00000000000E+00  0.00000000000E+00 -0.31514138904E+03  0.31514138908E+03  0.50400001928E-02 0.  1.
    10030    2    1    2    0    0  0.00000000000E+00  0.00000000000E+00 -0.11673024337E+03  0.51355253481E+03  0.50011024414E+03 0.  0.
        1    1    3    3  502    0 -0.16176935400E+03 -0.12921021611E+03  0.85628606629E+02  0.22404656244E+03  0.50400001928E-02 0. -1.
       -1    1    3    3    0  502  0.16176935400E+03  0.12921021611E+03 -0.20235885000E+03  0.28950597237E+03  0.50400001928E-02 0.  1.
</event>
<event>
 5   0  0.3013734E-03  0.4999317E+03  0.7818609E-02  0.1013797E+00
       -1   -1    0    0    0  501  0.00000000000E+00  0.00000000000E+00  0.13412958838E+03  0.13412958848E+03  0.50400001928E-02 0.  1.
        1   -1    0    0  501    0  0.00000000000E+00  0.00000000000E+00 -0.46583991618E+03  0.46583991621E+03  0.50400001928E-02 0. -1.
    10030    2    1    2    0    0  0.00000000000E+00  0.00000000000E+00 -0.33171032780E+03  0.59996950468E+03  0.49993166031E+03 0.  0.
        2    1    3    3  502    0  0.16459952352E+03 -0.18062184241E+03 -0.22896806971E+03  0.33487853030E+03  0.25500000920E-02 0.  1.
       -2    1    3    3    0  502 -0.16459952352E+03  0.18062184241E+03 -0.10274225809E+03  0.26509097439E+03  0.25500000920E-02 0. -1.
</event>
<event>
 5   0  0.4889251E-03  0.4999140E+03  0.7818609E-02  0.1013801E+00
        2   -1    0    0  501    0  0.00000000000E+00  0.00000000000E+00  0.57782902369E+03  0.57782902369E+03  0.25500000920E-02 0.  1.
       -2   -1    0    0    0  501  0.00000000000E+00  0.00000000000E+00 -0.10812625741E+03  0.10812625744E+03  0.25500000920E-02 0. -1.
    10030    2    1    2    0    0  0.00000000000E+00  0.00000000000E+00  0.46970276628E+03  0.68595528113E+03  0.49991395165E+03 0.  0.
        5    1    3    3  502    0 -0.18877767426E+03 -0.14172265430E+02  0.45871969929E+03  0.49626980154E+03  0.46999998093E+01 0.  1.
       -5    1    3    3    0  502  0.18877767426E+03  0.14172265430E+02  0.10983066995E+02  0.18968547959E+03  0.46999998093E+01 0. -1.
</event>
<event>
 5   0  0.3055293E-03  0.4998737E+03  0.7818609E-02  0.1013812E+00
        1   -1    0    0  501    0  0.00000000000E+00  0.00000000000E+00  0.55448474985E+03  0.55448474987E+03  0.50400001928E-02 0. -1.
       -1   -1    0    0    0  501  0.00000000000E+00  0.00000000000E+00 -0.11266033980E+03  0.11266033992E+03  0.50400001928E-02 0.  1.
    10030    2    1    2    0    0  0.00000000000E+00  0.00000000000E+00  0.44182441005E+03  0.66714508979E+03  0.49987374558E+03 0.  0.
        3    1    3    3  502    0 -0.75911323932E+01  0.18848444865E+03  0.43974392925E+03  0.47849633874E+03  0.10100000352E+00 0. -1.
       -3    1    3    3    0  502  0.75911323932E+01 -0.18848444865E+03  0.20804808012E+01  0.18864875105E+03  0.10100000352E+00 0.  1.
</event>
<event>
 5   0  0.3013734E-03  0.4998183E+03  0.7818609E-02  0.1013826E+00
        1   -1    0    0  501    0  0.00000000000E+00  0.00000000000E+00  0.17128242351E+04  0.17128242351E+04  0.50400001928E-02 0. -1.
       -1   -1    0    0    0  501  0.00000000000E+00  0.00000000000E+00 -0.36462923348E+02  0.36462923696E+02  0.50400001928E-02 0.  1.
    10030    2    1    2    0    0  0.00000000000E+00  0.00000000000E+00  0.16763613117E+04  0.17492871588E+04  0.49981828339E+03 0.  0.
        2    1    3    3  502    0  0.11389785726E+03  0.17511517251E+03  0.35809494581E+03  0.41457211164E+03  0.25500000920E-02 0.  1.
       -2    1    3    3    0  502 -0.11389785726E+03 -0.17511517251E+03  0.13182663659E+04  0.13347150471E+04  0.25500000920E-02 0. -1.
</event>
<event>
 5   0  0.4889251E-03  0.4997877E+03  0.7818609E-02  0.1013834E+00
        2   -1    0    0  501    0  0.00000000000E+00  0.00000000000E+00  0.10337191953E+03  0.10337191956E+03  0.25500000920E-02 0. -1.
       -2   -1    0    0    0  501  0.00000000000E+00  0.00000000000E+00 -0.60409963728E+03  0.60409963728E+03  0.25500000920E-02 0.  1.
    10030    2    1    2    0    0  0.00000000000E+00  0.00000000000E+00 -0.50072771775E+03  0.70747155684E+03  0.49978771135E+03 0.  0.
        5    1    3    3  502    0 -0.17423480129E+02  0.11149481158E+03 -0.56590695950E+03  0.57706797475E+03  0.46999998093E+01 0.  1.
       -5    1    3    3    0  502  0.17423480129E+02 -0.11149481158E+03  0.65179241754E+02  0.13040358209E+03  0.46999998093E+01 0. -1.
</event>
<event>
 5   0  0.3055293E-03  0.4998242E+03  0.7818609E-02  0.1013825E+00
       -1   -1    0    0    0  501  0.00000000000E+00  0.00000000000E+00  0.44769430470E+03  0.44769430473E+03  0.50400001928E-02 0.  1.
        1   -1    0    0  501    0  0.00000000000E+00  0.00000000000E+00 -0.13950605840E+03  0.13950605849E+03  0.50400001928E-02 0. -1.
    10030    2    1    2    0    0  0.00000000000E+00  0.00000000000E+00  0.30818824630E+03  0.58720036321E+03  0.49982424051E+03 0.  0.
        3    1    3    3  502    0 -0.23585796532E+03 -0.82083322502E+02  0.16520254479E+03  0.29943036360E+03  0.10100000352E+00 0.  1.
       -3    1    3    3    0  502  0.23585796532E+03  0.82083322502E+02  0.14298570151E+03  0.28776999961E+03  0.10100000352E+00 0. -1.
</event>
<event>
 5   0  0.3055293E-03  0.5001186E+03  0.7818609E-02  0.1013748E+00
       -1   -1    0    0    0  501  0.00000000000E+00  0.00000000000E+00  0.14936651601E+03  0.14936651610E+03  0.50400001928E-02 0.  1.
        1   -1    0    0  501    0  0.00000000000E+00  0.00000000000E+00 -0.41863229725E+03  0.41863229728E+03  0.50400001928E-02 0. -1.
    10030    2    1    2    0    0  0.00000000000E+00  0.00000000000E+00 -0.26926578124E+03  0.56799881337E+03  0.50011857699E+03 0.  0.
        3    1    3    3  502    0 -0.13380884433E+03  0.19277412852E+03 -0.23274670870E+03  0.33051128885E+03  0.10100000352E+00 0.  1.
       -3    1    3    3    0  502  0.13380884433E+03 -0.19277412852E+03 -0.36519072540E+02  0.23748752453E+03  0.10100000352E+00 0. -1.
</event>
<event>
 5   0  0.2863538E-03  0.5004042E+03  0.7818609E-02  0.1013673E+00
       -1   -1    0    0    0  501  0.00000000000E+00  0.00000000000E+00  0.14868509181E+03  0.14868509189E+03  0.50400001928E-02 0.  1.
        1   -1    0    0  501    0  0.00000000000E+00  0.00000000000E+00 -0.42103138214E+03  0.42103138217E+03  0.50400001928E-02 0. -1.
    10030    2    1    2    0    0  0.00000000000E+00  0.00000000000E+00 -0.27234629034E+03  0.56971647406E+03  0.50040419559E+03 0.  0.
        1    1    3    3  502    0  0.16930473473E+03  0.17541016032E+03 -0.20025706622E+03  0.31549280521E+03  0.50400001928E-02 0. -1.
       -1    1    3    3    0  502 -0.16930473473E+03 -0.17541016032E+03 -0.72089224114E+02  0.25422366885E+03  0.50400001928E-02 0.  1.
</event>
<event>
 5   0  0.2005125E-03  0.5000438E+03  0.7818609E-02  0.1013767E+00
        4   -1    0    0  501    0  0.00000000000E+00  0.00000000000E+00  0.85039641941E+02  0.85049124637E+02  0.12699999809E+01 0. -1.
       -4   -1    0    0    0  501  0.00000000000E+00  0.00000000000E+00 -0.73502910840E+03  0.73503020557E+03  0.12699999809E+01 0.  1.
    10030    2    1    2    0    0  0.00000000000E+00  0.00000000000E+00 -0.64998946646E+03  0.82007933021E+03  0.50004379940E+03 0.  0.
        4    1    3    3  502    0 -0.90260296056E+02 -0.20064522320E+03 -0.51976272919E+03  0.56441149367E+03  0.12699999809E+01 0.  1.
       -4    1    3    3    0  502  0.90260296056E+02  0.20064522320E+03 -0.13022673727E+03  0.25566783653E+03  0.12699999809E+01 0. -1.
</event>
<event>
 5   0  0.3211775E-03  0.5001210E+03  0.7818609E-02  0.1013747E+00
       -1   -1    0    0    0  501  0.00000000000E+00  0.00000000000E+00  0.75263152294E+02  0.75263152462E+02  0.50400001928E-02 0.  1.
        1   -1    0    0  501    0  0.00000000000E+00  0.00000000000E+00 -0.83082167635E+03  0.83082167636E+03  0.50400001928E-02 0. -1.
    10030    2    1    2    0    0  0.00000000000E+00  0.00000000000E+00 -0.75555852406E+03  0.90608482883E+03  0.50012101911E+03 0.  0.
        4    1    3    3  502    0 -0.10034675208E+03 -0.22423220529E+03 -0.29320628199E+03  0.38251939721E+03  0.12699999809E+01 0.  1.
       -4    1    3    3    0  502  0.10034675208E+03  0.22423220529E+03 -0.46235224207E+03  0.52356543162E+03  0.12699999809E+01 0. -1.
</event>
<event>
 5   0  0.3013734E-03  0.4999525E+03  0.7818609E-02  0.1013791E+00
       -1   -1    0    0    0  501  0.00000000000E+00  0.00000000000E+00  0.17610646275E+03  0.17610646282E+03  0.50400001928E-02 0. -1.
        1   -1    0    0  501    0  0.00000000000E+00  0.00000000000E+00 -0.35483156200E+03  0.35483156203E+03  0.50400001928E-02 0.  1.
    10030    2    1    2    0    0  0.00000000000E+00  0.00000000000E+00 -0.17872509925E+03  0.53093802486E+03  0.49995252288E+03 0.  0.
        2    1    3    3  502    0 -0.19245892407E+03  0.13994593861E+03 -0.17067717127E+03  0.29284125390E+03  0.25500000920E-02 0.  1.
       -2    1    3    3    0  502  0.19245892407E+03 -0.13994593861E+03 -0.80479279734E+01  0.23809677095E+03  0.25500000920E-02 0. -1.
</event>
<event>
 5   0  0.5118882E-03  0.4997912E+03  0.7818609E-02  0.1013833E+00
       -2   -1    0    0    0  501  0.00000000000E+00  0.00000000000E+00  0.16171549200E+03  0.16171549202E+03  0.25500000920E-02 0.  1.
        2   -1    0    0  501    0  0.00000000000E+00  0.00000000000E+00 -0.38615854714E+03  0.38615854715E+03  0.25500000920E-02 0. -1.
    10030    2    1    2    0    0  0.00000000000E+00  0.00000000000E+00 -0.22444305514E+03  0.54787403917E+03  0.49979123421E+03 0.  0.
        3    1    3    3  502    0  0.32503948443E+01 -0.24952335147E+03 -0.97705956027E+02  0.26799054468E+03  0.10100000352E+00 0. -1.
       -3    1    3    3    0  502 -0.32503948443E+01  0.24952335147E+03 -0.12673709911E+03  0.27988349449E+03  0.10100000352E+00 0.  1.
</event>
<event>
 5   0  0.5095783E-03  0.5031209E+03  0.7818609E-02  0.1012968E+00
        2   -1    0    0  501    0  0.00000000000E+00  0.00000000000E+00  0.85139315942E+03  0.85139315943E+03  0.25500000920E-02 0. -1.
       -2   -1    0    0    0  501  0.00000000000E+00  0.00000000000E+00 -0.74328355065E+02  0.74328355109E+02  0.25500000920E-02 0.  1.
    10030    2    1    2    0    0  0.00000000000E+00  0.00000000000E+00  0.77706480436E+03  0.92572151454E+03  0.50312087246E+03 0.  0.
        4    1    3    3  502    0  0.53588651002E+02  0.12432107281E+03 -0.15803113346E+01  0.13539417618E+03  0.12699999809E+01 0.  1.
       -4    1    3    3    0  502 -0.53588651002E+02 -0.12432107281E+03  0.77864511569E+03  0.79032733836E+03  0.12699999809E+01 0. -1.
</event>
<event>
 5   0  0.5095783E-03  0.4998559E+03  0.7818609E-02  0.1013817E+00
        2   -1    0    0  501    0  0.00000000000E+00  0.00000000000E+00  0.50664515108E+03  0.50664515109E+03  0.25500000920E-02 0.  1.
       -2   -1    0    0    0  501  0.00000000000E+00  0.00000000000E+00 -0.12328939390E+03  0.12328939393E+03  0.25500000920E-02 0. -1.
    10030    2    1    2    0    0  0.00000000000E+00  0.00000000000E+00  0.38335575718E+03  0.62993454501E+03  0.49985587367E+03 0.  0.
        4    1    3    3  502    0 -0.77074857619E+02 -0.14858957842E+03 -0.42206322310E+02  0.17263366715E+03  0.12699999809E+01 0. -1.
       -4    1    3    3    0  502  0.77074857619E+02  0.14858957842E+03  0.42556207949E+03  0.45730087786E+03  0.12699999809E+01 0.  1.
</event>
<event>
 5   0  0.3057783E-03  0.5004857E+03  0.7818609E-02  0.1013652E+00
        1   -1    0    0  501    0  0.00000000000E+00  0.00000000000E+00  0.15118611669E+04  0.15118611669E+04  0.50400001928E-02 0.  1.
       -1   -1    0    0    0  501  0.00000000000E+00  0.00000000000E+00 -0.41420126460E+02  0.41420126766E+02  0.50400001928E-02 0. -1.
    10030    2    1    2    0    0  0.00000000000E+00  0.00000000000E+00  0.14704410405E+04  0.15532812937E+04  0.50048568798E+03 0.  0.
        5    1    3    3  502    0  0.18218428052E+03 -0.14601627631E+03  0.10143246695E+04  0.10408594959E+04  0.46999998093E+01 0.  1.
       -5    1    3    3    0  502 -0.18218428052E+03  0.14601627631E+03  0.45611637096E+03  0.51242179781E+03  0.46999998093E+01 0. -1.
</event>
<event>
 5   0  0.3055293E-03  0.5001428E+03  0.7818609E-02  0.1013742E+00
        1   -1    0    0  501    0  0.00000000000E+00  0.00000000000E+00  0.19163319062E+04  0.19163319062E+04  0.50400001928E-02 0. -1.
       -1   -1    0    0    0  501  0.00000000000E+00  0.00000000000E+00 -0.32633020566E+02  0.32633020955E+02  0.50400001928E-02 0.  1.
    10030    2    1    2    0    0  0.00000000000E+00  0.00000000000E+00  0.18836988857E+04  0.19489649272E+04  0.50014277519E+03 0.  0.
        3    1    3    3  502    0 -0.11959938763E+03 -0.47357469687E+02  0.10617571530E+03  0.16679339369E+03  0.10100000352E+00 0.  1.
       -3    1    3    3    0  502  0.11959938763E+03  0.47357469687E+02  0.17775231703E+04  0.17821715335E+04  0.10100000352E+00 0. -1.
</event>
<event>
 5   0  0.5095783E-03  0.4999613E+03  0.7818609E-02  0.1013789E+00
       -2   -1    0    0    0  501  0.00000000000E+00  0.00000000000E+00  0.65816969097E+02  0.65816969147E+02  0.25500000920E-02 0.  1.
        2   -1    0    0  501    0  0.00000000000E+00  0.00000000000E+00 -0.94945632137E+03  0.94945632137E+03  0.25500000920E-02 0. -1.
    10030    2    1    2    0    0  0.00000000000E+00  0.00000000000E+00 -0.88363935227E+03  0.10152732905E+04  0.49996134806E+03 0.  0.
        4    1    3    3  502    0 -0.22420077830E+02  0.23136370468E+03 -0.62856603710E+03  0.67017064963E+03  0.12699999809E+01 0.  1.
       -4    1    3    3    0  502  0.22420077830E+02 -0.23136370468E+03 -0.25507331518E+03  0.34510264089E+03  0.12699999809E+01 0. -1.
</event>
<event>
 5   0  0.2005125E-03  0.4998255E+03  0.7818609E-02  0.1013824E+00
        3   -1    0    0  501    0  0.00000000000E+00  0.00000000000E+00  0.64258838695E+02  0.64258918070E+02  0.10100000352E+00 0.  1.
       -3   -1    0    0    0  501  0.00000000000E+00  0.00000000000E+00 -0.97194926139E+03  0.97194926664E+03  0.10100000352E+00 0. -1.
    10030    2    1    2    0    0  0.00000000000E+00  0.00000000000E+00 -0.90769042270E+03  0.10362081847E+04  0.49982546814E+03 0.  0.
        1    1    3    3  502    0  0.32707483985E+02 -0.24657254819E+03 -0.50414069907E+03  0.56216158310E+03  0.50400001928E-02 0. -1.
       -1    1    3    3    0  502 -0.32707483985E+02  0.24657254819E+03 -0.40354972362E+03  0.47404660161E+03  0.50400001928E-02 0.  1.
</event>
<event>
 5   0  0.4889251E-03  0.5010280E+03  0.7818609E-02  0.1013511E+00
        2   -1    0    0  501    0  0.00000000000E+00  0.00000000000E+00  0.10829389313E+04  0.10829389314E+04  0.25500000920E-02 0. -1.
       -2   -1    0    0    0  501  0.00000000000E+00  0.00000000000E+00 -0.57950869229E+02  0.57950869285E+02  0.25500000920E-02 0.  1.
    10030    2    1    2    0    0  0.00000000000E+00  0.00000000000E+00  0.10249880621E+04  0.11408898006E+04  0.50102795302E+03 0.  0.
        5    1    3    3  502    0  0.87494821192E+02 -0.86811191763E+02  0.15984104219E+02  0.12437487020E+03  0.46999998093E+01 0.  1.
       -5    1    3    3    0  502 -0.87494821192E+02  0.86811191763E+02  0.10090039579E+04  0.10165149304E+04  0.46999998093E+01 0. -1.
</event>
<event>
 5   0  0.3057783E-03  0.5000121E+03  0.7818609E-02  0.1013776E+00
       -1   -1    0    0    0  501  0.00000000000E+00  0.00000000000E+00  0.16166641557E+03  0.16166641564E+03  0.50400001928E-02 0.  1.
        1   -1    0    0  501    0  0.00000000000E+00  0.00000000000E+00 -0.38661717569E+03  0.38661717572E+03  0.50400001928E-02 0. -1.
    10030    2    1    2    0    0  0.00000000000E+00  0.00000000000E+00 -0.22495076013E+03  0.54828359137E+03  0.50001205194E+03 0.  0.
        5    1    3    3  502    0 -0.95958423192E+02  0.13017832598E+03  0.96519958328E+02  0.18839481917E+03  0.46999998093E+01 0.  1.
       -5    1    3    3    0  502  0.95958423192E+02 -0.13017832598E+03 -0.32147071845E+03  0.35988877220E+03  0.46999998093E+01 0. -1.
</event>
<event>
 5   0  0.3055293E-03  0.4999363E+03  0.7818609E-02  0.1013796E+00
        1   -1    0    0  501    0  0.00000000000E+00  0.00000000000E+00  0.41029864892E+03  0.41029864895E+03  0.50400001928E-02 0. -1.
       -1   -1    0    0    0  501  0.00000000000E+00  0.00000000000E+00 -0.15228923785E+03  0.15228923793E+03  0.50400001928E-02 0.  1.
    10030    2    1    2    0    0  0.00000000000E+00  0.00000000000E+00  0.25800941107E+03  0.56258788688E+03  0.49993627020E+03 0.  0.
        3    1    3    3  502    0 -0.16819553684E+03  0.18170936015E+03  0.16759557794E+03  0.29899217067E+03  0.10100000352E+00 0.  1.
       -3    1    3    3    0  502  0.16819553684E+03 -0.18170936015E+03  0.90413833128E+02  0.26359571620E+03  0.10100000352E+00 0. -1.
</event>
<event>
 5   0  0.4989875E-03  0.4999177E+03  0.7818609E-02  0.1013800E+00
        2   -1    0    0  501    0  0.00000000000E+00  0.00000000000E+00  0.35803153825E+03  0.35803153825E+03  0.25500000920E-02 0.  1.
       -2   -1    0    0    0  501  0.00000000000E+00  0.00000000000E+00 -0.17450814971E+03  0.17450814973E+03  0.25500000920E-02 0. -1.
    10030    2    1    2    0    0  0.00000000000E+00  0.00000000000E+00  0.18352338854E+03  0.53253968798E+03  0.49991767836E+03 0.  0.
        2    1    3    3  502    0 -0.17554856814E+03 -0.71087902797E+02 -0.82004286071E+02  0.20638675501E+03  0.25500000920E-02 0. -1.
       -2    1    3    3    0  502  0.17554856814E+03  0.71087902797E+02  0.26552767461E+03  0.32615293298E+03  0.25500000920E-02 0.  1.
</event>
<event>
 5   0  0.4889251E-03  0.4999855E+03  0.7818609E-02  0.1013783E+00
       -2   -1    0    0    0  501  0.00000000000E+00  0.00000000000E+00  0.93915855031E+02  0.93915855066E+02  0.25500000920E-02 0.  1.
        2   -1    0    0  501    0  0.00000000000E+00  0.00000000000E+00 -0.66545069984E+03  0.66545069985E+03  0.25500000920E-02 0. -1.
    10030    2    1    2    0    0  0.00000000000E+00  0.00000000000E+00 -0.57153484481E+03  0.75936655491E+03  0.49998548568E+03 0.  0.
        5    1    3    3  502    0  0.12454445969E+03  0.70175954936E+02 -0.59716599092E+03  0.61405642884E+03  0.46999998093E+01 0. -1.
       -5    1    3    3    0  502 -0.12454445969E+03 -0.70175954936E+02  0.25631146109E+02  0.14531012607E+03  0.46999998093E+01 0.  1.
</event>
<event>
 5   0  0.4978779E-03  0.4999308E+03  0.7818609E-02  0.1013797E+00
       -2   -1    0    0    0  501  0.00000000000E+00  0.00000000000E+00  0.11911973410E+03  0.11911973413E+03  0.25500000920E-02 0.  1.
        2   -1    0    0  501    0  0.00000000000E+00  0.00000000000E+00 -0.52453684436E+03  0.52453684437E+03  0.25500000920E-02 0. -1.
    10030    2    1    2    0    0  0.00000000000E+00  0.00000000000E+00 -0.40541711026E+03  0.64365657850E+03  0.49993075296E+03 0.  0.
        1    1    3    3  502    0  0.15971148878E+03 -0.17708387406E+03 -0.29919512171E+03  0.38260185439E+03  0.50400001928E-02 0. -1.
       -1    1    3    3    0  502 -0.15971148878E+03  0.17708387406E+03 -0.10622198855E+03  0.26105472411E+03  0.50400001928E-02 0.  1.
</event>
<event>
 5   0  0.5095783E-03  0.4998119E+03  0.7818609E-02  0.1013828E+00
       -2   -1    0    0    0  501  0.00000000000E+00  0.00000000000E+00  0.24368898758E+03  0.24368898759E+03  0.25500000920E-02 0. -1.
        2   -1    0    0  501    0  0.00000000000E+00  0.00000000000E+00 -0.25628155848E+03  0.25628155850E+03  0.25500000920E-02 0.  1.
    10030    2    1    2    0    0  0.00000000000E+00  0.00000000000E+00 -0.12592570906E+02  0.49997054609E+03  0.49981193875E+03 0.  0.
        4    1    3    3  502    0 -0.12655546639E+03  0.88655639974E+02  0.19017192682E+03  0.24503690176E+03  0.12699999809E+01 0. -1.
       -4    1    3    3    0  502  0.12655546639E+03 -0.88655639974E+02 -0.20276449773E+03  0.25493364433E+03  0.12699999809E+01 0.  1.
</event>
<event>
 5   0  0.4889251E-03  0.4999974E+03  0.7818609E-02  0.1013780E+00
        2   -1    0    0  501    0  0.00000000000E+00  0.00000000000E+00  0.86563173190E+03  0.86563173190E+03  0.25500000920E-02 0. -1.
       -2   -1    0    0    0  501  0.00000000000E+00  0.00000000000E+00 -0.72200864959E+02  0.72200865004E+02  0.25500000920E-02 0.  1.
    10030    2    1    2    0    0  0.00000000000E+00  0.00000000000E+00  0.79343086694E+03  0.93783259690E+03  0.49999743920E+03 0.  0.
        5    1    3    3  502    0 -0.23810153851E+03 -0.76018839622E+02  0.40133400816E+03  0.47282373325E+03  0.46999998093E+01 0.  1.
       -5    1    3    3    0  502  0.23810153851E+03  0.76018839622E+02  0.39209685878E+03  0.46500886366E+03  0.46999998093E+01 0. -1.
</event>
<event>
 5   0  0.5118882E-03  0.5002145E+03  0.7818609E-02  0.1013723E+00
        2   -1    0    0  501    0  0.00000000000E+00  0.00000000000E+00  0.28418285828E+03  0.28418285830E+03  0.25500000920E-02 0. -1.
       -2   -1    0    0    0  501  0.00000000000E+00  0.00000000000E+00 -0.22011756527E+03  0.22011756529E+03  0.25500000920E-02 0.  1.
    10030    2    1    2    0    0  0.00000000000E+00  0.00000000000E+00  0.64065293012E+02  0.50430042358E+03  0.50021450944E+03 0.  0.
        3    1    3    3  502    0  0.10013373950E+03 -0.50936001015E+02 -0.19324816949E+03  0.22353099830E+03  0.10100000352E+00 0.  1.
       -3    1    3    3    0  502 -0.10013373950E+03  0.50936001015E+02  0.25731346251E+03  0.28076942528E+03  0.10100000352E+00 0. -1.
</event>
<event>
 5   0  0.3013734E-03  0.4997773E+03  0.7818609E-02  0.1013837E+00
        1   -1    0    0  501    0  0.00000000000E+00  0.00000000000E+00  0.13891595879E+04  0.13891595879E+04  0.50400001928E-02 0.  1.
       -1   -1    0    0    0  501  0.00000000000E+00  0.00000000000E+00 -0.44951167933E+02  0.44951168215E+02  0.50400001928E-02 0. -1.
    10030    2    1    2    0    0  0.00000000000E+00  0.00000000000E+00  0.13442084199E+04  0.14341107561E+04  0.49977733493E+03 0.  0.
        2    1    3    3  502    0 -0.16176057910E+03  0.18411646767E+03  0.81206365654E+03  0.84824096865E+03  0.25500000920E-02 0.  1.
       -2    1    3    3    0  502  0.16176057910E+03 -0.18411646767E+03  0.53214476339E+03  0.58586978743E+03  0.25500000920E-02 0. -1.
</event>
<event>
 5   0  0.4889251E-03  0.5007824E+03  0.7818609E-02  0.1013575E+00
        2   -1    0    0  501    0  0.00000000000E+00  0.00000000000E+00  0.17391682351E+04  0.17391682351E+04  0.25500000920E-02 0.  1.
       -2   -1    0    0    0  501  0.00000000000E+00  0.00000000000E+00 -0.36049272365E+02  0.36049272455E+02  0.25500000920E-02 0. -1.
    10030    2    1    2    0    0  0.00000000000E+00  0.00000000000E+00  0.17031189627E+04  0.17752175075E+04  0.50078238578E+03 0.  0.
        5    1    3    3  502    0  0.31599690074E+02 -0.18725316837E+03  0.27328218196E+03  0.33281756331E+03  0.46999998093E+01 0. -1.
       -5    1    3    3    0  502 -0.31599690074E+02  0.18725316837E+03  0.14298367808E+04  0.14423999442E+04  0.46999998093E+01 0.  1.
</event>
<event>
 5   0  0.3057783E-03  0.5000504E+03  0.7818609E-02  0.1013766E+00
       -1   -1    0    0    0  501  0.00000000000E+00  0.00000000000E+00  0.79415797696E+02  0.79415797856E+02  0.50400001928E-02 0. -1.
        1   -1    0    0  501    0  0.00000000000E+00  0.00000000000E+00 -0.78715581829E+03  0.78715581831E+03  0.50400001928E-02 0.  1.
    10030    2    1    2    0    0  0.00000000000E+00  0.00000000000E+00 -0.70774002060E+03  0.86657161617E+03  0.50005042665E+03 0.  0.
        5    1    3    3  502    0  0.19987852327E+03  0.11447293507E+03 -0.18553961659E+03  0.29580824237E+03  0.46999998093E+01 0. -1.
       -5    1    3    3    0  502 -0.19987852327E+03 -0.11447293507E+03 -0.52220040400E+03  0.57076337380E+03  0.46999998093E+01 0.  1.
</event>
<event>
 5   0  0.3057783E-03  0.5000123E+03  0.7818609E-02  0.1013776E+00
       -1   -1    0    0    0  501  0.00000000000E+00  0.00000000000E+00  0.27140124724E+03  0.27140124728E+03  0.50400001928E-02 0.  1.
        1   -1    0    0  501    0  0.00000000000E+00  0.00000000000E+00 -0.23029765748E+03  0.23029765753E+03  0.50400001928E-02 0. -1.
    10030    2    1    2    0    0  0.00000000000E+00  0.00000000000E+00  0.41103589760E+02  0.50169890482E+03  0.50001228585E+03 0.  0.
        5    1    3    3  502    0  0.21030426720E+03  0.10070543956E+03 -0.69815932794E+02  0.24344573283E+03  0.46999998093E+01 0. -1.
       -5    1    3    3    0  502 -0.21030426720E+03 -0.10070543956E+03  0.11091952255E+03  0.25825317199E+03  0.46999998093E+01 0.  1.
</event>
<event>
 5   0  0.3057783E-03  0.4995581E+03  0.7818609E-02  0.1013894E+00
       -1   -1    0    0    0  501  0.00000000000E+00  0.00000000000E+00  0.30961489128E+03  0.30961489132E+03  0.50400001928E-02 0.  1.
        1   -1    0    0  501    0  0.00000000000E+00  0.00000000000E+00 -0.20150700944E+03  0.20150700950E+03  0.50400001928E-02 0. -1.
    10030    2    1    2    0    0  0.00000000000E+00  0.00000000000E+00  0.10810788184E+03  0.51112190083E+03  0.49955808810E+03 0.  0.
        5    1    3    3  502    0  0.89901749987E+02 -0.41511629593E+02  0.28862487207E+03  0.30517527229E+03  0.46999998093E+01 0.  1.
       -5    1    3    3    0  502 -0.89901749987E+02  0.41511629593E+02 -0.18051699023E+03  0.20594662853E+03  0.46999998093E+01 0. -1.
</event>
<event>
 5   0  0.3211775E-03  0.5000245E+03  0.7818609E-02  0.1013773E+00
       -1   -1    0    0    0  501  0.00000000000E+00  0.00000000000E+00  0.75972105910E+02  0.75972106077E+02  0.50400001928E-02 0. -1.
        1   -1    0    0  501    0  0.00000000000E+00  0.00000000000E+00 -0.82275107435E+03  0.82275107436E+03  0.50400001928E-02 0.  1.
    10030    2    1    2    0    0  0.00000000000E+00  0.00000000000E+00 -0.74677896844E+03  0.89872318044E+03  0.50002452676E+03 0.  0.
        4    1    3    3  502    0 -0.11100079531E+03 -0.10773164982E+03 -0.20368778594E+02  0.15602494984E+03  0.12699999809E+01 0. -1.
       -4    1    3    3    0  502  0.11100079531E+03  0.10773164982E+03 -0.72641018984E+03  0.74269823060E+03  0.12699999809E+01 0.  1.
</event>
<event>
 5   0  0.5118882E-03  0.5000180E+03  0.7818609E-02  0.1013774E+00
       -2   -1    0    0    0  501  0.00000000000E+00  0.00000000000E+00  0.16656673214E+03  0.16656673216E+03  0.25500000920E-02 0. -1.
        2   -1    0    0  501    0  0.00000000000E+00  0.00000000000E+00 -0.37525198478E+03  0.37525198479E+03  0.25500000920E-02 0.  1.
    10030    2    1    2    0    0  0.00000000000E+00  0.00000000000E+00 -0.20868525264E+03  0.54181871694E+03  0.50001798704E+03 0.  0.
        3    1    3    3  502    0  0.16844453554E+03  0.15270692570E+02  0.95162330667E+02  0.19406863472E+03  0.10100000352E+00 0. -1.
       -3    1    3    3    0  502 -0.16844453554E+03 -0.15270692570E+02 -0.30384758331E+03  0.34775008222E+03  0.10100000352E+00 0.  1.
</event>
<event>
 5   0  0.2005125E-03  0.4996196E+03  0.7818609E-02  0.1013878E+00
       -4   -1    0    0    0  501  0.00000000000E+00  0.00000000000E+00  0.98782969453E+02  0.98791132972E+02  0.12699999809E+01 0. -1.
        4   -1    0    0  501    0  0.00000000000E+00  0.00000000000E+00 -0.63170290046E+03  0.63170417709E+03  0.12699999809E+01 0.  1.
    10030    2    1    2    0    0  0.00000000000E+00  0.00000000000E+00 -0.53291993101E+03  0.73049531006E+03  0.49961960045E+03 0.  0.
        4    1    3    3  502    0 -0.71727273087E+02 -0.23830415081E+03 -0.29814591271E+03  0.38836357729E+03  0.12699999809E+01 0. -1.
       -4    1    3    3    0  502  0.71727273087E+02  0.23830415081E+03 -0.23477401829E+03  0.34213173277E+03  0.12699999809E+01 0.  1.
</event>
<event>
 5   0  0.3211775E-03  0.4999793E+03  0.7818609E-02  0.1013784E+00
        1   -1    0    0  501    0  0.00000000000E+00  0.00000000000E+00  0.27290981689E+03  0.27290981693E+03  0.50400001928E-02 0. -1.
       -1   -1    0    0    0  501  0.00000000000E+00  0.00000000000E+00 -0.22899440833E+03  0.22899440839E+03  0.50400001928E-02 0.  1.
    10030    2    1    2    0    0  0.00000000000E+00  0.00000000000E+00  0.43915408552E+02  0.50190422532E+03  0.49997928786E+03 0.  0.
        4    1    3    3  502    0  0.21580147447E+03  0.12610633893E+03  0.26460961442E+02  0.25134613680E+03  0.12699999809E+01 0. -1.
       -4    1    3    3    0  502 -0.21580147447E+03 -0.12610633893E+03  0.17454447110E+02  0.25055808853E+03  0.12699999809E+01 0.  1.
</event>
<event>
 5   0  0.4989875E-03  0.4999607E+03  0.7818609E-02  0.1013789E+00
       -2   -1    0    0    0  501  0.00000000000E+00  0.00000000000E+00  0.88802578962E+02  0.88802578998E+02  0.25500000920E-02 0.  1.
        2   -1    0    0  501    0  0.00000000000E+00  0.00000000000E+00 -0.70369776081E+03  0.70369776082E+03  0.25500000920E-02 0. -1.
    10030    2    1    2    0    0  0.00000000000E+00  0.00000000000E+00 -0.61489518185E+03  0.79250033982E+03  0.49996070240E+03 0.  0.
        2    1    3    3  502    0 -0.31150830208E+02 -0.24510066643E+03 -0.24718228177E+03  0.34949076001E+03  0.25500000920E-02 0. -1.
       -2    1    3    3    0  502  0.31150830208E+02  0.24510066643E+03 -0.36771290008E+03  0.44300957981E+03  0.25500000920E-02 0.  1.
</event>
<event>
 5   0  0.4989875E-03  0.5001769E+03  0.7818609E-02  0.1013733E+00
       -2   -1    0    0    0  501  0.00000000000E+00  0.00000000000E+00  0.47887512684E+02  0.47887512752E+02  0.25500000920E-02 0. -1.
        2   -1    0    0  501    0  0.00000000000E+00  0.00000000000E+00 -0.13060653417E+04  0.13060653417E+04  0.25500000920E-02 0.  1.
    10030    2    1    2    0    0  0.00000000000E+00  0.00000000000E+00 -0.12581778290E+04  0.13539528545E+04  0.50017685138E+03 0.  0.
        2    1    3    3  502    0  0.23975919725E+03 -0.51844847927E+02 -0.49725581731E+03  0.55446885284E+03  0.25500000920E-02 0. -1.
       -2    1    3    3    0  502 -0.23975919725E+03  0.51844847927E+02 -0.76092201172E+03  0.79948400162E+03  0.25500000920E-02 0.  1.
</event>
<event>
 5   0  0.3211775E-03  0.5001467E+03  0.7818609E-02  0.1013741E+00
        1   -1    0    0  501    0  0.00000000000E+00  0.00000000000E+00  0.54326804498E+03  0.54326804500E+03  0.50400001928E-02 0. -1.
       -1   -1    0    0    0  501  0.00000000000E+00  0.00000000000E+00 -0.11511202202E+03  0.11511202213E+03  0.50400001928E-02 0.  1.
    10030    2    1    2    0    0  0.00000000000E+00  0.00000000000E+00  0.42815602297E+03  0.65838006713E+03  0.50014671127E+03 0.  0.
        4    1    3    3  502    0 -0.13238242228E+03  0.14828609710E+03  0.41380797206E+03  0.45907790511E+03  0.12699999809E+01 0. -1.
       -4    1    3    3    0  502  0.13238242228E+03 -0.14828609710E+03  0.14348050902E+02  0.19930216202E+03  0.12699999809E+01 0.  1.
</event>
<event>
 5   0  0.4889251E-03  0.4988447E+03  0.7818609E-02  0.1014081E+00
        2   -1    0    0  501    0  0.00000000000E+00  0.00000000000E+00  0.10811163537E+04  0.10811163537E+04  0.25500000920E-02 0. -1.
       -2   -1    0    0    0  501  0.00000000000E+00  0.00000000000E+00 -0.57543769295E+02  0.57543769352E+02  0.25500000920E-02 0.  1.
    10030    2    1    2    0    0  0.00000000000E+00  0.00000000000E+00  0.10235725844E+04  0.11386601230E+04  0.49884470558E+03 0.  0.
        5    1    3    3  502    0  0.12418015322E+03  0.34560271050E+02  0.24494905706E+02  0.13129056780E+03  0.46999998093E+01 0.  1.
       -5    1    3    3    0  502 -0.12418015322E+03 -0.34560271050E+02  0.99907767866E+03  0.10073695552E+04  0.46999998093E+01 0. -1.
</event>
<event>
 5   0  0.2005125E-03  0.5000575E+03  0.7818609E-02  0.1013764E+00
        3   -1    0    0  501    0  0.00000000000E+00  0.00000000000E+00  0.42569445604E+03  0.42569446802E+03  0.10100000352E+00 0. -1.
       -3   -1    0    0    0  501  0.00000000000E+00  0.00000000000E+00 -0.14685266420E+03  0.14685269893E+03  0.10100000352E+00 0.  1.
    10030    2    1    2    0    0  0.00000000000E+00  0.00000000000E+00  0.27884179184E+03  0.57254716696E+03  0.50005751021E+03 0.  0.
        3    1    3    3  502    0  0.23984593020E+03 -0.67752361144E+02  0.16226040407E+03  0.29739687557E+03  0.10100000352E+00 0.  1.
       -3    1    3    3    0  502 -0.23984593020E+03  0.67752361144E+02  0.11658138777E+03  0.27515029138E+03  0.10100000352E+00 0. -1.
</event>
<event>
 5   0  0.3055293E-03  0.5004225E+03  0.7818609E-02  0.1013669E+00
       -1   -1    0    0    0  501  0.00000000000E+00  0.00000000000E+00  0.12645303327E+03  0.12645303337E+03  0.50400001928E-02 0. -1.
        1   -1    0    0  501    0  0.00000000000E+00  0.00000000000E+00 -0.49509031117E+03  0.49509031120E+03  0.50400001928E-02 0.  1.
    10030    2    1    2    0    0  0.00000000000E+00  0.00000000000E+00 -0.36863727790E+03  0.62154334457E+03  0.50042250801E+03 0.  0.
        3    1    3    3  502    0 -0.38187350479E+02 -0.93560952567E+02  0.99979664705E+02  0.14215438487E+03  0.10100000352E+00 0. -1.
       -3    1    3    3    0  502  0.38187350479E+02  0.93560952567E+02 -0.46861694261E+03  0.47938895970E+03  0.10100000352E+00 0.  1.
</event>
<event>
 5   0  0.5095783E-03  0.5001318E+03  0.7818609E-02  0.1013745E+00
        2   -1    0    0  501    0  0.00000000000E+00  0.00000000000E+00  0.13545258322E+04  0.13545258322E+04  0.25500000920E-02 0.  1.
       -2   -1    0    0    0  501  0.00000000000E+00  0.00000000000E+00 -0.46165940140E+02  0.46165940210E+02  0.25500000920E-02 0. -1.
    10030    2    1    2    0    0  0.00000000000E+00  0.00000000000E+00  0.13083598921E+04  0.14006917724E+04  0.50013181678E+03 0.  0.
        4    1    3    3  502    0 -0.61800405411E+01  0.15781362222E+03  0.11120126255E+03  0.19315969028E+03  0.12699999809E+01 0. -1.
       -4    1    3    3    0  502  0.61800405411E+01 -0.15781362222E+03  0.11971586295E+04  0.12075320821E+04  0.12699999809E+01 0.  1.
</event>
<event>
 5   0  0.2005125E-03  0.5000824E+03  0.7818609E-02  0.1013757E+00
        3   -1    0    0  501    0  0.00000000000E+00  0.00000000000E+00  0.77983804784E+02  0.77983870188E+02  0.10100000352E+00 0.  1.
       -3   -1    0    0    0  501  0.00000000000E+00  0.00000000000E+00 -0.80171216682E+03  0.80171217318E+03  0.10100000352E+00 0. -1.
    10030    2    1    2    0    0  0.00000000000E+00  0.00000000000E+00 -0.72372836203E+03  0.87969604337E+03  0.50008237992E+03 0.  0.
        2    1    3    3  502    0  0.58109805804E+02 -0.11884669577E+03 -0.73510617707E+03  0.74691524164E+03  0.25500000920E-02 0. -1.
       -2    1    3    3    0  502 -0.58109805804E+02  0.11884669577E+03  0.11377815037E+02  0.13278080172E+03  0.25500000920E-02 0.  1.
</event>
<event>
 5   0  0.2005125E-03  0.5004070E+03  0.7818609E-02  0.1013673E+00
       -4   -1    0    0    0  501  0.00000000000E+00  0.00000000000E+00  0.48551612158E+03  0.48551778260E+03  0.12699999809E+01 0.  1.
        4   -1    0    0  501    0  0.00000000000E+00  0.00000000000E+00 -0.12893365309E+03  0.12893990771E+03  0.12699999809E+01 0. -1.
    10030    2    1    2    0    0  0.00000000000E+00  0.00000000000E+00  0.35658246849E+03  0.61445769031E+03  0.50040703067E+03 0.  0.
        4    1    3    3  502    0 -0.95861672213E+02 -0.10649108679E+03  0.43014982546E+03  0.45338757924E+03  0.12699999809E+01 0. -1.
       -4    1    3    3    0  502  0.95861672213E+02  0.10649108679E+03 -0.73567356973E+02  0.16107011106E+03  0.12699999809E+01 0.  1.
</event>
<event>
 5   0  0.2005125E-03  0.5000352E+03  0.7818609E-02  0.1013770E+00
        3   -1    0    0  501    0  0.00000000000E+00  0.00000000000E+00  0.42047334921E+02  0.42047456224E+02  0.10100000352E+00 0. -1.
       -3   -1    0    0    0  501  0.00000000000E+00  0.00000000000E+00 -0.14866271667E+04  0.14866271701E+04  0.10100000352E+00 0.  1.
    10030    2    1    2    0    0  0.00000000000E+00  0.00000000000E+00 -0.14445798318E+04  0.15286746263E+04  0.50003522164E+03 0.  0.
        5    1    3    3  502    0 -0.66321812099E+02 -0.22194828011E+03 -0.10095156409E+04  0.10357622995E+04  0.46999998093E+01 0.  1.
       -5    1    3    3    0  502  0.66321812099E+02  0.22194828011E+03 -0.43506419089E+03  0.49291232689E+03  0.46999998093E+01 0. -1.
</event>
<event>
 5   0  0.2863538E-03  0.5001444E+03  0.7818609E-02  0.1013741E+00
        1   -1    0    0  501    0  0.00000000000E+00  0.00000000000E+00  0.18210629263E+03  0.18210629270E+03  0.50400001928E-02 0.  1.
       -1   -1    0    0    0  501  0.00000000000E+00  0.00000000000E+00 -0.34340437181E+03  0.34340437185E+03  0.50400001928E-02 0. -1.
    10030    2    1    2    0    0  0.00000000000E+00  0.00000000000E+00 -0.16129807918E+03  0.52551066455E+03  0.50014436737E+03 0.  0.
        1    1    3    3  502    0  0.18010967307E+03  0.32880628343E+02 -0.25962756844E+03  0.31769026484E+03  0.50400001928E-02 0. -1.
       -1    1    3    3    0  502 -0.18010967307E+03 -0.32880628343E+02  0.98329489261E+02  0.20782039971E+03  0.50400001928E-02 0.  1.
</event>
<event>
 5   0  0.2863538E-03  0.5000305E+03  0.7818609E-02  0.1013771E+00
        1   -1    0    0  501    0  0.00000000000E+00  0.00000000000E+00  0.44431170201E+03  0.44431170204E+03  0.50400001928E-02 0.  1.
       -1   -1    0    0    0  501  0.00000000000E+00  0.00000000000E+00 -0.14068418043E+03  0.14068418052E+03  0.50400001928E-02 0. -1.
    10030    2    1    2    0    0  0.00000000000E+00  0.00000000000E+00  0.30362752158E+03  0.58499588255E+03  0.50003050981E+03 0.  0.
        1    1    3    3  502    0 -0.92828373842E+02  0.23141540602E+02  0.42205014777E+03  0.43275739757E+03  0.50400001928E-02 0.  1.
       -1    1    3    3    0  502  0.92828373842E+02 -0.23141540602E+02 -0.11842262619E+03  0.15223848499E+03  0.50400001928E-02 0. -1.
</event>
<event>
 5   0  0.3055293E-03  0.5001450E+03  0.7818609E-02  0.1013741E+00
        1   -1    0    0  501    0  0.00000000000E+00  0.00000000000E+00  0.36780168179E+03  0.36780168182E+03  0.50400001928E-02 0. -1.
       -1   -1    0    0    0  501  0.00000000000E+00  0.00000000000E+00 -0.17002708494E+03  0.17002708502E+03  0.50400001928E-02 0.  1.
    10030    2    1    2    0    0  0.00000000000E+00  0.00000000000E+00  0.19777459685E+03  0.53782876684E+03  0.50014497027E+03 0.  0.
        3    1    3    3  502    0  0.14237520391E+03 -0.41317172372E+02 -0.11767791146E+03  0.18927733216E+03  0.10100000352E+00 0.  1.
       -3    1    3    3    0  502 -0.14237520391E+03  0.41317172372E+02  0.31545250831E+03  0.34855143468E+03  0.10100000352E+00 0. -1.
</event>
<event>
 5   0  0.5095783E-03  0.5015078E+03  0.7818609E-02  0.1013386E+00
       -2   -1    0    0    0  501  0.00000000000E+00  0.00000000000E+00  0.11996634022E+03  0.11996634025E+03  0.25500000920E-02 0. -1.
        2   -1    0    0  501    0  0.00000000000E+00  0.00000000000E+00 -0.52412632801E+03  0.52412632802E+03  0.25500000920E-02 0.  1.
    10030    2    1    2    0    0  0.00000000000E+00  0.00000000000E+00 -0.40415998779E+03  0.64409266827E+03  0.50150779614E+03 0.  0.
        4    1    3    3  502    0  0.15111476851E+03  0.79081228238E+02  0.33990422487E+02  0.17391513920E+03  0.12699999809E+01 0. -1.
       -4    1    3    3    0  502 -0.15111476851E+03 -0.79081228238E+02 -0.43815041027E+03  0.47017752907E+03  0.12699999809E+01 0.  1.
</event>
<event>
 5   0  0.4978779E-03  0.5002807E+03  0.7818609E-02  0.1013706E+00
        2   -1    0    0  501    0  0.00000000000E+00  0.00000000000E+00  0.11810658726E+04  0.11810658727E+04  0.25500000920E-02 0.  1.
       -2   -1    0    0    0  501  0.00000000000E+00  0.00000000000E+00 -0.52977727965E+02  0.52977728027E+02  0.25500000920E-02 0. -1.
    10030    2    1    2    0    0  0.00000000000E+00  0.00000000000E+00  0.11280881447E+04  0.12340436007E+04  0.50028066742E+03 0.  0.
        1    1    3    3  502    0  0.19525747968E+03 -0.27489202989E+02  0.18438780173E+03  0.26996296247E+03  0.50400001928E-02 0. -1.
       -1    1    3    3    0  502 -0.19525747968E+03  0.27489202989E+02  0.94370034295E+03  0.96408063820E+03  0.50400001928E-02 0.  1.
</event>
<event>
 5   0  0.2005125E-03  0.5018104E+03  0.7818609E-02  0.1013307E+00
       -4   -1    0    0    0  501  0.00000000000E+00  0.00000000000E+00  0.14786677694E+03  0.14787223074E+03  0.12699999809E+01 0. -1.
        4   -1    0    0  501    0  0.00000000000E+00  0.00000000000E+00 -0.42572995955E+03  0.42573185382E+03  0.12699999809E+01 0.  1.
    10030    2    1    2    0    0  0.00000000000E+00  0.00000000000E+00 -0.27786318261E+03  0.57360408456E+03  0.50181041995E+03 0.  0.
        4    1    3    3  502    0  0.20172916174E+03 -0.10510769938E+03 -0.17909060797E+02  0.22817675282E+03  0.12699999809E+01 0. -1.
       -4    1    3    3    0  502 -0.20172916174E+03  0.10510769938E+03 -0.25995412181E+03  0.34542733174E+03  0.12699999809E+01 0.  1.
</event>
<event>
 5   0  0.3013734E-03  0.4999452E+03  0.7818609E-02  0.1013793E+00
       -1   -1    0    0    0  501  0.00000000000E+00  0.00000000000E+00  0.31204398769E+02  0.31204399176E+02  0.50400001928E-02 0.  1.
        1   -1    0    0  501    0  0.00000000000E+00  0.00000000000E+00 -0.20024838630E+04  0.20024838630E+04  0.50400001928E-02 0. -1.
    10030    2    1    2    0    0  0.00000000000E+00  0.00000000000E+00 -0.19712794642E+04  0.20336882622E+04  0.49994521864E+03 0.  0.
        2    1    3    3  502    0 -0.30512427104E+02 -0.51889182474E+02  0.12814218716E+01  0.60209114876E+02  0.25500000920E-02 0.  1.
       -2    1    3    3    0  502  0.30512427104E+02  0.51889182474E+02 -0.19725608861E+04  0.19734791473E+04  0.25500000920E-02 0. -1.
</event>
<event>
 5   0  0.2005125E-03  0.4992691E+03  0.7818609E-02  0.1013970E+00
        3   -1    0    0  501    0  0.00000000000E+00  0.00000000000E+00  0.91147907134E+02  0.91147963092E+02  0.10100000352E+00 0. -1.
       -3   -1    0    0    0  501  0.00000000000E+00  0.00000000000E+00 -0.68369523237E+03  0.68369523983E+03  0.10100000352E+00 0.  1.
    10030    2    1    2    0    0  0.00000000000E+00  0.00000000000E+00 -0.59254732523E+03  0.77484320292E+03  0.49926912229E+03 0.  0.
        1    1    3    3  502    0 -0.99708044893E+02  0.10702054166E+03 -0.61022277709E+03  0.62750850851E+03  0.50400001928E-02 0.  1.
       -1    1    3    3    0  502  0.99708044893E+02 -0.10702054166E+03  0.17675451854E+02  0.14733469441E+03  0.50400001928E-02 0. -1.
</event>
<event>
 5   0  0.3057783E-03  0.4999666E+03  0.7818609E-02  0.1013788E+00
        1   -1    0    0  501    0  0.00000000000E+00  0.00000000000E+00  0.18573013196E+04  0.18573013196E+04  0.50400001928E-02 0. -1.
       -1   -1    0    0    0  501  0.00000000000E+00  0.00000000000E+00 -0.33646482799E+02  0.33646483176E+02  0.50400001928E-02 0.  1.
    10030    2    1    2    0    0  0.00000000000E+00  0.00000000000E+00  0.18236548368E+04  0.18909478028E+04  0.49996662795E+03 0.  0.
        5    1    3    3  502    0  0.16335469052E+03  0.67620818110E+02  0.24363587608E+03  0.30106122312E+03  0.46999998093E+01 0.  1.
       -5    1    3    3    0  502 -0.16335469052E+03 -0.67620818110E+02  0.15800189608E+04  0.15898865797E+04  0.46999998093E+01 0. -1.
</event>
<event>
 5   0  0.5095783E-03  0.5000162E+03  0.7818609E-02  0.1013775E+00
        2   -1    0    0  501    0  0.00000000000E+00  0.00000000000E+00  0.17159600152E+03  0.17159600154E+03  0.25500000920E-02 0. -1.
       -2   -1    0    0    0  501  0.00000000000E+00  0.00000000000E+00 -0.36425124260E+03  0.36425124261E+03  0.25500000920E-02 0.  1.
    10030    2    1    2    0    0  0.00000000000E+00  0.00000000000E+00 -0.19265524108E+03  0.53584724415E+03  0.50001622688E+03 0.  0.
        4    1    3    3  502    0  0.13704735773E+03 -0.16330911257E+03 -0.23626274165E+03  0.31823503972E+03  0.12699999809E+01 0.  1.
       -4    1    3    3    0  502 -0.13704735773E+03  0.16330911257E+03  0.43607500576E+02  0.21761220443E+03  0.12699999809E+01 0. -1.
</event>
<event>
 5   0  0.3055293E-03  0.4989960E+03  0.7818609E-02  0.1014041E+00
        1   -1    0    0  501    0  0.00000000000E+00  0.00000000000E+00  0.29116249853E+03  0.29116249857E+03  0.50400001928E-02 0. -1.
       -1   -1    0    0    0  501  0.00000000000E+00  0.00000000000E+00 -0.21379555562E+03  0.21379555568E+03  0.50400001928E-02 0.  1.
    10030    2    1    2    0    0  0.00000000000E+00  0.00000000000E+00  0.77366942909E+02  0.50495805425E+03  0.49899598465E+03 0.  0.
        3    1    3    3  502    0 -0.23583300992E+03 -0.52506901135E+02  0.10167717956E+03  0.26213058249E+03  0.10100000352E+00 0. -1.
       -3    1    3    3    0  502  0.23583300992E+03  0.52506901135E+02 -0.24310236647E+02  0.24282747176E+03  0.10100000352E+00 0.  1.
</event>
<event>
 5   0  0.5095783E-03  0.4996989E+03  0.7818609E-02  0.1013858E+00
       -2   -1    0    0    0  501  0.00000000000E+00  0.00000000000E+00  0.15187911263E+03  0.15187911266E+03  0.25500000920E-02 0. -1.
        2   -1    0    0  501    0  0.00000000000E+00  0.00000000000E+00 -0.41101593499E+03  0.41101593500E+03  0.25500000920E-02 0.  1.
    10030    2    1    2    0    0  0.00000000000E+00  0.00000000000E+00 -0.25913682235E+03  0.56289504765E+03  0.49969885128E+03 0.  0.
        4    1    3    3  502    0 -0.23375287950E+02 -0.50839086740E+01 -0.40971929147E+03  0.41041900652E+03  0.12699999809E+01 0.  1.
       -4    1    3    3    0  502  0.23375287950E+02  0.50839086740E+01  0.15058246911E+03  0.15247604113E+03  0.12699999809E+01 0. -1.
</event>
<event>
 5   0  0.2863538E-03  0.4999636E+03  0.7818609E-02  0.1013788E+00
        1   -1    0    0  501    0  0.00000000000E+00  0.00000000000E+00  0.69513550333E+03  0.69513550335E+03  0.50400001928E-02 0.  1.
       -1   -1    0    0    0  501  0.00000000000E+00  0.00000000000E+00 -0.89897428916E+02  0.89897429058E+02  0.50400001928E-02 0. -1.
    10030    2    1    2    0    0  0.00000000000E+00  0.00000000000E+00  0.60523807441E+03  0.78503293241E+03  0.49996357691E+03 0.  0.
        1    1    3    3  502    0  0.67279345078E+02 -0.46146322658E+02 -0.68405289204E+02  0.10646725781E+03  0.50400001928E-02 0. -1.
       -1    1    3    3    0  502 -0.67279345078E+02  0.46146322658E+02  0.67364336362E+03  0.67856567460E+03  0.50400001928E-02 0.  1.
</event>
<event>
 5   0  0.2863538E-03  0.5003880E+03  0.7818609E-02  0.1013678E+00
        1   -1    0    0  501    0  0.00000000000E+00  0.00000000000E+00  0.33934463198E+03  0.33934463202E+03  0.50400001928E-02 0. -1.
       -1   -1    0    0    0  501  0.00000000000E+00  0.00000000000E+00 -0.18446447633E+03  0.18446447640E+03  0.50400001928E-02 0.  1.
    10030    2    1    2    0    0  0.00000000000E+00  0.00000000000E+00  0.15488015564E+03  0.52380910842E+03  0.50038796893E+03 0.  0.
        1    1    3    3  502    0 -0.11145836355E+03 -0.45331120735E+00 -0.15703945116E+03  0.19257352243E+03  0.50400001928E-02 0.  1.
       -1    1    3    3    0  502  0.11145836355E+03  0.45331120735E+00  0.31191960680E+03  0.33123558599E+03  0.50400001928E-02 0. -1.
</event>
<event>
 5   0  0.4978779E-03  0.5001426E+03  0.7818609E-02  0.1013742E+00
        2   -1    0    0  501    0  0.00000000000E+00  0.00000000000E+00  0.62827783964E+03  0.62827783964E+03  0.25500000920E-02 0. -1.
       -2   -1    0    0    0  501  0.00000000000E+00  0.00000000000E+00 -0.99535033759E+02  0.99535033792E+02  0.25500000920E-02 0.  1.
    10030    2    1    2    0    0  0.00000000000E+00  0.00000000000E+00  0.52874280588E+03  0.72781287344E+03  0.50014260363E+03 0.  0.
        1    1    3    3  502    0  0.24334157304E+03 -0.56717926007E+02  0.24955883973E+03  0.35314537914E+03  0.50400001928E-02 0.  1.
       -1    1    3    3    0  502 -0.24334157304E+03  0.56717926007E+02  0.27918396615E+03  0.37466749429E+03  0.50400001928E-02 0. -1.
</event>
<event>
 5   0  0.4978779E-03  0.4994489E+03  0.7818609E-02  0.1013923E+00
        2   -1    0    0  501    0  0.00000000000E+00  0.00000000000E+00  0.27502101582E+03  0.27502101584E+03  0.25500000920E-02 0.  1.
       -2   -1    0    0    0  501  0.00000000000E+00  0.00000000000E+00 -0.22675464483E+03  0.22675464485E+03  0.25500000920E-02 0. -1.
    10030    2    1    2    0    0  0.00000000000E+00  0.00000000000E+00  0.48266370993E+02  0.50177566068E+03  0.49944886734E+03 0.  0.
        1    1    3    3  502    0 -0.12213729707E+03  0.13316603664E+03  0.19730668497E+03  0.26754558604E+03  0.50400001928E-02 0.  1.
       -1    1    3    3    0  502  0.12213729707E+03 -0.13316603664E+03 -0.14904031398E+03  0.23423007464E+03  0.50400001928E-02 0. -1.
</event>
<event>
 5   0  0.5095783E-03  0.5005545E+03  0.7818609E-02  0.1013634E+00
       -2   -1    0    0    0  501  0.00000000000E+00  0.00000000000E+00  0.46241643349E+03  0.46241643350E+03  0.25500000920E-02 0. -1.
        2   -1    0    0  501    0  0.00000000000E+00  0.00000000000E+00 -0.13545953014E+03  0.13545953017E+03  0.25500000920E-02 0.  1.
    10030    2    1    2    0    0  0.00000000000E+00  0.00000000000E+00  0.32695690335E+03  0.59787596367E+03  0.50055454377E+03 0.  0.
        4    1    3    3  502    0  0.71188073266E+02  0.15378688434E+03 -0.56500384880E+02  0.17863945242E+03  0.12699999809E+01 0.  1.
       -4    1    3    3    0  502 -0.71188073266E+02 -0.15378688434E+03  0.38345728823E+03  0.41923651125E+03  0.12699999809E+01 0. -1.
</event>
<event>
 5   0  0.5095783E-03  0.5003268E+03  0.7818609E-02  0.1013694E+00
        2   -1    0    0  501    0  0.00000000000E+00  0.00000000000E+00  0.18406614204E+03  0.18406614205E+03  0.25500000920E-02 0. -1.
       -2   -1    0    0    0  501  0.00000000000E+00  0.00000000000E+00 -0.33999579717E+03  0.33999579718E+03  0.25500000920E-02 0.  1.
    10030    2    1    2    0    0  0.00000000000E+00  0.00000000000E+00 -0.15592965514E+03  0.52406193923E+03  0.50032675204E+03 0.  0.
        4    1    3    3  502    0 -0.59522430861E+02  0.22071134596E+03  0.28460805350E+02  0.23036503283E+03  0.12699999809E+01 0.  1.
       -4    1    3    3    0  502  0.59522430861E+02 -0.22071134596E+03 -0.18439046049E+03  0.29369690640E+03  0.12699999809E+01 0. -1.
</event>
<event>
 5   0  0.2863538E-03  0.4998490E+03  0.7818609E-02  0.1013818E+00
       -1   -1    0    0    0  501  0.00000000000E+00  0.00000000000E+00  0.35740543259E+02  0.35740543615E+02  0.50400001928E-02 0. -1.
        1   -1    0    0  501    0  0.00000000000E+00  0.00000000000E+00 -0.17476583862E+04  0.17476583862E+04  0.50400001928E-02 0.  1.
    10030    2    1    2    0    0  0.00000000000E+00  0.00000000000E+00 -0.17119178429E+04  0.17833989298E+04  0.49984901911E+03 0.  0.
        1    1    3    3  502    0  0.23271950157E+03 -0.78554201193E+02 -0.69117361905E+03  0.73351898451E+03  0.50400001928E-02 0. -1.
       -1    1    3    3    0  502 -0.23271950157E+03  0.78554201193E+02 -0.10207442238E+04  0.10498799453E+04  0.50400001928E-02 0.  1.
</event>
<event>
 5   0  0.3055293E-03  0.5006414E+03  0.7818609E-02  0.1013612E+00
        1   -1    0    0  501    0  0.00000000000E+00  0.00000000000E+00  0.59610576686E+03  0.59610576688E+03  0.50400001928E-02 0.  1.
       -1   -1    0    0    0  501  0.00000000000E+00  0.00000000000E+00 -0.10511632875E+03  0.10511632888E+03  0.50400001928E-02 0. -1.
    10030    2    1    2    0    0  0.00000000000E+00  0.00000000000E+00  0.49098943810E+03  0.70122209575E+03  0.50064138787E+03 0.  0.
        3    1    3    3  502    0 -0.78109393012E+02 -0.87531053781E+02 -0.64227923631E+02  0.13374602434E+03  0.10100000352E+00 0. -1.
       -3    1    3    3    0  502  0.78109393012E+02  0.87531053781E+02  0.55521736173E+03  0.56747607141E+03  0.10100000352E+00 0.  1.
</event>
<event>
 5   0  0.4989875E-03  0.5000107E+03  0.7818609E-02  0.1013776E+00
       -2   -1    0    0    0  501  0.00000000000E+00  0.00000000000E+00  0.27772282782E+03  0.27772282784E+03  0.25500000920E-02 0. -1.
        2   -1    0    0  501    0  0.00000000000E+00  0.00000000000E+00 -0.22505413822E+03  0.22505413823E+03  0.25500000920E-02 0.  1.
    10030    2    1    2    0    0  0.00000000000E+00  0.00000000000E+00  0.52668689603E+02  0.50277696607E+03  0.50001068663E+03 0.  0.
        2    1    3    3  502    0 -0.65160449476E+01  0.23487826687E+03  0.11220241497E+03  0.26038364200E+03  0.25500000920E-02 0.  1.
       -2    1    3    3    0  502  0.65160449476E+01 -0.23487826687E+03 -0.59533725368E+02  0.24239332407E+03  0.25500000920E-02 0. -1.
</event>
<event>
 5   0  0.2005125E-03  0.4997386E+03  0.7818609E-02  0.1013847E+00
       -3   -1    0    0    0  501  0.00000000000E+00  0.00000000000E+00  0.89709936864E+03  0.89709937433E+03  0.10100000352E+00 0. -1.
        3   -1    0    0  501    0  0.00000000000E+00  0.00000000000E+00 -0.69596123682E+02  0.69596196970E+02  0.10100000352E+00 0.  1.
    10030    2    1    2    0    0  0.00000000000E+00  0.00000000000E+00  0.82750324496E+03  0.96669557130E+03  0.49973863884E+03 0.  0.
        4    1    3    3  502    0  0.15467372551E+03 -0.15293187004E+03  0.65161976192E+03  0.68696582540E+03  0.12699999809E+01 0. -1.
       -4    1    3    3    0  502 -0.15467372551E+03  0.15293187004E+03  0.17588348304E+03  0.27972974590E+03  0.12699999809E+01 0.  1.
</event>
<event>
 5   0  0.3013734E-03  0.5000028E+03  0.7818609E-02  0.1013778E+00
        1   -1    0    0  501    0  0.00000000000E+00  0.00000000000E+00  0.94294485419E+03  0.94294485421E+03  0.50400001928E-02 0. -1.
       -1   -1    0    0    0  501  0.00000000000E+00  0.00000000000E+00 -0.66282460204E+02  0.66282460396E+02  0.50400001928E-02 0.  1.
    10030    2    1    2    0    0  0.00000000000E+00  0.00000000000E+00  0.87666239399E+03  0.10092273146E+04  0.50000281950E+03 0.  0.
        2    1    3    3  502    0 -0.52184529238E+02 -0.21652009538E+03  0.66755142846E+03  0.70372514978E+03  0.25500000920E-02 0. -1.
       -2    1    3    3    0  502  0.52184529238E+02  0.21652009538E+03  0.20911096553E+03  0.30550216482E+03  0.25500000920E-02 0.  1.
</event>
<event>
 5   0  0.3013734E-03  0.5000053E+03  0.7818609E-02  0.1013778E+00
        1   -1    0    0  501    0  0.00000000000E+00  0.00000000000E+00  0.27310830004E+03  0.27310830009E+03  0.50400001928E-02 0.  1.
       -1   -1    0    0    0  501  0.00000000000E+00  0.00000000000E+00 -0.22885181213E+03  0.22885181219E+03  0.50400001928E-02 0. -1.
    10030    2    1    2    0    0  0.00000000000E+00  0.00000000000E+00  0.44256487910E+02  0.50196011227E+03  0.50000531756E+03 0.  0.
        2    1    3    3  502    0  0.16529509658E+03  0.13882823986E+03  0.14873863303E+03  0.26214295736E+03  0.25500000920E-02 0.  1.
       -2    1    3    3    0  502 -0.16529509658E+03 -0.13882823986E+03 -0.10448214512E+03  0.23981715491E+03  0.25500000920E-02 0. -1.
</event>
<event>
 5   0  0.3211775E-03  0.4985858E+03  0.7818609E-02  0.1014149E+00
       -1   -1    0    0    0  501  0.00000000000E+00  0.00000000000E+00  0.11675121085E+03  0.11675121096E+03  0.50400001928E-02 0.  1.
        1   -1    0    0  501    0  0.00000000000E+00  0.00000000000E+00 -0.53230230181E+03  0.53230230183E+03  0.50400001928E-02 0. -1.
    10030    2    1    2    0    0  0.00000000000E+00  0.00000000000E+00 -0.41555109095E+03  0.64905351279E+03  0.49858575319E+03 0.  0.
        4    1    3    3  502    0  0.92189013993E+01  0.52692033373E+02  0.10918775113E+03  0.12159365288E+03  0.12699999809E+01 0.  1.
       -4    1    3    3    0  502 -0.92189013993E+01 -0.52692033373E+02 -0.52473884209E+03  0.52745985991E+03  0.12699999809E+01 0. -1.
</event>
<event>
 5   0  0.4989875E-03  0.5003448E+03  0.7818609E-02  0.1013689E+00
       -2   -1    0    0    0  501  0.00000000000E+00  0.00000000000E+00  0.54389986573E+03  0.54389986574E+03  0.25500000920E-02 0. -1.
        2   -1    0    0  501    0  0.00000000000E+00  0.00000000000E+00 -0.11506938982E+03  0.11506938985E+03  0.25500000920E-02 0.  1.
    10030    2    1    2    0    0  0.00000000000E+00  0.00000000000E+00  0.42883047591E+03  0.65896925559E+03  0.50034478386E+03 0.  0.
        2    1    3    3  502    0 -0.14652652299E+03  0.13804664877E+02 -0.52021120627E+02  0.15609864737E+03  0.25500000920E-02 0.  1.
       -2    1    3    3    0  502  0.14652652299E+03 -0.13804664877E+02  0.48085159654E+03  0.50287060822E+03  0.25500000920E-02 0. -1.
</event>
<event>
 5   0  0.2863538E-03  0.5000318E+03  0.7818609E-02  0.1013771E+00
        1   -1    0    0  501    0  0.00000000000E+00  0.00000000000E+00  0.72814794959E+03  0.72814794961E+03  0.50400001928E-02 0. -1.
       -1   -1    0    0    0  501  0.00000000000E+00  0.00000000000E+00 -0.85845105776E+02  0.85845105924E+02  0.50400001928E-02 0.  1.
    10030    2    1    2    0    0  0.00000000000E+00  0.00000000000E+00  0.64230284381E+03  0.81399305553E+03  0.50003175027E+03 0.  0.
        1    1    3    3  502    0 -0.12079709335E+03  0.15113042763E+03  0.57893113269E+03  0.61040445636E+03  0.50400001928E-02 0. -1.
       -1    1    3    3    0  502  0.12079709335E+03 -0.15113042763E+03  0.63371711122E+02  0.20358859917E+03  0.50400001928E-02 0.  1.
</event>
<event>
 5   0  0.4989875E-03  0.5002873E+03  0.7818609E-02  0.1013704E+00
        2   -1    0    0  501    0  0.00000000000E+00  0.00000000000E+00  0.12504628971E+04  0.12504628971E+04  0.25500000920E-02 0. -1.
       -2   -1    0    0    0  501  0.00000000000E+00  0.00000000000E+00 -0.50038940006E+02  0.50038940071E+02  0.25500000920E-02 0.  1.
    10030    2    1    2    0    0  0.00000000000E+00  0.00000000000E+00  0.12004239571E+04  0.13005018372E+04  0.50028726920E+03 0.  0.
        2    1    3    3  502    0 -0.16521916822E+03 -0.12992705472E+03  0.24766027351E+03  0.32482922310E+03  0.25500000920E-02 0.  1.
       -2    1    3    3    0  502  0.16521916822E+03  0.12992705472E+03  0.95276368359E+03  0.97567261408E+03  0.25500000920E-02 0. -1.
</event>
<event>
 5   0  0.4989875E-03  0.4996738E+03  0.7818609E-02  0.1013864E+00
       -2   -1    0    0    0  501  0.00000000000E+00  0.00000000000E+00  0.48483674359E+02  0.48483674426E+02  0.25500000920E-02 0. -1.
        2   -1    0    0  501    0  0.00000000000E+00  0.00000000000E+00 -0.12874120554E+04  0.12874120554E+04  0.25500000920E-02 0.  1.
    10030    2    1    2    0    0  0.00000000000E+00  0.00000000000E+00 -0.12389283811E+04  0.13358957299E+04  0.49967376120E+03 0.  0.
        2    1    3    3  502    0  0.78744330367E+01  0.24962177819E+03 -0.63748391348E+03  0.68465960797E+03  0.25500000920E-02 0.  1.
       -2    1    3    3    0  502 -0.78744330367E+01 -0.24962177819E+03 -0.60144446760E+03  0.65123612189E+03  0.25500000920E-02 0. -1.
</event>
<event>
 5   0  0.4989875E-03  0.4999297E+03  0.7818609E-02  0.1013797E+00
        2   -1    0    0  501    0  0.00000000000E+00  0.00000000000E+00  0.21972423257E+03  0.21972423258E+03  0.25500000920E-02 0. -1.
       -2   -1    0    0    0  501  0.00000000000E+00  0.00000000000E+00 -0.28436747393E+03  0.28436747394E+03  0.25500000920E-02 0.  1.
    10030    2    1    2    0    0  0.00000000000E+00  0.00000000000E+00 -0.64643241363E+02  0.50409170652E+03  0.49992969499E+03 0.  0.
        2    1    3    3  502    0 -0.16019016805E+03  0.19221842914E+02  0.16019207517E+03  0.22735846177E+03  0.25500000920E-02 0. -1.
       -2    1    3    3    0  502  0.16019016805E+03 -0.19221842914E+02 -0.22483531653E+03  0.27673324475E+03  0.25500000920E-02 0.  1.
</event>
<event>
 5   0  0.4978779E-03  0.4986312E+03  0.7818609E-02  0.1014137E+00
        2   -1    0    0  501    0  0.00000000000E+00  0.00000000000E+00  0.10801712197E+04  0.10801712197E+04  0.25500000920E-02 0.  1.
       -2   -1    0    0    0  501  0.00000000000E+00  0.00000000000E+00 -0.57544819984E+02  0.57544820041E+02  0.25500000920E-02 0. -1.
    10030    2    1    2    0    0  0.00000000000E+00  0.00000000000E+00  0.10226263997E+04  0.11377160398E+04  0.49863115998E+03 0.  0.
        1    1    3    3  502    0  0.23840283753E+03 -0.40188245591E+02  0.65023820615E+03  0.69372958189E+03  0.50400001928E-02 0.  1.
       -1    1    3    3    0  502 -0.23840283753E+03  0.40188245591E+02  0.37238819358E+03  0.44398645787E+03  0.50400001928E-02 0. -1.
</event>
<event>
 5   0  0.3013734E-03  0.4999947E+03  0.7818609E-02  0.1013780E+00
       -1   -1    0    0    0  501  0.00000000000E+00  0.00000000000E+00  0.49653901067E+02  0.49653901323E+02  0.50400001928E-02 0.  1.
        1   -1    0    0  501    0  0.00000000000E+00  0.00000000000E+00 -0.12586862182E+04  0.12586862183E+04  0.50400001928E-02 0. -1.
    10030    2    1    2    0    0  0.00000000000E+00  0.00000000000E+00 -0.12090323172E+04  0.13083401196E+04  0.49999472449E+03 0.  0.
        2    1    3    3  502    0 -0.10602071402E+03 -0.39204431534E+01 -0.11968576702E+04  0.12015506833E+04  0.25500000920E-02 0. -1.
       -2    1    3    3    0  502  0.10602071402E+03  0.39204431534E+01 -0.12174646967E+02  0.10678943632E+03  0.25500000920E-02 0.  1.
</event>
<event>
 5   0  0.5095783E-03  0.4995660E+03  0.7818609E-02  0.1013892E+00
       -2   -1    0    0    0  501  0.00000000000E+00  0.00000000000E+00  0.55419620413E+02  0.55419620472E+02  0.25500000920E-02 0.  1.
        2   -1    0    0  501    0  0.00000000000E+00  0.00000000000E+00 -0.11258025239E+04  0.11258025239E+04  0.25500000920E-02 0. -1.
    10030    2    1    2    0    0  0.00000000000E+00  0.00000000000E+00 -0.10703829035E+04  0.11812221444E+04  0.49956600594E+03 0.  0.
        4    1    3    3  502    0 -0.10092998533E+03 -0.22590058083E+03 -0.45424408024E+03  0.51725934665E+03  0.12699999809E+01 0. -1.
       -4    1    3    3    0  502  0.10092998533E+03  0.22590058083E+03 -0.61613882328E+03  0.66396279776E+03  0.12699999809E+01 0.  1.
</event>
<event>
 5   0  0.4889251E-03  0.4994847E+03  0.7818609E-02  0.1013914E+00
        2   -1    0    0  501    0  0.00000000000E+00  0.00000000000E+00  0.90792918199E+03  0.90792918199E+03  0.25500000920E-02 0. -1.
       -2   -1    0    0    0  501  0.00000000000E+00  0.00000000000E+00 -0.68696144015E+02  0.68696144062E+02  0.25500000920E-02 0.  1.
    10030    2    1    2    0    0  0.00000000000E+00  0.00000000000E+00  0.83923303798E+03  0.97662532606E+03  0.49948466990E+03 0.  0.
        5    1    3    3  502    0  0.13214044758E+03  0.20016074009E+03  0.55541566820E+03  0.60500749932E+03  0.46999998093E+01 0. -1.
       -5    1    3    3    0  502 -0.13214044758E+03 -0.20016074009E+03  0.28381736978E+03  0.37161782673E+03  0.46999998093E+01 0.  1.
</event>
<event>
 5   0  0.3055293E-03  0.5000981E+03  0.7818609E-02  0.1013753E+00
        1   -1    0    0  501    0  0.00000000000E+00  0.00000000000E+00  0.14129586050E+03  0.14129586059E+03  0.50400001928E-02 0. -1.
       -1   -1    0    0    0  501  0.00000000000E+00  0.00000000000E+00 -0.44250783216E+03  0.44250783219E+03  0.50400001928E-02 0.  1.
    10030    2    1    2    0    0  0.00000000000E+00  0.00000000000E+00 -0.30121197165E+03  0.58380369278E+03  0.50009809022E+03 0.  0.
        3    1    3    3  502    0  0.58077308584E+02 -0.21354187208E+03 -0.28650111221E+03  0.36201657753E+03  0.10100000352E+00 0.  1.
       -3    1    3    3    0  502 -0.58077308584E+02  0.21354187208E+03 -0.14710859439E+02  0.22178711525E+03  0.10100000352E+00 0. -1.
</event>
<event>
 5   0  0.4889251E-03  0.5000200E+03  0.7818609E-02  0.1013774E+00
       -2   -1    0    0    0  501  0.00000000000E+00  0.00000000000E+00  0.65102195049E+02  0.65102195099E+02  0.25500000920E-02 0.  1.
        2   -1    0    0  501    0  0.00000000000E+00  0.00000000000E+00 -0.96010602250E+03  0.96010602250E+03  0.25500000920E-02 0. -1.
    10030    2    1    2    0    0  0.00000000000E+00  0.00000000000E+00 -0.89500382745E+03  0.10252082176E+04  0.50002003789E+03 0.  0.
        5    1    3    3  502    0 -0.20429831728E+03  0.51609472988E+02 -0.17179805043E+03  0.27191542853E+03  0.46999998093E+01 0.  1.
       -5    1    3    3    0  502  0.20429831728E+03 -0.51609472988E+02 -0.72320577702E+03  0.75329278907E+03  0.46999998093E+01 0. -1.
</event>
<event>
 5   0  0.3055293E-03  0.5007984E+03  0.7818609E-02  0.1013571E+00
        1   -1    0    0  501    0  0.00000000000E+00  0.00000000000E+00  0.10784683874E+04  0.10784683874E+04  0.50400001928E-02 0. -1.
       -1   -1    0    0    0  501  0.00000000000E+00  0.00000000000E+00 -0.58137782574E+02  0.58137782793E+02  0.50400001928E-02 0.  1.
    10030    2    1    2    0    0  0.00000000000E+00  0.00000000000E+00  0.10203306048E+04  0.11366061702E+04  0.50079840555E+03 0.  0.
        3    1    3    3  502    0 -0.17479517689E+03 -0.99074964228E+02  0.84931916202E+03  0.87276127983E+03  0.10100000352E+00 0. -1.
       -3    1    3    3    0  502  0.17479517689E+03  0.99074964228E+02  0.17101144280E+03  0.26384489036E+03  0.10100000352E+00 0.  1.
</event>
<event>
 5   0  0.4889251E-03  0.5014109E+03  0.7818609E-02  0.1013411E+00
        2   -1    0    0  501    0  0.00000000000E+00  0.00000000000E+00  0.56930282362E+03  0.56930282362E+03  0.25500000920E-02 0.  1.
       -2   -1    0    0    0  501  0.00000000000E+00  0.00000000000E+00 -0.11040385107E+03  0.11040385110E+03  0.25500000920E-02 0. -1.
    10030    2    1    2    0    0  0.00000000000E+00  0.00000000000E+00  0.45889897255E+03  0.67970667473E+03  0.50141090601E+03 0.  0.
        5    1    3    3  502    0 -0.27699532237E+02 -0.17208671676E+03 -0.14744701893E+02  0.17498742355E+03  0.46999998093E+01 0. -1.
       -5    1    3    3    0  502  0.27699532237E+02  0.17208671676E+03  0.47364367444E+03  0.50471925117E+03  0.46999998093E+01 0.  1.
</event>
<event>
 5   0  0.4989875E-03  0.5000360E+03  0.7818609E-02  0.1013770E+00
       -2   -1    0    0    0  501  0.00000000000E+00  0.00000000000E+00  0.13181411526E+03  0.13181411529E+03  0.25500000920E-02 0.  1.
        2   -1    0    0  501    0  0.00000000000E+00  0.00000000000E+00 -0.47422080646E+03  0.47422080647E+03  0.25500000920E-02 0. -1.
    10030    2    1    2    0    0  0.00000000000E+00  0.00000000000E+00 -0.34240669120E+03  0.60603492175E+03  0.50003598291E+03 0.  0.
        2    1    3    3  502    0  0.17472250703E+02 -0.54507587369E+02 -0.46617272569E+03  0.46967368120E+03  0.25500000920E-02 0. -1.
       -2    1    3    3    0  502 -0.17472250703E+02  0.54507587369E+02  0.12376603449E+03  0.13636124056E+03  0.25500000920E-02 0.  1.
</event>
<event>
 5   0  0.2863538E-03  0.5000716E+03  0.7818609E-02  0.1013760E+00
        1   -1    0    0  501    0  0.00000000000E+00  0.00000000000E+00  0.12380936464E+03  0.12380936474E+03  0.50400001928E-02 0.  1.
       -1   -1    0    0    0  501  0.00000000000E+00  0.00000000000E+00 -0.50495292208E+03  0.50495292211E+03  0.50400001928E-02 0. -1.
    10030    2    1    2    0    0  0.00000000000E+00  0.00000000000E+00 -0.38114355745E+03  0.62876228685E+03  0.50007159686E+03 0.  0.
        1    1    3    3  502    0  0.15845219231E+02 -0.23654966285E+02  0.12176452798E+03  0.12504890524E+03  0.50400001928E-02 0.  1.
       -1    1    3    3    0  502 -0.15845219231E+02  0.23654966285E+02 -0.50290808543E+03  0.50371338161E+03  0.50400001928E-02 0. -1.
</event>
<event>
 5   0  0.2863538E-03  0.4998124E+03  0.7818609E-02  0.1013828E+00
        1   -1    0    0  501    0  0.00000000000E+00  0.00000000000E+00  0.56945580189E+03  0.56945580192E+03  0.50400001928E-02 0. -1.
       -1   -1    0    0    0  501  0.00000000000E+00  0.00000000000E+00 -0.10967154360E+03  0.10967154372E+03  0.50400001928E-02 0.  1.
    10030    2    1    2    0    0  0.00000000000E+00  0.00000000000E+00  0.45978425829E+03  0.67912734563E+03  0.49981235220E+03 0.  0.
        1    1    3    3  502    0 -0.61965246383E+02 -0.15242213094E+03  0.48547318821E+03  0.51259771191E+03  0.50400001928E-02 0. -1.
       -1    1    3    3    0  502  0.61965246383E+02  0.15242213094E+03 -0.25688929920E+02  0.16652963372E+03  0.50400001928E-02 0.  1.
</event>
<event>
 5   0  0.5095783E-03  0.5000001E+03  0.7818609E-02  0.1013779E+00
       -2   -1    0    0    0  501  0.00000000000E+00  0.00000000000E+00  0.65427948147E+02  0.65427948196E+02  0.25500000920E-02 0. -1.
        2   -1    0    0  501    0  0.00000000000E+00  0.00000000000E+00 -0.95524977881E+03  0.95524977881E+03  0.25500000920E-02 0.  1.
    10030    2    1    2    0    0  0.00000000000E+00  0.00000000000E+00 -0.88982183066E+03  0.10206777270E+04  0.50000013209E+03 0.  0.
        4    1    3    3  502    0  0.55921574487E+02 -0.11334835066E+03 -0.88521630734E+03  0.89419494226E+03  0.12699999809E+01 0.  1.
       -4    1    3    3    0  502 -0.55921574487E+02  0.11334835066E+03 -0.46055233221E+01  0.12648278474E+03  0.12699999809E+01 0. -1.
</event>
<event>
 5   0  0.5095783E-03  0.5001523E+03  0.7818609E-02  0.1013739E+00
        2   -1    0    0  501    0  0.00000000000E+00  0.00000000000E+00  0.14503621689E+04  0.14503621689E+04  0.25500000920E-02 0.  1.
       -2   -1    0    0    0  501  0.00000000000E+00  0.00000000000E+00 -0.43118937447E+02  0.43118937523E+02  0.25500000920E-02 0. -1.
    10030    2    1    2    0    0  0.00000000000E+00  0.00000000000E+00  0.14072432315E+04  0.14934811065E+04  0.50015227960E+03 0.  0.
        4    1    3    3  502    0  0.11145371683E+03 -0.16358506071E+01  0.35173469202E+02  0.11689051646E+03  0.12699999809E+01 0. -1.
       -4    1    3    3    0  502 -0.11145371683E+03  0.16358506071E+01  0.13720697623E+04  0.13765905900E+04  0.12699999809E+01 0.  1.
</event>
<event>
 5   0  0.4978779E-03  0.5000972E+03  0.7818609E-02  0.1013754E+00
        2   -1    0    0  501    0  0.00000000000E+00  0.00000000000E+00  0.91282940866E+03  0.91282940866E+03  0.25500000920E-02 0.  1.
       -2   -1    0    0    0  501  0.00000000000E+00  0.00000000000E+00 -0.68495067110E+02  0.68495067157E+02  0.25500000920E-02 0. -1.
    10030    2    1    2    0    0  0.00000000000E+00  0.00000000000E+00  0.84433434155E+03  0.98132447582E+03  0.50009723707E+03 0.  0.
        1    1    3    3  502    0 -0.24416123986E+02  0.20115349792E+03  0.70966066442E+03  0.73802244917E+03  0.50400001928E-02 0.  1.
       -1    1    3    3    0  502  0.24416123986E+02 -0.20115349792E+03  0.13467367713E+03  0.24330202665E+03  0.50400001928E-02 0. -1.
</event>
<event>
 5   0  0.2005125E-03  0.4999189E+03  0.7818609E-02  0.1013800E+00
       -4   -1    0    0    0  501  0.00000000000E+00  0.00000000000E+00  0.21081633350E+03  0.21082015884E+03  0.12699999809E+01 0.  1.
        4   -1    0    0  501    0  0.00000000000E+00  0.00000000000E+00 -0.29636257545E+03  0.29636529660E+03  0.12699999809E+01 0. -1.
    10030    2    1    2    0    0  0.00000000000E+00  0.00000000000E+00 -0.85546241945E+02  0.50718545543E+03  0.49991892012E+03 0.  0.
        2    1    3    3  502    0  0.18145096689E+03 -0.32224337649E+02  0.12855085623E+03  0.22469575867E+03  0.25500000920E-02 0.  1.
       -2    1    3    3    0  502 -0.18145096689E+03  0.32224337649E+02 -0.21409709818E+03  0.28248969676E+03  0.25500000920E-02 0. -1.
</event>
<event>
 5   0  0.3055293E-03  0.4998596E+03  0.7818609E-02  0.1013816E+00
       -1   -1    0    0    0  501  0.00000000000E+00  0.00000000000E+00  0.32957218890E+02  0.32957219276E+02  0.50400001928E-02 0.  1.
        1   -1    0    0  501    0  0.00000000000E+00  0.00000000000E+00 -0.18953330653E+04  0.18953330653E+04  0.50400001928E-02 0. -1.
    10030    2    1    2    0    0  0.00000000000E+00  0.00000000000E+00 -0.18623758464E+04  0.19282902846E+04  0.49985960861E+03 0.  0.
        3    1    3    3  502    0 -0.16055371094E+03  0.47363423217E+02 -0.21523932135E+03  0.27266969690E+03  0.10100000352E+00 0.  1.
       -3    1    3    3    0  502  0.16055371094E+03 -0.47363423217E+02 -0.16471365251E+04  0.16556205877E+04  0.10100000352E+00 0. -1.
</event>
<event>
 5   0  0.2863538E-03  0.4980705E+03  0.7818609E-02  0.1014284E+00
       -1   -1    0    0    0  501  0.00000000000E+00  0.00000000000E+00  0.68905715962E+02  0.68905716147E+02  0.50400001928E-02 0.  1.
        1   -1    0    0  501    0  0.00000000000E+00  0.00000000000E+00 -0.90004966450E+03  0.90004966452E+03  0.50400001928E-02 0. -1.
    10030    2    1    2    0    0  0.00000000000E+00  0.00000000000E+00 -0.83114394854E+03  0.96895538066E+03  0.49807054372E+03 0.  0.
        1    1    3    3  502    0 -0.20496911762E+03  0.13712100523E+03 -0.34806688635E+03  0.42657363568E+03  0.50400001928E-02 0. -1.
       -1    1    3    3    0  502  0.20496911762E+03 -0.13712100523E+03 -0.48307706219E+03  0.54238174498E+03  0.50400001928E-02 0.  1.
</event>
<event>
 5   0  0.4989875E-03  0.4999435E+03  0.7818609E-02  0.1013794E+00
        2   -1    0    0  501    0  0.00000000000E+00  0.00000000000E+00  0.11507244374E+04  0.11507244374E+04  0.25500000920E-02 0.  1.
       -2   -1    0    0    0  501  0.00000000000E+00  0.00000000000E+00 -0.54301345679E+02  0.54301345739E+02  0.25500000920E-02 0. -1.
    10030    2    1    2    0    0  0.00000000000E+00  0.00000000000E+00  0.10964230917E+04  0.12050257831E+04  0.49994353878E+03 0.  0.
        2    1    3    3  502    0  0.11815014524E+03 -0.21930981003E+03  0.59817191701E+03  0.64797059494E+03  0.25500000920E-02 0.  1.
       -2    1    3    3    0  502 -0.11815014524E+03  0.21930981003E+03  0.49825117467E+03  0.55705518816E+03  0.25500000920E-02 0. -1.
</event>
<event>
 5   0  0.3057783E-03  0.4999732E+03  0.7818609E-02  0.1013786E+00
       -1   -1    0    0    0  501  0.00000000000E+00  0.00000000000E+00  0.66532045880E+02  0.66532046071E+02  0.50400001928E-02 0. -1.
        1   -1    0    0  501    0  0.00000000000E+00  0.00000000000E+00 -0.93929623094E+03  0.93929623096E+03  0.50400001928E-02 0.  1.
    10030    2    1    2    0    0  0.00000000000E+00  0.00000000000E+00 -0.87276418506E+03  0.10058282770E+04  0.49997319942E+03 0.  0.
        5    1    3    3  502    0 -0.56354463960E+02 -0.12516869378E+03 -0.85658657081E+03  0.86752848415E+03  0.46999998093E+01 0.  1.
       -5    1    3    3    0  502  0.56354463960E+02  0.12516869378E+03 -0.16177614251E+02  0.13829979288E+03  0.46999998093E+01 0. -1.
</event>
<event>
 5   0  0.2863538E-03  0.4995503E+03  0.7818609E-02  0.1013896E+00
        1   -1    0    0  501    0  0.00000000000E+00  0.00000000000E+00  0.51430444278E+03  0.51430444280E+03  0.50400001928E-02 0. -1.
       -1   -1    0    0    0  501  0.00000000000E+00  0.00000000000E+00 -0.12130486849E+03  0.12130486859E+03  0.50400001928E-02 0.  1.
    10030    2    1    2    0    0  0.00000000000E+00  0.00000000000E+00  0.39299957429E+03  0.63560931139E+03  0.49955032913E+03 0.  0.
        1    1    3    3  502    0  0.22163765344E+03 -0.10991620828E+03  0.24025890868E+03  0.34486108144E+03  0.50400001928E-02 0. -1.
       -1    1    3    3    0  502 -0.22163765344E+03  0.10991620828E+03  0.15274066561E+03  0.29074822996E+03  0.50400001928E-02 0.  1.
</event>
<event>
 5   0  0.3013734E-03  0.4997321E+03  0.7818609E-02  0.1013849E+00
        1   -1    0    0  501    0  0.00000000000E+00  0.00000000000E+00  0.11995299088E+04  0.11995299088E+04  0.50400001928E-02 0.  1.
       -1   -1    0    0    0  501  0.00000000000E+00  0.00000000000E+00 -0.52047923571E+02  0.52047923815E+02  0.50400001928E-02 0. -1.
    10030    2    1    2    0    0  0.00000000000E+00  0.00000000000E+00  0.11474819852E+04  0.12515778326E+04  0.49973209291E+03 0.  0.
        2    1    3    3  502    0  0.47457441347E+02  0.18525648247E+03  0.97649713408E+03  0.99504714758E+03  0.25500000920E-02 0.  1.
       -2    1    3    3    0  502 -0.47457441347E+02 -0.18525648247E+03  0.17098485113E+03  0.25653068502E+03  0.25500000920E-02 0. -1.
</event>
<event>
 5   0  0.4989875E-03  0.5001505E+03  0.7818609E-02  0.1013740E+00
       -2   -1    0    0    0  501  0.00000000000E+00  0.00000000000E+00  0.23265026818E+03  0.23265026819E+03  0.25500000920E-02 0. -1.
        2   -1    0    0  501    0  0.00000000000E+00  0.00000000000E+00 -0.26880528848E+03  0.26880528849E+03  0.25500000920E-02 0.  1.
    10030    2    1    2    0    0  0.00000000000E+00  0.00000000000E+00 -0.36155020298E+02  0.50145555668E+03  0.50015046719E+03 0.  0.
        2    1    3    3  502    0 -0.13059878715E+03 -0.21127543086E+03 -0.47209681133E+02  0.25282821220E+03  0.25500000920E-02 0.  1.
       -2    1    3    3    0  502  0.13059878715E+03  0.21127543086E+03  0.11054660835E+02  0.24862734447E+03  0.25500000920E-02 0. -1.
</event>
<event>
 5   0  0.4889251E-03  0.4999643E+03  0.7818609E-02  0.1013788E+00
       -2   -1    0    0    0  501  0.00000000000E+00  0.00000000000E+00  0.51453026165E+02  0.51453026229E+02  0.25500000920E-02 0.  1.
        2   -1    0    0  501    0  0.00000000000E+00  0.00000000000E+00 -0.12145265368E+04  0.12145265368E+04  0.25500000920E-02 0. -1.
    10030    2    1    2    0    0  0.00000000000E+00  0.00000000000E+00 -0.11630735106E+04  0.12659795630E+04  0.49996426159E+03 0.  0.
        5    1    3    3  502    0  0.12834483901E+03  0.66648034177E+02 -0.65361265648E+02  0.15877198495E+03  0.46999998093E+01 0.  1.
       -5    1    3    3    0  502 -0.12834483901E+03 -0.66648034177E+02 -0.10977122450E+04  0.11072075781E+04  0.46999998093E+01 0. -1.
</event>
<event>
 5   0  0.3057783E-03  0.5003326E+03  0.7818609E-02  0.1013692E+00
        1   -1    0    0  501    0  0.00000000000E+00  0.00000000000E+00  0.39166802410E+03  0.39166802413E+03  0.50400001928E-02 0. -1.
       -1   -1    0    0    0  501  0.00000000000E+00  0.00000000000E+00 -0.15978631053E+03  0.15978631061E+03  0.50400001928E-02 0.  1.
    10030    2    1    2    0    0  0.00000000000E+00  0.00000000000E+00  0.23188171357E+03  0.55145433475E+03  0.50033264357E+03 0.  0.
        5    1    3    3  502    0  0.26033030382E+02  0.96322486818E+02  0.36873424338E+03  0.38202457038E+03  0.46999998093E+01 0. -1.
       -5    1    3    3    0  502 -0.26033030382E+02 -0.96322486818E+02 -0.13685252981E+03  0.16942976436E+03  0.46999998093E+01 0.  1.
</event>
<event>
 5   0  0.2863538E-03  0.5000544E+03  0.7818609E-02  0.1013765E+00
        1   -1    0    0  501    0  0.00000000000E+00  0.00000000000E+00  0.86037013729E+03  0.86037013730E+03  0.50400001928E-02 0.  1.
       -1   -1    0    0    0  501  0.00000000000E+00  0.00000000000E+00 -0.72658967618E+02  0.72658967793E+02  0.50400001928E-02 0. -1.
    10030    2    1    2    0    0  0.00000000000E+00  0.00000000000E+00  0.78771116967E+03  0.93302910509E+03  0.50005442117E+03 0.  0.
        1    1    3    3  502    0 -0.60179294221E+02 -0.21804974590E+03  0.59260521579E+03  0.63430921556E+03  0.50400001928E-02 0.  1.
       -1    1    3    3    0  502  0.60179294221E+02  0.21804974590E+03  0.19510595388E+03  0.29871988954E+03  0.50400001928E-02 0. -1.
</event>
<event>
 5   0  0.3055293E-03  0.5000710E+03  0.7818609E-02  0.1013760E+00
       -1   -1    0    0    0  501  0.00000000000E+00  0.00000000000E+00  0.80923991514E+02  0.80923991671E+02  0.50400001928E-02 0.  1.
        1   -1    0    0  501    0  0.00000000000E+00  0.00000000000E+00 -0.77254890755E+03  0.77254890757E+03  0.50400001928E-02 0. -1.
    10030    2    1    2    0    0  0.00000000000E+00  0.00000000000E+00 -0.69162491604E+03  0.85347289924E+03  0.50007096022E+03 0.  0.
        3    1    3    3  502    0  0.51193965841E+02  0.18808020854E+03 -0.78547122942E+02  0.21015386674E+03  0.10100000352E+00 0.  1.
       -3    1    3    3    0  502 -0.51193965841E+02 -0.18808020854E+03 -0.61307779310E+03  0.64331903250E+03  0.10100000352E+00 0. -1.
</event>
<event>
 5   0  0.4889251E-03  0.4999340E+03  0.7818609E-02  0.1013796E+00
        2   -1    0    0  501    0  0.00000000000E+00  0.00000000000E+00  0.60292611879E+03  0.60292611880E+03  0.25500000920E-02 0.  1.
       -2   -1    0    0    0  501  0.00000000000E+00  0.00000000000E+00 -0.10363376048E+03  0.10363376051E+03  0.25500000920E-02 0. -1.
    10030    2    1    2    0    0  0.00000000000E+00  0.00000000000E+00  0.49929235831E+03  0.70655987931E+03  0.49993399962E+03 0.  0.
        5    1    3    3  502    0 -0.22174495833E+03 -0.97534244048E+02  0.33651171158E+03  0.41466369184E+03  0.46999998093E+01 0.  1.
       -5    1    3    3    0  502  0.22174495833E+03  0.97534244048E+02  0.16278064673E+03  0.29189618746E+03  0.46999998093E+01 0. -1.
</event>
<event>
 5   0  0.3057783E-03  0.5007996E+03  0.7818609E-02  0.1013570E+00
        1   -1    0    0  501    0  0.00000000000E+00  0.00000000000E+00  0.64898830527E+03  0.64898830529E+03  0.50400001928E-02 0.  1.
       -1   -1    0    0    0  501  0.00000000000E+00  0.00000000000E+00 -0.96612001882E+02  0.96612002013E+02  0.50400001928E-02 0. -1.
    10030    2    1    2    0    0  0.00000000000E+00  0.00000000000E+00  0.55237630339E+03  0.74560030730E+03  0.50079959835E+03 0.  0.
        5    1    3    3  502    0  0.17910196095E+03 -0.17272115479E+03  0.23493253877E+03  0.34223602602E+03  0.46999998093E+01 0. -1.
       -5    1    3    3    0  502 -0.17910196095E+03  0.17272115479E+03  0.31744376461E+03  0.40336428129E+03  0.46999998093E+01 0.  1.
</event>
<event>
 5   0  0.4989875E-03  0.5000742E+03  0.7818609E-02  0.1013760E+00
        2   -1    0    0  501    0  0.00000000000E+00  0.00000000000E+00  0.65943715516E+03  0.65943715516E+03  0.25500000920E-02 0.  1.
       -2   -1    0    0    0  501  0.00000000000E+00  0.00000000000E+00 -0.94805929797E+02  0.94805929831E+02  0.25500000920E-02 0. -1.
    10030    2    1    2    0    0  0.00000000000E+00  0.00000000000E+00  0.56463122536E+03  0.75424308499E+03  0.50007420510E+03 0.  0.
        2    1    3    3  502    0  0.49072134864E+01 -0.96813725970E+02  0.62994169399E+03  0.63735666320E+03  0.25500000920E-02 0.  1.
       -2    1    3    3    0  502 -0.49072134864E+01  0.96813725970E+02 -0.65310468635E+02  0.11688642180E+03  0.25500000920E-02 0. -1.
</event>
<event>
 5   0  0.4989875E-03  0.5007622E+03  0.7818609E-02  0.1013580E+00
       -2   -1    0    0    0  501  0.00000000000E+00  0.00000000000E+00  0.25186554509E+03  0.25186554510E+03  0.25500000920E-02 0.  1.
        2   -1    0    0  501    0  0.00000000000E+00  0.00000000000E+00 -0.24890536725E+03  0.24890536726E+03  0.25500000920E-02 0. -1.
    10030    2    1    2    0    0  0.00000000000E+00  0.00000000000E+00  0.29601778398E+01  0.50077091236E+03  0.50076216312E+03 0.  0.
        2    1    3    3  502    0  0.10725367823E+03  0.21503550342E+03 -0.68856527727E+02  0.24996967945E+03  0.25500000920E-02 0.  1.
       -2    1    3    3    0  502 -0.10725367823E+03 -0.21503550342E+03  0.71816705567E+02  0.25080123291E+03  0.25500000920E-02 0. -1.
</event>
<event>
 5   0  0.4889251E-03  0.5001056E+03  0.7818609E-02  0.1013751E+00
        2   -1    0    0  501    0  0.00000000000E+00  0.00000000000E+00  0.14227215047E+04  0.14227215047E+04  0.25500000920E-02 0.  1.
       -2   -1    0    0    0  501  0.00000000000E+00  0.00000000000E+00 -0.43948444245E+02  0.43948444319E+02  0.25500000920E-02 0. -1.
    10030    2    1    2    0    0  0.00000000000E+00  0.00000000000E+00  0.13787730604E+04  0.14666699490E+04  0.50010557597E+03 0.  0.
        5    1    3    3  502    0  0.18464771629E+03  0.56914795651E+01  0.11834184021E+04  0.11977597324E+04  0.46999998093E+01 0.  1.
       -5    1    3    3    0  502 -0.18464771629E+03 -0.56914795651E+01  0.19535465830E+03  0.26891021659E+03  0.46999998093E+01 0. -1.
</event>
<event>
 5   0  0.4978779E-03  0.5007938E+03  0.7818609E-02  0.1013572E+00
        2   -1    0    0  501    0  0.00000000000E+00  0.00000000000E+00  0.74600167568E+03  0.74600167568E+03  0.25500000920E-02 0. -1.
       -2   -1    0    0    0  501  0.00000000000E+00  0.00000000000E+00 -0.84046217336E+02  0.84046217375E+02  0.25500000920E-02 0.  1.
    10030    2    1    2    0    0  0.00000000000E+00  0.00000000000E+00  0.66195545834E+03  0.83004789306E+03  0.50079384575E+03 0.  0.
        1    1    3    3  502    0  0.43182136655E+02  0.51522160286E+02  0.73076480145E+03  0.73385041050E+03  0.50400001928E-02 0. -1.
       -1    1    3    3    0  502 -0.43182136655E+02 -0.51522160286E+02 -0.68809343106E+02  0.96197482559E+02  0.50400001928E-02 0.  1.
</event>
<event>
 5   0  0.4989875E-03  0.5001612E+03  0.7818609E-02  0.1013737E+00
       -2   -1    0    0    0  501  0.00000000000E+00  0.00000000000E+00  0.75860298969E+02  0.75860299011E+02  0.25500000920E-02 0. -1.
        2   -1    0    0  501    0  0.00000000000E+00  0.00000000000E+00 -0.82441425652E+03  0.82441425653E+03  0.25500000920E-02 0.  1.
    10030    2    1    2    0    0  0.00000000000E+00  0.00000000000E+00 -0.74855395755E+03  0.90027455554E+03  0.50016122199E+03 0.  0.
        2    1    3    3  502    0 -0.12707617222E+03  0.14645135749E+02  0.12517321301E+02  0.12852827271E+03  0.25500000920E-02 0. -1.
       -2    1    3    3    0  502  0.12707617222E+03 -0.14645135749E+02 -0.76107127885E+03  0.77174628282E+03  0.25500000920E-02 0.  1.
</event>
<event>
 5   0  0.4978779E-03  0.5001689E+03  0.7818609E-02  0.1013735E+00
        2   -1    0    0  501    0  0.00000000000E+00  0.00000000000E+00  0.23544789416E+04  0.23544789416E+04  0.25500000920E-02 0.  1.
       -2   -1    0    0    0  501  0.00000000000E+00  0.00000000000E+00 -0.26563092858E+02  0.26563092980E+02  0.25500000920E-02 0. -1.
    10030    2    1    2    0    0  0.00000000000E+00  0.00000000000E+00  0.23279158487E+04  0.23810420346E+04  0.50016894308E+03 0.  0.
        1    1    3    3  502    0 -0.18759382300E+03 -0.15137494626E+03  0.84687929929E+03  0.88051710056E+03  0.50400001928E-02 0.  1.
       -1    1    3    3    0  502  0.18759382300E+03  0.15137494626E+03  0.14810365494E+04  0.15005249340E+04  0.50400001928E-02 0. -1.
</event>
<event>
 5   0  0.3013734E-03  0.5000338E+03  0.7818609E-02  0.1013770E+00
       -1   -1    0    0    0  501  0.00000000000E+00  0.00000000000E+00  0.17859788909E+03  0.17859788916E+03  0.50400001928E-02 0. -1.
        1   -1    0    0  501    0  0.00000000000E+00  0.00000000000E+00 -0.34999547027E+03  0.34999547031E+03  0.50400001928E-02 0.  1.
    10030    2    1    2    0    0  0.00000000000E+00  0.00000000000E+00 -0.17139758119E+03  0.52859335947E+03  0.50003380769E+03 0.  0.
        2    1    3    3  502    0 -0.18453134611E+03 -0.27984216436E+02 -0.26155371000E+03  0.32131803138E+03  0.25500000920E-02 0.  1.
       -2    1    3    3    0  502  0.18453134611E+03  0.27984216436E+02  0.90156128817E+02  0.20727532809E+03  0.25500000920E-02 0. -1.
</event>
<event>
 5   0  0.3211775E-03  0.5027524E+03  0.7818609E-02  0.1013063E+00
        1   -1    0    0  501    0  0.00000000000E+00  0.00000000000E+00  0.94113428034E+03  0.94113428036E+03  0.50400001928E-02 0. -1.
       -1   -1    0    0    0  501  0.00000000000E+00  0.00000000000E+00 -0.67142373953E+02  0.67142374142E+02  0.50400001928E-02 0.  1.
    10030    2    1    2    0    0  0.00000000000E+00  0.00000000000E+00  0.87399190639E+03  0.10082766545E+04  0.50275238395E+03 0.  0.
        4    1    3    3  502    0 -0.20497960754E+03 -0.14417345310E+03  0.39760647956E+03  0.46999483994E+03  0.12699999809E+01 0.  1.
       -4    1    3    3    0  502  0.20497960754E+03  0.14417345310E+03  0.47638542683E+03  0.53828181455E+03  0.12699999809E+01 0. -1.
</event>
<event>
 5   0  0.3211775E-03  0.5004253E+03  0.7818609E-02  0.1013668E+00
        1   -1    0    0  501    0  0.00000000000E+00  0.00000000000E+00  0.24678792405E+04  0.24678792406E+04  0.50400001928E-02 0. -1.
       -1   -1    0    0    0  501  0.00000000000E+00  0.00000000000E+00 -0.25368493208E+02  0.25368493708E+02  0.50400001928E-02 0.  1.
    10030    2    1    2    0    0  0.00000000000E+00  0.00000000000E+00  0.24425107473E+04  0.24932477343E+04  0.50042533262E+03 0.  0.
        4    1    3    3  502    0 -0.42909885738E+02 -0.16622304385E+02 -0.40882898701E+01  0.46215650067E+02  0.12699999809E+01 0.  1.
       -4    1    3    3    0  502  0.42909885738E+02  0.16622304385E+02  0.24465990372E+04  0.24470320842E+04  0.12699999809E+01 0. -1.
</event>
<event>
 5   0  0.5095783E-03  0.4998488E+03  0.7818609E-02  0.1013818E+00
       -2   -1    0    0    0  501  0.00000000000E+00  0.00000000000E+00  0.59004551154E+02  0.59004551209E+02  0.25500000920E-02 0.  1.
        2   -1    0    0  501    0  0.00000000000E+00  0.00000000000E+00 -0.10585998288E+04  0.10585998288E+04  0.25500000920E-02 0. -1.
    10030    2    1    2    0    0  0.00000000000E+00  0.00000000000E+00 -0.99959527769E+03  0.11176043801E+04  0.49984880828E+03 0.  0.
        4    1    3    3  502    0  0.16994087695E+03  0.86658153031E+02 -0.86081555900E+03  0.88169982231E+03  0.12699999809E+01 0. -1.
       -4    1    3    3    0  502 -0.16994087695E+03 -0.86658153031E+02 -0.13877971868E+03  0.23590455774E+03  0.12699999809E+01 0.  1.
</event>
<event>
 5   0  0.3057783E-03  0.5000580E+03  0.7818609E-02  0.1013764E+00
        1   -1    0    0  501    0  0.00000000000E+00  0.00000000000E+00  0.15087155148E+04  0.15087155148E+04  0.50400001928E-02 0.  1.
       -1   -1    0    0    0  501  0.00000000000E+00  0.00000000000E+00 -0.41435571682E+02  0.41435571989E+02  0.50400001928E-02 0. -1.
    10030    2    1    2    0    0  0.00000000000E+00  0.00000000000E+00  0.14672799431E+04  0.15501510868E+04  0.50005795707E+03 0.  0.
        5    1    3    3  502    0 -0.16320016243E+03 -0.17823838377E+03  0.53540873033E+03  0.58744175284E+03  0.46999998093E+01 0. -1.
       -5    1    3    3    0  502  0.16320016243E+03  0.17823838377E+03  0.93187121281E+03  0.96270933398E+03  0.46999998093E+01 0.  1.
</event>
<event>
 5   0  0.3013734E-03  0.4979611E+03  0.7818609E-02  0.1014312E+00
        1   -1    0    0  501    0  0.00000000000E+00  0.00000000000E+00  0.63646476229E+03  0.63646476231E+03  0.50400001928E-02 0.  1.
       -1   -1    0    0    0  501  0.00000000000E+00  0.00000000000E+00 -0.97399456381E+02  0.97399456511E+02  0.50400001928E-02 0. -1.
    10030    2    1    2    0    0  0.00000000000E+00  0.00000000000E+00  0.53906530591E+03  0.73386421882E+03  0.49796113064E+03 0.  0.
        2    1    3    3  502    0  0.17795142990E+03 -0.45248082035E+02  0.21711349839E+02  0.18489316658E+03  0.25500000920E-02 0. -1.
       -2    1    3    3    0  502 -0.17795142990E+03  0.45248082035E+02  0.51735395607E+03  0.54897105224E+03  0.25500000920E-02 0.  1.
</event>
<event>
 5   0  0.3211775E-03  0.4999699E+03  0.7818609E-02  0.1013787E+00
       -1   -1    0    0    0  501  0.00000000000E+00  0.00000000000E+00  0.28660945613E+03  0.28660945618E+03  0.50400001928E-02 0.  1.
        1   -1    0    0  501    0  0.00000000000E+00  0.00000000000E+00 -0.21804056119E+03  0.21804056125E+03  0.50400001928E-02 0. -1.
    10030    2    1    2    0    0  0.00000000000E+00  0.00000000000E+00  0.68568894938E+02  0.50465001743E+03  0.49996994583E+03 0.  0.
        4    1    3    3  502    0 -0.23553038258E+03  0.82745373087E+02  0.47426149309E+02  0.25411062635E+03  0.12699999809E+01 0.  1.
       -4    1    3    3    0  502  0.23553038258E+03 -0.82745373087E+02  0.21142745629E+02  0.25053939107E+03  0.12699999809E+01 0. -1.
</event>
<event>
 5   0  0.3211775E-03  0.4999711E+03  0.7818609E-02  0.1013786E+00
       -1   -1    0    0    0  501  0.00000000000E+00  0.00000000000E+00  0.17952790034E+03  0.17952790042E+03  0.50400001928E-02 0. -1.
        1   -1    0    0  501    0  0.00000000000E+00  0.00000000000E+00 -0.34809509683E+03  0.34809509687E+03  0.50400001928E-02 0.  1.
    10030    2    1    2    0    0  0.00000000000E+00  0.00000000000E+00 -0.16856719649E+03  0.52762299728E+03  0.49997112670E+03 0.  0.
        4    1    3    3  502    0 -0.20056733328E+02  0.11072609007E+02 -0.34698146910E+03  0.34773931043E+03  0.12699999809E+01 0.  1.
       -4    1    3    3    0  502  0.20056733328E+02 -0.11072609007E+02  0.17841427261E+03  0.17988368685E+03  0.12699999809E+01 0. -1.
</event>
<event>
 5   0  0.5118882E-03  0.5006782E+03  0.7818609E-02  0.1013602E+00
        2   -1    0    0  501    0  0.00000000000E+00  0.00000000000E+00  0.71349713517E+03  0.71349713518E+03  0.25500000920E-02 0. -1.
       -2   -1    0    0    0  501  0.00000000000E+00  0.00000000000E+00 -0.87834491518E+02  0.87834491555E+02  0.25500000920E-02 0.  1.
    10030    2    1    2    0    0  0.00000000000E+00  0.00000000000E+00  0.62566264366E+03  0.80133162673E+03  0.50067817242E+03 0.  0.
        3    1    3    3  502    0 -0.76288870055E+00 -0.12268596824E+03  0.66208069842E+03  0.67335227795E+03  0.10100000352E+00 0. -1.
       -3    1    3    3    0  502  0.76288870055E+00  0.12268596824E+03 -0.36418054762E+02  0.12797934878E+03  0.10100000352E+00 0.  1.
</event>
<event>
 5   0  0.3013734E-03  0.5002286E+03  0.7818609E-02  0.1013719E+00
       -1   -1    0    0    0  501  0.00000000000E+00  0.00000000000E+00  0.42079667102E+02  0.42079667403E+02  0.50400001928E-02 0.  1.
        1   -1    0    0  501    0  0.00000000000E+00  0.00000000000E+00 -0.14866364995E+04  0.14866364995E+04  0.50400001928E-02 0. -1.
    10030    2    1    2    0    0  0.00000000000E+00  0.00000000000E+00 -0.14445568324E+04  0.15287161669E+04  0.50022862468E+03 0.  0.
        2    1    3    3  502    0 -0.15245471310E+03 -0.19823429704E+03 -0.73520553833E+03  0.77657353783E+03  0.25500000920E-02 0.  1.
       -2    1    3    3    0  502  0.15245471310E+03  0.19823429704E+03 -0.70935129408E+03  0.75214262908E+03  0.25500000920E-02 0. -1.
</event>
<event>
 5   0  0.5118882E-03  0.5000198E+03  0.7818609E-02  0.1013774E+00
       -2   -1    0    0    0  501  0.00000000000E+00  0.00000000000E+00  0.46727812322E+02  0.46727812392E+02  0.25500000920E-02 0. -1.
        2   -1    0    0  501    0  0.00000000000E+00  0.00000000000E+00 -0.13376393306E+04  0.13376393306E+04  0.25500000920E-02 0.  1.
    10030    2    1    2    0    0  0.00000000000E+00  0.00000000000E+00 -0.12909115183E+04  0.13843671430E+04  0.50001983819E+03 0.  0.
        3    1    3    3  502    0  0.89868766571E+02  0.76245337334E+02 -0.35005758388E+02  0.12294372693E+03  0.10100000352E+00 0. -1.
       -3    1    3    3    0  502 -0.89868766571E+02 -0.76245337334E+02 -0.12559057599E+04  0.12614234161E+04  0.10100000352E+00 0.  1.
</event>
<event>
 5   0  0.3057783E-03  0.5001333E+03  0.7818609E-02  0.1013744E+00
        1   -1    0    0  501    0  0.00000000000E+00  0.00000000000E+00  0.14676817134E+04  0.14676817134E+04  0.50400001928E-02 0. -1.
       -1   -1    0    0    0  501  0.00000000000E+00  0.00000000000E+00 -0.42606876823E+02  0.42606877121E+02  0.50400001928E-02 0.  1.
    10030    2    1    2    0    0  0.00000000000E+00  0.00000000000E+00  0.14250748366E+04  0.15102885905E+04  0.50013331906E+03 0.  0.
        5    1    3    3  502    0  0.21591987685E+03 -0.42303833368E+02  0.35395635198E+03  0.41679514949E+03  0.46999998093E+01 0.  1.
       -5    1    3    3    0  502 -0.21591987685E+03  0.42303833368E+02  0.10711184846E+04  0.10934934410E+04  0.46999998093E+01 0. -1.
</event>
<event>
 5   0  0.5118882E-03  0.4998794E+03  0.7818609E-02  0.1013810E+00
       -2   -1    0    0    0  501  0.00000000000E+00  0.00000000000E+00  0.39510127031E+03  0.39510127032E+03  0.25500000920E-02 0. -1.
        2   -1    0    0  501    0  0.00000000000E+00  0.00000000000E+00 -0.15811101669E+03  0.15811101671E+03  0.25500000920E-02 0.  1.
    10030    2    1    2    0    0  0.00000000000E+00  0.00000000000E+00  0.23699025363E+03  0.55321228703E+03  0.49987943967E+03 0.  0.
        3    1    3    3  502    0 -0.12626809534E+03 -0.19363479575E+03  0.22367033838E+03  0.32166208433E+03  0.10100000352E+00 0. -1.
       -3    1    3    3    0  502  0.12626809534E+03  0.19363479575E+03  0.13319915250E+02  0.23155020270E+03  0.10100000352E+00 0.  1.
</event>
<event>
 5   0  0.2863538E-03  0.5000279E+03  0.7818609E-02  0.1013772E+00
        1   -1    0    0  501    0  0.00000000000E+00  0.00000000000E+00  0.34176875847E+03  0.34176875851E+03  0.50400001928E-02 0. -1.
       -1   -1    0    0    0  501  0.00000000000E+00  0.00000000000E+00 -0.18289257122E+03  0.18289257129E+03  0.50400001928E-02 0.  1.
    10030    2    1    2    0    0  0.00000000000E+00  0.00000000000E+00  0.15887618725E+03  0.52466132980E+03  0.50002786734E+03 0.  0.
        1    1    3    3  502    0 -0.28620935602E+01 -0.73352994829E+02  0.33020589634E+03  0.33826733131E+03  0.50400001928E-02 0. -1.
       -1    1    3    3    0  502  0.28620935602E+01  0.73352994829E+02 -0.17132970909E+03  0.18639399849E+03  0.50400001928E-02 0.  1.
</event>
<event>
 5   0  0.3057783E-03  0.5002678E+03  0.7818609E-02  0.1013709E+00
        1   -1    0    0  501    0  0.00000000000E+00  0.00000000000E+00  0.84584038532E+03  0.84584038533E+03  0.50400001928E-02 0. -1.
       -1   -1    0    0    0  501  0.00000000000E+00  0.00000000000E+00 -0.73970186579E+02  0.73970186750E+02  0.50400001928E-02 0.  1.
    10030    2    1    2    0    0  0.00000000000E+00  0.00000000000E+00  0.77187019874E+03  0.91981057209E+03  0.50026781309E+03 0.  0.
        5    1    3    3  502    0  0.17176149507E+03  0.40442213235E+02  0.60090056129E+02  0.18646846555E+03  0.46999998093E+01 0.  1.
       -5    1    3    3    0  502 -0.17176149507E+03 -0.40442213235E+02  0.71178014261E+03  0.73334210653E+03  0.46999998093E+01 0. -1.
</event>
<event>
 5   0  0.4889251E-03  0.5001413E+03  0.7818609E-02  0.1013742E+00
       -2   -1    0    0    0  501  0.00000000000E+00  0.00000000000E+00  0.35210265175E+02  0.35210265267E+02  0.25500000920E-02 0. -1.
        2   -1    0    0  501    0  0.00000000000E+00  0.00000000000E+00 -0.17760537335E+04  0.17760537335E+04  0.25500000920E-02 0.  1.
    10030    2    1    2    0    0  0.00000000000E+00  0.00000000000E+00 -0.17408434684E+04  0.18112639988E+04  0.50014127207E+03 0.  0.
        5    1    3    3  502    0  0.12150796767E+03 -0.13296481305E+03 -0.14984099295E+04  0.15092045038E+04  0.46999998093E+01 0.  1.
       -5    1    3    3    0  502 -0.12150796767E+03  0.13296481305E+03 -0.24243353892E+03  0.30205949498E+03  0.46999998093E+01 0. -1.
</event>
<event>
 5   0  0.2863538E-03  0.4997666E+03  0.7818609E-02  0.1013840E+00
       -1   -1    0    0    0  501  0.00000000000E+00  0.00000000000E+00  0.17030949267E+03  0.17030949274E+03  0.50400001928E-02 0. -1.
        1   -1    0    0  501    0  0.00000000000E+00  0.00000000000E+00 -0.36663636731E+03  0.36663636735E+03  0.50400001928E-02 0.  1.
    10030    2    1    2    0    0  0.00000000000E+00  0.00000000000E+00 -0.19632687464E+03  0.53694586009E+03  0.49976656047E+03 0.  0.
        1    1    3    3  502    0  0.24380692652E+02  0.14117015408E+03 -0.31813408668E+03  0.34890217499E+03  0.50400001928E-02 0.  1.
       -1    1    3    3    0  502 -0.24380692652E+02 -0.14117015408E+03  0.12180721204E+03  0.18804368510E+03  0.50400001928E-02 0. -1.
</event>
<event>
 5   0  0.3013734E-03  0.4998830E+03  0.7818609E-02  0.1013809E+00
        1   -1    0    0  501    0  0.00000000000E+00  0.00000000000E+00  0.11641747904E+04  0.11641747904E+04  0.50400001928E-02 0.  1.
       -1   -1    0    0    0  501  0.00000000000E+00  0.00000000000E+00 -0.53660979812E+02  0.53660980049E+02  0.50400001928E-02 0. -1.
    10030    2    1    2    0    0  0.00000000000E+00  0.00000000000E+00  0.11105138106E+04  0.12178357704E+04  0.49988302662E+03 0.  0.
        2    1    3    3  502    0 -0.23683092806E+03 -0.29345289887E+02  0.37424030084E+03  0.44385339618E+03  0.25500000920E-02 0. -1.
       -2    1    3    3    0  502  0.23683092806E+03  0.29345289887E+02  0.73627350973E+03  0.77398237425E+03  0.25500000920E-02 0.  1.
</event>
<event>
 5   0  0.4989875E-03  0.4999511E+03  0.7818609E-02  0.1013792E+00
        2   -1    0    0  501    0  0.00000000000E+00  0.00000000000E+00  0.53835497179E+03  0.53835497180E+03  0.25500000920E-02 0. -1.
       -2   -1    0    0    0  501  0.00000000000E+00  0.00000000000E+00 -0.11607171278E+03  0.11607171281E+03  0.25500000920E-02 0.  1.
    10030    2    1    2    0    0  0.00000000000E+00  0.00000000000E+00  0.42228325901E+03  0.65442668461E+03  0.49995113230E+03 0.  0.
        2    1    3    3  502    0 -0.18119324274E+03 -0.16804458259E+03  0.16185347355E+03  0.29540907207E+03  0.25500000920E-02 0.  1.
       -2    1    3    3    0  502  0.18119324274E+03  0.16804458259E+03  0.26042978546E+03  0.35901761254E+03  0.25500000920E-02 0. -1.
</event>
<event>
 5   0  0.4989875E-03  0.4988240E+03  0.7818609E-02  0.1014086E+00
        2   -1    0    0  501    0  0.00000000000E+00  0.00000000000E+00  0.63653553999E+03  0.63653553999E+03  0.25500000920E-02 0. -1.
       -2   -1    0    0    0  501  0.00000000000E+00  0.00000000000E+00 -0.97726430543E+02  0.97726430576E+02  0.25500000920E-02 0.  1.
    10030    2    1    2    0    0  0.00000000000E+00  0.00000000000E+00  0.53880910945E+03  0.73426197057E+03  0.49882400203E+03 0.  0.
        2    1    3    3  502    0 -0.10207675296E+03  0.24398627463E+02  0.60244896811E+03  0.61152245723E+03  0.25500000920E-02 0. -1.
       -2    1    3    3    0  502  0.10207675296E+03 -0.24398627463E+02 -0.63639858663E+02  0.12273951334E+03  0.25500000920E-02 0.  1.
</event>
<event>
 5   0  0.5095783E-03  0.4999423E+03  0.7818609E-02  0.1013794E+00
        2   -1    0    0  501    0  0.00000000000E+00  0.00000000000E+00  0.56315698223E+03  0.56315698224E+03  0.25500000920E-02 0.  1.
       -2   -1    0    0    0  501  0.00000000000E+00  0.00000000000E+00 -0.11095588593E+03  0.11095588596E+03  0.25500000920E-02 0. -1.
    10030    2    1    2    0    0  0.00000000000E+00  0.00000000000E+00  0.45220109630E+03  0.67411286820E+03  0.49994232425E+03 0.  0.
        4    1    3    3  502    0  0.69034504035E+02 -0.24017774459E+03  0.21837145863E+03  0.33187168995E+03  0.12699999809E+01 0. -1.
       -4    1    3    3    0  502 -0.69034504035E+02  0.24017774459E+03  0.23382963766E+03  0.34224117825E+03  0.12699999809E+01 0.  1.
</event>
<event>
 5   0  0.4978779E-03  0.4984366E+03  0.7818609E-02  0.1014188E+00
        2   -1    0    0  501    0  0.00000000000E+00  0.00000000000E+00  0.24282874462E+04  0.24282874462E+04  0.25500000920E-02 0.  1.
       -2   -1    0    0    0  501  0.00000000000E+00  0.00000000000E+00 -0.25577600874E+02  0.25577601001E+02  0.25500000920E-02 0. -1.
    10030    2    1    2    0    0  0.00000000000E+00  0.00000000000E+00  0.24027098454E+04  0.24538650473E+04  0.49843662492E+03 0.  0.
        1    1    3    3  502    0  0.11255519232E+03 -0.15553773395E+03  0.19836376814E+04  0.19929072003E+04  0.50400001928E-02 0.  1.
       -1    1    3    3    0  502 -0.11255519232E+03  0.15553773395E+03  0.41907216396E+03  0.46095784691E+03  0.50400001928E-02 0. -1.
</event>
<event>
 5   0  0.2005125E-03  0.4999464E+03  0.7818609E-02  0.1013793E+00
        4   -1    0    0  501    0  0.00000000000E+00  0.00000000000E+00  0.12344827142E+03  0.12345480395E+03  0.12699999809E+01 0.  1.
       -4   -1    0    0    0  501  0.00000000000E+00  0.00000000000E+00 -0.50615573015E+03  0.50615732344E+03  0.12699999809E+01 0. -1.
    10030    2    1    2    0    0  0.00000000000E+00  0.00000000000E+00 -0.38270745873E+03  0.62961212738E+03  0.49994642911E+03 0.  0.
        4    1    3    3  502    0 -0.10959108067E+03 -0.11983390278E+03  0.47972982493E+02  0.16933218586E+03  0.12699999809E+01 0.  1.
       -4    1    3    3    0  502  0.10959108067E+03  0.11983390278E+03 -0.43068044122E+03  0.46027994153E+03  0.12699999809E+01 0. -1.
</event>
<event>
 5   0  0.5095783E-03  0.5001253E+03  0.7818609E-02  0.1013746E+00
        2   -1    0    0  501    0  0.00000000000E+00  0.00000000000E+00  0.12048647251E+04  0.12048647251E+04  0.25500000920E-02 0. -1.
       -2   -1    0    0    0  501  0.00000000000E+00  0.00000000000E+00 -0.51899044310E+02  0.51899044373E+02  0.25500000920E-02 0.  1.
    10030    2    1    2    0    0  0.00000000000E+00  0.00000000000E+00  0.11529656808E+04  0.12567637695E+04  0.50012529549E+03 0.  0.
        4    1    3    3  502    0  0.88793364918E+02  0.15232653269E+03  0.13089793519E+03  0.21959853495E+03  0.12699999809E+01 0.  1.
       -4    1    3    3    0  502 -0.88793364918E+02 -0.15232653269E+03  0.10220677456E+04  0.10371652345E+04  0.12699999809E+01 0. -1.
</event>
<event>
 5   0  0.5118882E-03  0.5001108E+03  0.7818609E-02  0.1013750E+00
        2   -1    0    0  501    0  0.00000000000E+00  0.00000000000E+00  0.48815860980E+03  0.48815860980E+03  0.25500000920E-02 0. -1.
       -2   -1    0    0    0  501  0.00000000000E+00  0.00000000000E+00 -0.12808891849E+03  0.12808891851E+03  0.25500000920E-02 0.  1.
    10030    2    1    2    0    0  0.00000000000E+00  0.00000000000E+00  0.36006969131E+03  0.61624752832E+03  0.50011082127E+03 0.  0.
        3    1    3    3  502    0 -0.13744403172E+03  0.18255656459E+03  0.30515202515E+03  0.38122897291E+03  0.10100000352E+00 0.  1.
       -3    1    3    3    0  502  0.13744403172E+03 -0.18255656459E+03  0.54917666160E+02  0.23501855541E+03  0.10100000352E+00 0. -1.
</event>
<event>
 5   0  0.3057783E-03  0.5000855E+03  0.7818609E-02  0.1013757E+00
        1   -1    0    0  501    0  0.00000000000E+00  0.00000000000E+00  0.30968857310E+03  0.30968857314E+03  0.50400001928E-02 0. -1.
       -1   -1    0    0    0  501  0.00000000000E+00  0.00000000000E+00 -0.20188469576E+03  0.20188469582E+03  0.50400001928E-02 0.  1.
    10030    2    1    2    0    0  0.00000000000E+00  0.00000000000E+00  0.10780387734E+03  0.51157326897E+03  0.50008552624E+03 0.  0.
        5    1    3    3  502    0  0.77130800380E+02  0.23114895018E+03 -0.32408518604E+01  0.24374492950E+03  0.46999998093E+01 0.  1.
       -5    1    3    3    0  502 -0.77130800380E+02 -0.23114895018E+03  0.11104472920E+03  0.26782833946E+03  0.46999998093E+01 0. -1.
</event>
<event>
 5   0  0.3057783E-03  0.4971290E+03  0.7818609E-02  0.1014531E+00
        1   -1    0    0  501    0  0.00000000000E+00  0.00000000000E+00  0.41532588781E+03  0.41532588784E+03  0.50400001928E-02 0. -1.
       -1   -1    0    0    0  501  0.00000000000E+00  0.00000000000E+00 -0.14876103143E+03  0.14876103151E+03  0.50400001928E-02 0.  1.
    10030    2    1    2    0    0  0.00000000000E+00  0.00000000000E+00  0.26656485639E+03  0.56408691935E+03  0.49712898721E+03 0.  0.
        5    1    3    3  502    0  0.12933941599E+02  0.12639989696E+03  0.37563355671E+03  0.39656888395E+03  0.46999998093E+01 0. -1.
       -5    1    3    3    0  502 -0.12933941599E+02 -0.12639989696E+03 -0.10906870032E+03  0.16751803540E+03  0.46999998093E+01 0.  1.
</event>
<event>
 5   0  0.3055293E-03  0.4999279E+03  0.7818609E-02  0.1013798E+00
        1   -1    0    0  501    0  0.00000000000E+00  0.00000000000E+00  0.43893260381E+03  0.43893260384E+03  0.50400001928E-02 0. -1.
       -1   -1    0    0    0  501  0.00000000000E+00  0.00000000000E+00 -0.14234983059E+03  0.14234983068E+03  0.50400001928E-02 0.  1.
    10030    2    1    2    0    0  0.00000000000E+00  0.00000000000E+00  0.29658277322E+03  0.58128243452E+03  0.49992792212E+03 0.  0.
        3    1    3    3  502    0 -0.11931295515E+03 -0.13385376488E+03  0.35078571353E+03  0.39395816866E+03  0.10100000352E+00 0. -1.
       -3    1    3    3    0  502  0.11931295515E+03  0.13385376488E+03 -0.54202940308E+02  0.18732426586E+03  0.10100000352E+00 0.  1.
</event>
<event>
 5   0  0.2005125E-03  0.5000722E+03  0.7818609E-02  0.1013760E+00
       -3   -1    0    0    0  501  0.00000000000E+00  0.00000000000E+00  0.30197664789E+03  0.30197666478E+03  0.10100000352E+00 0.  1.
        3   -1    0    0  501    0  0.00000000000E+00  0.00000000000E+00 -0.20702938643E+03  0.20702941107E+03  0.10100000352E+00 0. -1.
    10030    2    1    2    0    0  0.00000000000E+00  0.00000000000E+00  0.94947261456E+02  0.50900607585E+03  0.50007219758E+03 0.  0.
        3    1    3    3  502    0  0.73885838884E+02 -0.23447891306E+03  0.93879382760E+02  0.26315931784E+03  0.10100000352E+00 0. -1.
       -3    1    3    3    0  502 -0.73885838884E+02  0.23447891306E+03  0.10678786954E+01  0.24584675801E+03  0.10100000352E+00 0.  1.
</event>
<event>
 5   0  0.4889251E-03  0.5000993E+03  0.7818609E-02  0.1013753E+00
       -2   -1    0    0    0  501  0.00000000000E+00  0.00000000000E+00  0.14195524799E+03  0.14195524802E+03  0.25500000920E-02 0. -1.
        2   -1    0    0  501    0  0.00000000000E+00  0.00000000000E+00 -0.44045454109E+03  0.44045454110E+03  0.25500000920E-02 0.  1.
    10030    2    1    2    0    0  0.00000000000E+00  0.00000000000E+00 -0.29849929310E+03  0.58240978912E+03  0.50009932461E+03 0.  0.
        5    1    3    3  502    0  0.55511776306E+02 -0.62909147126E+02  0.12501922862E+03  0.15063537309E+03  0.46999998093E+01 0. -1.
       -5    1    3    3    0  502 -0.55511776306E+02  0.62909147126E+02 -0.42351852172E+03  0.43177441603E+03  0.46999998093E+01 0.  1.
</event>
<event>
 5   0  0.3211775E-03  0.5001821E+03  0.7818609E-02  0.1013731E+00
       -1   -1    0    0    0  501  0.00000000000E+00  0.00000000000E+00  0.12361136115E+03  0.12361136125E+03  0.50400001928E-02 0. -1.
        1   -1    0    0  501    0  0.00000000000E+00  0.00000000000E+00 -0.50598537648E+03  0.50598537650E+03  0.50400001928E-02 0.  1.
    10030    2    1    2    0    0  0.00000000000E+00  0.00000000000E+00 -0.38237401533E+03  0.62959673776E+03  0.50018213143E+03 0.  0.
        4    1    3    3  502    0 -0.24347873461E+03  0.56759097903E+02 -0.18318251730E+03  0.30993698867E+03  0.12699999809E+01 0.  1.
       -4    1    3    3    0  502  0.24347873461E+03 -0.56759097903E+02 -0.19919149803E+03  0.31965974909E+03  0.12699999809E+01 0. -1.
</event>
<event>
 5   0  0.4978779E-03  0.4996888E+03  0.7818609E-02  0.1013860E+00
       -2   -1    0    0    0  501  0.00000000000E+00  0.00000000000E+00  0.84497941845E+02  0.84497941883E+02  0.25500000920E-02 0. -1.
        2   -1    0    0  501    0  0.00000000000E+00  0.00000000000E+00 -0.73874257297E+03  0.73874257297E+03  0.25500000920E-02 0.  1.
    10030    2    1    2    0    0  0.00000000000E+00  0.00000000000E+00 -0.65424463112E+03  0.82324051485E+03  0.49968881111E+03 0.  0.
        1    1    3    3  502    0 -0.24521162103E+03  0.17503754495E+02 -0.25368146847E+03  0.35325544296E+03  0.50400001928E-02 0. -1.
       -1    1    3    3    0  502  0.24521162103E+03 -0.17503754495E+02 -0.40056316265E+03  0.46998507190E+03  0.50400001928E-02 0.  1.
</event>
<event>
 5   0  0.2005125E-03  0.5000050E+03  0.7818609E-02  0.1013778E+00
       -3   -1    0    0    0  501  0.00000000000E+00  0.00000000000E+00  0.22933473053E+03  0.22933475277E+03  0.10100000352E+00 0.  1.
        3   -1    0    0  501    0  0.00000000000E+00  0.00000000000E+00 -0.27253278339E+03  0.27253280210E+03  0.10100000352E+00 0. -1.
    10030    2    1    2    0    0  0.00000000000E+00  0.00000000000E+00 -0.43198052854E+02  0.50186755487E+03  0.50000497084E+03 0.  0.
        2    1    3    3  502    0 -0.79168521010E+01  0.49536717772E+02 -0.26742907691E+03  0.27209350257E+03  0.25500000920E-02 0. -1.
       -2    1    3    3    0  502  0.79168521010E+01 -0.49536717772E+02  0.22423102406E+03  0.22977405230E+03  0.25500000920E-02 0.  1.
</event>
<event>
 5   0  0.4989875E-03  0.5000739E+03  0.7818609E-02  0.1013760E+00
        2   -1    0    0  501    0  0.00000000000E+00  0.00000000000E+00  0.35092571136E+03  0.35092571137E+03  0.25500000920E-02 0.  1.
       -2   -1    0    0    0  501  0.00000000000E+00  0.00000000000E+00 -0.17815302940E+03  0.17815302942E+03  0.25500000920E-02 0. -1.
    10030    2    1    2    0    0  0.00000000000E+00  0.00000000000E+00  0.17277268196E+03  0.52907874079E+03  0.50007390886E+03 0.  0.
        2    1    3    3  502    0  0.23544637425E+03 -0.69482737629E+02  0.36138165549E+02  0.24813063694E+03  0.25500000920E-02 0. -1.
       -2    1    3    3    0  502 -0.23544637425E+03  0.69482737629E+02  0.13663451641E+03  0.28094810385E+03  0.25500000920E-02 0.  1.
</event>
<event>
 5   0  0.3057783E-03  0.4998939E+03  0.7818609E-02  0.1013807E+00
        1   -1    0    0  501    0  0.00000000000E+00  0.00000000000E+00  0.13621308411E+04  0.13621308411E+04  0.50400001928E-02 0. -1.
       -1   -1    0    0    0  501  0.00000000000E+00  0.00000000000E+00 -0.45864516271E+02  0.45864516548E+02  0.50400001928E-02 0.  1.
    10030    2    1    2    0    0  0.00000000000E+00  0.00000000000E+00  0.13162663248E+04  0.14079953577E+04  0.49989387805E+03 0.  0.
        5    1    3    3  502    0 -0.30775142161E+02  0.19461729344E+03  0.10910858071E+04  0.11087440321E+04  0.46999998093E+01 0. -1.
       -5    1    3    3    0  502  0.30775142161E+02 -0.19461729344E+03  0.22518051773E+03  0.29925132555E+03  0.46999998093E+01 0.  1.
</event>
<event>
 5   0  0.5095783E-03  0.5001264E+03  0.7818609E-02  0.1013746E+00
        2   -1    0    0  501    0  0.00000000000E+00  0.00000000000E+00  0.23260436225E+04  0.23260436225E+04  0.25500000920E-02 0.  1.
       -2   -1    0    0    0  501  0.00000000000E+00  0.00000000000E+00 -0.26883249323E+02  0.26883249444E+02  0.25500000920E-02 0. -1.
    10030    2    1    2    0    0  0.00000000000E+00  0.00000000000E+00  0.22991603731E+04  0.23529268719E+04  0.50012642715E+03 0.  0.
        4    1    3    3  502    0  0.10435447957E+03  0.18311308571E+03  0.51646211014E+03  0.55781267795E+03  0.12699999809E+01 0. -1.
       -4    1    3    3    0  502 -0.10435447957E+03 -0.18311308571E+03  0.17826982630E+04  0.17951141940E+04  0.12699999809E+01 0.  1.
</event>
<event>
 5   0  0.4889251E-03  0.4998401E+03  0.7818609E-02  0.1013821E+00
       -2   -1    0    0    0  501  0.00000000000E+00  0.00000000000E+00  0.37126683947E+03  0.37126683948E+03  0.25500000920E-02 0.  1.
        2   -1    0    0  501    0  0.00000000000E+00  0.00000000000E+00 -0.16823485543E+03  0.16823485545E+03  0.25500000920E-02 0. -1.
    10030    2    1    2    0    0  0.00000000000E+00  0.00000000000E+00  0.20303198404E+03  0.53950169493E+03  0.49984006672E+03 0.  0.
        5    1    3    3  502    0 -0.26146726297E+02  0.56298445389E+02 -0.15973268538E+03  0.17143449777E+03  0.46999998093E+01 0. -1.
       -5    1    3    3    0  502  0.26146726297E+02 -0.56298445389E+02  0.36276466942E+03  0.36806719716E+03  0.46999998093E+01 0.  1.
</event>
<event>
 5   0  0.3211775E-03  0.4999908E+03  0.7818609E-02  0.1013781E+00
        1   -1    0    0  501    0  0.00000000000E+00  0.00000000000E+00  0.40166014568E+03  0.40166014571E+03  0.50400001928E-02 0.  1.
       -1   -1    0    0    0  501  0.00000000000E+00  0.00000000000E+00 -0.15559848570E+03  0.15559848578E+03  0.50400001928E-02 0. -1.
    10030    2    1    2    0    0  0.00000000000E+00  0.00000000000E+00  0.24606165998E+03  0.55725863150E+03  0.49999084178E+03 0.  0.
        4    1    3    3  502    0  0.11392062834E+03 -0.19388121402E+03  0.24475683109E+03  0.33237832958E+03  0.12699999809E+01 0.  1.
       -4    1    3    3    0  502 -0.11392062834E+03  0.19388121402E+03  0.13048288882E+01  0.22488030191E+03  0.12699999809E+01 0. -1.
</event>
<event>
 5   0  0.5118882E-03  0.5001550E+03  0.7818609E-02  0.1013738E+00
       -2   -1    0    0    0  501  0.00000000000E+00  0.00000000000E+00  0.23326471931E+03  0.23326471932E+03  0.25500000920E-02 0.  1.
        2   -1    0    0  501    0  0.00000000000E+00  0.00000000000E+00 -0.26810205317E+03  0.26810205318E+03  0.25500000920E-02 0. -1.
    10030    2    1    2    0    0  0.00000000000E+00  0.00000000000E+00 -0.34837333856E+02  0.50136677250E+03  0.50015497672E+03 0.  0.
        3    1    3    3  502    0  0.36448133758E+02 -0.12311203150E+03  0.19770253873E+03  0.23573574777E+03  0.10100000352E+00 0.  1.
       -3    1    3    3    0  502 -0.36448133758E+02  0.12311203150E+03 -0.23253987259E+03  0.26563102473E+03  0.10100000352E+00 0. -1.
</event>
<event>
 5   0  0.3057783E-03  0.5001929E+03  0.7818609E-02  0.1013729E+00
        1   -1    0    0  501    0  0.00000000000E+00  0.00000000000E+00  0.54548535865E+03  0.54548535867E+03  0.50400001928E-02 0.  1.
       -1   -1    0    0    0  501  0.00000000000E+00  0.00000000000E+00 -0.11466528123E+03  0.11466528134E+03  0.50400001928E-02 0. -1.
    10030    2    1    2    0    0  0.00000000000E+00  0.00000000000E+00  0.43082007742E+03  0.66015064001E+03  0.50019289119E+03 0.  0.
        5    1    3    3  502    0 -0.11127077969E+03  0.16025652311E+03  0.42183330128E+03  0.46478894531E+03  0.46999998093E+01 0.  1.
       -5    1    3    3    0  502  0.11127077969E+03 -0.16025652311E+03  0.89867761370E+01  0.19536169470E+03  0.46999998093E+01 0. -1.
</event>
<event>
 5   0  0.2863538E-03  0.5002690E+03  0.7818609E-02  0.1013709E+00
       -1   -1    0    0    0  501  0.00000000000E+00  0.00000000000E+00  0.61885010809E+02  0.61885011015E+02  0.50400001928E-02 0. -1.
        1   -1    0    0  501    0  0.00000000000E+00  0.00000000000E+00 -0.10110247351E+04  0.10110247351E+04  0.50400001928E-02 0.  1.
    10030    2    1    2    0    0  0.00000000000E+00  0.00000000000E+00 -0.94913972424E+03  0.10729097461E+04  0.50026903472E+03 0.  0.
        1    1    3    3  502    0 -0.22419212307E+03  0.97389068666E+02 -0.58847034006E+03  0.63721588171E+03  0.50400001928E-02 0.  1.
       -1    1    3    3    0  502  0.22419212307E+03 -0.97389068666E+02 -0.36066938418E+03  0.43569386437E+03  0.50400001928E-02 0. -1.
</event>
<event>
 5   0  0.3055293E-03  0.4993113E+03  0.7818609E-02  0.1013959E+00
       -1   -1    0    0    0  501  0.00000000000E+00  0.00000000000E+00  0.89827811596E+02  0.89827811737E+02  0.50400001928E-02 0.  1.
        1   -1    0    0  501    0  0.00000000000E+00  0.00000000000E+00 -0.69386011255E+03  0.69386011257E+03  0.50400001928E-02 0. -1.
    10030    2    1    2    0    0  0.00000000000E+00  0.00000000000E+00 -0.60403230095E+03  0.78368792430E+03  0.49931126775E+03 0.  0.
        3    1    3    3  502    0 -0.32765540277E+02 -0.11969615057E+02 -0.69001616584E+03  0.69089736694E+03  0.10100000352E+00 0. -1.
       -3    1    3    3    0  502  0.32765540277E+02  0.11969615057E+02  0.85983864890E+02  0.92790557368E+02  0.10100000352E+00 0.  1.
</event>
<event>
 5   0  0.3211775E-03  0.5014109E+03  0.7818609E-02  0.1013411E+00
       -1   -1    0    0    0  501  0.00000000000E+00  0.00000000000E+00  0.16177867620E+03  0.16177867628E+03  0.50400001928E-02 0.  1.
        1   -1    0    0  501    0  0.00000000000E+00  0.00000000000E+00 -0.38851366257E+03  0.38851366260E+03  0.50400001928E-02 0. -1.
    10030    2    1    2    0    0  0.00000000000E+00  0.00000000000E+00 -0.22673498637E+03  0.55029233888E+03  0.50141091351E+03 0.  0.
        4    1    3    3  502    0  0.24841893449E+03 -0.25427328109E+02 -0.13773807613E+03  0.28518749367E+03  0.12699999809E+01 0. -1.
       -4    1    3    3    0  502 -0.24841893449E+03  0.25427328109E+02 -0.88996910238E+02  0.26510484522E+03  0.12699999809E+01 0.  1.
</event>
<event>
 5   0  0.5118882E-03  0.5000140E+03  0.7818609E-02  0.1013775E+00
       -2   -1    0    0    0  501  0.00000000000E+00  0.00000000000E+00  0.80980359853E+02  0.80980359893E+02  0.25500000920E-02 0.  1.
        2   -1    0    0  501    0  0.00000000000E+00  0.00000000000E+00 -0.77183530089E+03  0.77183530090E+03  0.25500000920E-02 0. -1.
    10030    2    1    2    0    0  0.00000000000E+00  0.00000000000E+00 -0.69085494104E+03  0.85281566079E+03  0.50001400153E+03 0.  0.
        3    1    3    3  502    0  0.61006178091E+02 -0.21240817955E+03 -0.14605283743E+03  0.26489701778E+03  0.10100000352E+00 0.  1.
       -3    1    3    3    0  502 -0.61006178091E+02  0.21240817955E+03 -0.54480210361E+03  0.58791864301E+03  0.10100000352E+00 0. -1.
</event>
<event>
 5   0  0.3057783E-03  0.5000762E+03  0.7818609E-02  0.1013759E+00
        1   -1    0    0  501    0  0.00000000000E+00  0.00000000000E+00  0.16158489817E+03  0.16158489825E+03  0.50400001928E-02 0. -1.
       -1   -1    0    0    0  501  0.00000000000E+00  0.00000000000E+00 -0.38691153860E+03  0.38691153863E+03  0.50400001928E-02 0.  1.
    10030    2    1    2    0    0  0.00000000000E+00  0.00000000000E+00 -0.22532664043E+03  0.54849643688E+03  0.50007624056E+03 0.  0.
        5    1    3    3  502    0 -0.20505613008E+03 -0.13116720830E+03 -0.17513539787E+03  0.29991223817E+03  0.46999998093E+01 0. -1.
       -5    1    3    3    0  502  0.20505613008E+03  0.13116720830E+03 -0.50191242557E+02  0.24858419870E+03  0.46999998093E+01 0.  1.
</event>
<event>
 5   0  0.5118882E-03  0.4997382E+03  0.7818609E-02  0.1013847E+00
       -2   -1    0    0    0  501  0.00000000000E+00  0.00000000000E+00  0.71432247164E+02  0.71432247209E+02  0.25500000920E-02 0. -1.
        2   -1    0    0  501    0  0.00000000000E+00  0.00000000000E+00 -0.87403893401E+03  0.87403893401E+03  0.25500000920E-02 0.  1.
    10030    2    1    2    0    0  0.00000000000E+00  0.00000000000E+00 -0.80260668684E+03  0.94547118122E+03  0.49973819221E+03 0.  0.
        3    1    3    3  502    0  0.60204328464E+02  0.24247563482E+03 -0.39384031105E+03  0.46640025242E+03  0.10100000352E+00 0. -1.
       -3    1    3    3    0  502 -0.60204328464E+02 -0.24247563482E+03 -0.40876637579E+03  0.47907092880E+03  0.10100000352E+00 0.  1.
</event>
<event>
 5   0  0.4889251E-03  0.4999709E+03  0.7818609E-02  0.1013786E+00
       -2   -1    0    0    0  501  0.00000000000E+00  0.00000000000E+00  0.96311398411E+02  0.96311398444E+02  0.25500000920E-02 0.  1.
        2   -1    0    0  501    0  0.00000000000E+00  0.00000000000E+00 -0.64886127759E+03  0.64886127759E+03  0.25500000920E-02 0. -1.
    10030    2    1    2    0    0  0.00000000000E+00  0.00000000000E+00 -0.55254987918E+03  0.74517267604E+03  0.49997094729E+03 0.  0.
        5    1    3    3  502    0  0.77498501309E+02  0.20192442825E+03 -0.89576966122E+02  0.23414870336E+03  0.46999998093E+01 0.  1.
       -5    1    3    3    0  502 -0.77498501309E+02 -0.20192442825E+03 -0.46297291306E+03  0.51102397268E+03  0.46999998093E+01 0. -1.
</event>
<event>
 5   0  0.3013734E-03  0.5002669E+03  0.7818609E-02  0.1013709E+00
       -1   -1    0    0    0  501  0.00000000000E+00  0.00000000000E+00  0.11046837772E+03  0.11046837784E+03  0.50400001928E-02 0.  1.
        1   -1    0    0  501    0  0.00000000000E+00  0.00000000000E+00 -0.56637685085E+03  0.56637685087E+03  0.50400001928E-02 0. -1.
    10030    2    1    2    0    0  0.00000000000E+00  0.00000000000E+00 -0.45590847313E+03  0.67684522871E+03  0.50026685654E+03 0.  0.
        2    1    3    3  502    0  0.18287527268E+03 -0.16476964168E+03 -0.16783718033E+03  0.29792905075E+03  0.25500000920E-02 0. -1.
       -2    1    3    3    0  502 -0.18287527268E+03  0.16476964168E+03 -0.28807129280E+03  0.37891617795E+03  0.25500000920E-02 0.  1.
</event>
<event>
 5   0  0.3211775E-03  0.5002051E+03  0.7818609E-02  0.1013725E+00
       -1   -1    0    0    0  501  0.00000000000E+00  0.00000000000E+00  0.17855618378E+03  0.17855618386E+03  0.50400001928E-02 0.  1.
        1   -1    0    0  501    0  0.00000000000E+00  0.00000000000E+00 -0.35031711717E+03  0.35031711721E+03  0.50400001928E-02 0. -1.
    10030    2    1    2    0    0  0.00000000000E+00  0.00000000000E+00 -0.17176093339E+03  0.52887330106E+03  0.50020510827E+03 0.  0.
        4    1    3    3  502    0 -0.14631436363E+03 -0.54806976245E+02 -0.29236253750E+03  0.33149534519E+03  0.12699999809E+01 0. -1.
       -4    1    3    3    0  502  0.14631436363E+03  0.54806976245E+02  0.12060160412E+03  0.19737795587E+03  0.12699999809E+01 0.  1.
</event>
<event>
 5   0  0.4989875E-03  0.5001326E+03  0.7818609E-02  0.1013744E+00
        2   -1    0    0  501    0  0.00000000000E+00  0.00000000000E+00  0.58673416524E+03  0.58673416525E+03  0.25500000920E-02 0. -1.
       -2   -1    0    0    0  501  0.00000000000E+00  0.00000000000E+00 -0.10657835993E+03  0.10657835996E+03  0.25500000920E-02 0.  1.
    10030    2    1    2    0    0  0.00000000000E+00  0.00000000000E+00  0.48015580532E+03  0.69331252520E+03  0.50013264263E+03 0.  0.
        2    1    3    3  502    0  0.28556689902E+02  0.24809269256E+03  0.22212619658E+03  0.33422375118E+03  0.25500000920E-02 0. -1.
       -2    1    3    3    0  502 -0.28556689902E+02 -0.24809269256E+03  0.25802960874E+03  0.35908877402E+03  0.25500000920E-02 0.  1.
</event>
<event>
 5   0  0.5118882E-03  0.4998243E+03  0.7818609E-02  0.1013825E+00
        2   -1    0    0  501    0  0.00000000000E+00  0.00000000000E+00  0.88796099327E+03  0.88796099328E+03  0.25500000920E-02 0. -1.
       -2   -1    0    0    0  501  0.00000000000E+00  0.00000000000E+00 -0.70336511832E+02  0.70336511878E+02  0.25500000920E-02 0.  1.
    10030    2    1    2    0    0  0.00000000000E+00  0.00000000000E+00  0.81762448144E+03  0.95829750516E+03  0.49982428486E+03 0.  0.
        3    1    3    3  502    0  0.19157427268E+03  0.12966842889E+03  0.22751660372E+03  0.32446635969E+03  0.10100000352E+00 0.  1.
       -3    1    3    3    0  502 -0.19157427268E+03 -0.12966842889E+03  0.59010787773E+03  0.63383114546E+03  0.10100000352E+00 0. -1.
</event>
<event>
 5   0  0.2863538E-03  0.4999673E+03  0.7818609E-02  0.1013787E+00
       -1   -1    0    0    0  501  0.00000000000E+00  0.00000000000E+00  0.23583554073E+03  0.23583554079E+03  0.50400001928E-02 0.  1.
        1   -1    0    0  501    0  0.00000000000E+00  0.00000000000E+00 -0.26498047353E+03  0.26498047357E+03  0.50400001928E-02 0. -1.
    10030    2    1    2    0    0  0.00000000000E+00  0.00000000000E+00 -0.29144932791E+02  0.50081601436E+03  0.49996725206E+03 0.  0.
        1    1    3    3  502    0 -0.20473465423E+02  0.23367583424E+03  0.71993307679E+02  0.24537032149E+03  0.50400001928E-02 0.  1.
       -1    1    3    3    0  502  0.20473465423E+02 -0.23367583424E+03 -0.10113824047E+03  0.25544569287E+03  0.50400001928E-02 0. -1.
</event>
<event>
 5   0  0.4889251E-03  0.4998697E+03  0.7818609E-02  0.1013813E+00
        2   -1    0    0  501    0  0.00000000000E+00  0.00000000000E+00  0.63255222979E+03  0.63255222980E+03  0.25500000920E-02 0.  1.
       -2   -1    0    0    0  501  0.00000000000E+00  0.00000000000E+00 -0.98754563344E+02  0.98754563376E+02  0.25500000920E-02 0. -1.
    10030    2    1    2    0    0  0.00000000000E+00  0.00000000000E+00  0.53379766645E+03  0.73130679317E+03  0.49986966005E+03 0.  0.
        5    1    3    3  502    0 -0.47734606051E+02  0.11519601895E+03  0.58371955050E+03  0.59690813283E+03  0.46999998093E+01 0.  1.
       -5    1    3    3    0  502  0.47734606051E+02 -0.11519601895E+03 -0.49921884055E+02  0.13439866035E+03  0.46999998093E+01 0. -1.
</event>
<event>
 5   0  0.3211775E-03  0.5001387E+03  0.7818609E-02  0.1013743E+00
       -1   -1    0    0    0  501  0.00000000000E+00  0.00000000000E+00  0.96889715956E+03  0.96889715957E+03  0.50400001928E-02 0. -1.
        1   -1    0    0  501    0  0.00000000000E+00  0.00000000000E+00 -0.64542130315E+02  0.64542130512E+02  0.50400001928E-02 0.  1.
    10030    2    1    2    0    0  0.00000000000E+00  0.00000000000E+00  0.90435502924E+03  0.10334392901E+04  0.50013872812E+03 0.  0.
        4    1    3    3  502    0  0.19442615504E+03 -0.47031973310E+02  0.76225784532E+03  0.78806863402E+03  0.12699999809E+01 0. -1.
       -4    1    3    3    0  502 -0.19442615504E+03  0.47031973310E+02  0.14209718392E+03  0.24537065606E+03  0.12699999809E+01 0.  1.
</event>
<event>
 5   0  0.2005125E-03  0.5002892E+03  0.7818609E-02  0.1013703E+00
        3   -1    0    0  501    0  0.00000000000E+00  0.00000000000E+00  0.20697125339E+03  0.20697127803E+03  0.10100000352E+00 0. -1.
       -3   -1    0    0    0  501  0.00000000000E+00  0.00000000000E+00 -0.30232362029E+03  0.30232363716E+03  0.10100000352E+00 0.  1.
    10030    2    1    2    0    0  0.00000000000E+00  0.00000000000E+00 -0.95352366896E+02  0.50929491519E+03  0.50028915316E+03 0.  0.
        5    1    3    3  502    0  0.56164666713E+02 -0.53210255907E+02  0.19443782333E+03  0.20931784028E+03  0.46999998093E+01 0. -1.
       -5    1    3    3    0  502 -0.56164666713E+02  0.53210255907E+02 -0.28979019023E+03  0.29997707491E+03  0.46999998093E+01 0.  1.
</event>
<event>
 5   0  0.3057783E-03  0.5008791E+03  0.7818609E-02  0.1013550E+00
       -1   -1    0    0    0  501  0.00000000000E+00  0.00000000000E+00  0.25181566908E+03  0.25181566914E+03  0.50400001928E-02 0. -1.
        1   -1    0    0  501    0  0.00000000000E+00  0.00000000000E+00 -0.24907096332E+03  0.24907096337E+03  0.50400001928E-02 0.  1.
    10030    2    1    2    0    0  0.00000000000E+00  0.00000000000E+00  0.27447057666E+01  0.50088663250E+03  0.50087911237E+03 0.  0.
        5    1    3    3  502    0  0.28032379292E+02 -0.10150256167E+03  0.22855256045E+03  0.25168819441E+03  0.46999998093E+01 0. -1.
       -5    1    3    3    0  502 -0.28032379292E+02  0.10150256167E+03 -0.22580785469E+03  0.24919843810E+03  0.46999998093E+01 0.  1.
</event>
<event>
 5   0  0.4989875E-03  0.5000176E+03  0.7818609E-02  0.1013774E+00
       -2   -1    0    0    0  501  0.00000000000E+00  0.00000000000E+00  0.35972409422E+03  0.35972409423E+03  0.25500000920E-02 0.  1.
        2   -1    0    0  501    0  0.00000000000E+00  0.00000000000E+00 -0.17375648174E+03  0.17375648176E+03  0.25500000920E-02 0. -1.
    10030    2    1    2    0    0  0.00000000000E+00  0.00000000000E+00  0.18596761248E+03  0.53348057599E+03  0.50001757176E+03 0.  0.
        2    1    3    3  502    0 -0.70309875354E+02  0.19416856939E+03 -0.57370992306E+02  0.21432765262E+03  0.25500000920E-02 0. -1.
       -2    1    3    3    0  502  0.70309875354E+02 -0.19416856939E+03  0.24333860479E+03  0.31915292337E+03  0.25500000920E-02 0.  1.
</event>
<event>
 5   0  0.2863538E-03  0.5001198E+03  0.7818609E-02  0.1013748E+00
        1   -1    0    0  501    0  0.00000000000E+00  0.00000000000E+00  0.48290923039E+03  0.48290923042E+03  0.50400001928E-02 0.  1.
       -1   -1    0    0    0  501  0.00000000000E+00  0.00000000000E+00 -0.12948592726E+03  0.12948592736E+03  0.50400001928E-02 0. -1.
    10030    2    1    2    0    0  0.00000000000E+00  0.00000000000E+00  0.35342330313E+03  0.61239515778E+03  0.50011978373E+03 0.  0.
        1    1    3    3  502    0  0.17001574027E+03  0.15547898220E+03  0.29575192661E+03  0.37489767666E+03  0.50400001928E-02 0.  1.
       -1    1    3    3    0  502 -0.17001574027E+03 -0.15547898220E+03  0.57671376515E+02  0.23749748112E+03  0.50400001928E-02 0. -1.
</event>
<event>
 5   0  0.3013734E-03  0.5000147E+03  0.7818609E-02  0.1013775E+00
       -1   -1    0    0    0  501  0.00000000000E+00  0.00000000000E+00  0.57965129796E+03  0.57965129798E+03  0.50400001928E-02 0.  1.
        1   -1    0    0  501    0  0.00000000000E+00  0.00000000000E+00 -0.10782977596E+03  0.10782977607E+03  0.50400001928E-02 0. -1.
    10030    2    1    2    0    0  0.00000000000E+00  0.00000000000E+00  0.47182152201E+03  0.68748107406E+03  0.50001467834E+03 0.  0.
        2    1    3    3  502    0 -0.11930539722E+02  0.93917076672E+02  0.55405267232E+03  0.56208283979E+03  0.25500000920E-02 0.  1.
       -2    1    3    3    0  502  0.11930539722E+02 -0.93917076672E+02 -0.82231150318E+02  0.12539823427E+03  0.25500000920E-02 0. -1.
</event>
<event>
 5   0  0.4889251E-03  0.4999805E+03  0.7818609E-02  0.1013784E+00
        2   -1    0    0  501    0  0.00000000000E+00  0.00000000000E+00  0.13922385488E+03  0.13922385491E+03  0.25500000920E-02 0.  1.
       -2   -1    0    0    0  501  0.00000000000E+00  0.00000000000E+00 -0.44888231655E+03  0.44888231655E+03  0.25500000920E-02 0. -1.
    10030    2    1    2    0    0  0.00000000000E+00  0.00000000000E+00 -0.30965846166E+03  0.58810617146E+03  0.49998050565E+03 0.  0.
        5    1    3    3  502    0  0.53390810926E+01  0.21314459021E+03 -0.30825728845E+03  0.37483832248E+03  0.46999998093E+01 0. -1.
       -5    1    3    3    0  502 -0.53390810926E+01 -0.21314459021E+03 -0.14011732133E+01  0.21326784898E+03  0.46999998093E+01 0.  1.
</event>
<event>
 5   0  0.5095783E-03  0.4998872E+03  0.7818609E-02  0.1013808E+00
       -2   -1    0    0    0  501  0.00000000000E+00  0.00000000000E+00  0.12921720847E+03  0.12921720849E+03  0.25500000920E-02 0.  1.
        2   -1    0    0  501    0  0.00000000000E+00  0.00000000000E+00 -0.48346357244E+03  0.48346357245E+03  0.25500000920E-02 0. -1.
    10030    2    1    2    0    0  0.00000000000E+00  0.00000000000E+00 -0.35424636397E+03  0.61268078095E+03  0.49988724024E+03 0.  0.
        4    1    3    3  502    0 -0.10321350917E+03 -0.10287930235E+03  0.71753829724E+02  0.16244200290E+03  0.12699999809E+01 0.  1.
       -4    1    3    3    0  502  0.10321350917E+03  0.10287930235E+03 -0.42600019370E+03  0.45023877805E+03  0.12699999809E+01 0. -1.
</event>
<event>
 5   0  0.3013734E-03  0.4998885E+03  0.7818609E-02  0.1013808E+00
        1   -1    0    0  501    0  0.00000000000E+00  0.00000000000E+00  0.52752951281E+03  0.52752951283E+03  0.50400001928E-02 0. -1.
       -1   -1    0    0    0  501  0.00000000000E+00  0.00000000000E+00 -0.11842396470E+03  0.11842396481E+03  0.50400001928E-02 0.  1.
    10030    2    1    2    0    0  0.00000000000E+00  0.00000000000E+00  0.40910554810E+03  0.64595347764E+03  0.49988853337E+03 0.  0.
        2    1    3    3  502    0 -0.13663866422E+03  0.12434409972E+03 -0.12983785001E+02  0.18520301934E+03  0.25500000920E-02 0.  1.
       -2    1    3    3    0  502  0.13663866422E+03 -0.12434409972E+03  0.42208933310E+03  0.46075045830E+03  0.25500000920E-02 0. -1.
</event>
<event>
 5   0  0.3055293E-03  0.5000941E+03  0.7818609E-02  0.1013754E+00
       -1   -1    0    0    0  501  0.00000000000E+00  0.00000000000E+00  0.44733705132E+03  0.44733705135E+03  0.50400001928E-02 0. -1.
        1   -1    0    0  501    0  0.00000000000E+00  0.00000000000E+00 -0.13976826680E+03  0.13976826689E+03  0.50400001928E-02 0.  1.
    10030    2    1    2    0    0  0.00000000000E+00  0.00000000000E+00  0.30756878452E+03  0.58710531824E+03  0.50009408864E+03 0.  0.
        3    1    3    3  502    0  0.43735510565E+02 -0.24569114905E+02  0.44136893048E+03  0.44421051235E+03  0.10100000352E+00 0. -1.
       -3    1    3    3    0  502 -0.43735510565E+02  0.24569114905E+02 -0.13380014596E+03  0.14289480589E+03  0.10100000352E+00 0.  1.
</event>
<event>
 5   0  0.3013734E-03  0.4998917E+03  0.7818609E-02  0.1013807E+00
       -1   -1    0    0    0  501  0.00000000000E+00  0.00000000000E+00  0.42231440758E+03  0.42231440761E+03  0.50400001928E-02 0.  1.
        1   -1    0    0  501    0  0.00000000000E+00  0.00000000000E+00 -0.14792987475E+03  0.14792987484E+03  0.50400001928E-02 0. -1.
    10030    2    1    2    0    0  0.00000000000E+00  0.00000000000E+00  0.27438453283E+03  0.57024428245E+03  0.49989165807E+03 0.  0.
        2    1    3    3  502    0  0.98472997221E+00 -0.21363195078E+03 -0.10810612618E+02  0.21390757219E+03  0.25500000920E-02 0. -1.
       -2    1    3    3    0  502 -0.98472997221E+00  0.21363195078E+03  0.28519514545E+03  0.35633671027E+03  0.25500000920E-02 0.  1.
</event>
<event>
 5   0  0.5118882E-03  0.4981624E+03  0.7818609E-02  0.1014260E+00
        2   -1    0    0  501    0  0.00000000000E+00  0.00000000000E+00  0.23643333332E+03  0.23643333333E+03  0.25500000920E-02 0.  1.
       -2   -1    0    0    0  501  0.00000000000E+00  0.00000000000E+00 -0.26240562790E+03  0.26240562791E+03  0.25500000920E-02 0. -1.
    10030    2    1    2    0    0  0.00000000000E+00  0.00000000000E+00 -0.25972294582E+02  0.49883896124E+03  0.49816237229E+03 0.  0.
        3    1    3    3  502    0 -0.22084179053E+03 -0.10062782559E+03  0.43164706174E+02  0.24649595896E+03  0.10100000352E+00 0. -1.
       -3    1    3    3    0  502  0.22084179053E+03  0.10062782559E+03 -0.69137000756E+02  0.25234300228E+03  0.10100000352E+00 0.  1.
</event>
<event>
 5   0  0.3057783E-03  0.4999326E+03  0.7818609E-02  0.1013797E+00
       -1   -1    0    0    0  501  0.00000000000E+00  0.00000000000E+00  0.68167842823E+02  0.68167843010E+02  0.50400001928E-02 0.  1.
        1   -1    0    0  501    0  0.00000000000E+00  0.00000000000E+00 -0.91660740773E+03  0.91660740775E+03  0.50400001928E-02 0. -1.
    10030    2    1    2    0    0  0.00000000000E+00  0.00000000000E+00 -0.84843956491E+03  0.98477525076E+03  0.49993259466E+03 0.  0.
        5    1    3    3  502    0 -0.57173020482E+02 -0.17163061890E+03 -0.76389304982E+03  0.78503535282E+03  0.46999998093E+01 0. -1.
       -5    1    3    3    0  502  0.57173020482E+02  0.17163061890E+03 -0.84546515095E+02  0.19973989794E+03  0.46999998093E+01 0.  1.
</event>
<event>
 5   0  0.3211775E-03  0.5000665E+03  0.7818609E-02  0.1013762E+00
       -1   -1    0    0    0  501  0.00000000000E+00  0.00000000000E+00  0.54431735651E+02  0.54431735884E+02  0.50400001928E-02 0. -1.
        1   -1    0    0  501    0  0.00000000000E+00  0.00000000000E+00 -0.11485325741E+04  0.11485325741E+04  0.50400001928E-02 0.  1.
    10030    2    1    2    0    0  0.00000000000E+00  0.00000000000E+00 -0.10941008384E+04  0.12029643100E+04  0.50006648200E+03 0.  0.
        4    1    3    3  502    0  0.10889103663E+02  0.21423257562E+03 -0.23803651657E+03  0.32043277791E+03  0.12699999809E+01 0. -1.
       -4    1    3    3    0  502 -0.10889103663E+02 -0.21423257562E+03 -0.85606432185E+03  0.88253153206E+03  0.12699999809E+01 0.  1.
</event>
<event>
 5   0  0.2863538E-03  0.4999913E+03  0.7818609E-02  0.1013781E+00
       -1   -1    0    0    0  501  0.00000000000E+00  0.00000000000E+00  0.11214467187E+03  0.11214467198E+03  0.50400001928E-02 0.  1.
        1   -1    0    0  501    0  0.00000000000E+00  0.00000000000E+00 -0.55729638372E+03  0.55729638374E+03  0.50400001928E-02 0. -1.
    10030    2    1    2    0    0  0.00000000000E+00  0.00000000000E+00 -0.44515171185E+03  0.66944105572E+03  0.49999128044E+03 0.  0.
        1    1    3    3  502    0  0.27808000720E+02 -0.81057277873E+02  0.91865323035E+02  0.12562963345E+03  0.50400001928E-02 0.  1.
       -1    1    3    3    0  502 -0.27808000720E+02  0.81057277873E+02 -0.53701703489E+03  0.54381142227E+03  0.50400001928E-02 0. -1.
</event>
<event>
 5   0  0.4978779E-03  0.4996304E+03  0.7818609E-02  0.1013875E+00
       -2   -1    0    0    0  501  0.00000000000E+00  0.00000000000E+00  0.12105904596E+04  0.12105904596E+04  0.25500000920E-02 0. -1.
        2   -1    0    0  501    0  0.00000000000E+00  0.00000000000E+00 -0.51551405466E+02  0.51551405530E+02  0.25500000920E-02 0.  1.
    10030    2    1    2    0    0  0.00000000000E+00  0.00000000000E+00  0.11590390542E+04  0.12621418652E+04  0.49963042213E+03 0.  0.
        1    1    3    3  502    0  0.31854120316E+02 -0.49154058417E+02  0.11929989816E+04  0.11944360077E+04  0.50400001928E-02 0. -1.
       -1    1    3    3    0  502 -0.31854120316E+02  0.49154058417E+02 -0.33959927405E+02  0.67705857463E+02  0.50400001928E-02 0.  1.
</event>
<event>
 5   0  0.2863538E-03  0.4999104E+03  0.7818609E-02  0.1013802E+00
        1   -1    0    0  501    0  0.00000000000E+00  0.00000000000E+00  0.87194220303E+03  0.87194220304E+03  0.50400001928E-02 0. -1.
       -1   -1    0    0    0  501  0.00000000000E+00  0.00000000000E+00 -0.71653386973E+02  0.71653387150E+02  0.50400001928E-02 0.  1.
    10030    2    1    2    0    0  0.00000000000E+00  0.00000000000E+00  0.80028881606E+03  0.94359559019E+03  0.49991044071E+03 0.  0.
        1    1    3    3  502    0  0.78887639704E+02 -0.21071048633E+03  0.60566370060E+03  0.64610423849E+03  0.50400001928E-02 0. -1.
       -1    1    3    3    0  502 -0.78887639704E+02  0.21071048633E+03  0.19462511546E+03  0.29749135170E+03  0.50400001928E-02 0.  1.
</event>
<event>
 5   0  0.5118882E-03  0.4998745E+03  0.7818609E-02  0.1013812E+00
       -2   -1    0    0    0  501  0.00000000000E+00  0.00000000000E+00  0.88542308986E+02  0.88542309023E+02  0.25500000920E-02 0. -1.
        2   -1    0    0  501    0  0.00000000000E+00  0.00000000000E+00 -0.70552291668E+03  0.70552291668E+03  0.25500000920E-02 0.  1.
    10030    2    1    2    0    0  0.00000000000E+00  0.00000000000E+00 -0.61698060769E+03  0.79406522570E+03  0.49987449666E+03 0.  0.
        3    1    3    3  502    0 -0.10416079532E+03  0.63763209568E+02  0.37916156871E+02  0.12787831454E+03  0.10100000352E+00 0. -1.
       -3    1    3    3    0  502  0.10416079532E+03 -0.63763209568E+02 -0.65489676456E+03  0.66618691117E+03  0.10100000352E+00 0.  1.
</event>
<event>
 5   0  0.5118882E-03  0.4999764E+03  0.7818609E-02  0.1013785E+00
       -2   -1    0    0    0  501  0.00000000000E+00  0.00000000000E+00  0.76662312032E+02  0.76662312074E+02  0.25500000920E-02 0.  1.
        2   -1    0    0  501    0  0.00000000000E+00  0.00000000000E+00 -0.81518687269E+03  0.81518687270E+03  0.25500000920E-02 0. -1.
    10030    2    1    2    0    0  0.00000000000E+00  0.00000000000E+00 -0.73852456066E+03  0.89184918477E+03  0.49997644112E+03 0.  0.
        3    1    3    3  502    0  0.82993366311E+02  0.31633512225E+02  0.47568864745E+02  0.10075408201E+03  0.10100000352E+00 0.  1.
       -3    1    3    3    0  502 -0.82993366311E+02 -0.31633512225E+02 -0.78609342540E+03  0.79109510276E+03  0.10100000352E+00 0. -1.
</event>
<event>
 5   0  0.5095783E-03  0.4999433E+03  0.7818609E-02  0.1013794E+00
        2   -1    0    0  501    0  0.00000000000E+00  0.00000000000E+00  0.35001878043E+03  0.35001878044E+03  0.25500000920E-02 0. -1.
       -2   -1    0    0    0  501  0.00000000000E+00  0.00000000000E+00 -0.17852132214E+03  0.17852132216E+03  0.25500000920E-02 0.  1.
    10030    2    1    2    0    0  0.00000000000E+00  0.00000000000E+00  0.17149745829E+03  0.52854010260E+03  0.49994325864E+03 0.  0.
        4    1    3    3  502    0  0.88855892731E+02 -0.18856964162E+02 -0.16045239675E+03  0.18438421650E+03  0.12699999809E+01 0.  1.
       -4    1    3    3    0  502 -0.88855892731E+02  0.18856964162E+02  0.33194985505E+03  0.34415588610E+03  0.12699999809E+01 0. -1.
</event>
<event>
 5   0  0.3055293E-03  0.4998873E+03  0.7818609E-02  0.1013808E+00
        1   -1    0    0  501    0  0.00000000000E+00  0.00000000000E+00  0.55279795034E+03  0.55279795036E+03  0.50400001928E-02 0. -1.
       -1   -1    0    0    0  501  0.00000000000E+00  0.00000000000E+00 -0.11301023983E+03  0.11301023995E+03  0.50400001928E-02 0.  1.
    10030    2    1    2    0    0  0.00000000000E+00  0.00000000000E+00  0.43978771051E+03  0.66580819031E+03  0.49988730327E+03 0.  0.
        3    1    3    3  502    0 -0.21563738399E+03  0.11173593151E+03  0.14123835574E+03  0.28094960954E+03  0.10100000352E+00 0. -1.
       -3    1    3    3    0  502  0.21563738399E+03 -0.11173593151E+03  0.29854935476E+03  0.38485858077E+03  0.10100000352E+00 0.  1.
</event>
<event>
 5   0  0.5095783E-03  0.4996618E+03  0.7818609E-02  0.1013867E+00
        2   -1    0    0  501    0  0.00000000000E+00  0.00000000000E+00  0.65213799500E+03  0.65213799500E+03  0.25500000920E-02 0.  1.
       -2   -1    0    0    0  501  0.00000000000E+00  0.00000000000E+00 -0.95709003925E+02  0.95709003959E+02  0.25500000920E-02 0. -1.
    10030    2    1    2    0    0  0.00000000000E+00  0.00000000000E+00  0.55642899107E+03  0.74784699896E+03  0.49966179737E+03 0.  0.
        4    1    3    3  502    0 -0.84049447809E+02 -0.25487708050E+02 -0.71835440764E+02  0.11347191894E+03  0.12699999809E+01 0. -1.
       -4    1    3    3    0  502  0.84049447809E+02  0.25487708050E+02  0.62826443184E+03  0.63437508002E+03  0.12699999809E+01 0.  1.
</event>
<event>
 5   0  0.3057783E-03  0.5019425E+03  0.7818609E-02  0.1013273E+00
       -1   -1    0    0    0  501  0.00000000000E+00  0.00000000000E+00  0.57755706197E+02  0.57755706417E+02  0.50400001928E-02 0. -1.
        1   -1    0    0  501    0  0.00000000000E+00  0.00000000000E+00 -0.10905686056E+04  0.10905686056E+04  0.50400001928E-02 0.  1.
    10030    2    1    2    0    0  0.00000000000E+00  0.00000000000E+00 -0.10328128994E+04  0.11483243120E+04  0.50194246724E+03 0.  0.
        5    1    3    3  502    0 -0.11976076647E+03 -0.56617246386E+01 -0.10206995860E+04  0.10277278002E+04  0.46999998093E+01 0.  1.
       -5    1    3    3    0  502  0.11976076647E+03  0.56617246386E+01 -0.12113313353E+02  0.12059651184E+03  0.46999998093E+01 0. -1.
</event>
<event>
 5   0  0.4978779E-03  0.5000994E+03  0.7818609E-02  0.1013753E+00
        2   -1    0    0  501    0  0.00000000000E+00  0.00000000000E+00  0.25543006030E+03  0.25543006031E+03  0.25500000920E-02 0.  1.
       -2   -1    0    0    0  501  0.00000000000E+00  0.00000000000E+00 -0.24478265810E+03  0.24478265811E+03  0.25500000920E-02 0. -1.
    10030    2    1    2    0    0  0.00000000000E+00  0.00000000000E+00  0.10647402202E+02  0.50021271842E+03  0.50009938662E+03 0.  0.
        1    1    3    3  502    0  0.15325030706E+03 -0.96459829257E+02  0.17780028565E+03  0.25377765244E+03  0.50400001928E-02 0.  1.
       -1    1    3    3    0  502 -0.15325030706E+03  0.96459829257E+02 -0.16715288345E+03  0.24643506598E+03  0.50400001928E-02 0. -1.
</event>
<event>
 5   0  0.3013734E-03  0.4999751E+03  0.7818609E-02  0.1013785E+00
        1   -1    0    0  501    0  0.00000000000E+00  0.00000000000E+00  0.16913134139E+04  0.16913134139E+04  0.50400001928E-02 0. -1.
       -1   -1    0    0    0  501  0.00000000000E+00  0.00000000000E+00 -0.36949843409E+02  0.36949843752E+02  0.50400001928E-02 0.  1.
    10030    2    1    2    0    0  0.00000000000E+00  0.00000000000E+00  0.16543635705E+04  0.17282632576E+04  0.49997506378E+03 0.  0.
        2    1    3    3  502    0 -0.13333609138E+03  0.32581070393E+02  0.10495728824E+03  0.17278909622E+03  0.25500000920E-02 0.  1.
       -2    1    3    3    0  502  0.13333609138E+03 -0.32581070393E+02  0.15494062822E+04  0.15554741614E+04  0.25500000920E-02 0. -1.
</event>
<event>
 5   0  0.4889251E-03  0.4999333E+03  0.7818609E-02  0.1013796E+00
        2   -1    0    0  501    0  0.00000000000E+00  0.00000000000E+00  0.53352059508E+03  0.53352059509E+03  0.25500000920E-02 0.  1.
       -2   -1    0    0    0  501  0.00000000000E+00  0.00000000000E+00 -0.11711512846E+03  0.11711512849E+03  0.25500000920E-02 0. -1.
    10030    2    1    2    0    0  0.00000000000E+00  0.00000000000E+00  0.41640546662E+03  0.65063572358E+03  0.49993332772E+03 0.  0.
        5    1    3    3  502    0 -0.14531077444E+03  0.20151477780E+03  0.17285187933E+03  0.30269339112E+03  0.46999998093E+01 0. -1.
       -5    1    3    3    0  502  0.14531077444E+03 -0.20151477780E+03  0.24355358729E+03  0.34794233246E+03  0.46999998093E+01 0.  1.
</event>
<event>
 5   0  0.3055293E-03  0.4998650E+03  0.7818609E-02  0.1013814E+00
       -1   -1    0    0    0  501  0.00000000000E+00  0.00000000000E+00  0.24916441803E+03  0.24916441808E+03  0.50400001928E-02 0.  1.
        1   -1    0    0  501    0  0.00000000000E+00  0.00000000000E+00 -0.25070291351E+03  0.25070291356E+03  0.50400001928E-02 0. -1.
    10030    2    1    2    0    0  0.00000000000E+00  0.00000000000E+00 -0.15384954865E+01  0.49986733164E+03  0.49986496404E+03 0.  0.
        3    1    3    3  502    0  0.21281579376E+03 -0.11973403813E+03 -0.54055834276E+02  0.25009767168E+03  0.10100000352E+00 0.  1.
       -3    1    3    3    0  502 -0.21281579376E+03  0.11973403813E+03  0.52517338790E+02  0.24976965996E+03  0.10100000352E+00 0. -1.
</event>
<event>
 5   0  0.2863538E-03  0.5001683E+03  0.7818609E-02  0.1013735E+00
       -1   -1    0    0    0  501  0.00000000000E+00  0.00000000000E+00  0.61932300511E+03  0.61932300514E+03  0.50400001928E-02 0. -1.
        1   -1    0    0  501    0  0.00000000000E+00  0.00000000000E+00 -0.10098458306E+03  0.10098458319E+03  0.50400001928E-02 0.  1.
    10030    2    1    2    0    0  0.00000000000E+00  0.00000000000E+00  0.51833842205E+03  0.72030758832E+03  0.50016827370E+03 0.  0.
        1    1    3    3  502    0 -0.14746024799E+03  0.13890163568E+03  0.47035287847E+03  0.51212305107E+03  0.50400001928E-02 0. -1.
       -1    1    3    3    0  502  0.14746024799E+03 -0.13890163568E+03  0.47985543582E+02  0.20818453725E+03  0.50400001928E-02 0.  1.
</event>
<event>
 5   0  0.2005125E-03  0.5000050E+03  0.7818609E-02  0.1013778E+00
       -3   -1    0    0    0  501  0.00000000000E+00  0.00000000000E+00  0.86029068087E+03  0.86029068680E+03  0.10100000352E+00 0.  1.
        3   -1    0    0  501    0  0.00000000000E+00  0.00000000000E+00 -0.72651272940E+02  0.72651343145E+02  0.10100000352E+00 0. -1.
    10030    2    1    2    0    0  0.00000000000E+00  0.00000000000E+00  0.78763940793E+03  0.93294202994E+03  0.50000499429E+03 0.  0.
        3    1    3    3  502    0  0.11641671410E+03 -0.19359394559E+03  0.19399108103E+03  0.29776503625E+03  0.10100000352E+00 0. -1.
       -3    1    3    3    0  502 -0.11641671410E+03  0.19359394559E+03  0.59364832690E+03  0.63517699370E+03  0.10100000352E+00 0.  1.
</event>
<event>
 5   0  0.3057783E-03  0.5000965E+03  0.7818609E-02  0.1013754E+00
       -1   -1    0    0    0  501  0.00000000000E+00  0.00000000000E+00  0.10761560661E+03  0.10761560673E+03  0.50400001928E-02 0.  1.
        1   -1    0    0  501    0  0.00000000000E+00  0.00000000000E+00 -0.58099506077E+03  0.58099506079E+03  0.50400001928E-02 0. -1.
    10030    2    1    2    0    0  0.00000000000E+00  0.00000000000E+00 -0.47337945416E+03  0.68861066752E+03  0.50009653448E+03 0.  0.
        5    1    3    3  502    0  0.16445366873E+03 -0.15164037294E+03 -0.82974159320E+02  0.23863489472E+03  0.46999998093E+01 0.  1.
       -5    1    3    3    0  502 -0.16445366873E+03  0.15164037294E+03 -0.39040529484E+03  0.44997577279E+03  0.46999998093E+01 0. -1.
</event>
<event>
 5   0  0.2863538E-03  0.5001166E+03  0.7818609E-02  0.1013748E+00
       -1   -1    0    0    0  501  0.00000000000E+00  0.00000000000E+00  0.49082229234E+02  0.49082229492E+02  0.50400001928E-02 0.  1.
        1   -1    0    0  501    0  0.00000000000E+00  0.00000000000E+00 -0.12739674096E+04  0.12739674096E+04  0.50400001928E-02 0. -1.
    10030    2    1    2    0    0  0.00000000000E+00  0.00000000000E+00 -0.12248851804E+04  0.13230496391E+04  0.50011662885E+03 0.  0.
        1    1    3    3  502    0 -0.39506782209E+02  0.22334122510E+03 -0.89099907667E+03  0.91941364104E+03  0.50400001928E-02 0. -1.
       -1    1    3    3    0  502  0.39506782209E+02 -0.22334122510E+03 -0.33388610371E+03  0.40363599809E+03  0.50400001928E-02 0.  1.
</event>
<event>
 5   0  0.3013734E-03  0.5001177E+03  0.7818609E-02  0.1013748E+00
        1   -1    0    0  501    0  0.00000000000E+00  0.00000000000E+00  0.13368628165E+03  0.13368628175E+03  0.50400001928E-02 0.  1.
       -1   -1    0    0    0  501  0.00000000000E+00  0.00000000000E+00 -0.46773256532E+03  0.46773256534E+03  0.50400001928E-02 0. -1.
    10030    2    1    2    0    0  0.00000000000E+00  0.00000000000E+00 -0.33404628366E+03  0.60141884709E+03  0.50011769615E+03 0.  0.
        2    1    3    3  502    0 -0.22817791801E+03 -0.95633374750E+02 -0.21068966806E+03  0.32496313770E+03  0.25500000920E-02 0.  1.
       -2    1    3    3    0  502  0.22817791801E+03  0.95633374750E+02 -0.12335661561E+03  0.27645570939E+03  0.25500000920E-02 0. -1.
</event>
<event>
 5   0  0.3055293E-03  0.5000461E+03  0.7818609E-02  0.1013767E+00
       -1   -1    0    0    0  501  0.00000000000E+00  0.00000000000E+00  0.48997378669E+03  0.48997378672E+03  0.50400001928E-02 0. -1.
        1   -1    0    0  501    0  0.00000000000E+00  0.00000000000E+00 -0.12758138846E+03  0.12758138856E+03  0.50400001928E-02 0.  1.
    10030    2    1    2    0    0  0.00000000000E+00  0.00000000000E+00  0.36239239823E+03  0.61755517527E+03  0.50004614208E+03 0.  0.
        3    1    3    3  502    0 -0.77124305101E+02 -0.90812733397E+02  0.45266069374E+03  0.46807779786E+03  0.10100000352E+00 0. -1.
       -3    1    3    3    0  502  0.77124305101E+02  0.90812733397E+02 -0.90268295510E+02  0.14947737742E+03  0.10100000352E+00 0.  1.
</event>
<event>
 5   0  0.4889251E-03  0.4999243E+03  0.7818609E-02  0.1013799E+00
        2   -1    0    0  501    0  0.00000000000E+00  0.00000000000E+00  0.60464364667E+03  0.60464364667E+03  0.25500000920E-02 0. -1.
       -2   -1    0    0    0  501  0.00000000000E+00  0.00000000000E+00 -0.10333536674E+03  0.10333536677E+03  0.25500000920E-02 0.  1.
    10030    2    1    2    0    0  0.00000000000E+00  0.00000000000E+00  0.50130827992E+03  0.70797901344E+03  0.49992428623E+03 0.  0.
        5    1    3    3  502    0 -0.14397590498E+03  0.41671330266E+02 -0.32557065046E+02  0.15345231658E+03  0.46999998093E+01 0.  1.
       -5    1    3    3    0  502  0.14397590498E+03 -0.41671330266E+02  0.53386534497E+03  0.55452669687E+03  0.46999998093E+01 0. -1.
</event>
<event>
 5   0  0.3057783E-03  0.4999390E+03  0.7818609E-02  0.1013795E+00
        1   -1    0    0  501    0  0.00000000000E+00  0.00000000000E+00  0.62395541952E+03  0.62395541954E+03  0.50400001928E-02 0. -1.
       -1   -1    0    0    0  501  0.00000000000E+00  0.00000000000E+00 -0.10014297627E+03  0.10014297639E+03  0.50400001928E-02 0.  1.
    10030    2    1    2    0    0  0.00000000000E+00  0.00000000000E+00  0.52381244325E+03  0.72409839593E+03  0.49993900757E+03 0.  0.
        5    1    3    3  502    0  0.89660740207E+02  0.10748846020E+03 -0.37980005506E+02  0.14511164057E+03  0.46999998093E+01 0.  1.
       -5    1    3    3    0  502 -0.89660740207E+02 -0.10748846020E+03  0.56179244876E+03  0.57898675537E+03  0.46999998093E+01 0. -1.
</event>
<event>
 5   0  0.4978779E-03  0.4999655E+03  0.7818609E-02  0.1013788E+00
       -2   -1    0    0    0  501  0.00000000000E+00  0.00000000000E+00  0.64005843269E+02  0.64005843320E+02  0.25500000920E-02 0.  1.
        2   -1    0    0  501    0  0.00000000000E+00  0.00000000000E+00 -0.97633845270E+03  0.97633845270E+03  0.25500000920E-02 0. -1.
    10030    2    1    2    0    0  0.00000000000E+00  0.00000000000E+00 -0.91233260943E+03  0.10403442960E+04  0.49996546284E+03 0.  0.
        1    1    3    3  502    0 -0.13567560355E+03 -0.19209303847E+03 -0.27980105077E+03  0.36550818440E+03  0.50400001928E-02 0.  1.
       -1    1    3    3    0  502  0.13567560355E+03  0.19209303847E+03 -0.63253155866E+03  0.67483611162E+03  0.50400001928E-02 0. -1.
</event>
<event>
 5   0  0.2863538E-03  0.5000697E+03  0.7818609E-02  0.1013761E+00
        1   -1    0    0  501    0  0.00000000000E+00  0.00000000000E+00  0.18512376015E+04  0.18512376015E+04  0.50400001928E-02 0.  1.
       -1   -1    0    0    0  501  0.00000000000E+00  0.00000000000E+00 -0.33770608548E+02  0.33770608924E+02  0.50400001928E-02 0. -1.
    10030    2    1    2    0    0  0.00000000000E+00  0.00000000000E+00  0.18174669930E+04  0.18850082105E+04  0.50006967807E+03 0.  0.
        1    1    3    3  502    0 -0.17504232787E+03  0.17736111420E+03  0.83142314223E+03  0.86796383729E+03  0.50400001928E-02 0. -1.
       -1    1    3    3    0  502  0.17504232787E+03 -0.17736111420E+03  0.98604385076E+03  0.10170443732E+04  0.50400001928E-02 0.  1.
</event>
<event>
 5   0  0.5095783E-03  0.5000889E+03  0.7818609E-02  0.1013756E+00
       -2   -1    0    0    0  501  0.00000000000E+00  0.00000000000E+00  0.10191394527E+03  0.10191394531E+03  0.25500000920E-02 0.  1.
        2   -1    0    0  501    0  0.00000000000E+00  0.00000000000E+00 -0.61348053792E+03  0.61348053792E+03  0.25500000920E-02 0. -1.
    10030    2    1    2    0    0  0.00000000000E+00  0.00000000000E+00 -0.51156659264E+03  0.71539448323E+03  0.50008888003E+03 0.  0.
        4    1    3    3  502    0 -0.87354006313E+02  0.18040922192E+03 -0.46961066604E+03  0.51060160628E+03  0.12699999809E+01 0. -1.
       -4    1    3    3    0  502  0.87354006313E+02 -0.18040922192E+03 -0.41955926599E+02  0.20479287695E+03  0.12699999809E+01 0.  1.
</event>
<event>
 5   0  0.5118882E-03  0.4999568E+03  0.7818609E-02  0.1013790E+00
       -2   -1    0    0    0  501  0.00000000000E+00  0.00000000000E+00  0.14162784587E+03  0.14162784589E+03  0.25500000920E-02 0.  1.
        2   -1    0    0  501    0  0.00000000000E+00  0.00000000000E+00 -0.44122113034E+03  0.44122113034E+03  0.25500000920E-02 0. -1.
    10030    2    1    2    0    0  0.00000000000E+00  0.00000000000E+00 -0.29959328446E+03  0.58284897624E+03  0.49995679114E+03 0.  0.
        3    1    3    3  502    0 -0.16500299567E+02 -0.10838587585E+03 -0.41169800986E+03  0.42604579506E+03  0.10100000352E+00 0. -1.
       -3    1    3    3    0  502  0.16500299567E+02  0.10838587585E+03  0.11210472540E+03  0.15680318117E+03  0.10100000352E+00 0.  1.
</event>
<event>
 5   0  0.2863538E-03  0.5000237E+03  0.7818609E-02  0.1013773E+00
       -1   -1    0    0    0  501  0.00000000000E+00  0.00000000000E+00  0.97071414957E+02  0.97071415088E+02  0.50400001928E-02 0. -1.
        1   -1    0    0  501    0  0.00000000000E+00  0.00000000000E+00 -0.64391689071E+03  0.64391689073E+03  0.50400001928E-02 0.  1.
    10030    2    1    2    0    0  0.00000000000E+00  0.00000000000E+00 -0.54684547575E+03  0.74098830582E+03  0.50002369445E+03 0.  0.
        1    1    3    3  502    0  0.24270600991E+03 -0.27640220663E+02 -0.19450882703E+03  0.31225610140E+03  0.50400001928E-02 0. -1.
       -1    1    3    3    0  502 -0.24270600991E+03  0.27640220663E+02 -0.35233664872E+03  0.42873220442E+03  0.50400001928E-02 0.  1.
</event>
<event>
 5   0  0.3057783E-03  0.5027328E+03  0.7818609E-02  0.1013068E+00
       -1   -1    0    0    0  501  0.00000000000E+00  0.00000000000E+00  0.14328672235E+03  0.14328672244E+03  0.50400001928E-02 0.  1.
        1   -1    0    0  501    0  0.00000000000E+00  0.00000000000E+00 -0.44096942200E+03  0.44096942203E+03  0.50400001928E-02 0. -1.
    10030    2    1    2    0    0  0.00000000000E+00  0.00000000000E+00 -0.29768269965E+03  0.58425614448E+03  0.50273278458E+03 0.  0.
        5    1    3    3  502    0 -0.22282691626E+03 -0.11105678911E+03 -0.18872103594E+03  0.31244705859E+03  0.46999998093E+01 0.  1.
       -5    1    3    3    0  502  0.22282691626E+03  0.11105678911E+03 -0.10896166371E+03  0.27180908589E+03  0.46999998093E+01 0. -1.
</event>
<event>
 5   0  0.2005125E-03  0.4997320E+03  0.7818609E-02  0.1013849E+00
       -3   -1    0    0    0  501  0.00000000000E+00  0.00000000000E+00  0.77528192575E+02  0.77528258364E+02  0.10100000352E+00 0. -1.
        3   -1    0    0  501    0  0.00000000000E+00  0.00000000000E+00 -0.80529408372E+03  0.80529409005E+03  0.10100000352E+00 0.  1.
    10030    2    1    2    0    0  0.00000000000E+00  0.00000000000E+00 -0.72776589115E+03  0.88282234842E+03  0.49973203475E+03 0.  0.
        2    1    3    3  502    0  0.79116131587E+02 -0.36275092403E+02 -0.77764937404E+03  0.78250482015E+03  0.25500000920E-02 0.  1.
       -2    1    3    3    0  502 -0.79116131587E+02  0.36275092403E+02  0.49883482893E+02  0.10031752827E+03  0.25500000920E-02 0. -1.
</event>
<event>
 5   0  0.3013734E-03  0.5001138E+03  0.7818609E-02  0.1013749E+00
        1   -1    0    0  501    0  0.00000000000E+00  0.00000000000E+00  0.78087021148E+03  0.78087021150E+03  0.50400001928E-02 0. -1.
       -1   -1    0    0    0  501  0.00000000000E+00  0.00000000000E+00 -0.80075358345E+02  0.80075358504E+02  0.50400001928E-02 0.  1.
    10030    2    1    2    0    0  0.00000000000E+00  0.00000000000E+00  0.70079485313E+03  0.86094557000E+03  0.50011383536E+03 0.  0.
        2    1    3    3  502    0 -0.21306375531E+02 -0.86469143863E+02 -0.51850258447E+02  0.10305010328E+03  0.25500000920E-02 0.  1.
       -2    1    3    3    0  502  0.21306375531E+02  0.86469143863E+02  0.75264511158E+03  0.75789546672E+03  0.25500000920E-02 0. -1.
</event>
<event>
 5   0  0.4889251E-03  0.4998952E+03  0.7818609E-02  0.1013806E+00
       -2   -1    0    0    0  501  0.00000000000E+00  0.00000000000E+00  0.54839820653E+02  0.54839820712E+02  0.25500000920E-02 0.  1.
        2   -1    0    0  501    0  0.00000000000E+00  0.00000000000E+00 -0.11392050582E+04  0.11392050582E+04  0.25500000920E-02 0. -1.
    10030    2    1    2    0    0  0.00000000000E+00  0.00000000000E+00 -0.10843652375E+04  0.11940448789E+04  0.49989519347E+03 0.  0.
        5    1    3    3  502    0  0.14684929178E+03 -0.18241017622E+03 -0.33376493911E+03  0.40774907904E+03  0.46999998093E+01 0. -1.
       -5    1    3    3    0  502 -0.14684929178E+03  0.18241017622E+03 -0.75060029841E+03  0.78629579984E+03  0.46999998093E+01 0.  1.
</event>
<event>
 5   0  0.4989875E-03  0.5002642E+03  0.7818609E-02  0.1013710E+00
       -2   -1    0    0    0  501  0.00000000000E+00  0.00000000000E+00  0.14810048540E+03  0.14810048542E+03  0.25500000920E-02 0.  1.
        2   -1    0    0  501    0  0.00000000000E+00  0.00000000000E+00 -0.42245691757E+03  0.42245691758E+03  0.25500000920E-02 0. -1.
    10030    2    1    2    0    0  0.00000000000E+00  0.00000000000E+00 -0.27435643217E+03  0.57055740300E+03  0.50026422843E+03 0.  0.
        2    1    3    3  502    0  0.35469923866E+02  0.17415289851E+03 -0.33791718025E+03  0.38180540629E+03  0.25500000920E-02 0. -1.
       -2    1    3    3    0  502 -0.35469923866E+02 -0.17415289851E+03  0.63560748078E+02  0.18875199671E+03  0.25500000920E-02 0.  1.
</event>
<event>
 5   0  0.5118882E-03  0.4998857E+03  0.7818609E-02  0.1013809E+00
        2   -1    0    0  501    0  0.00000000000E+00  0.00000000000E+00  0.13365867627E+03  0.13365867630E+03  0.25500000920E-02 0. -1.
       -2   -1    0    0    0  501  0.00000000000E+00  0.00000000000E+00 -0.46739530682E+03  0.46739530682E+03  0.25500000920E-02 0.  1.
    10030    2    1    2    0    0  0.00000000000E+00  0.00000000000E+00 -0.33373663054E+03  0.60105398312E+03  0.49988573900E+03 0.  0.
        3    1    3    3  502    0  0.11095770864E+03 -0.15235604140E+03  0.30510973929E+02  0.19093167938E+03  0.10100000352E+00 0. -1.
       -3    1    3    3    0  502 -0.11095770864E+03  0.15235604140E+03 -0.36424760447E+03  0.41012230374E+03  0.10100000352E+00 0.  1.
</event>
<event>
 5   0  0.4989875E-03  0.5001311E+03  0.7818609E-02  0.1013745E+00
       -2   -1    0    0    0  501  0.00000000000E+00  0.00000000000E+00  0.46565002016E+02  0.46565002086E+02  0.25500000920E-02 0. -1.
        2   -1    0    0  501    0  0.00000000000E+00  0.00000000000E+00 -0.13429135499E+04  0.13429135499E+04  0.25500000920E-02 0.  1.
    10030    2    1    2    0    0  0.00000000000E+00  0.00000000000E+00 -0.12963485479E+04  0.13894785520E+04  0.50013107166E+03 0.  0.
        2    1    3    3  502    0 -0.16354728410E+03 -0.86902980196E+02 -0.18135800086E+03  0.25921143221E+03  0.25500000920E-02 0. -1.
       -2    1    3    3    0  502  0.16354728410E+03  0.86902980196E+02 -0.11149905470E+04  0.11302671198E+04  0.25500000920E-02 0.  1.
</event>
<event>
 5   0  0.5118882E-03  0.4998317E+03  0.7818609E-02  0.1013823E+00
        2   -1    0    0  501    0  0.00000000000E+00  0.00000000000E+00  0.15386510448E+03  0.15386510450E+03  0.25500000920E-02 0. -1.
       -2   -1    0    0    0  501  0.00000000000E+00  0.00000000000E+00 -0.40592662592E+03  0.40592662593E+03  0.25500000920E-02 0.  1.
    10030    2    1    2    0    0  0.00000000000E+00  0.00000000000E+00 -0.25206152144E+03  0.55979173043E+03  0.49983174256E+03 0.  0.
        3    1    3    3  502    0 -0.19221003264E+03 -0.15277984131E+03 -0.73840657290E+02  0.25639584519E+03  0.10100000352E+00 0. -1.
       -3    1    3    3    0  502  0.19221003264E+03  0.15277984131E+03 -0.17822086415E+03  0.30339588524E+03  0.10100000352E+00 0.  1.
</event>
<event>
 5   0  0.4889251E-03  0.4986883E+03  0.7818609E-02  0.1014122E+00
       -2   -1    0    0    0  501  0.00000000000E+00  0.00000000000E+00  0.16951344546E+03  0.16951344548E+03  0.25500000920E-02 0.  1.
        2   -1    0    0  501    0  0.00000000000E+00  0.00000000000E+00 -0.36677031128E+03  0.36677031129E+03  0.25500000920E-02 0. -1.
    10030    2    1    2    0    0  0.00000000000E+00  0.00000000000E+00 -0.19725686582E+03  0.53628375676E+03  0.49868827604E+03 0.  0.
        5    1    3    3  502    0  0.11595389973E+02  0.15078137978E+02  0.16868432272E+03  0.16981841491E+03  0.46999998093E+01 0.  1.
       -5    1    3    3    0  502 -0.11595389973E+02 -0.15078137978E+02 -0.36594118854E+03  0.36646534185E+03  0.46999998093E+01 0. -1.
</event>
<event>
 5   0  0.5095783E-03  0.4996075E+03  0.7818609E-02  0.1013881E+00
       -2   -1    0    0    0  501  0.00000000000E+00  0.00000000000E+00  0.11670709586E+03  0.11670709589E+03  0.25500000920E-02 0.  1.
        2   -1    0    0  501    0  0.00000000000E+00  0.00000000000E+00 -0.53468822506E+03  0.53468822507E+03  0.25500000920E-02 0. -1.
    10030    2    1    2    0    0  0.00000000000E+00  0.00000000000E+00 -0.41798112920E+03  0.65139532096E+03  0.49960748573E+03 0.  0.
        4    1    3    3  502    0  0.21185043276E+03 -0.12435055526E+03 -0.26811865374E+03  0.36363840809E+03  0.12699999809E+01 0. -1.
       -4    1    3    3    0  502 -0.21185043276E+03  0.12435055526E+03 -0.14986247545E+03  0.28775691287E+03  0.12699999809E+01 0.  1.
</event>
<event>
 5   0  0.5095783E-03  0.4980684E+03  0.7818609E-02  0.1014284E+00
       -2   -1    0    0    0  501  0.00000000000E+00  0.00000000000E+00  0.15301654220E+03  0.15301654222E+03  0.25500000920E-02 0.  1.
        2   -1    0    0  501    0  0.00000000000E+00  0.00000000000E+00 -0.40530283627E+03  0.40530283628E+03  0.25500000920E-02 0. -1.
    10030    2    1    2    0    0  0.00000000000E+00  0.00000000000E+00 -0.25228629407E+03  0.55831937849E+03  0.49806842324E+03 0.  0.
        4    1    3    3  502    0  0.21849554012E+03  0.35725006437E+02 -0.25395255960E+03  0.33691258890E+03  0.12699999809E+01 0. -1.
       -4    1    3    3    0  502 -0.21849554012E+03 -0.35725006437E+02  0.16662655236E+01  0.22140678959E+03  0.12699999809E+01 0.  1.
</event>
<event>
 5   0  0.2863538E-03  0.4990063E+03  0.7818609E-02  0.1014039E+00
       -1   -1    0    0    0  501  0.00000000000E+00  0.00000000000E+00  0.53202076231E+03  0.53202076233E+03  0.50400001928E-02 0.  1.
        1   -1    0    0  501    0  0.00000000000E+00  0.00000000000E+00 -0.11701013435E+03  0.11701013446E+03  0.50400001928E-02 0. -1.
    10030    2    1    2    0    0  0.00000000000E+00  0.00000000000E+00  0.41501062796E+03  0.64903089679E+03  0.49900629623E+03 0.  0.
        1    1    3    3  502    0  0.14184826565E+03  0.94253997168E+02 -0.29651749500E+02  0.17286981438E+03  0.50400001928E-02 0. -1.
       -1    1    3    3    0  502 -0.14184826565E+03 -0.94253997168E+02  0.44466237746E+03  0.47616108241E+03  0.50400001928E-02 0.  1.
</event>
<event>
 5   0  0.4989875E-03  0.5000108E+03  0.7818609E-02  0.1013776E+00
       -2   -1    0    0    0  501  0.00000000000E+00  0.00000000000E+00  0.37188301217E+02  0.37188301305E+02  0.25500000920E-02 0.  1.
        2   -1    0    0  501    0  0.00000000000E+00  0.00000000000E+00 -0.16807086235E+04  0.16807086235E+04  0.25500000920E-02 0. -1.
    10030    2    1    2    0    0  0.00000000000E+00  0.00000000000E+00 -0.16435203223E+04  0.17178969248E+04  0.50001079439E+03 0.  0.
        2    1    3    3  502    0  0.41522954557E+01  0.18641812071E+03 -0.24959428571E+03  0.31155459354E+03  0.25500000920E-02 0.  1.
       -2    1    3    3    0  502 -0.41522954557E+01 -0.18641812071E+03 -0.13939260366E+04  0.14063423313E+04  0.25500000920E-02 0. -1.
</event>
<event>
 5   0  0.3057783E-03  0.4999134E+03  0.7818609E-02  0.1013802E+00
       -1   -1    0    0    0  501  0.00000000000E+00  0.00000000000E+00  0.14510197236E+03  0.14510197244E+03  0.50400001928E-02 0.  1.
        1   -1    0    0  501    0  0.00000000000E+00  0.00000000000E+00 -0.43058238437E+03  0.43058238440E+03  0.50400001928E-02 0. -1.
    10030    2    1    2    0    0  0.00000000000E+00  0.00000000000E+00 -0.28548041201E+03  0.57568435684E+03  0.49991340557E+03 0.  0.
        5    1    3    3  502    0 -0.11507097460E+03 -0.19431830774E+03 -0.19488359153E+02  0.22672190026E+03  0.46999998093E+01 0.  1.
       -5    1    3    3    0  502  0.11507097460E+03  0.19431830774E+03 -0.26599205286E+03  0.34896245658E+03  0.46999998093E+01 0. -1.
</event>
<event>
 5   0  0.3211775E-03  0.4997648E+03  0.7818609E-02  0.1013840E+00
        1   -1    0    0  501    0  0.00000000000E+00  0.00000000000E+00  0.51834864235E+03  0.51834864237E+03  0.50400001928E-02 0.  1.
       -1   -1    0    0    0  501  0.00000000000E+00  0.00000000000E+00 -0.12046180476E+03  0.12046180486E+03  0.50400001928E-02 0. -1.
    10030    2    1    2    0    0  0.00000000000E+00  0.00000000000E+00  0.39788683759E+03  0.63881044724E+03  0.49976479665E+03 0.  0.
        4    1    3    3  502    0 -0.10296596035E+03  0.22303286799E+03  0.25743449276E+03  0.35583673244E+03  0.12699999809E+01 0.  1.
       -4    1    3    3    0  502  0.10296596035E+03 -0.22303286799E+03  0.14045234483E+03  0.28297371479E+03  0.12699999809E+01 0. -1.
</event>
<event>
 5   0  0.3057783E-03  0.4997788E+03  0.7818609E-02  0.1013837E+00
       -1   -1    0    0    0  501  0.00000000000E+00  0.00000000000E+00  0.96201865380E+03  0.96201865382E+03  0.50400001928E-02 0. -1.
        1   -1    0    0  501    0  0.00000000000E+00  0.00000000000E+00 -0.64910095018E+02  0.64910095214E+02  0.50400001928E-02 0.  1.
    10030    2    1    2    0    0  0.00000000000E+00  0.00000000000E+00  0.89710855878E+03  0.10269287490E+04  0.49977884043E+03 0.  0.
        5    1    3    3  502    0  0.16108788887E+03  0.94914678015E+02  0.10802965758E+03  0.21598750186E+03  0.46999998093E+01 0.  1.
       -5    1    3    3    0  502 -0.16108788887E+03 -0.94914678015E+02  0.78907890120E+03  0.81094124717E+03  0.46999998093E+01 0. -1.
</event>
<event>
 5   0  0.4978779E-03  0.4999780E+03  0.7818609E-02  0.1013785E+00
       -2   -1    0    0    0  501  0.00000000000E+00  0.00000000000E+00  0.35412258276E+02  0.35412258368E+02  0.25500000920E-02 0. -1.
        2   -1    0    0  501    0  0.00000000000E+00  0.00000000000E+00 -0.17647701809E+04  0.17647701809E+04  0.25500000920E-02 0.  1.
    10030    2    1    2    0    0  0.00000000000E+00  0.00000000000E+00 -0.17293579226E+04  0.18001824392E+04  0.49997798962E+03 0.  0.
        1    1    3    3  502    0  0.34009214746E+01  0.62653099015E+02 -0.17359574148E+04  0.17370909944E+04  0.50400001928E-02 0.  1.
       -1    1    3    3    0  502 -0.34009214746E+01 -0.62653099015E+02  0.65994921762E+01  0.63091444788E+02  0.50400001928E-02 0. -1.
</event>
<event>
 5   0  0.5118882E-03  0.5014287E+03  0.7818609E-02  0.1013407E+00
        2   -1    0    0  501    0  0.00000000000E+00  0.00000000000E+00  0.23492061312E+03  0.23492061313E+03  0.25500000920E-02 0. -1.
       -2   -1    0    0    0  501  0.00000000000E+00  0.00000000000E+00 -0.26756988926E+03  0.26756988928E+03  0.25500000920E-02 0.  1.
    10030    2    1    2    0    0  0.00000000000E+00  0.00000000000E+00 -0.32649276149E+02  0.50249050241E+03  0.50142868862E+03 0.  0.
        3    1    3    3  502    0  0.35901729969E+02  0.13898125585E+03 -0.22231513725E+03  0.26462946575E+03  0.10100000352E+00 0.  1.
       -3    1    3    3    0  502 -0.35901729969E+02 -0.13898125585E+03  0.18966586110E+03  0.23786103666E+03  0.10100000352E+00 0. -1.
</event>
<event>
 5   0  0.4889251E-03  0.5000609E+03  0.7818609E-02  0.1013763E+00
        2   -1    0    0  501    0  0.00000000000E+00  0.00000000000E+00  0.80149425744E+03  0.80149425744E+03  0.25500000920E-02 0.  1.
       -2   -1    0    0    0  501  0.00000000000E+00  0.00000000000E+00 -0.77998349343E+02  0.77998349385E+02  0.25500000920E-02 0. -1.
    10030    2    1    2    0    0  0.00000000000E+00  0.00000000000E+00  0.72349590810E+03  0.87949260683E+03  0.50006091272E+03 0.  0.
        5    1    3    3  502    0 -0.17337849561E+03 -0.80120670140E+02  0.78079873954E+02  0.20639278388E+03  0.46999998093E+01 0. -1.
       -5    1    3    3    0  502  0.17337849561E+03  0.80120670140E+02  0.64541603414E+03  0.67309982295E+03  0.46999998093E+01 0.  1.
</event>
<event>
 5   0  0.3057783E-03  0.5006619E+03  0.7818609E-02  0.1013606E+00
       -1   -1    0    0    0  501  0.00000000000E+00  0.00000000000E+00  0.33588654432E+02  0.33588654810E+02  0.50400001928E-02 0.  1.
        1   -1    0    0  501    0  0.00000000000E+00  0.00000000000E+00 -0.18656770903E+04  0.18656770903E+04  0.50400001928E-02 0. -1.
    10030    2    1    2    0    0  0.00000000000E+00  0.00000000000E+00 -0.18320884359E+04  0.18992657452E+04  0.50066189563E+03 0.  0.
        5    1    3    3  502    0 -0.12000727952E+03 -0.14457840353E+03 -0.28880793793E+03  0.34458203219E+03  0.46999998093E+01 0.  1.
       -5    1    3    3    0  502  0.12000727952E+03  0.14457840353E+03 -0.15432804980E+04  0.15546837130E+04  0.46999998093E+01 0. -1.
</event>
<event>
 5   0  0.5118882E-03  0.4998049E+03  0.7818609E-02  0.1013830E+00
       -2   -1    0    0    0  501  0.00000000000E+00  0.00000000000E+00  0.13643935626E+03  0.13643935629E+03  0.25500000920E-02 0.  1.
        2   -1    0    0  501    0  0.00000000000E+00  0.00000000000E+00 -0.45772153310E+03  0.45772153311E+03  0.25500000920E-02 0. -1.
    10030    2    1    2    0    0  0.00000000000E+00  0.00000000000E+00 -0.32128217684E+03  0.59416088940E+03  0.49980488726E+03 0.  0.
        3    1    3    3  502    0 -0.89048604856E+01  0.23319001493E+03 -0.54350475479E+02  0.23960564265E+03  0.10100000352E+00 0.  1.
       -3    1    3    3    0  502  0.89048604856E+01 -0.23319001493E+03 -0.26693170136E+03  0.35455524675E+03  0.10100000352E+00 0. -1.
</event>
<event>
 5   0  0.5095783E-03  0.5001119E+03  0.7818609E-02  0.1013750E+00
       -2   -1    0    0    0  501  0.00000000000E+00  0.00000000000E+00  0.43121257690E+03  0.43121257691E+03  0.25500000920E-02 0. -1.
        2   -1    0    0  501    0  0.00000000000E+00  0.00000000000E+00 -0.14500499982E+03  0.14500499985E+03  0.25500000920E-02 0.  1.
    10030    2    1    2    0    0  0.00000000000E+00  0.00000000000E+00  0.28620757708E+03  0.57621757676E+03  0.50011190606E+03 0.  0.
        4    1    3    3  502    0  0.10910154596E+03 -0.75002988172E+02  0.38751144647E+03  0.40950620216E+03  0.12699999809E+01 0. -1.
       -4    1    3    3    0  502 -0.10910154596E+03  0.75002988172E+02 -0.10130386939E+03  0.16671137459E+03  0.12699999809E+01 0.  1.
</event>
<event>
 5   0  0.4889251E-03  0.4998059E+03  0.7818609E-02  0.1013830E+00
        2   -1    0    0  501    0  0.00000000000E+00  0.00000000000E+00  0.98973649880E+03  0.98973649880E+03  0.25500000920E-02 0. -1.
       -2   -1    0    0    0  501  0.00000000000E+00  0.00000000000E+00 -0.63099107161E+02  0.63099107212E+02  0.25500000920E-02 0.  1.
    10030    2    1    2    0    0  0.00000000000E+00  0.00000000000E+00  0.92663739164E+03  0.10528356060E+04  0.49980592004E+03 0.  0.
        5    1    3    3  502    0 -0.54372795164E+02 -0.14992672274E+03  0.58154980157E+02  0.16981906478E+03  0.46999998093E+01 0.  1.
       -5    1    3    3    0  502  0.54372795164E+02  0.14992672274E+03  0.86848241148E+03  0.88301654123E+03  0.46999998093E+01 0. -1.
</event>
<event>
 5   0  0.3057783E-03  0.4998137E+03  0.7818609E-02  0.1013828E+00
       -1   -1    0    0    0  501  0.00000000000E+00  0.00000000000E+00  0.35204211705E+02  0.35204212066E+02  0.50400001928E-02 0. -1.
        1   -1    0    0  501    0  0.00000000000E+00  0.00000000000E+00 -0.17740329843E+04  0.17740329843E+04  0.50400001928E-02 0.  1.
    10030    2    1    2    0    0  0.00000000000E+00  0.00000000000E+00 -0.17388287726E+04  0.18092371964E+04  0.49981369763E+03 0.  0.
        5    1    3    3  502    0 -0.23702636492E+03 -0.47223968546E+02 -0.10989163761E+04  0.11251892697E+04  0.46999998093E+01 0.  1.
       -5    1    3    3    0  502  0.23702636492E+03  0.47223968546E+02 -0.63991239646E+03  0.68404792669E+03  0.46999998093E+01 0. -1.
</event>
<event>
 5   0  0.5118882E-03  0.5000785E+03  0.7818609E-02  0.1013758E+00
       -2   -1    0    0    0  501  0.00000000000E+00  0.00000000000E+00  0.72883244130E+02  0.72883244174E+02  0.25500000920E-02 0. -1.
        2   -1    0    0  501    0  0.00000000000E+00  0.00000000000E+00 -0.85780513071E+03  0.85780513072E+03  0.25500000920E-02 0.  1.
    10030    2    1    2    0    0  0.00000000000E+00  0.00000000000E+00 -0.78492188658E+03  0.93068837489E+03  0.50007847696E+03 0.  0.
        3    1    3    3  502    0  0.23011452324E+03  0.48366094024E+02 -0.55068201211E+03  0.59878431970E+03  0.10100000352E+00 0.  1.
       -3    1    3    3    0  502 -0.23011452324E+03 -0.48366094024E+02 -0.23423987447E+03  0.33190405519E+03  0.10100000352E+00 0. -1.
</event>
<event>
 5   0  0.4978779E-03  0.5001110E+03  0.7818609E-02  0.1013750E+00
        2   -1    0    0  501    0  0.00000000000E+00  0.00000000000E+00  0.54003314075E+03  0.54003314076E+03  0.25500000920E-02 0. -1.
       -2   -1    0    0    0  501  0.00000000000E+00  0.00000000000E+00 -0.11578502148E+03  0.11578502150E+03  0.25500000920E-02 0.  1.
    10030    2    1    2    0    0  0.00000000000E+00  0.00000000000E+00  0.42424811928E+03  0.65581816226E+03  0.50011098293E+03 0.  0.
        1    1    3    3  502    0  0.24680279871E+03  0.40002106711E+02  0.20688543740E+03  0.32452022159E+03  0.50400001928E-02 0.  1.
       -1    1    3    3    0  502 -0.24680279871E+03 -0.40002106711E+02  0.21736268188E+03  0.33129794067E+03  0.50400001928E-02 0. -1.
</event>
<event>
 5   0  0.5095783E-03  0.5002363E+03  0.7818609E-02  0.1013717E+00
       -2   -1    0    0    0  501  0.00000000000E+00  0.00000000000E+00  0.29232307768E+02  0.29232307879E+02  0.25500000920E-02 0.  1.
        2   -1    0    0  501    0  0.00000000000E+00  0.00000000000E+00 -0.21400666268E+04  0.21400666268E+04  0.25500000920E-02 0. -1.
    10030    2    1    2    0    0  0.00000000000E+00  0.00000000000E+00 -0.21108343191E+04  0.21692989347E+04  0.50023628978E+03 0.  0.
        4    1    3    3  502    0  0.21121587446E+03  0.10349225495E+03 -0.68656366447E+03  0.72573691565E+03  0.12699999809E+01 0.  1.
       -4    1    3    3    0  502 -0.21121587446E+03 -0.10349225495E+03 -0.14242706546E+04  0.14435620191E+04  0.12699999809E+01 0. -1.
</event>
<event>
 5   0  0.4978779E-03  0.4999518E+03  0.7818609E-02  0.1013791E+00
        2   -1    0    0  501    0  0.00000000000E+00  0.00000000000E+00  0.28796837677E+03  0.28796837679E+03  0.25500000920E-02 0.  1.
       -2   -1    0    0    0  501  0.00000000000E+00  0.00000000000E+00 -0.21699590495E+03  0.21699590496E+03  0.25500000920E-02 0. -1.
    10030    2    1    2    0    0  0.00000000000E+00  0.00000000000E+00  0.70972471827E+02  0.50496428175E+03  0.49995183177E+03 0.  0.
        1    1    3    3  502    0  0.24527543653E+03 -0.95634365644E+01 -0.12279118674E+02  0.24576874469E+03  0.50400001928E-02 0. -1.
       -1    1    3    3    0  502 -0.24527543653E+03  0.95634365644E+01  0.83251590501E+02  0.25919553706E+03  0.50400001928E-02 0.  1.
</event>
<event>
 5   0  0.5118882E-03  0.4998571E+03  0.7818609E-02  0.1013816E+00
       -2   -1    0    0    0  501  0.00000000000E+00  0.00000000000E+00  0.25539859027E+03  0.25539859028E+03  0.25500000920E-02 0. -1.
        2   -1    0    0  501    0  0.00000000000E+00  0.00000000000E+00 -0.24457567125E+03  0.24457567126E+03  0.25500000920E-02 0.  1.
    10030    2    1    2    0    0  0.00000000000E+00  0.00000000000E+00  0.10822919017E+02  0.49997426154E+03  0.49985710621E+03 0.  0.
        3    1    3    3  502    0 -0.65055224301E+02 -0.23950499972E+03  0.34904712331E+02  0.25062556981E+03  0.10100000352E+00 0.  1.
       -3    1    3    3    0  502  0.65055224301E+02  0.23950499972E+03 -0.24081793315E+02  0.24934869173E+03  0.10100000352E+00 0. -1.
</event>
<event>
 5   0  0.4989875E-03  0.4996448E+03  0.7818609E-02  0.1013872E+00
       -2   -1    0    0    0  501  0.00000000000E+00  0.00000000000E+00  0.96459810690E+02  0.96459810724E+02  0.25500000920E-02 0.  1.
        2   -1    0    0  501    0  0.00000000000E+00  0.00000000000E+00 -0.64701785690E+03  0.64701785691E+03  0.25500000920E-02 0. -1.
    10030    2    1    2    0    0  0.00000000000E+00  0.00000000000E+00 -0.55055804621E+03  0.74347766763E+03  0.49964475382E+03 0.  0.
        2    1    3    3  502    0  0.70555754148E+02 -0.12770025472E+03  0.26482257630E+02  0.14827939666E+03  0.25500000920E-02 0.  1.
       -2    1    3    3    0  502 -0.70555754148E+02  0.12770025472E+03 -0.57704030384E+03  0.59519827097E+03  0.25500000920E-02 0. -1.
</event>
<event>
 5   0  0.4978779E-03  0.4999360E+03  0.7818609E-02  0.1013796E+00
       -2   -1    0    0    0  501  0.00000000000E+00  0.00000000000E+00  0.11504802892E+03  0.11504802895E+03  0.25500000920E-02 0.  1.
        2   -1    0    0  501    0  0.00000000000E+00  0.00000000000E+00 -0.54311228463E+03  0.54311228464E+03  0.25500000920E-02 0. -1.
    10030    2    1    2    0    0  0.00000000000E+00  0.00000000000E+00 -0.42806425572E+03  0.65816031359E+03  0.49993598726E+03 0.  0.
        1    1    3    3  502    0  0.13243887021E+03  0.15574644180E+03 -0.24681854454E+02  0.20592766312E+03  0.50400001928E-02 0.  1.
       -1    1    3    3    0  502 -0.13243887021E+03 -0.15574644180E+03 -0.40338240126E+03  0.45223265047E+03  0.50400001928E-02 0. -1.
</event>
<event>
 5   0  0.4989875E-03  0.4993486E+03  0.7818609E-02  0.1013949E+00
       -2   -1    0    0    0  501  0.00000000000E+00  0.00000000000E+00  0.63216314481E+02  0.63216314532E+02  0.25500000920E-02 0.  1.
        2   -1    0    0  501    0  0.00000000000E+00  0.00000000000E+00 -0.98609444189E+03  0.98609444190E+03  0.25500000920E-02 0. -1.
    10030    2    1    2    0    0  0.00000000000E+00  0.00000000000E+00 -0.92287812741E+03  0.10493107564E+04  0.49934860118E+03 0.  0.
        2    1    3    3  502    0 -0.75877656538E+02  0.13819074525E+02 -0.96043497381E+03  0.96352671188E+03  0.25500000920E-02 0. -1.
       -2    1    3    3    0  502  0.75877656538E+02 -0.13819074525E+02  0.37556846393E+02  0.85784044553E+02  0.25500000920E-02 0.  1.
</event>
<event>
 5   0  0.2863538E-03  0.5009894E+03  0.7818609E-02  0.1013521E+00
       -1   -1    0    0    0  501  0.00000000000E+00  0.00000000000E+00  0.98136031413E+03  0.98136031414E+03  0.50400001928E-02 0.  1.
        1   -1    0    0  501    0  0.00000000000E+00  0.00000000000E+00 -0.63939413647E+02  0.63939413846E+02  0.50400001928E-02 0. -1.
    10030    2    1    2    0    0  0.00000000000E+00  0.00000000000E+00  0.91742090048E+03  0.10452997280E+04  0.50098943371E+03 0.  0.
        1    1    3    3  502    0 -0.23092884384E+03 -0.27933803243E+02  0.26477892932E+03  0.35244334256E+03  0.50400001928E-02 0.  1.
       -1    1    3    3    0  502  0.23092884384E+03  0.27933803243E+02  0.65264197116E+03  0.69285638542E+03  0.50400001928E-02 0. -1.
</event>
<event>
 5   0  0.3013734E-03  0.5000003E+03  0.7818609E-02  0.1013779E+00
       -1   -1    0    0    0  501  0.00000000000E+00  0.00000000000E+00  0.64646172713E+02  0.64646172909E+02  0.50400001928E-02 0. -1.
        1   -1    0    0  501    0  0.00000000000E+00  0.00000000000E+00 -0.96680234236E+03  0.96680234237E+03  0.50400001928E-02 0.  1.
    10030    2    1    2    0    0  0.00000000000E+00  0.00000000000E+00 -0.90215616965E+03  0.10314485153E+04  0.50000028525E+03 0.  0.
        2    1    3    3  502    0  0.64672784487E+02 -0.23923322935E+03 -0.51902738877E+03  0.57515609827E+03  0.25500000920E-02 0.  1.
       -2    1    3    3    0  502 -0.64672784487E+02  0.23923322935E+03 -0.38312878088E+03  0.45629241701E+03  0.25500000920E-02 0. -1.
</event>
<event>
 5   0  0.3211775E-03  0.4986881E+03  0.7818609E-02  0.1014122E+00
        1   -1    0    0  501    0  0.00000000000E+00  0.00000000000E+00  0.35072633392E+03  0.35072633396E+03  0.50400001928E-02 0.  1.
       -1   -1    0    0    0  501  0.00000000000E+00  0.00000000000E+00 -0.17726772495E+03  0.17726772502E+03  0.50400001928E-02 0. -1.
    10030    2    1    2    0    0  0.00000000000E+00  0.00000000000E+00  0.17345860897E+03  0.52799405898E+03  0.49868811625E+03 0.  0.
        4    1    3    3  502    0  0.10552069017E+03  0.16232292403E+03  0.25308533994E+03  0.31864894463E+03  0.12699999809E+01 0.  1.
       -4    1    3    3    0  502 -0.10552069017E+03 -0.16232292403E+03 -0.79626730972E+02  0.20934511435E+03  0.12699999809E+01 0. -1.
</event>
<event>
 5   0  0.2005125E-03  0.5000232E+03  0.7818609E-02  0.1013773E+00
       -3   -1    0    0    0  501  0.00000000000E+00  0.00000000000E+00  0.41764119221E+02  0.41764241348E+02  0.10100000352E+00 0.  1.
        3   -1    0    0  501    0  0.00000000000E+00  0.00000000000E+00 -0.14966366824E+04  0.14966366858E+04  0.10100000352E+00 0. -1.
    10030    2    1    2    0    0  0.00000000000E+00  0.00000000000E+00 -0.14548725632E+04  0.15384009271E+04  0.50002323704E+03 0.  0.
        5    1    3    3  502    0  0.16339931837E+02  0.58559693745E+01 -0.14946444237E+04  0.14947525980E+04  0.46999998093E+01 0. -1.
       -5    1    3    3    0  502 -0.16339931837E+02 -0.58559693745E+01  0.39771860558E+02  0.43648329180E+02  0.46999998093E+01 0.  1.
</event>
<event>
 5   0  0.3057783E-03  0.5000858E+03  0.7818609E-02  0.1013757E+00
        1   -1    0    0  501    0  0.00000000000E+00  0.00000000000E+00  0.16860511302E+04  0.16860511302E+04  0.50400001928E-02 0.  1.
       -1   -1    0    0    0  501  0.00000000000E+00  0.00000000000E+00 -0.37081594282E+02  0.37081594624E+02  0.50400001928E-02 0. -1.
    10030    2    1    2    0    0  0.00000000000E+00  0.00000000000E+00  0.16489695359E+04  0.17231327248E+04  0.50008584963E+03 0.  0.
        5    1    3    3  502    0  0.44233842208E+02 -0.13034655004E+03  0.10539882238E+03  0.17342969083E+03  0.46999998093E+01 0. -1.
       -5    1    3    3    0  502 -0.44233842208E+02  0.13034655004E+03  0.15435707135E+04  0.15497030340E+04  0.46999998093E+01 0.  1.
</event>
<event>
 5   0  0.5118882E-03  0.4997975E+03  0.7818609E-02  0.1013832E+00
        2   -1    0    0  501    0  0.00000000000E+00  0.00000000000E+00  0.91835735093E+03  0.91835735093E+03  0.25500000920E-02 0.  1.
       -2   -1    0    0    0  501  0.00000000000E+00  0.00000000000E+00 -0.68001187978E+02  0.68001188026E+02  0.25500000920E-02 0. -1.
    10030    2    1    2    0    0  0.00000000000E+00  0.00000000000E+00  0.85035616295E+03  0.98635853896E+03  0.49979752251E+03 0.  0.
        3    1    3    3  502    0  0.39920296823E+02  0.19294753786E+03  0.72852876917E+03  0.75470296156E+03  0.10100000352E+00 0.  1.
       -3    1    3    3    0  502 -0.39920296823E+02 -0.19294753786E+03  0.12182739377E+03  0.23165557740E+03  0.10100000352E+00 0. -1.
</event>
<event>
 5   0  0.2005125E-03  0.5001619E+03  0.7818609E-02  0.1013737E+00
       -3   -1    0    0    0  501  0.00000000000E+00  0.00000000000E+00  0.29823865510E+03  0.29823867220E+03  0.10100000352E+00 0. -1.
        3   -1    0    0  501    0  0.00000000000E+00  0.00000000000E+00 -0.20969939406E+03  0.20969941839E+03  0.10100000352E+00 0.  1.
    10030    2    1    2    0    0  0.00000000000E+00  0.00000000000E+00  0.88539261030E+02  0.50793809058E+03  0.50016187692E+03 0.  0.
        2    1    3    3  502    0  0.45378868037E+02 -0.38682153640E+02  0.29091371972E+03  0.29696185446E+03  0.25500000920E-02 0. -1.
       -2    1    3    3    0  502 -0.45378868037E+02  0.38682153640E+02 -0.20237445869E+03  0.21097623613E+03  0.25500000920E-02 0.  1.
</event>
<event>
 5   0  0.5118882E-03  0.4999253E+03  0.7818609E-02  0.1013798E+00
       -2   -1    0    0    0  501  0.00000000000E+00  0.00000000000E+00  0.85955003422E+02  0.85955003459E+02  0.25500000920E-02 0. -1.
        2   -1    0    0  501    0  0.00000000000E+00  0.00000000000E+00 -0.72690739287E+03  0.72690739287E+03  0.25500000920E-02 0.  1.
    10030    2    1    2    0    0  0.00000000000E+00  0.00000000000E+00 -0.64095238945E+03  0.81286239633E+03  0.49992530425E+03 0.  0.
        3    1    3    3  502    0  0.78111234402E+01 -0.21592768219E+03 -0.52482831490E+03  0.56756545694E+03  0.10100000352E+00 0.  1.
       -3    1    3    3    0  502 -0.78111234402E+01  0.21592768219E+03 -0.11612407455E+03  0.24529693940E+03  0.10100000352E+00 0. -1.
</event>
<event>
 5   0  0.3055293E-03  0.4996160E+03  0.7818609E-02  0.1013879E+00
       -1   -1    0    0    0  501  0.00000000000E+00  0.00000000000E+00  0.11151439994E+03  0.11151440006E+03  0.50400001928E-02 0. -1.
        1   -1    0    0  501    0  0.00000000000E+00  0.00000000000E+00 -0.55960526705E+03  0.55960526707E+03  0.50400001928E-02 0.  1.
    10030    2    1    2    0    0  0.00000000000E+00  0.00000000000E+00 -0.44809086711E+03  0.67111966713E+03  0.49961603499E+03 0.  0.
        3    1    3    3  502    0  0.47460572115E+02 -0.17015644746E+03  0.13217093758E+02  0.17714520678E+03  0.10100000352E+00 0. -1.
       -3    1    3    3    0  502 -0.47460572115E+02  0.17015644746E+03 -0.46130796086E+03  0.49397446035E+03  0.10100000352E+00 0.  1.
</event>
<event>
 5   0  0.3013734E-03  0.4998902E+03  0.7818609E-02  0.1013808E+00
       -1   -1    0    0    0  501  0.00000000000E+00  0.00000000000E+00  0.83281262878E+02  0.83281263031E+02  0.50400001928E-02 0. -1.
        1   -1    0    0  501    0  0.00000000000E+00  0.00000000000E+00 -0.75013921596E+03  0.75013921598E+03  0.50400001928E-02 0.  1.
    10030    2    1    2    0    0  0.00000000000E+00  0.00000000000E+00 -0.66685795308E+03  0.83342047901E+03  0.49989015317E+03 0.  0.
        2    1    3    3  502    0  0.15650259300E+03 -0.19348519391E+03 -0.37227738888E+03  0.44779463614E+03  0.25500000920E-02 0.  1.
       -2    1    3    3    0  502 -0.15650259300E+03  0.19348519391E+03 -0.29458056420E+03  0.38562584287E+03  0.25500000920E-02 0. -1.
</event>
<event>
 5   0  0.3057783E-03  0.4998206E+03  0.7818609E-02  0.1013826E+00
        1   -1    0    0  501    0  0.00000000000E+00  0.00000000000E+00  0.13916303851E+04  0.13916303852E+04  0.50400001928E-02 0. -1.
       -1   -1    0    0    0  501  0.00000000000E+00  0.00000000000E+00 -0.44879129592E+02  0.44879129875E+02  0.50400001928E-02 0.  1.
    10030    2    1    2    0    0  0.00000000000E+00  0.00000000000E+00  0.13467512556E+04  0.14365095150E+04  0.49982061026E+03 0.  0.
        5    1    3    3  502    0  0.95894997883E+01  0.24476722243E+03  0.53169577047E+03  0.58542756513E+03  0.46999998093E+01 0. -1.
       -5    1    3    3    0  502 -0.95894997883E+01 -0.24476722243E+03  0.81505548508E+03  0.85108194989E+03  0.46999998093E+01 0.  1.
</event>
<event>
 5   0  0.5095783E-03  0.5001985E+03  0.7818609E-02  0.1013727E+00
       -2   -1    0    0    0  501  0.00000000000E+00  0.00000000000E+00  0.14311058081E+03  0.14311058083E+03  0.25500000920E-02 0. -1.
        2   -1    0    0  501    0  0.00000000000E+00  0.00000000000E+00 -0.43707205657E+03  0.43707205657E+03  0.25500000920E-02 0.  1.
    10030    2    1    2    0    0  0.00000000000E+00  0.00000000000E+00 -0.29396147576E+03  0.58018263741E+03  0.50019850412E+03 0.  0.
        4    1    3    3  502    0  0.91132766340E+01 -0.24103586299E+03 -0.22362827736E+03  0.32892637230E+03  0.12699999809E+01 0. -1.
       -4    1    3    3    0  502 -0.91132766340E+01  0.24103586299E+03 -0.70333198398E+02  0.25125626511E+03  0.12699999809E+01 0.  1.
</event>
<event>
 5   0  0.5095783E-03  0.5000422E+03  0.7818609E-02  0.1013768E+00
        2   -1    0    0  501    0  0.00000000000E+00  0.00000000000E+00  0.61193394001E+03  0.61193394001E+03  0.25500000920E-02 0.  1.
       -2   -1    0    0    0  501  0.00000000000E+00  0.00000000000E+00 -0.10215245278E+03  0.10215245282E+03  0.25500000920E-02 0. -1.
    10030    2    1    2    0    0  0.00000000000E+00  0.00000000000E+00  0.50978148722E+03  0.71408639283E+03  0.50004220993E+03 0.  0.
        4    1    3    3  502    0  0.16460231052E+03  0.18505919197E+03  0.20608320942E+03  0.32219982506E+03  0.12699999809E+01 0.  1.
       -4    1    3    3    0  502 -0.16460231052E+03 -0.18505919197E+03  0.30369827780E+03  0.39188656777E+03  0.12699999809E+01 0. -1.
</event>
<event>
 5   0  0.5118882E-03  0.4997909E+03  0.7818609E-02  0.1013834E+00
        2   -1    0    0  501    0  0.00000000000E+00  0.00000000000E+00  0.13286932466E+04  0.13286932467E+04  0.25500000920E-02 0. -1.
       -2   -1    0    0    0  501  0.00000000000E+00  0.00000000000E+00 -0.46999360404E+02  0.46999360473E+02  0.25500000920E-02 0.  1.
    10030    2    1    2    0    0  0.00000000000E+00  0.00000000000E+00  0.12816938862E+04  0.13756926071E+04  0.49979088753E+03 0.  0.
        3    1    3    3  502    0  0.15907677342E+03  0.19235304874E+03  0.67371727742E+03  0.71847066418E+03  0.10100000352E+00 0. -1.
       -3    1    3    3    0  502 -0.15907677342E+03 -0.19235304874E+03  0.60797660883E+03  0.65722194294E+03  0.10100000352E+00 0.  1.
</event>
<event>
 5   0  0.2863538E-03  0.5003605E+03  0.7818609E-02  0.1013685E+00
        1   -1    0    0  501    0  0.00000000000E+00  0.00000000000E+00  0.35580479607E+03  0.35580479610E+03  0.50400001928E-02 0. -1.
       -1   -1    0    0    0  501  0.00000000000E+00  0.00000000000E+00 -0.17591148276E+03  0.17591148283E+03  0.50400001928E-02 0.  1.
    10030    2    1    2    0    0  0.00000000000E+00  0.00000000000E+00  0.17989331331E+03  0.53171627893E+03  0.50036046717E+03 0.  0.
        1    1    3    3  502    0 -0.57191460852E+01 -0.24763660048E+03  0.52623688224E+02  0.25323081787E+03  0.50400001928E-02 0.  1.
       -1    1    3    3    0  502  0.57191460852E+01  0.24763660048E+03  0.12726962509E+03  0.27848546106E+03  0.50400001928E-02 0. -1.
</event>
<event>
 5   0  0.5095783E-03  0.5004508E+03  0.7818609E-02  0.1013661E+00
        2   -1    0    0  501    0  0.00000000000E+00  0.00000000000E+00  0.14617421841E+04  0.14617421841E+04  0.25500000920E-02 0. -1.
       -2   -1    0    0    0  501  0.00000000000E+00  0.00000000000E+00 -0.42834330513E+02  0.42834330589E+02  0.25500000920E-02 0.  1.
    10030    2    1    2    0    0  0.00000000000E+00  0.00000000000E+00  0.14189078536E+04  0.15045765147E+04  0.50045078838E+03 0.  0.
        4    1    3    3  502    0 -0.27832039726E+02  0.13436632223E+03  0.13385278906E+04  0.13455435548E+04  0.12699999809E+01 0. -1.
       -4    1    3    3    0  502  0.27832039726E+02 -0.13436632223E+03  0.80379962963E+02  0.15903295989E+03  0.12699999809E+01 0.  1.
</event>
<event>
 5   0  0.3211775E-03  0.4998818E+03  0.7818609E-02  0.1013810E+00
       -1   -1    0    0    0  501  0.00000000000E+00  0.00000000000E+00  0.77501905037E+02  0.77501905201E+02  0.50400001928E-02 0. -1.
        1   -1    0    0  501    0  0.00000000000E+00  0.00000000000E+00 -0.80605064294E+03  0.80605064296E+03  0.50400001928E-02 0.  1.
    10030    2    1    2    0    0  0.00000000000E+00  0.00000000000E+00 -0.72854873790E+03  0.88355254816E+03  0.49988182789E+03 0.  0.
        4    1    3    3  502    0 -0.11272010896E+03  0.21899080307E+03 -0.43938998824E+03  0.50371417437E+03  0.12699999809E+01 0.  1.
       -4    1    3    3    0  502  0.11272010896E+03 -0.21899080307E+03 -0.28915874967E+03  0.37983837379E+03  0.12699999809E+01 0. -1.
</event>
<event>
 5   0  0.4978779E-03  0.5000811E+03  0.7818609E-02  0.1013758E+00
        2   -1    0    0  501    0  0.00000000000E+00  0.00000000000E+00  0.72373903964E+03  0.72373903965E+03  0.25500000920E-02 0. -1.
       -2   -1    0    0    0  501  0.00000000000E+00  0.00000000000E+00 -0.86385097791E+02  0.86385097829E+02  0.25500000920E-02 0.  1.
    10030    2    1    2    0    0  0.00000000000E+00  0.00000000000E+00  0.63735394185E+03  0.81012413748E+03  0.50008106436E+03 0.  0.
        1    1    3    3  502    0  0.17500211163E+03  0.66674365019E+02  0.58707225568E+03  0.61621834072E+03  0.50400001928E-02 0. -1.
       -1    1    3    3    0  502 -0.17500211163E+03 -0.66674365019E+02  0.50281686172E+02  0.19390579676E+03  0.50400001928E-02 0.  1.
</event>
<event>
 5   0  0.4889251E-03  0.4999385E+03  0.7818609E-02  0.1013795E+00
       -2   -1    0    0    0  501  0.00000000000E+00  0.00000000000E+00  0.31824429732E+02  0.31824429834E+02  0.25500000920E-02 0. -1.
        2   -1    0    0  501    0  0.00000000000E+00  0.00000000000E+00 -0.19634166473E+04  0.19634166473E+04  0.25500000920E-02 0.  1.
    10030    2    1    2    0    0  0.00000000000E+00  0.00000000000E+00 -0.19315922176E+04  0.19952410771E+04  0.49993845713E+03 0.  0.
        5    1    3    3  502    0  0.76879216366E+02  0.14290774620E+03 -0.17243906822E+04  0.17320156906E+04  0.46999998093E+01 0.  1.
       -5    1    3    3    0  502 -0.76879216366E+02 -0.14290774620E+03 -0.20720153540E+03  0.26322538651E+03  0.46999998093E+01 0. -1.
</event>
<event>
 5   0  0.3211775E-03  0.5002339E+03  0.7818609E-02  0.1013718E+00
        1   -1    0    0  501    0  0.00000000000E+00  0.00000000000E+00  0.17486840226E+03  0.17486840234E+03  0.50400001928E-02 0. -1.
       -1   -1    0    0    0  501  0.00000000000E+00  0.00000000000E+00 -0.35774611718E+03  0.35774611721E+03  0.50400001928E-02 0.  1.
    10030    2    1    2    0    0  0.00000000000E+00  0.00000000000E+00 -0.18287771491E+03  0.53261451955E+03  0.50023391311E+03 0.  0.
        4    1    3    3  502    0  0.11714573958E+02 -0.24901277701E+03 -0.69819714226E+02  0.25888414349E+03  0.12699999809E+01 0. -1.
       -4    1    3    3    0  502 -0.11714573958E+02  0.24901277701E+03 -0.11305800069E+03  0.27373037606E+03  0.12699999809E+01 0.  1.
</event>
<event>
 5   0  0.2863538E-03  0.4997377E+03  0.7818609E-02  0.1013847E+00
       -1   -1    0    0    0  501  0.00000000000E+00  0.00000000000E+00  0.79283342140E+02  0.79283342300E+02  0.50400001928E-02 0.  1.
        1   -1    0    0  501    0  0.00000000000E+00  0.00000000000E+00 -0.78748491235E+03  0.78748491237E+03  0.50400001928E-02 0. -1.
    10030    2    1    2    0    0  0.00000000000E+00  0.00000000000E+00 -0.70820157021E+03  0.86676825467E+03  0.49973767443E+03 0.  0.
        1    1    3    3  502    0 -0.11372157050E+03 -0.44635575685E+02 -0.73215245512E+03  0.74227498124E+03  0.50400001928E-02 0. -1.
       -1    1    3    3    0  502  0.11372157050E+03  0.44635575685E+02  0.23950884910E+02  0.12449327342E+03  0.50400001928E-02 0.  1.
</event>
<event>
 5   0  0.3211775E-03  0.4998926E+03  0.7818609E-02  0.1013807E+00
       -1   -1    0    0    0  501  0.00000000000E+00  0.00000000000E+00  0.26706794344E+03  0.26706794349E+03  0.50400001928E-02 0.  1.
        1   -1    0    0  501    0  0.00000000000E+00  0.00000000000E+00 -0.23392234056E+03  0.23392234062E+03  0.50400001928E-02 0. -1.
    10030    2    1    2    0    0  0.00000000000E+00  0.00000000000E+00  0.33145602880E+02  0.50099028411E+03  0.49989262225E+03 0.  0.
        4    1    3    3  502    0  0.37198388598E+02 -0.51833921829E+02  0.25876657747E+03  0.26651872370E+03  0.12699999809E+01 0.  1.
       -4    1    3    3    0  502 -0.37198388598E+02  0.51833921829E+02 -0.22562097459E+03  0.23447156041E+03  0.12699999809E+01 0. -1.
</event>
<event>
 5   0  0.5095783E-03  0.5001592E+03  0.7818609E-02  0.1013737E+00
        2   -1    0    0  501    0  0.00000000000E+00  0.00000000000E+00  0.15847771115E+03  0.15847771117E+03  0.25500000920E-02 0.  1.
       -2   -1    0    0    0  501  0.00000000000E+00  0.00000000000E+00 -0.39462845592E+03  0.39462845593E+03  0.25500000920E-02 0. -1.
    10030    2    1    2    0    0  0.00000000000E+00  0.00000000000E+00 -0.23615074477E+03  0.55310616709E+03  0.50015923247E+03 0.  0.
        4    1    3    3  502    0  0.73238978024E+02  0.96363879741E+02 -0.36007501413E+03  0.37987573485E+03  0.12699999809E+01 0. -1.
       -4    1    3    3    0  502 -0.73238978024E+02 -0.96363879741E+02  0.12392426936E+03  0.17323043225E+03  0.12699999809E+01 0.  1.
</event>
<event>
 5   0  0.2863538E-03  0.4999924E+03  0.7818609E-02  0.1013781E+00
       -1   -1    0    0    0  501  0.00000000000E+00  0.00000000000E+00  0.54711597302E+02  0.54711597534E+02  0.50400001928E-02 0. -1.
        1   -1    0    0  501    0  0.00000000000E+00  0.00000000000E+00 -0.11423188766E+04  0.11423188766E+04  0.50400001928E-02 0.  1.
    10030    2    1    2    0    0  0.00000000000E+00  0.00000000000E+00 -0.10876072793E+04  0.11970304741E+04  0.49999236199E+03 0.  0.
        1    1    3    3  502    0 -0.87551866400E+02 -0.81656841879E+01 -0.11040740365E+04  0.11075700816E+04  0.50400001928E-02 0.  1.
       -1    1    3    3    0  502  0.87551866400E+02  0.81656841879E+01  0.16466757180E+02  0.89460392498E+02  0.50400001928E-02 0. -1.
</event>
<event>
 5   0  0.4978779E-03  0.5001297E+03  0.7818609E-02  0.1013745E+00
       -2   -1    0    0    0  501  0.00000000000E+00  0.00000000000E+00  0.22349836669E+03  0.22349836671E+03  0.25500000920E-02 0.  1.
        2   -1    0    0  501    0  0.00000000000E+00  0.00000000000E+00 -0.27978920201E+03  0.27978920202E+03  0.25500000920E-02 0. -1.
    10030    2    1    2    0    0  0.00000000000E+00  0.00000000000E+00 -0.56290835317E+02  0.50328756873E+03  0.50012970187E+03 0.  0.
        1    1    3    3  502    0 -0.48853397943E+02 -0.16854980446E+03  0.15112750685E+03  0.23159277715E+03  0.50400001928E-02 0.  1.
       -1    1    3    3    0  502  0.48853397943E+02  0.16854980446E+03 -0.20741834217E+03  0.27169479158E+03  0.50400001928E-02 0. -1.
</event>
<event>
 5   0  0.3057783E-03  0.5003919E+03  0.7818609E-02  0.1013677E+00
       -1   -1    0    0    0  501  0.00000000000E+00  0.00000000000E+00  0.23176457565E+03  0.23176457570E+03  0.50400001928E-02 0. -1.
        1   -1    0    0  501    0  0.00000000000E+00  0.00000000000E+00 -0.27009310772E+03  0.27009310776E+03  0.50400001928E-02 0.  1.
    10030    2    1    2    0    0  0.00000000000E+00  0.00000000000E+00 -0.38328532067E+02  0.50185768347E+03  0.50039190450E+03 0.  0.
        5    1    3    3  502    0  0.19911376728E+03  0.62572547559E+02 -0.15746056906E+03  0.26149098806E+03  0.46999998093E+01 0.  1.
       -5    1    3    3    0  502 -0.19911376728E+03 -0.62572547559E+02  0.11913203699E+03  0.24036669541E+03  0.46999998093E+01 0. -1.
</event>
<event>
 5   0  0.3057783E-03  0.5001347E+03  0.7818609E-02  0.1013744E+00
        1   -1    0    0  501    0  0.00000000000E+00  0.00000000000E+00  0.18541966561E+03  0.18541966568E+03  0.50400001928E-02 0. -1.
       -1   -1    0    0    0  501  0.00000000000E+00  0.00000000000E+00 -0.33725480860E+03  0.33725480864E+03  0.50400001928E-02 0.  1.
    10030    2    1    2    0    0  0.00000000000E+00  0.00000000000E+00 -0.15183514299E+03  0.52267447432E+03  0.50013467732E+03 0.  0.
        5    1    3    3  502    0 -0.17704030473E+02  0.24938528828E+03 -0.78284403468E+02  0.26202479374E+03  0.46999998093E+01 0.  1.
       -5    1    3    3    0  502  0.17704030473E+02 -0.24938528828E+03 -0.73550739519E+02  0.26064968059E+03  0.46999998093E+01 0. -1.
</event>
<event>
 5   0  0.5118882E-03  0.4996630E+03  0.7818609E-02  0.1013867E+00
       -2   -1    0    0    0  501  0.00000000000E+00  0.00000000000E+00  0.98715691923E+02  0.98715691956E+02  0.25500000920E-02 0.  1.
        2   -1    0    0  501    0  0.00000000000E+00  0.00000000000E+00 -0.63227815019E+03  0.63227815019E+03  0.25500000920E-02 0. -1.
    10030    2    1    2    0    0  0.00000000000E+00  0.00000000000E+00 -0.53356245826E+03  0.73099384215E+03  0.49966298681E+03 0.  0.
        3    1    3    3  502    0 -0.19561970784E+02  0.16106004850E+02  0.96830859886E+02  0.10009145678E+03  0.10100000352E+00 0.  1.
       -3    1    3    3    0  502  0.19561970784E+02 -0.16106004850E+02 -0.63039331815E+03  0.63090238537E+03  0.10100000352E+00 0. -1.
</event>
<event>
 5   0  0.2863538E-03  0.4999889E+03  0.7818609E-02  0.1013782E+00
        1   -1    0    0  501    0  0.00000000000E+00  0.00000000000E+00  0.99360199130E+02  0.99360199258E+02  0.50400001928E-02 0. -1.
       -1   -1    0    0    0  501  0.00000000000E+00  0.00000000000E+00 -0.62899656379E+03  0.62899656381E+03  0.50400001928E-02 0.  1.
    10030    2    1    2    0    0  0.00000000000E+00  0.00000000000E+00 -0.52963636466E+03  0.72835676307E+03  0.49998889541E+03 0.  0.
        1    1    3    3  502    0 -0.79477676411E+02  0.16274534926E+03 -0.13790499425E+02  0.18163955421E+03  0.50400001928E-02 0. -1.
       -1    1    3    3    0  502  0.79477676411E+02 -0.16274534926E+03 -0.51584586524E+03  0.54671720886E+03  0.50400001928E-02 0.  1.
</event>
<event>
 5   0  0.3057783E-03  0.4999436E+03  0.7818609E-02  0.1013794E+00
        1   -1    0    0  501    0  0.00000000000E+00  0.00000000000E+00  0.14665897801E+03  0.14665897810E+03  0.50400001928E-02 0. -1.
       -1   -1    0    0    0  501  0.00000000000E+00  0.00000000000E+00 -0.42606259814E+03  0.42606259817E+03  0.50400001928E-02 0.  1.
    10030    2    1    2    0    0  0.00000000000E+00  0.00000000000E+00 -0.27940362013E+03  0.57272157626E+03  0.49994361780E+03 0.  0.
        5    1    3    3  502    0  0.21258003881E+03 -0.32092234435E+00 -0.29026261428E+03  0.35981224428E+03  0.46999998093E+01 0.  1.
       -5    1    3    3    0  502 -0.21258003881E+03  0.32092234435E+00  0.10858994149E+02  0.21290933198E+03  0.46999998093E+01 0. -1.
</event>
<event>
 5   0  0.2005125E-03  0.4997587E+03  0.7818609E-02  0.1013842E+00
       -3   -1    0    0    0  501  0.00000000000E+00  0.00000000000E+00  0.43747470790E+03  0.43747471956E+03  0.10100000352E+00 0.  1.
        3   -1    0    0  501    0  0.00000000000E+00  0.00000000000E+00 -0.14272751784E+03  0.14272755357E+03  0.10100000352E+00 0. -1.
    10030    2    1    2    0    0  0.00000000000E+00  0.00000000000E+00  0.29474719007E+03  0.58020227313E+03  0.49975871348E+03 0.  0.
        2    1    3    3  502    0  0.11945415743E+02 -0.23375394171E+02 -0.14112228134E+03  0.14354302598E+03  0.25500000920E-02 0. -1.
       -2    1    3    3    0  502 -0.11945415743E+02  0.23375394171E+02  0.43586947141E+03  0.43665924715E+03  0.25500000920E-02 0.  1.
</event>
<event>
 5   0  0.2005125E-03  0.4999583E+03  0.7818609E-02  0.1013790E+00
        3   -1    0    0  501    0  0.00000000000E+00  0.00000000000E+00  0.66728880832E+03  0.66728881596E+03  0.10100000352E+00 0.  1.
       -3   -1    0    0    0  501  0.00000000000E+00  0.00000000000E+00 -0.93646943112E+02  0.93646997577E+02  0.10100000352E+00 0. -1.
    10030    2    1    2    0    0  0.00000000000E+00  0.00000000000E+00  0.57364186521E+03  0.76093581354E+03  0.49995832107E+03 0.  0.
        5    1    3    3  502    0 -0.13338385644E+03 -0.16287576596E+03  0.81787214392E+02  0.22590043544E+03  0.46999998093E+01 0. -1.
       -5    1    3    3    0  502  0.13338385644E+03  0.16287576596E+03  0.49185465081E+03  0.53503537810E+03  0.46999998093E+01 0.  1.
</event>
<event>
 5   0  0.4889251E-03  0.4998603E+03  0.7818609E-02  0.1013815E+00
       -2   -1    0    0    0  501  0.00000000000E+00  0.00000000000E+00  0.33991035621E+02  0.33991035716E+02  0.25500000920E-02 0.  1.
        2   -1    0    0  501    0  0.00000000000E+00  0.00000000000E+00 -0.18376929178E+04  0.18376929178E+04  0.25500000920E-02 0. -1.
    10030    2    1    2    0    0  0.00000000000E+00  0.00000000000E+00 -0.18037018822E+04  0.18716839535E+04  0.49986032257E+03 0.  0.
        5    1    3    3  502    0  0.89557563293E+02  0.20290936758E+03 -0.47083283923E+03  0.52047903040E+03  0.46999998093E+01 0.  1.
       -5    1    3    3    0  502 -0.89557563293E+02 -0.20290936758E+03 -0.13328690430E+04  0.13512049231E+04  0.46999998093E+01 0. -1.
</event>
<event>
 5   0  0.2863538E-03  0.5001693E+03  0.7818609E-02  0.1013735E+00
       -1   -1    0    0    0  501  0.00000000000E+00  0.00000000000E+00  0.70201825445E+02  0.70201825626E+02  0.50400001928E-02 0. -1.
        1   -1    0    0  501    0  0.00000000000E+00  0.00000000000E+00 -0.89089322379E+03  0.89089322381E+03  0.50400001928E-02 0.  1.
    10030    2    1    2    0    0  0.00000000000E+00  0.00000000000E+00 -0.82069139835E+03  0.96109504943E+03  0.50016929406E+03 0.  0.
        1    1    3    3  502    0 -0.16009732127E+03 -0.92963977637E+02 -0.87270520067E+02  0.20466948261E+03  0.50400001928E-02 0. -1.
       -1    1    3    3    0  502  0.16009732127E+03  0.92963977637E+02 -0.73342087828E+03  0.75642556682E+03  0.50400001928E-02 0.  1.
</event>
<event>
 5   0  0.3057783E-03  0.5002404E+03  0.7818609E-02  0.1013716E+00
       -1   -1    0    0    0  501  0.00000000000E+00  0.00000000000E+00  0.82145900283E+02  0.82145900438E+02  0.50400001928E-02 0. -1.
        1   -1    0    0  501    0  0.00000000000E+00  0.00000000000E+00 -0.76157322677E+03  0.76157322678E+03  0.50400001928E-02 0.  1.
    10030    2    1    2    0    0  0.00000000000E+00  0.00000000000E+00 -0.67942732648E+03  0.84371912722E+03  0.50024041587E+03 0.  0.
        5    1    3    3  502    0 -0.93735533451E+00  0.12864378475E+03  0.21980109801E+02  0.13059600765E+03  0.46999998093E+01 0. -1.
       -5    1    3    3    0  502  0.93735533451E+00 -0.12864378475E+03 -0.70140743628E+03  0.71312311957E+03  0.46999998093E+01 0.  1.
</event>
<event>
 5   0  0.2863538E-03  0.4998904E+03  0.7818609E-02  0.1013808E+00
        1   -1    0    0  501    0  0.00000000000E+00  0.00000000000E+00  0.58667085894E+03  0.58667085897E+03  0.50400001928E-02 0.  1.
       -1   -1    0    0    0  501  0.00000000000E+00  0.00000000000E+00 -0.10648664797E+03  0.10648664809E+03  0.50400001928E-02 0. -1.
    10030    2    1    2    0    0  0.00000000000E+00  0.00000000000E+00  0.48018421098E+03  0.69315750705E+03  0.49989044111E+03 0.  0.
        1    1    3    3  502    0 -0.58562438589E+02  0.17524139140E+03  0.66886513053E+01  0.18488873020E+03  0.50400001928E-02 0. -1.
       -1    1    3    3    0  502  0.58562438589E+02 -0.17524139140E+03  0.47349555967E+03  0.50826877686E+03  0.50400001928E-02 0.  1.
</event>
<event>
 5   0  0.5095783E-03  0.4999143E+03  0.7818609E-02  0.1013801E+00
        2   -1    0    0  501    0  0.00000000000E+00  0.00000000000E+00  0.22359348253E+04  0.22359348253E+04  0.25500000920E-02 0.  1.
       -2   -1    0    0    0  501  0.00000000000E+00  0.00000000000E+00 -0.27942929052E+02  0.27942929168E+02  0.25500000920E-02 0. -1.
    10030    2    1    2    0    0  0.00000000000E+00  0.00000000000E+00  0.22079918962E+04  0.22638777544E+04  0.49991426593E+03 0.  0.
        4    1    3    3  502    0  0.45025539153E+02 -0.63737806071E+02  0.21793401739E+04  0.21807372637E+04  0.12699999809E+01 0.  1.
       -4    1    3    3    0  502 -0.45025539153E+02  0.63737806071E+02  0.28651722327E+02  0.83140490683E+02  0.12699999809E+01 0. -1.
</event>
<event>
 5   0  0.3013734E-03  0.5000017E+03  0.7818609E-02  0.1013778E+00
       -1   -1    0    0    0  501  0.00000000000E+00  0.00000000000E+00  0.65425149447E+02  0.65425149642E+02  0.50400001928E-02 0.  1.
        1   -1    0    0  501    0  0.00000000000E+00  0.00000000000E+00 -0.95529677828E+03  0.95529677829E+03  0.50400001928E-02 0. -1.
    10030    2    1    2    0    0  0.00000000000E+00  0.00000000000E+00 -0.88987162883E+03  0.10207219279E+04  0.50000173836E+03 0.  0.
        2    1    3    3  502    0  0.12308505468E+03 -0.86908796287E+02 -0.85218768682E+03  0.86540564080E+03  0.25500000920E-02 0. -1.
       -2    1    3    3    0  502 -0.12308505468E+03  0.86908796287E+02 -0.37683942011E+02  0.15531628713E+03  0.25500000920E-02 0.  1.
</event>
<event>
 5   0  0.3057783E-03  0.4999392E+03  0.7818609E-02  0.1013795E+00
       -1   -1    0    0    0  501  0.00000000000E+00  0.00000000000E+00  0.23395265470E+03  0.23395265475E+03  0.50400001928E-02 0.  1.
        1   -1    0    0  501    0  0.00000000000E+00  0.00000000000E+00 -0.26708313243E+03  0.26708313248E+03  0.50400001928E-02 0. -1.
    10030    2    1    2    0    0  0.00000000000E+00  0.00000000000E+00 -0.33130477735E+02  0.50103578723E+03  0.49993922784E+03 0.  0.
        5    1    3    3  502    0  0.59534171832E+02  0.10281241589E+02  0.22647997730E+03  0.23444677788E+03  0.46999998093E+01 0.  1.
       -5    1    3    3    0  502 -0.59534171832E+02 -0.10281241589E+02 -0.25961045503E+03  0.26658900935E+03  0.46999998093E+01 0. -1.
</event>
<event>
 5   0  0.4978779E-03  0.5000935E+03  0.7818609E-02  0.1013755E+00
       -2   -1    0    0    0  501  0.00000000000E+00  0.00000000000E+00  0.35879702341E+03  0.35879702342E+03  0.25500000920E-02 0. -1.
        2   -1    0    0  501    0  0.00000000000E+00  0.00000000000E+00 -0.17425833542E+03  0.17425833544E+03  0.25500000920E-02 0.  1.
    10030    2    1    2    0    0  0.00000000000E+00  0.00000000000E+00  0.18453868799E+03  0.53305535885E+03  0.50009347950E+03 0.  0.
        1    1    3    3  502    0  0.11331158975E+03 -0.16091366923E+03  0.25667783591E+03  0.32344433337E+03  0.50400001928E-02 0. -1.
       -1    1    3    3    0  502 -0.11331158975E+03  0.16091366923E+03 -0.72139147915E+02  0.20961102548E+03  0.50400001928E-02 0.  1.
</event>
<event>
 5   0  0.5095783E-03  0.5026481E+03  0.7818609E-02  0.1013090E+00
       -2   -1    0    0    0  501  0.00000000000E+00  0.00000000000E+00  0.18251452320E+03  0.18251452322E+03  0.25500000920E-02 0. -1.
        2   -1    0    0  501    0  0.00000000000E+00  0.00000000000E+00 -0.34607533149E+03  0.34607533150E+03  0.25500000920E-02 0.  1.
    10030    2    1    2    0    0  0.00000000000E+00  0.00000000000E+00 -0.16356080829E+03  0.52858985471E+03  0.50264808415E+03 0.  0.
        4    1    3    3  502    0  0.45527454209E+02 -0.90182938559E+02  0.16021895880E+03  0.18941340806E+03  0.12699999809E+01 0. -1.
       -4    1    3    3    0  502 -0.45527454209E+02  0.90182938559E+02 -0.32377976708E+03  0.33917644666E+03  0.12699999809E+01 0.  1.
</event>
<event>
 5   0  0.5095783E-03  0.4998671E+03  0.7818609E-02  0.1013814E+00
       -2   -1    0    0    0  501  0.00000000000E+00  0.00000000000E+00  0.12166497497E+03  0.12166497500E+03  0.25500000920E-02 0.  1.
        2   -1    0    0  501    0  0.00000000000E+00  0.00000000000E+00 -0.51343265375E+03  0.51343265375E+03  0.25500000920E-02 0. -1.
    10030    2    1    2    0    0  0.00000000000E+00  0.00000000000E+00 -0.39176767878E+03  0.63509762875E+03  0.49986706624E+03 0.  0.
        4    1    3    3  502    0  0.16609028938E+03 -0.32712158829E+02 -0.42949990106E+03  0.46165771679E+03  0.12699999809E+01 0. -1.
       -4    1    3    3    0  502 -0.16609028938E+03  0.32712158829E+02  0.37732222286E+02  0.17343991196E+03  0.12699999809E+01 0.  1.
</event>
<event>
 5   0  0.4989875E-03  0.4999800E+03  0.7818609E-02  0.1013784E+00
       -2   -1    0    0    0  501  0.00000000000E+00  0.00000000000E+00  0.13565620294E+03  0.13565620297E+03  0.25500000920E-02 0.  1.
        2   -1    0    0  501    0  0.00000000000E+00  0.00000000000E+00 -0.46068664895E+03  0.46068664896E+03  0.25500000920E-02 0. -1.
    10030    2    1    2    0    0  0.00000000000E+00  0.00000000000E+00 -0.32503044601E+03  0.59634285193E+03  0.49998000581E+03 0.  0.
        2    1    3    3  502    0 -0.10339110975E+03  0.15980758301E+03 -0.35582200885E+03  0.40353127159E+03  0.25500000920E-02 0. -1.
       -2    1    3    3    0  502  0.10339110975E+03 -0.15980758301E+03  0.30791562840E+02  0.19281158034E+03  0.25500000920E-02 0.  1.
</event>
<event>
 5   0  0.5118882E-03  0.4992155E+03  0.7818609E-02  0.1013984E+00
       -2   -1    0    0    0  501  0.00000000000E+00  0.00000000000E+00  0.49445830938E+02  0.49445831004E+02  0.25500000920E-02 0. -1.
        2   -1    0    0  501    0  0.00000000000E+00  0.00000000000E+00 -0.12600462064E+04  0.12600462064E+04  0.25500000920E-02 0.  1.
    10030    2    1    2    0    0  0.00000000000E+00  0.00000000000E+00 -0.12106003754E+04  0.13094920374E+04  0.49921551153E+03 0.  0.
        3    1    3    3  502    0  0.23834923686E+02 -0.18593998240E+03 -0.10376124847E+04  0.10544104794E+04  0.10100000352E+00 0.  1.
       -3    1    3    3    0  502 -0.23834923686E+02  0.18593998240E+03 -0.17298789078E+03  0.25508155794E+03  0.10100000352E+00 0. -1.
</event>
<event>
 5   0  0.3055293E-03  0.5000248E+03  0.7818609E-02  0.1013772E+00
        1   -1    0    0  501    0  0.00000000000E+00  0.00000000000E+00  0.26299331142E+04  0.26299331142E+04  0.50400001928E-02 0. -1.
       -1   -1    0    0    0  501  0.00000000000E+00  0.00000000000E+00 -0.23767217716E+02  0.23767218250E+02  0.50400001928E-02 0.  1.
    10030    2    1    2    0    0  0.00000000000E+00  0.00000000000E+00  0.26061658964E+04  0.26537003324E+04  0.50002477386E+03 0.  0.
        3    1    3    3  502    0 -0.71943173818E+02  0.24408332933E+02  0.38974476817E+02  0.85385051500E+02  0.10100000352E+00 0.  1.
       -3    1    3    3    0  502  0.71943173818E+02 -0.24408332933E+02  0.25671914196E+04  0.25683152809E+04  0.10100000352E+00 0. -1.
</event>
<event>
 5   0  0.3211775E-03  0.5002039E+03  0.7818609E-02  0.1013726E+00
       -1   -1    0    0    0  501  0.00000000000E+00  0.00000000000E+00  0.21815276937E+03  0.21815276943E+03  0.50400001928E-02 0.  1.
        1   -1    0    0  501    0  0.00000000000E+00  0.00000000000E+00 -0.28673020834E+03  0.28673020839E+03  0.50400001928E-02 0. -1.
    10030    2    1    2    0    0  0.00000000000E+00  0.00000000000E+00 -0.68577438977E+02  0.50488297781E+03  0.50020391457E+03 0.  0.
        4    1    3    3  502    0  0.13947462847E+03  0.20654845598E+03 -0.55314795329E+02  0.25529742681E+03  0.12699999809E+01 0. -1.
       -4    1    3    3    0  502 -0.13947462847E+03 -0.20654845598E+03 -0.13262643648E+02  0.24958555100E+03  0.12699999809E+01 0.  1.
</event>
<event>
 5   0  0.5118882E-03  0.5002535E+03  0.7818609E-02  0.1013713E+00
       -2   -1    0    0    0  501  0.00000000000E+00  0.00000000000E+00  0.27023322919E+02  0.27023323039E+02  0.25500000920E-02 0.  1.
        2   -1    0    0  501    0  0.00000000000E+00  0.00000000000E+00 -0.23151628105E+04  0.23151628105E+04  0.25500000920E-02 0. -1.
    10030    2    1    2    0    0  0.00000000000E+00  0.00000000000E+00 -0.22881394876E+04  0.23421861335E+04  0.50025350526E+03 0.  0.
        3    1    3    3  502    0  0.21295686253E+03 -0.10776466418E+03 -0.79371563960E+03  0.82882348838E+03  0.10100000352E+00 0. -1.
       -3    1    3    3    0  502 -0.21295686253E+03  0.10776466418E+03 -0.14944238480E+04  0.15133626452E+04  0.10100000352E+00 0.  1.
</event>
<event>
 5   0  0.4989875E-03  0.5000568E+03  0.7818609E-02  0.1013764E+00
        2   -1    0    0  501    0  0.00000000000E+00  0.00000000000E+00  0.10604447847E+04  0.10604447847E+04  0.25500000920E-02 0. -1.
       -2   -1    0    0    0  501  0.00000000000E+00  0.00000000000E+00 -0.58950931855E+02  0.58950931910E+02  0.25500000920E-02 0.  1.
    10030    2    1    2    0    0  0.00000000000E+00  0.00000000000E+00  0.10014938528E+04  0.11193957166E+04  0.50005682985E+03 0.  0.
        2    1    3    3  502    0  0.16460204792E+03 -0.17195620722E+03  0.67198310995E+03  0.71289835983E+03  0.25500000920E-02 0. -1.
       -2    1    3    3    0  502 -0.16460204792E+03  0.17195620722E+03  0.32951074286E+03  0.40649735675E+03  0.25500000920E-02 0.  1.
</event>
<event>
 5   0  0.2863538E-03  0.4999317E+03  0.7818609E-02  0.1013797E+00
       -1   -1    0    0    0  501  0.00000000000E+00  0.00000000000E+00  0.53708016728E+02  0.53708016964E+02  0.50400001928E-02 0. -1.
        1   -1    0    0  501    0  0.00000000000E+00  0.00000000000E+00 -0.11633818854E+04  0.11633818854E+04  0.50400001928E-02 0.  1.
    10030    2    1    2    0    0  0.00000000000E+00  0.00000000000E+00 -0.11096738687E+04  0.12170899024E+04  0.49993173099E+03 0.  0.
        1    1    3    3  502    0  0.15665300145E+03 -0.13539329679E+03 -0.89576797633E+03  0.91938662983E+03  0.50400001928E-02 0.  1.
       -1    1    3    3    0  502 -0.15665300145E+03  0.13539329679E+03 -0.21390589236E+03  0.29770327256E+03  0.50400001928E-02 0. -1.
</event>
<event>
 5   0  0.4978779E-03  0.5014265E+03  0.7818609E-02  0.1013407E+00
        2   -1    0    0  501    0  0.00000000000E+00  0.00000000000E+00  0.37745036640E+03  0.37745036640E+03  0.25500000920E-02 0.  1.
       -2   -1    0    0    0  501  0.00000000000E+00  0.00000000000E+00 -0.16653086526E+03  0.16653086528E+03  0.25500000920E-02 0. -1.
    10030    2    1    2    0    0  0.00000000000E+00  0.00000000000E+00  0.21091950114E+03  0.54398123168E+03  0.50142650953E+03 0.  0.
        1    1    3    3  502    0  0.21177911742E+03 -0.43981486827E+02  0.24299581431E+03  0.32531789308E+03  0.50400001928E-02 0.  1.
       -1    1    3    3    0  502 -0.21177911742E+03  0.43981486827E+02 -0.32076313176E+02  0.21866333861E+03  0.50400001928E-02 0. -1.
</event>
<event>
 5   0  0.3013734E-03  0.5001043E+03  0.7818609E-02  0.1013752E+00
        1   -1    0    0  501    0  0.00000000000E+00  0.00000000000E+00  0.11732757516E+03  0.11732757527E+03  0.50400001928E-02 0.  1.
       -1   -1    0    0    0  501  0.00000000000E+00  0.00000000000E+00 -0.53291894989E+03  0.53291894992E+03  0.50400001928E-02 0. -1.
    10030    2    1    2    0    0  0.00000000000E+00  0.00000000000E+00 -0.41559137473E+03  0.65024652518E+03  0.50010434187E+03 0.  0.
        2    1    3    3  502    0 -0.73222983949E+02 -0.21380780772E+03 -0.34692976466E+03  0.41404787843E+03  0.25500000920E-02 0. -1.
       -2    1    3    3    0  502  0.73222983949E+02  0.21380780772E+03 -0.68661610078E+02  0.23619864675E+03  0.25500000920E-02 0.  1.
</event>
<event>
 5   0  0.4889251E-03  0.4974221E+03  0.7818609E-02  0.1014454E+00
        2   -1    0    0  501    0  0.00000000000E+00  0.00000000000E+00  0.22393584375E+03  0.22393584376E+03  0.25500000920E-02 0.  1.
       -2   -1    0    0    0  501  0.00000000000E+00  0.00000000000E+00 -0.27622728441E+03  0.27622728442E+03  0.25500000920E-02 0. -1.
    10030    2    1    2    0    0  0.00000000000E+00  0.00000000000E+00 -0.52291440658E+02  0.50016312818E+03  0.49742211453E+03 0.  0.
        5    1    3    3  502    0  0.23798673179E+03  0.18566021440E+02 -0.96191040704E+02  0.25740471629E+03  0.46999998093E+01 0. -1.
       -5    1    3    3    0  502 -0.23798673179E+03 -0.18566021440E+02  0.43899600046E+02  0.24275841189E+03  0.46999998093E+01 0.  1.
</event>
<event>
 5   0  0.2005125E-03  0.4997946E+03  0.7818609E-02  0.1013833E+00
       -4   -1    0    0    0  501  0.00000000000E+00  0.00000000000E+00  0.37451021461E+03  0.37451236795E+03  0.12699999809E+01 0.  1.
        4   -1    0    0  501    0  0.00000000000E+00  0.00000000000E+00 -0.16674248433E+03  0.16674732076E+03  0.12699999809E+01 0. -1.
    10030    2    1    2    0    0  0.00000000000E+00  0.00000000000E+00  0.20776773028E+03  0.54125968870E+03  0.49979457867E+03 0.  0.
        5    1    3    3  502    0 -0.10913734469E+03  0.20319256315E+03  0.20791828589E+03  0.31056445600E+03  0.46999998093E+01 0.  1.
       -5    1    3    3    0  502  0.10913734469E+03 -0.20319256315E+03 -0.15055560885E+00  0.23069523270E+03  0.46999998093E+01 0. -1.
</event>
<event>
 5   0  0.2863538E-03  0.4992773E+03  0.7818609E-02  0.1013968E+00
       -1   -1    0    0    0  501  0.00000000000E+00  0.00000000000E+00  0.14622432268E+03  0.14622432277E+03  0.50400001928E-02 0. -1.
        1   -1    0    0  501    0  0.00000000000E+00  0.00000000000E+00 -0.42619072195E+03  0.42619072198E+03  0.50400001928E-02 0.  1.
    10030    2    1    2    0    0  0.00000000000E+00  0.00000000000E+00 -0.27996639927E+03  0.57241504474E+03  0.49927727640E+03 0.  0.
        1    1    3    3  502    0  0.19568971013E+03 -0.13637902462E+03 -0.22443308702E+03  0.32751169686E+03  0.50400001928E-02 0.  1.
       -1    1    3    3    0  502 -0.19568971013E+03  0.13637902462E+03 -0.55533312251E+02  0.24490334788E+03  0.50400001928E-02 0. -1.
</event>
<event>
 5   0  0.3057783E-03  0.5000217E+03  0.7818609E-02  0.1013773E+00
       -1   -1    0    0    0  501  0.00000000000E+00  0.00000000000E+00  0.13604692574E+03  0.13604692583E+03  0.50400001928E-02 0. -1.
        1   -1    0    0  501    0  0.00000000000E+00  0.00000000000E+00 -0.45944014158E+03  0.45944014161E+03  0.50400001928E-02 0.  1.
    10030    2    1    2    0    0  0.00000000000E+00  0.00000000000E+00 -0.32339321584E+03  0.59548706744E+03  0.50002167496E+03 0.  0.
        5    1    3    3  502    0 -0.98932146963E+02  0.35234469545E+02 -0.43183997213E+03  0.44445122238E+03  0.46999998093E+01 0.  1.
       -5    1    3    3    0  502  0.98932146963E+02 -0.35234469545E+02  0.10844675628E+03  0.15103584506E+03  0.46999998093E+01 0. -1.
</event>
<event>
 5   0  0.4978779E-03  0.5000834E+03  0.7818609E-02  0.1013757E+00
        2   -1    0    0  501    0  0.00000000000E+00  0.00000000000E+00  0.38080245503E+03  0.38080245504E+03  0.25500000920E-02 0.  1.
       -2   -1    0    0    0  501  0.00000000000E+00  0.00000000000E+00 -0.16418183324E+03  0.16418183326E+03  0.25500000920E-02 0. -1.
    10030    2    1    2    0    0  0.00000000000E+00  0.00000000000E+00  0.21662062179E+03  0.54498428831E+03  0.50008337376E+03 0.  0.
        1    1    3    3  502    0  0.16353595488E+03  0.56409610399E+02  0.30506073456E+03  0.35069659890E+03  0.50400001928E-02 0.  1.
       -1    1    3    3    0  502 -0.16353595488E+03 -0.56409610399E+02 -0.88440112767E+02  0.19428768941E+03  0.50400001928E-02 0. -1.
</event>
<event>
 5   0  0.3055293E-03  0.4999306E+03  0.7818609E-02  0.1013797E+00
       -1   -1    0    0    0  501  0.00000000000E+00  0.00000000000E+00  0.20840446507E+03  0.20840446513E+03  0.50400001928E-02 0.  1.
        1   -1    0    0  501    0  0.00000000000E+00  0.00000000000E+00 -0.29981437093E+03  0.29981437098E+03  0.50400001928E-02 0. -1.
    10030    2    1    2    0    0  0.00000000000E+00  0.00000000000E+00 -0.91409905866E+02  0.50821883610E+03  0.49993060967E+03 0.  0.
        3    1    3    3  502    0 -0.86660940200E+02 -0.22211971376E+03  0.30608616903E+02  0.24038340922E+03  0.10100000352E+00 0.  1.
       -3    1    3    3    0  502  0.86660940200E+02  0.22211971376E+03 -0.12201852277E+03  0.26783542689E+03  0.10100000352E+00 0. -1.
</event>
<event>
 5   0  0.4989875E-03  0.5000865E+03  0.7818609E-02  0.1013756E+00
        2   -1    0    0  501    0  0.00000000000E+00  0.00000000000E+00  0.77981566034E+03  0.77981566035E+03  0.25500000920E-02 0.  1.
       -2   -1    0    0    0  501  0.00000000000E+00  0.00000000000E+00 -0.80174865816E+02  0.80174865857E+02  0.25500000920E-02 0. -1.
    10030    2    1    2    0    0  0.00000000000E+00  0.00000000000E+00  0.69964079453E+03  0.85999052620E+03  0.50008645632E+03 0.  0.
        2    1    3    3  502    0 -0.71359997212E+02 -0.11899757649E+03 -0.78942470413E+01  0.13897838521E+03  0.25500000920E-02 0. -1.
       -2    1    3    3    0  502  0.71359997212E+02  0.11899757649E+03  0.70753504157E+03  0.72101214100E+03  0.25500000920E-02 0.  1.
</event>
<event>
 5   0  0.3211775E-03  0.5001471E+03  0.7818609E-02  0.1013741E+00
        1   -1    0    0  501    0  0.00000000000E+00  0.00000000000E+00  0.10282904380E+03  0.10282904392E+03  0.50400001928E-02 0. -1.
       -1   -1    0    0    0  501  0.00000000000E+00  0.00000000000E+00 -0.60816255572E+03  0.60816255574E+03  0.50400001928E-02 0.  1.
    10030    2    1    2    0    0  0.00000000000E+00  0.00000000000E+00 -0.50533351192E+03  0.71099159967E+03  0.50014707490E+03 0.  0.
        4    1    3    3  502    0 -0.11982869261E+03 -0.15264167286E+02 -0.56393188946E+03  0.57672584407E+03  0.12699999809E+01 0.  1.
       -4    1    3    3    0  502  0.11982869261E+03  0.15264167286E+02  0.58598377534E+02  0.13426575560E+03  0.12699999809E+01 0. -1.
</event>
<event>
 5   0  0.3057783E-03  0.4998389E+03  0.7818609E-02  0.1013821E+00
       -1   -1    0    0    0  501  0.00000000000E+00  0.00000000000E+00  0.34398281443E+03  0.34398281447E+03  0.50400001928E-02 0. -1.
        1   -1    0    0  501    0  0.00000000000E+00  0.00000000000E+00 -0.18157805814E+03  0.18157805821E+03  0.50400001928E-02 0.  1.
    10030    2    1    2    0    0  0.00000000000E+00  0.00000000000E+00  0.16240475629E+03  0.52556087269E+03  0.49983890008E+03 0.  0.
        5    1    3    3  502    0 -0.11473587458E+03 -0.37729987171E+02 -0.14880030063E+03  0.19170678734E+03  0.46999998093E+01 0.  1.
       -5    1    3    3    0  502  0.11473587458E+03  0.37729987171E+02  0.31120505692E+03  0.33385408534E+03  0.46999998093E+01 0. -1.
</event>
<event>
 5   0  0.4889251E-03  0.5000799E+03  0.7818609E-02  0.1013758E+00
       -2   -1    0    0    0  501  0.00000000000E+00  0.00000000000E+00  0.17090996687E+03  0.17090996689E+03  0.25500000920E-02 0. -1.
        2   -1    0    0  501    0  0.00000000000E+00  0.00000000000E+00 -0.36580648230E+03  0.36580648231E+03  0.25500000920E-02 0.  1.
    10030    2    1    2    0    0  0.00000000000E+00  0.00000000000E+00 -0.19489651542E+03  0.53671644920E+03  0.50007988874E+03 0.  0.
        5    1    3    3  502    0 -0.10591658949E+03 -0.20187375363E+03 -0.20756376721E+03  0.30834419695E+03  0.46999998093E+01 0.  1.
       -5    1    3    3    0  502  0.10591658949E+03  0.20187375363E+03  0.12667251793E+02  0.22837225225E+03  0.46999998093E+01 0. -1.
</event>
<event>
 5   0  0.3057783E-03  0.4999799E+03  0.7818609E-02  0.1013784E+00
       -1   -1    0    0    0  501  0.00000000000E+00  0.00000000000E+00  0.37438601057E+03  0.37438601061E+03  0.50400001928E-02 0. -1.
        1   -1    0    0  501    0  0.00000000000E+00  0.00000000000E+00 -0.16692656188E+03  0.16692656195E+03  0.50400001928E-02 0.  1.
    10030    2    1    2    0    0  0.00000000000E+00  0.00000000000E+00  0.20745944869E+03  0.54131257256E+03  0.49997987796E+03 0.  0.
        5    1    3    3  502    0 -0.39196983438E+02  0.16205564839E+03  0.30533427650E+03  0.34792175426E+03  0.46999998093E+01 0. -1.
       -5    1    3    3    0  502  0.39196983438E+02 -0.16205564839E+03 -0.97874827804E+02  0.19339081830E+03  0.46999998093E+01 0.  1.
</event>
<event>
 5   0  0.2005125E-03  0.4999903E+03  0.7818609E-02  0.1013781E+00
       -4   -1    0    0    0  501  0.00000000000E+00  0.00000000000E+00  0.26209756096E+03  0.26210063785E+03  0.12699999809E+01 0. -1.
        4   -1    0    0  501    0  0.00000000000E+00  0.00000000000E+00 -0.23844537812E+03  0.23844876022E+03  0.12699999809E+01 0.  1.
    10030    2    1    2    0    0  0.00000000000E+00  0.00000000000E+00  0.23652182839E+02  0.50054939807E+03  0.49999027406E+03 0.  0.
        3    1    3    3  502    0  0.22430288942E+03  0.28166492589E+02 -0.95028551333E+02  0.24522555592E+03  0.10100000352E+00 0.  1.
       -3    1    3    3    0  502 -0.22430288942E+03 -0.28166492589E+02  0.11868073417E+03  0.25532384215E+03  0.10100000352E+00 0. -1.
</event>
<event>
 5   0  0.4978779E-03  0.4998954E+03  0.7818609E-02  0.1013806E+00
       -2   -1    0    0    0  501  0.00000000000E+00  0.00000000000E+00  0.31856256412E+02  0.31856256514E+02  0.25500000920E-02 0.  1.
        2   -1    0    0  501    0  0.00000000000E+00  0.00000000000E+00 -0.19611168722E+04  0.19611168722E+04  0.25500000920E-02 0. -1.
    10030    2    1    2    0    0  0.00000000000E+00  0.00000000000E+00 -0.19292606158E+04  0.19929731287E+04  0.49989535720E+03 0.  0.
        1    1    3    3  502    0  0.16854953571E+03  0.39598290148E+02 -0.16833228134E+04  0.16922034939E+04  0.50400001928E-02 0. -1.
       -1    1    3    3    0  502 -0.16854953571E+03 -0.39598290148E+02 -0.24593780241E+03  0.30076963485E+03  0.50400001928E-02 0.  1.
</event>
<event>
 5   0  0.3211775E-03  0.5000318E+03  0.7818609E-02  0.1013771E+00
       -1   -1    0    0    0  501  0.00000000000E+00  0.00000000000E+00  0.58465553734E+02  0.58465553952E+02  0.50400001928E-02 0.  1.
        1   -1    0    0  501    0  0.00000000000E+00  0.00000000000E+00 -0.10691416594E+04  0.10691416594E+04  0.50400001928E-02 0. -1.
    10030    2    1    2    0    0  0.00000000000E+00  0.00000000000E+00 -0.10106761057E+04  0.11276072134E+04  0.50003183605E+03 0.  0.
        4    1    3    3  502    0 -0.11424397341E+03 -0.24487491568E+02 -0.10037802520E+04  0.10105581279E+04  0.12699999809E+01 0. -1.
       -4    1    3    3    0  502  0.11424397341E+03  0.24487491568E+02 -0.68958536559E+01  0.11704908543E+03  0.12699999809E+01 0.  1.
</event>
<event>
 5   0  0.4978779E-03  0.5016304E+03  0.7818609E-02  0.1013354E+00
       -2   -1    0    0    0  501  0.00000000000E+00  0.00000000000E+00  0.51693780643E+02  0.51693780706E+02  0.25500000920E-02 0. -1.
        2   -1    0    0  501    0  0.00000000000E+00  0.00000000000E+00 -0.12169406404E+04  0.12169406404E+04  0.25500000920E-02 0.  1.
    10030    2    1    2    0    0  0.00000000000E+00  0.00000000000E+00 -0.11652468598E+04  0.12686344211E+04  0.50163039208E+03 0.  0.
        1    1    3    3  502    0 -0.11118037216E+03 -0.71454411109E+02 -0.43511724260E+02  0.13914049804E+03  0.50400001928E-02 0. -1.
       -1    1    3    3    0  502  0.11118037216E+03  0.71454411109E+02 -0.11217351355E+04  0.11294939231E+04  0.50400001928E-02 0.  1.
</event>
<event>
 5   0  0.4978779E-03  0.5003215E+03  0.7818609E-02  0.1013695E+00
        2   -1    0    0  501    0  0.00000000000E+00  0.00000000000E+00  0.67585577606E+03  0.67585577606E+03  0.25500000920E-02 0. -1.
       -2   -1    0    0    0  501  0.00000000000E+00  0.00000000000E+00 -0.92594318699E+02  0.92594318735E+02  0.25500000920E-02 0.  1.
    10030    2    1    2    0    0  0.00000000000E+00  0.00000000000E+00  0.58326145736E+03  0.76845009480E+03  0.50032151718E+03 0.  0.
        1    1    3    3  502    0 -0.22213733687E+03 -0.94549545681E+02  0.39229795782E+03  0.46063250076E+03  0.50400001928E-02 0.  1.
       -1    1    3    3    0  502  0.22213733687E+03  0.94549545681E+02  0.19096349953E+03  0.30781759404E+03  0.50400001928E-02 0. -1.
</event>
<event>
 5   0  0.3211775E-03  0.4995815E+03  0.7818609E-02  0.1013888E+00
        1   -1    0    0  501    0  0.00000000000E+00  0.00000000000E+00  0.24820590730E+03  0.24820590735E+03  0.50400001928E-02 0.  1.
       -1   -1    0    0    0  501  0.00000000000E+00  0.00000000000E+00 -0.25138568449E+03  0.25138568454E+03  0.50400001928E-02 0. -1.
    10030    2    1    2    0    0  0.00000000000E+00  0.00000000000E+00 -0.31797771937E+01  0.49959159189E+03  0.49958147254E+03 0.  0.
        4    1    3    3  502    0  0.16766624515E+03  0.13787688274E+03  0.12199171665E+03  0.24900922952E+03  0.12699999809E+01 0.  1.
       -4    1    3    3    0  502 -0.16766624515E+03 -0.13787688274E+03 -0.12517149385E+03  0.25058236236E+03  0.12699999809E+01 0. -1.
</event>
<event>
 5   0  0.3055293E-03  0.4998517E+03  0.7818609E-02  0.1013818E+00
       -1   -1    0    0    0  501  0.00000000000E+00  0.00000000000E+00  0.37925619622E+03  0.37925619625E+03  0.50400001928E-02 0.  1.
        1   -1    0    0  501    0  0.00000000000E+00  0.00000000000E+00 -0.16469853244E+03  0.16469853252E+03  0.50400001928E-02 0. -1.
    10030    2    1    2    0    0  0.00000000000E+00  0.00000000000E+00  0.21455766378E+03  0.54395472877E+03  0.49985173388E+03 0.  0.
        3    1    3    3  502    0  0.21569745505E+03  0.53121591266E+02 -0.17349328561E+02  0.22281899599E+03  0.10100000352E+00 0.  1.
       -3    1    3    3    0  502 -0.21569745505E+03 -0.53121591266E+02  0.23190699234E+03  0.32113573278E+03  0.10100000352E+00 0. -1.
</event>
<event>
 5   0  0.2005125E-03  0.5002111E+03  0.7818609E-02  0.1013724E+00
       -3   -1    0    0    0  501  0.00000000000E+00  0.00000000000E+00  0.32449608752E+03  0.32449610324E+03  0.10100000352E+00 0. -1.
        3   -1    0    0  501    0  0.00000000000E+00  0.00000000000E+00 -0.19276895621E+03  0.19276898266E+03  0.10100000352E+00 0.  1.
    10030    2    1    2    0    0  0.00000000000E+00  0.00000000000E+00  0.13172713131E+03  0.51726508590E+03  0.50021108741E+03 0.  0.
        4    1    3    3  502    0  0.10546619890E+03 -0.39500469668E+02 -0.16506082110E+03  0.19982515802E+03  0.12699999809E+01 0.  1.
       -4    1    3    3    0  502 -0.10546619890E+03  0.39500469668E+02  0.29678795241E+03  0.31743992788E+03  0.12699999809E+01 0. -1.
</event>
<event>
 5   0  0.5095783E-03  0.5003017E+03  0.7818609E-02  0.1013700E+00
        2   -1    0    0  501    0  0.00000000000E+00  0.00000000000E+00  0.30109859816E+03  0.30109859817E+03  0.25500000920E-02 0.  1.
       -2   -1    0    0    0  501  0.00000000000E+00  0.00000000000E+00 -0.20782374023E+03  0.20782374025E+03  0.25500000920E-02 0. -1.
    10030    2    1    2    0    0  0.00000000000E+00  0.00000000000E+00  0.93274857923E+02  0.50892233841E+03  0.50030165642E+03 0.  0.
        4    1    3    3  502    0 -0.51313411720E+02 -0.22893965166E+03 -0.41618092804E+02  0.23828577145E+03  0.12699999809E+01 0. -1.
       -4    1    3    3    0  502  0.51313411720E+02  0.22893965166E+03  0.13489295073E+03  0.27063656697E+03  0.12699999809E+01 0.  1.
</event>
<event>
 5   0  0.3211775E-03  0.5001079E+03  0.7818609E-02  0.1013751E+00
        1   -1    0    0  501    0  0.00000000000E+00  0.00000000000E+00  0.40186339609E+03  0.40186339612E+03  0.50400001928E-02 0.  1.
       -1   -1    0    0    0  501  0.00000000000E+00  0.00000000000E+00 -0.15559258795E+03  0.15559258803E+03  0.50400001928E-02 0. -1.
    10030    2    1    2    0    0  0.00000000000E+00  0.00000000000E+00  0.24627080814E+03  0.55745598415E+03  0.50010785169E+03 0.  0.
        4    1    3    3  502    0  0.52848773801E+02  0.47034014328E+02 -0.14420029534E+03  0.16062543221E+03  0.12699999809E+01 0. -1.
       -4    1    3    3    0  502 -0.52848773801E+02 -0.47034014328E+02  0.39047110348E+03  0.39683055194E+03  0.12699999809E+01 0.  1.
</event>
<event>
 5   0  0.2863538E-03  0.4999539E+03  0.7818609E-02  0.1013791E+00
       -1   -1    0    0    0  501  0.00000000000E+00  0.00000000000E+00  0.37738188283E+02  0.37738188620E+02  0.50400001928E-02 0. -1.
        1   -1    0    0  501    0  0.00000000000E+00  0.00000000000E+00 -0.16558420363E+04  0.16558420363E+04  0.50400001928E-02 0.  1.
    10030    2    1    2    0    0  0.00000000000E+00  0.00000000000E+00 -0.16181038480E+04  0.16935802249E+04  0.49995391317E+03 0.  0.
        1    1    3    3  502    0 -0.18407766649E+03  0.12857467495E+03 -0.43685445971E+03  0.49118006202E+03  0.50400001928E-02 0. -1.
       -1    1    3    3    0  502  0.18407766649E+03 -0.12857467495E+03 -0.11812493883E+04  0.12024001629E+04  0.50400001928E-02 0.  1.
</event>
<event>
 5   0  0.3057783E-03  0.4990418E+03  0.7818609E-02  0.1014029E+00
       -1   -1    0    0    0  501  0.00000000000E+00  0.00000000000E+00  0.11585373112E+03  0.11585373122E+03  0.50400001928E-02 0.  1.
        1   -1    0    0  501    0  0.00000000000E+00  0.00000000000E+00 -0.53740771947E+03  0.53740771950E+03  0.50400001928E-02 0. -1.
    10030    2    1    2    0    0  0.00000000000E+00  0.00000000000E+00 -0.42155398836E+03  0.65326145072E+03  0.49904183983E+03 0.  0.
        5    1    3    3  502    0  0.28997568837E+01  0.30465789631E+02  0.11332931735E+03  0.11748275233E+03  0.46999998093E+01 0.  1.
       -5    1    3    3    0  502 -0.28997568837E+01 -0.30465789631E+02 -0.53488330570E+03  0.53577869839E+03  0.46999998093E+01 0. -1.
</event>
<event>
 5   0  0.5095783E-03  0.4995808E+03  0.7818609E-02  0.1013888E+00
        2   -1    0    0  501    0  0.00000000000E+00  0.00000000000E+00  0.62723065527E+02  0.62723065579E+02  0.25500000920E-02 0.  1.
       -2   -1    0    0    0  501  0.00000000000E+00  0.00000000000E+00 -0.99477333153E+03  0.99477333153E+03  0.25500000920E-02 0. -1.
    10030    2    1    2    0    0  0.00000000000E+00  0.00000000000E+00 -0.93205026600E+03  0.10574963971E+04  0.49958075578E+03 0.  0.
        4    1    3    3  502    0  0.26077615547E+02  0.24756012044E+03 -0.42225537687E+03  0.49017065545E+03  0.12699999809E+01 0. -1.
       -4    1    3    3    0  502 -0.26077615547E+02 -0.24756012044E+03 -0.50979488913E+03  0.56732574166E+03  0.12699999809E+01 0.  1.
</event>
<event>
 5   0  0.4989875E-03  0.5004161E+03  0.7818609E-02  0.1013670E+00
       -2   -1    0    0    0  501  0.00000000000E+00  0.00000000000E+00  0.34332351462E+03  0.34332351463E+03  0.25500000920E-02 0. -1.
        2   -1    0    0  501    0  0.00000000000E+00  0.00000000000E+00 -0.18234713425E+03  0.18234713427E+03  0.25500000920E-02 0.  1.
    10030    2    1    2    0    0  0.00000000000E+00  0.00000000000E+00  0.16097638037E+03  0.52567064890E+03  0.50041606297E+03 0.  0.
        2    1    3    3  502    0  0.24012724068E+03  0.50616360729E+02  0.13174572856E+03  0.27853194554E+03  0.25500000920E-02 0.  1.
       -2    1    3    3    0  502 -0.24012724068E+03 -0.50616360729E+02  0.29230651815E+02  0.24713870336E+03  0.25500000920E-02 0. -1.
</event>
<event>
 5   0  0.3057783E-03  0.4998100E+03  0.7818609E-02  0.1013829E+00
        1   -1    0    0  501    0  0.00000000000E+00  0.00000000000E+00  0.14938855581E+03  0.14938855589E+03  0.50400001928E-02 0.  1.
       -1   -1    0    0    0  501  0.00000000000E+00  0.00000000000E+00 -0.41805410983E+03  0.41805410986E+03  0.50400001928E-02 0. -1.
    10030    2    1    2    0    0  0.00000000000E+00  0.00000000000E+00 -0.26866555402E+03  0.56744266575E+03  0.49980996288E+03 0.  0.
        5    1    3    3  502    0 -0.25761991173E+02 -0.18599779940E+03  0.52810517426E+02  0.19511510018E+03  0.46999998093E+01 0.  1.
       -5    1    3    3    0  502  0.25761991173E+02  0.18599779940E+03 -0.32147607145E+03  0.37232756557E+03  0.46999998093E+01 0. -1.
</event>
<event>
 5   0  0.2863538E-03  0.4997349E+03  0.7818609E-02  0.1013848E+00
       -1   -1    0    0    0  501  0.00000000000E+00  0.00000000000E+00  0.16178408706E+03  0.16178408713E+03  0.50400001928E-02 0.  1.
        1   -1    0    0  501    0  0.00000000000E+00  0.00000000000E+00 -0.38590788231E+03  0.38590788235E+03  0.50400001928E-02 0. -1.
    10030    2    1    2    0    0  0.00000000000E+00  0.00000000000E+00 -0.22412379526E+03  0.54769196948E+03  0.49973494758E+03 0.  0.
        1    1    3    3  502    0  0.93241020785E+02  0.19900156226E+03 -0.24237689463E+03  0.32717284242E+03  0.50400001928E-02 0. -1.
       -1    1    3    3    0  502 -0.93241020785E+02 -0.19900156226E+03  0.18253099367E+02  0.22051912707E+03  0.50400001928E-02 0.  1.
</event>
<event>
 5   0  0.5118882E-03  0.5002831E+03  0.7818609E-02  0.1013705E+00
       -2   -1    0    0    0  501  0.00000000000E+00  0.00000000000E+00  0.33899360817E+02  0.33899360913E+02  0.25500000920E-02 0. -1.
        2   -1    0    0  501    0  0.00000000000E+00  0.00000000000E+00 -0.18457808159E+04  0.18457808159E+04  0.25500000920E-02 0.  1.
    10030    2    1    2    0    0  0.00000000000E+00  0.00000000000E+00 -0.18118814551E+04  0.18796801768E+04  0.50028307970E+03 0.  0.
        3    1    3    3  502    0  0.23879143417E+03  0.33586058335E+02 -0.11557729285E+04  0.11806610203E+04  0.10100000352E+00 0. -1.
       -3    1    3    3    0  502 -0.23879143417E+03 -0.33586058335E+02 -0.65610852651E+03  0.69901915647E+03  0.10100000352E+00 0.  1.
</event>
<event>
 5   0  0.5095783E-03  0.4999489E+03  0.7818609E-02  0.1013792E+00
        2   -1    0    0  501    0  0.00000000000E+00  0.00000000000E+00  0.29863448600E+03  0.29863448601E+03  0.25500000920E-02 0.  1.
       -2   -1    0    0    0  501  0.00000000000E+00  0.00000000000E+00 -0.20924319838E+03  0.20924319840E+03  0.25500000920E-02 0. -1.
    10030    2    1    2    0    0  0.00000000000E+00  0.00000000000E+00  0.89391287618E+02  0.50787768441E+03  0.49994893741E+03 0.  0.
        4    1    3    3  502    0 -0.15427022988E+03  0.19606656166E+03  0.60571076988E+02  0.25673306896E+03  0.12699999809E+01 0.  1.
       -4    1    3    3    0  502  0.15427022988E+03 -0.19606656166E+03  0.28820210630E+02  0.25114461545E+03  0.12699999809E+01 0. -1.
</event>
<event>
 5   0  0.5095783E-03  0.5000776E+03  0.7818609E-02  0.1013759E+00
       -2   -1    0    0    0  501  0.00000000000E+00  0.00000000000E+00  0.70554312641E+02  0.70554312687E+02  0.25500000920E-02 0.  1.
        2   -1    0    0  501    0  0.00000000000E+00  0.00000000000E+00 -0.88611744930E+03  0.88611744930E+03  0.25500000920E-02 0. -1.
    10030    2    1    2    0    0  0.00000000000E+00  0.00000000000E+00 -0.81556313665E+03  0.95667176199E+03  0.50007762429E+03 0.  0.
        4    1    3    3  502    0 -0.19362794840E+03 -0.13657107289E+03 -0.56051834907E+03  0.60854405994E+03  0.12699999809E+01 0. -1.
       -4    1    3    3    0  502  0.19362794840E+03  0.13657107289E+03 -0.25504478759E+03  0.34812770204E+03  0.12699999809E+01 0.  1.
</event>
<event>
 5   0  0.3055293E-03  0.5000716E+03  0.7818609E-02  0.1013760E+00
       -1   -1    0    0    0  501  0.00000000000E+00  0.00000000000E+00  0.12455557553E+03  0.12455557563E+03  0.50400001928E-02 0.  1.
        1   -1    0    0  501    0  0.00000000000E+00  0.00000000000E+00 -0.50192767005E+03  0.50192767007E+03  0.50400001928E-02 0. -1.
    10030    2    1    2    0    0  0.00000000000E+00  0.00000000000E+00 -0.37737209452E+03  0.62648324570E+03  0.50007155430E+03 0.  0.
        3    1    3    3  502    0  0.17414012040E+03 -0.55070513245E+02  0.25244881635E+02  0.18437694327E+03  0.10100000352E+00 0.  1.
       -3    1    3    3    0  502 -0.17414012040E+03  0.55070513245E+02 -0.40261697615E+03  0.44210630243E+03  0.10100000352E+00 0. -1.
</event>
<event>
 5   0  0.3055293E-03  0.5001020E+03  0.7818609E-02  0.1013752E+00
       -1   -1    0    0    0  501  0.00000000000E+00  0.00000000000E+00  0.47780795458E+02  0.47780795724E+02  0.50400001928E-02 0. -1.
        1   -1    0    0  501    0  0.00000000000E+00  0.00000000000E+00 -0.13085905514E+04  0.13085905514E+04  0.50400001928E-02 0.  1.
    10030    2    1    2    0    0  0.00000000000E+00  0.00000000000E+00 -0.12608097559E+04  0.13563713471E+04  0.50010198024E+03 0.  0.
        3    1    3    3  502    0  0.23663087659E+03 -0.41624891358E+02 -0.81828512145E+03  0.85282902948E+03  0.10100000352E+00 0.  1.
       -3    1    3    3    0  502 -0.23663087659E+03  0.41624891358E+02 -0.44252463448E+03  0.50354231764E+03  0.10100000352E+00 0. -1.
</event>
<event>
 5   0  0.2863538E-03  0.5000381E+03  0.7818609E-02  0.1013769E+00
        1   -1    0    0  501    0  0.00000000000E+00  0.00000000000E+00  0.19609559334E+03  0.19609559341E+03  0.50400001928E-02 0. -1.
       -1   -1    0    0    0  501  0.00000000000E+00  0.00000000000E+00 -0.31877072307E+03  0.31877072311E+03  0.50400001928E-02 0.  1.
    10030    2    1    2    0    0  0.00000000000E+00  0.00000000000E+00 -0.12267512972E+03  0.51486631652E+03  0.50003813497E+03 0.  0.
        1    1    3    3  502    0 -0.14542957251E+03  0.16310577614E+03 -0.18641523626E+03  0.28723491276E+03  0.50400001928E-02 0.  1.
       -1    1    3    3    0  502  0.14542957251E+03 -0.16310577614E+03  0.63740106532E+02  0.22763140376E+03  0.50400001928E-02 0. -1.
</event>
<event>
 5   0  0.2005125E-03  0.4999622E+03  0.7818609E-02  0.1013789E+00
        4   -1    0    0  501    0  0.00000000000E+00  0.00000000000E+00  0.16301440194E+03  0.16301934898E+03  0.12699999809E+01 0.  1.
       -4   -1    0    0    0  501  0.00000000000E+00  0.00000000000E+00 -0.38333196188E+03  0.38333406567E+03  0.12699999809E+01 0. -1.
    10030    2    1    2    0    0  0.00000000000E+00  0.00000000000E+00 -0.22031755994E+03  0.54635341464E+03  0.49996222505E+03 0.  0.
        3    1    3    3  502    0  0.53578033275E+01 -0.15130651169E+03 -0.32753373552E+03  0.36083337518E+03  0.10100000352E+00 0. -1.
       -3    1    3    3    0  502 -0.53578033275E+01  0.15130651169E+03  0.10721617558E+03  0.18552003947E+03  0.10100000352E+00 0.  1.
</event>
<event>
 5   0  0.5118882E-03  0.4999872E+03  0.7818609E-02  0.1013782E+00
        2   -1    0    0  501    0  0.00000000000E+00  0.00000000000E+00  0.53867267545E+03  0.53867267545E+03  0.25500000920E-02 0. -1.
       -2   -1    0    0    0  501  0.00000000000E+00  0.00000000000E+00 -0.11602000460E+03  0.11602000463E+03  0.25500000920E-02 0.  1.
    10030    2    1    2    0    0  0.00000000000E+00  0.00000000000E+00  0.42265267085E+03  0.65469268008E+03  0.49998722501E+03 0.  0.
        3    1    3    3  502    0  0.24891358062E+03 -0.21791067005E+02  0.22179962937E+03  0.33410762788E+03  0.10100000352E+00 0.  1.
       -3    1    3    3    0  502 -0.24891358062E+03  0.21791067005E+02  0.20085304148E+03  0.32058505220E+03  0.10100000352E+00 0. -1.
</event>
<event>
 5   0  0.5118882E-03  0.4999206E+03  0.7818609E-02  0.1013800E+00
       -2   -1    0    0    0  501  0.00000000000E+00  0.00000000000E+00  0.10503681432E+03  0.10503681435E+03  0.25500000920E-02 0.  1.
        2   -1    0    0  501    0  0.00000000000E+00  0.00000000000E+00 -0.59484051860E+03  0.59484051860E+03  0.25500000920E-02 0. -1.
    10030    2    1    2    0    0  0.00000000000E+00  0.00000000000E+00 -0.48980370428E+03  0.69987733295E+03  0.49992060615E+03 0.  0.
        3    1    3    3  502    0  0.14452799504E+03  0.16082704787E+03 -0.42046623255E+03  0.47280603168E+03  0.10100000352E+00 0. -1.
       -3    1    3    3    0  502 -0.14452799504E+03 -0.16082704787E+03 -0.69337471725E+02  0.22707130127E+03  0.10100000352E+00 0.  1.
</event>
<event>
 5   0  0.2005125E-03  0.4997173E+03  0.7818609E-02  0.1013853E+00
        3   -1    0    0  501    0  0.00000000000E+00  0.00000000000E+00  0.26446263362E+03  0.26446265291E+03  0.10100000352E+00 0.  1.
       -3   -1    0    0    0  501  0.00000000000E+00  0.00000000000E+00 -0.23606107998E+03  0.23606110159E+03  0.10100000352E+00 0. -1.
    10030    2    1    2    0    0  0.00000000000E+00  0.00000000000E+00  0.28401553635E+02  0.50052375450E+03  0.49971730065E+03 0.  0.
        1    1    3    3  502    0 -0.12234352911E+03 -0.19705103177E+03  0.10726087199E+03  0.25554244837E+03  0.50400001928E-02 0. -1.
       -1    1    3    3    0  502  0.12234352911E+03  0.19705103177E+03 -0.78859318350E+02  0.24498130613E+03  0.50400001928E-02 0.  1.
</event>
<event>
 5   0  0.3055293E-03  0.5000458E+03  0.7818609E-02  0.1013767E+00
       -1   -1    0    0    0  501  0.00000000000E+00  0.00000000000E+00  0.59288942812E+02  0.59288943026E+02  0.50400001928E-02 0.  1.
        1   -1    0    0  501    0  0.00000000000E+00  0.00000000000E+00 -0.10543526887E+04  0.10543526887E+04  0.50400001928E-02 0. -1.
    10030    2    1    2    0    0  0.00000000000E+00  0.00000000000E+00 -0.99506374589E+03  0.11136416317E+04  0.50004582346E+03 0.  0.
        3    1    3    3  502    0  0.23472720765E+03 -0.65522652217E+02 -0.37310676765E+03  0.44564419690E+03  0.10100000352E+00 0. -1.
       -3    1    3    3    0  502 -0.23472720765E+03  0.65522652217E+02 -0.62195697824E+03  0.66799743483E+03  0.10100000352E+00 0.  1.
</event>
<event>
 5   0  0.4989875E-03  0.5000952E+03  0.7818609E-02  0.1013754E+00
       -2   -1    0    0    0  501  0.00000000000E+00  0.00000000000E+00  0.62938426912E+02  0.62938426964E+02  0.25500000920E-02 0. -1.
        2   -1    0    0  501    0  0.00000000000E+00  0.00000000000E+00 -0.99341211165E+03  0.99341211166E+03  0.25500000920E-02 0.  1.
    10030    2    1    2    0    0  0.00000000000E+00  0.00000000000E+00 -0.93047368474E+03  0.10563505386E+04  0.50009517339E+03 0.  0.
        2    1    3    3  502    0 -0.21520515323E+03 -0.10163998501E+03 -0.30326535949E+03  0.38550463396E+03  0.25500000920E-02 0. -1.
       -2    1    3    3    0  502  0.21520515323E+03  0.10163998501E+03 -0.62720832525E+03  0.67084590466E+03  0.25500000920E-02 0.  1.
</event>
<event>
 5   0  0.4978779E-03  0.5000666E+03  0.7818609E-02  0.1013762E+00
       -2   -1    0    0    0  501  0.00000000000E+00  0.00000000000E+00  0.13983609344E+03  0.13983609347E+03  0.25500000920E-02 0. -1.
        2   -1    0    0  501    0  0.00000000000E+00  0.00000000000E+00 -0.44707084379E+03  0.44707084379E+03  0.25500000920E-02 0.  1.
    10030    2    1    2    0    0  0.00000000000E+00  0.00000000000E+00 -0.30723475034E+03  0.58690693726E+03  0.50006655676E+03 0.  0.
        1    1    3    3  502    0 -0.24041802991E+02 -0.76544572006E+02 -0.43155269016E+03  0.43894738204E+03  0.50400001928E-02 0.  1.
       -1    1    3    3    0  502  0.24041802991E+02  0.76544572006E+02  0.12431793982E+03  0.14795955522E+03  0.50400001928E-02 0. -1.
</event>
<event>
 5   0  0.5095783E-03  0.4998412E+03  0.7818609E-02  0.1013820E+00
        2   -1    0    0  501    0  0.00000000000E+00  0.00000000000E+00  0.90276755404E+02  0.90276755440E+02  0.25500000920E-02 0.  1.
       -2   -1    0    0    0  501  0.00000000000E+00  0.00000000000E+00 -0.69187578908E+03  0.69187578908E+03  0.25500000920E-02 0. -1.
    10030    2    1    2    0    0  0.00000000000E+00  0.00000000000E+00 -0.60159903367E+03  0.78215254452E+03  0.49984118036E+03 0.  0.
        4    1    3    3  502    0  0.44772810615E+02  0.11491402406E+03 -0.64093743946E+03  0.65269614041E+03  0.12699999809E+01 0. -1.
       -4    1    3    3    0  502 -0.44772810615E+02 -0.11491402406E+03  0.39338405793E+02  0.12945640411E+03  0.12699999809E+01 0.  1.
</event>
<event>
 5   0  0.2005125E-03  0.5000444E+03  0.7818609E-02  0.1013767E+00
       -3   -1    0    0    0  501  0.00000000000E+00  0.00000000000E+00  0.32891071232E+03  0.32891072783E+03  0.10100000352E+00 0. -1.
        3   -1    0    0  501    0  0.00000000000E+00  0.00000000000E+00 -0.19005485747E+03  0.19005488431E+03  0.10100000352E+00 0.  1.
    10030    2    1    2    0    0  0.00000000000E+00  0.00000000000E+00  0.13885585485E+03  0.51896561214E+03  0.50004435619E+03 0.  0.
        1    1    3    3  502    0  0.10065406542E+03 -0.84736076477E+02 -0.15121883944E+03  0.20044595523E+03  0.50400001928E-02 0.  1.
       -1    1    3    3    0  502 -0.10065406542E+03  0.84736076477E+02  0.29007469429E+03  0.31851965690E+03  0.50400001928E-02 0. -1.
</event>
<event>
 5   0  0.3057783E-03  0.5000906E+03  0.7818609E-02  0.1013755E+00
       -1   -1    0    0    0  501  0.00000000000E+00  0.00000000000E+00  0.28935350750E+02  0.28935351189E+02  0.50400001928E-02 0.  1.
        1   -1    0    0  501    0  0.00000000000E+00  0.00000000000E+00 -0.21607704167E+04  0.21607704167E+04  0.50400001928E-02 0. -1.
    10030    2    1    2    0    0  0.00000000000E+00  0.00000000000E+00 -0.21318350659E+04  0.21897057679E+04  0.50009059333E+03 0.  0.
        5    1    3    3  502    0  0.92991344309E+02 -0.19967608476E+02 -0.20782637630E+04  0.20804442925E+04  0.46999998093E+01 0. -1.
       -5    1    3    3    0  502 -0.92991344309E+02  0.19967608476E+02 -0.53571302879E+02  0.10926147535E+03  0.46999998093E+01 0.  1.
</event>
<event>
 5   0  0.4978779E-03  0.5002638E+03  0.7818609E-02  0.1013710E+00
       -2   -1    0    0    0  501  0.00000000000E+00  0.00000000000E+00  0.57058794206E+02  0.57058794263E+02  0.25500000920E-02 0.  1.
        2   -1    0    0  501    0  0.00000000000E+00  0.00000000000E+00 -0.10965173210E+04  0.10965173210E+04  0.25500000920E-02 0. -1.
    10030    2    1    2    0    0  0.00000000000E+00  0.00000000000E+00 -0.10394585268E+04  0.11535761153E+04  0.50026375522E+03 0.  0.
        1    1    3    3  502    0 -0.12778568170E+03 -0.16522314200E+03 -0.20239622205E+03  0.29084720700E+03  0.50400001928E-02 0.  1.
       -1    1    3    3    0  502  0.12778568170E+03  0.16522314200E+03 -0.83706230474E+03  0.86272890826E+03  0.50400001928E-02 0. -1.
</event>
<event>
 5   0  0.4889251E-03  0.5000091E+03  0.7818609E-02  0.1013777E+00
       -2   -1    0    0    0  501  0.00000000000E+00  0.00000000000E+00  0.10005451423E+03  0.10005451426E+03  0.25500000920E-02 0. -1.
        2   -1    0    0  501    0  0.00000000000E+00  0.00000000000E+00 -0.62468213153E+03  0.62468213153E+03  0.25500000920E-02 0.  1.
    10030    2    1    2    0    0  0.00000000000E+00  0.00000000000E+00 -0.52462761730E+03  0.72473664579E+03  0.50000906883E+03 0.  0.
        5    1    3    3  502    0 -0.11355041280E+03 -0.30160623097E+02  0.57475124198E+02  0.13087719180E+03  0.46999998093E+01 0. -1.
       -5    1    3    3    0  502  0.11355041280E+03  0.30160623097E+02 -0.58210274150E+03  0.59385945399E+03  0.46999998093E+01 0.  1.
</event>
<event>
 5   0  0.3211775E-03  0.5008962E+03  0.7818609E-02  0.1013545E+00
        1   -1    0    0  501    0  0.00000000000E+00  0.00000000000E+00  0.50837861524E+03  0.50837861526E+03  0.50400001928E-02 0. -1.
       -1   -1    0    0    0  501  0.00000000000E+00  0.00000000000E+00 -0.12338099668E+03  0.12338099678E+03  0.50400001928E-02 0.  1.
    10030    2    1    2    0    0  0.00000000000E+00  0.00000000000E+00  0.38499761856E+03  0.63175961204E+03  0.50089623787E+03 0.  0.
        4    1    3    3  502    0  0.72919333469E+02 -0.29236730730E+02 -0.10743320146E+03  0.13309966677E+03  0.12699999809E+01 0.  1.
       -4    1    3    3    0  502 -0.72919333469E+02  0.29236730730E+02  0.49243082002E+03  0.49865994527E+03  0.12699999809E+01 0. -1.
</event>
<event>
 5   0  0.2005125E-03  0.5000176E+03  0.7818609E-02  0.1013774E+00
       -3   -1    0    0    0  501  0.00000000000E+00  0.00000000000E+00  0.12853127887E+03  0.12853131856E+03  0.10100000352E+00 0. -1.
        3   -1    0    0  501    0  0.00000000000E+00  0.00000000000E+00 -0.48629702189E+03  0.48629703238E+03  0.10100000352E+00 0.  1.
    10030    2    1    2    0    0  0.00000000000E+00  0.00000000000E+00 -0.35776574302E+03  0.61482835094E+03  0.50001757393E+03 0.  0.
        5    1    3    3  502    0  0.14516222885E+03  0.11375249953E+03 -0.38635842156E+03  0.42814322807E+03  0.46999998093E+01 0.  1.
       -5    1    3    3    0  502 -0.14516222885E+03 -0.11375249953E+03  0.28592678543E+02  0.18668512286E+03  0.46999998093E+01 0. -1.
</event>
<event>
 5   0  0.4889251E-03  0.4995552E+03  0.7818609E-02  0.1013895E+00
       -2   -1    0    0    0  501  0.00000000000E+00  0.00000000000E+00  0.33661398611E+02  0.33661398708E+02  0.25500000920E-02 0. -1.
        2   -1    0    0  501    0  0.00000000000E+00  0.00000000000E+00 -0.18534244450E+04  0.18534244450E+04  0.25500000920E-02 0.  1.
    10030    2    1    2    0    0  0.00000000000E+00  0.00000000000E+00 -0.18197630464E+04  0.18870858437E+04  0.49955523872E+03 0.  0.
        5    1    3    3  502    0  0.23573581628E+02  0.29106444638E+02  0.22823689895E+02  0.44112466366E+02  0.46999998093E+01 0. -1.
       -5    1    3    3    0  502 -0.23573581628E+02 -0.29106444638E+02 -0.18425867363E+04  0.18429733773E+04  0.46999998093E+01 0.  1.
</event>
<event>
 5   0  0.4989875E-03  0.5000314E+03  0.7818609E-02  0.1013771E+00
        2   -1    0    0  501    0  0.00000000000E+00  0.00000000000E+00  0.12558759860E+03  0.12558759863E+03  0.25500000920E-02 0. -1.
       -2   -1    0    0    0  501  0.00000000000E+00  0.00000000000E+00 -0.49772303354E+03  0.49772303354E+03  0.25500000920E-02 0.  1.
    10030    2    1    2    0    0  0.00000000000E+00  0.00000000000E+00 -0.37213543493E+03  0.62331063217E+03  0.50003136126E+03 0.  0.
        2    1    3    3  502    0 -0.32306500960E+02  0.44059573652E+02 -0.49019072459E+03  0.49322601565E+03  0.25500000920E-02 0.  1.
       -2    1    3    3    0  502  0.32306500960E+02 -0.44059573652E+02  0.11805528965E+03  0.13008461653E+03  0.25500000920E-02 0. -1.
</event>
<event>
 5   0  0.4989875E-03  0.5001203E+03  0.7818609E-02  0.1013748E+00
        2   -1    0    0  501    0  0.00000000000E+00  0.00000000000E+00  0.16770984686E+04  0.16770984686E+04  0.25500000920E-02 0. -1.
       -2   -1    0    0    0  501  0.00000000000E+00  0.00000000000E+00 -0.37284686438E+02  0.37284686525E+02  0.25500000920E-02 0.  1.
    10030    2    1    2    0    0  0.00000000000E+00  0.00000000000E+00  0.16398137821E+04  0.17143831551E+04  0.50012034793E+03 0.  0.
        2    1    3    3  502    0  0.58919998888E+02  0.17241993314E+03  0.14069751373E+04  0.14187245105E+04  0.25500000920E-02 0. -1.
       -2    1    3    3    0  502 -0.58919998888E+02 -0.17241993314E+03  0.23283864485E+03  0.29565864465E+03  0.25500000920E-02 0.  1.
</event>
<event>
 5   0  0.3055293E-03  0.4997166E+03  0.7818609E-02  0.1013853E+00
       -1   -1    0    0    0  501  0.00000000000E+00  0.00000000000E+00  0.84896893425E+02  0.84896893575E+02  0.50400001928E-02 0. -1.
        1   -1    0    0  501    0  0.00000000000E+00  0.00000000000E+00 -0.73535279931E+03  0.73535279932E+03  0.50400001928E-02 0.  1.
    10030    2    1    2    0    0  0.00000000000E+00  0.00000000000E+00 -0.65045590588E+03  0.82024969290E+03  0.49971659288E+03 0.  0.
        3    1    3    3  502    0  0.10850331071E+03 -0.17933157128E+03 -0.54846467818E+03  0.58715099787E+03  0.10100000352E+00 0.  1.
       -3    1    3    3    0  502 -0.10850331071E+03  0.17933157128E+03 -0.10199122770E+03  0.23309869503E+03  0.10100000352E+00 0. -1.
</event>
<event>
 5   0  0.3013734E-03  0.5000508E+03  0.7818609E-02  0.1013766E+00
        1   -1    0    0  501    0  0.00000000000E+00  0.00000000000E+00  0.48964697084E+03  0.48964697087E+03  0.50400001928E-02 0. -1.
       -1   -1    0    0    0  501  0.00000000000E+00  0.00000000000E+00 -0.12766890337E+03  0.12766890347E+03  0.50400001928E-02 0.  1.
    10030    2    1    2    0    0  0.00000000000E+00  0.00000000000E+00  0.36197806747E+03  0.61731587434E+03  0.50005076480E+03 0.  0.
        2    1    3    3  502    0  0.19501508967E+03  0.15206935252E+03  0.22646042566E+03  0.33532118569E+03  0.25500000920E-02 0. -1.
       -2    1    3    3    0  502 -0.19501508967E+03 -0.15206935252E+03  0.13551764182E+03  0.28199468865E+03  0.25500000920E-02 0.  1.
</event>
<event>
 5   0  0.4978779E-03  0.5000263E+03  0.7818609E-02  0.1013772E+00
       -2   -1    0    0    0  501  0.00000000000E+00  0.00000000000E+00  0.92167580126E+02  0.92167580161E+02  0.25500000920E-02 0.  1.
        2   -1    0    0  501    0  0.00000000000E+00  0.00000000000E+00 -0.67818390081E+03  0.67818390081E+03  0.25500000920E-02 0. -1.
    10030    2    1    2    0    0  0.00000000000E+00  0.00000000000E+00 -0.58601632068E+03  0.77035148097E+03  0.50002627544E+03 0.  0.
        1    1    3    3  502    0  0.20244890699E+03  0.14412932157E+03 -0.33513643247E+03  0.41722326118E+03  0.50400001928E-02 0.  1.
       -1    1    3    3    0  502 -0.20244890699E+03 -0.14412932157E+03 -0.25087988821E+03  0.35312821979E+03  0.50400001928E-02 0. -1.
</event>
<event>
 5   0  0.2005125E-03  0.4999231E+03  0.7818609E-02  0.1013799E+00
        4   -1    0    0  501    0  0.00000000000E+00  0.00000000000E+00  0.24201952294E+03  0.24202285509E+03  0.12699999809E+01 0.  1.
       -4   -1    0    0    0  501  0.00000000000E+00  0.00000000000E+00 -0.25815757995E+03  0.25816070380E+03  0.12699999809E+01 0. -1.
    10030    2    1    2    0    0  0.00000000000E+00  0.00000000000E+00 -0.16138057010E+02  0.50018355888E+03  0.49992314979E+03 0.  0.
        1    1    3    3  502    0 -0.16968815922E+02  0.17197682838E+03 -0.18876437327E+03  0.25592178269E+03  0.50400001928E-02 0. -1.
       -1    1    3    3    0  502  0.16968815922E+02 -0.17197682838E+03  0.17262631626E+03  0.24426177619E+03  0.50400001928E-02 0.  1.
</event>
<event>
 5   0  0.3057783E-03  0.4999179E+03  0.7818609E-02  0.1013800E+00
       -1   -1    0    0    0  501  0.00000000000E+00  0.00000000000E+00  0.38659118322E+02  0.38659118651E+02  0.50400001928E-02 0. -1.
        1   -1    0    0  501    0  0.00000000000E+00  0.00000000000E+00 -0.16161642605E+04  0.16161642605E+04  0.50400001928E-02 0.  1.
    10030    2    1    2    0    0  0.00000000000E+00  0.00000000000E+00 -0.15775051421E+04  0.16548233791E+04  0.49991793587E+03 0.  0.
        5    1    3    3  502    0 -0.15688881464E+03  0.14175346291E+03 -0.12297569969E+04  0.12478110858E+04  0.46999998093E+01 0.  1.
       -5    1    3    3    0  502  0.15688881464E+03 -0.14175346291E+03 -0.34774814528E+03  0.40701229336E+03  0.46999998093E+01 0. -1.
</event>
<event>
 5   0  0.4889251E-03  0.5000140E+03  0.7818609E-02  0.1013775E+00
        2   -1    0    0  501    0  0.00000000000E+00  0.00000000000E+00  0.73454540467E+03  0.73454540468E+03  0.25500000920E-02 0.  1.
       -2   -1    0    0    0  501  0.00000000000E+00  0.00000000000E+00 -0.85091404354E+02  0.85091404392E+02  0.25500000920E-02 0. -1.
    10030    2    1    2    0    0  0.00000000000E+00  0.00000000000E+00  0.64945400032E+03  0.81963680907E+03  0.50001400006E+03 0.  0.
        5    1    3    3  502    0  0.20003189750E+03  0.28344114764E+02  0.83447039069E+02  0.21863587809E+03  0.46999998093E+01 0. -1.
       -5    1    3    3    0  502 -0.20003189750E+03 -0.28344114764E+02  0.56600696125E+03  0.60100093098E+03  0.46999998093E+01 0.  1.
</event>
<event>
 5   0  0.2005125E-03  0.5001120E+03  0.7818609E-02  0.1013750E+00
       -4   -1    0    0    0  501  0.00000000000E+00  0.00000000000E+00  0.90337601508E+03  0.90337690779E+03  0.12699999809E+01 0. -1.
        4   -1    0    0  501    0  0.00000000000E+00  0.00000000000E+00 -0.69209175406E+02  0.69220826782E+02  0.12699999809E+01 0.  1.
    10030    2    1    2    0    0  0.00000000000E+00  0.00000000000E+00  0.83416683968E+03  0.97259773457E+03  0.50011202433E+03 0.  0.
        3    1    3    3  502    0 -0.65865446446E+02  0.59435426671E+02 -0.37579499218E+02  0.96348616708E+02  0.10100000352E+00 0.  1.
       -3    1    3    3    0  502  0.65865446446E+02 -0.59435426671E+02  0.87174633889E+03  0.87624911786E+03  0.10100000352E+00 0. -1.
</event>
<event>
 5   0  0.3055293E-03  0.4997444E+03  0.7818609E-02  0.1013846E+00
        1   -1    0    0  501    0  0.00000000000E+00  0.00000000000E+00  0.45825545494E+03  0.45825545497E+03  0.50400001928E-02 0. -1.
       -1   -1    0    0    0  501  0.00000000000E+00  0.00000000000E+00 -0.13624740593E+03  0.13624740602E+03  0.50400001928E-02 0.  1.
    10030    2    1    2    0    0  0.00000000000E+00  0.00000000000E+00  0.32200804901E+03  0.59450286099E+03  0.49974440277E+03 0.  0.
        3    1    3    3  502    0 -0.19747928671E+03 -0.93529525784E+02  0.16818772949E+02  0.21915456235E+03  0.10100000352E+00 0.  1.
       -3    1    3    3    0  502  0.19747928671E+03  0.93529525784E+02  0.30518927606E+03  0.37534829865E+03  0.10100000352E+00 0. -1.
</event>
<event>
 5   0  0.3055293E-03  0.4997708E+03  0.7818609E-02  0.1013839E+00
       -1   -1    0    0    0  501  0.00000000000E+00  0.00000000000E+00  0.21737502611E+03  0.21737502617E+03  0.50400001928E-02 0.  1.
        1   -1    0    0  501    0  0.00000000000E+00  0.00000000000E+00 -0.28725797284E+03  0.28725797289E+03  0.50400001928E-02 0. -1.
    10030    2    1    2    0    0  0.00000000000E+00  0.00000000000E+00 -0.69882946730E+02  0.50463299906E+03  0.49977078495E+03 0.  0.
        3    1    3    3  502    0  0.12843637010E+03 -0.15334519887E+03  0.11628897657E+03  0.23137369655E+03  0.10100000352E+00 0.  1.
       -3    1    3    3    0  502 -0.12843637010E+03  0.15334519887E+03 -0.18617192330E+03  0.27325930251E+03  0.10100000352E+00 0. -1.
</event>
<event>
 5   0  0.4989875E-03  0.4998689E+03  0.7818609E-02  0.1013813E+00
       -2   -1    0    0    0  501  0.00000000000E+00  0.00000000000E+00  0.64659990669E+02  0.64659990719E+02  0.25500000920E-02 0. -1.
        2   -1    0    0  501    0  0.00000000000E+00  0.00000000000E+00 -0.96608771331E+03  0.96608771331E+03  0.25500000920E-02 0.  1.
    10030    2    1    2    0    0  0.00000000000E+00  0.00000000000E+00 -0.90142772264E+03  0.10307477040E+04  0.49986887303E+03 0.  0.
        2    1    3    3  502    0 -0.23625555602E+03 -0.56463172992E+02 -0.57204931474E+03  0.62148627994E+03  0.25500000920E-02 0. -1.
       -2    1    3    3    0  502  0.23625555602E+03  0.56463172992E+02 -0.32937840790E+03  0.40926142409E+03  0.25500000920E-02 0.  1.
</event>
<event>
 5   0  0.5118882E-03  0.5029797E+03  0.7818609E-02  0.1013004E+00
       -2   -1    0    0    0  501  0.00000000000E+00  0.00000000000E+00  0.29609974603E+03  0.29609974604E+03  0.25500000920E-02 0. -1.
        2   -1    0    0  501    0  0.00000000000E+00  0.00000000000E+00 -0.21360082003E+03  0.21360082005E+03  0.25500000920E-02 0.  1.
    10030    2    1    2    0    0  0.00000000000E+00  0.00000000000E+00  0.82498925994E+02  0.50970056608E+03  0.50297971557E+03 0.  0.
        3    1    3    3  502    0 -0.12386474621E+03 -0.16685522830E+03  0.18478960090E+03  0.27808334967E+03  0.10100000352E+00 0. -1.
       -3    1    3    3    0  502  0.12386474621E+03  0.16685522830E+03 -0.10229067490E+03  0.23161721641E+03  0.10100000352E+00 0.  1.
</event>
<event>
 5   0  0.2863538E-03  0.5000539E+03  0.7818609E-02  0.1013765E+00
        1   -1    0    0  501    0  0.00000000000E+00  0.00000000000E+00  0.34777356856E+03  0.34777356860E+03  0.50400001928E-02 0. -1.
       -1   -1    0    0    0  501  0.00000000000E+00  0.00000000000E+00 -0.17975336555E+03  0.17975336562E+03  0.50400001928E-02 0.  1.
    10030    2    1    2    0    0  0.00000000000E+00  0.00000000000E+00  0.16802020301E+03  0.52752693423E+03  0.50005387481E+03 0.  0.
        1    1    3    3  502    0 -0.14233269318E+03  0.92753967950E+02  0.27753218951E+03  0.32540130663E+03  0.50400001928E-02 0. -1.
       -1    1    3    3    0  502  0.14233269318E+03 -0.92753967950E+02 -0.10951198650E+03  0.20212562759E+03  0.50400001928E-02 0.  1.
</event>
<event>
 5   0  0.4978779E-03  0.4999431E+03  0.7818609E-02  0.1013794E+00
        2   -1    0    0  501    0  0.00000000000E+00  0.00000000000E+00  0.14625692375E+04  0.14625692375E+04  0.25500000920E-02 0. -1.
       -2   -1    0    0    0  501  0.00000000000E+00  0.00000000000E+00 -0.42723289938E+02  0.42723290014E+02  0.25500000920E-02 0.  1.
    10030    2    1    2    0    0  0.00000000000E+00  0.00000000000E+00  0.14198459476E+04  0.15052925276E+04  0.49994307535E+03 0.  0.
        1    1    3    3  502    0 -0.86625456517E+02  0.20191979891E+03  0.35100073934E+03  0.41409792797E+03  0.50400001928E-02 0.  1.
       -1    1    3    3    0  502  0.86625456517E+02 -0.20191979891E+03  0.10688452083E+04  0.10911945996E+04  0.50400001928E-02 0. -1.
</event>
<event>
 5   0  0.4978779E-03  0.4997504E+03  0.7818609E-02  0.1013844E+00
        2   -1    0    0  501    0  0.00000000000E+00  0.00000000000E+00  0.43872772059E+03  0.43872772060E+03  0.25500000920E-02 0.  1.
       -2   -1    0    0    0  501  0.00000000000E+00  0.00000000000E+00 -0.14231520384E+03  0.14231520386E+03  0.25500000920E-02 0. -1.
    10030    2    1    2    0    0  0.00000000000E+00  0.00000000000E+00  0.29641251675E+03  0.58104292446E+03  0.49975043769E+03 0.  0.
        1    1    3    3  502    0 -0.73604511471E+02 -0.11222681039E+03  0.39326458038E+03  0.41553521064E+03  0.50400001928E-02 0.  1.
       -1    1    3    3    0  502  0.73604511471E+02  0.11222681039E+03 -0.96852063625E+02  0.16550771382E+03  0.50400001928E-02 0. -1.
</event>
<event>
 5   0  0.4889251E-03  0.5012903E+03  0.7818609E-02  0.1013443E+00
       -2   -1    0    0    0  501  0.00000000000E+00  0.00000000000E+00  0.22583993924E+02  0.22583994068E+02  0.25500000920E-02 0.  1.
        2   -1    0    0  501    0  0.00000000000E+00  0.00000000000E+00 -0.27817481385E+04  0.27817481385E+04  0.25500000920E-02 0. -1.
    10030    2    1    2    0    0  0.00000000000E+00  0.00000000000E+00 -0.27591641446E+04  0.28043321326E+04  0.50129026825E+03 0.  0.
        5    1    3    3  502    0  0.24265951018E+03  0.33095908258E+02 -0.10824070978E+04  0.11097775418E+04  0.46999998093E+01 0.  1.
       -5    1    3    3    0  502 -0.24265951018E+03 -0.33095908258E+02 -0.16767570469E+04  0.16945545908E+04  0.46999998093E+01 0. -1.
</event>
<event>
 5   0  0.5118882E-03  0.5000749E+03  0.7818609E-02  0.1013759E+00
       -2   -1    0    0    0  501  0.00000000000E+00  0.00000000000E+00  0.67152341049E+02  0.67152341098E+02  0.25500000920E-02 0.  1.
        2   -1    0    0  501    0  0.00000000000E+00  0.00000000000E+00 -0.93099833178E+03  0.93099833179E+03  0.25500000920E-02 0. -1.
    10030    2    1    2    0    0  0.00000000000E+00  0.00000000000E+00 -0.86384599073E+03  0.99815067288E+03  0.50007486447E+03 0.  0.
        3    1    3    3  502    0  0.88008785560E+02 -0.23201460359E+03 -0.37064914210E+03  0.44604609555E+03  0.10100000352E+00 0.  1.
       -3    1    3    3    0  502 -0.88008785560E+02  0.23201460359E+03 -0.49319684863E+03  0.55210457733E+03  0.10100000352E+00 0. -1.
</event>
<event>
 5   0  0.3211775E-03  0.4997107E+03  0.7818609E-02  0.1013854E+00
        1   -1    0    0  501    0  0.00000000000E+00  0.00000000000E+00  0.44489607587E+03  0.44489607590E+03  0.50400001928E-02 0.  1.
       -1   -1    0    0    0  501  0.00000000000E+00  0.00000000000E+00 -0.14031975356E+03  0.14031975365E+03  0.50400001928E-02 0. -1.
    10030    2    1    2    0    0  0.00000000000E+00  0.00000000000E+00  0.30457632231E+03  0.58521582954E+03  0.49971074737E+03 0.  0.
        4    1    3    3  502    0 -0.17253188968E+02 -0.19971464688E+03 -0.22370046961E+02  0.20170682836E+03  0.12699999809E+01 0.  1.
       -4    1    3    3    0  502  0.17253188968E+02  0.19971464688E+03  0.32694636927E+03  0.38350900118E+03  0.12699999809E+01 0. -1.
</event>
<event>
 5   0  0.2863538E-03  0.4999586E+03  0.7818609E-02  0.1013790E+00
       -1   -1    0    0    0  501  0.00000000000E+00  0.00000000000E+00  0.74129312794E+02  0.74129312965E+02  0.50400001928E-02 0.  1.
        1   -1    0    0  501    0  0.00000000000E+00  0.00000000000E+00 -0.84298149111E+03  0.84298149112E+03  0.50400001928E-02 0. -1.
    10030    2    1    2    0    0  0.00000000000E+00  0.00000000000E+00 -0.76885217832E+03  0.91711080409E+03  0.49995855316E+03 0.  0.
        1    1    3    3  502    0  0.19205450941E+03 -0.93526862783E+02 -0.14625804500E+03  0.25888921260E+03  0.50400001928E-02 0.  1.
       -1    1    3    3    0  502 -0.19205450941E+03  0.93526862783E+02 -0.62259413331E+03  0.65822159149E+03  0.50400001928E-02 0. -1.
</event>
<event>
 5   0  0.2863538E-03  0.4999236E+03  0.7818609E-02  0.1013799E+00
       -1   -1    0    0    0  501  0.00000000000E+00  0.00000000000E+00  0.46067920433E+02  0.46067920709E+02  0.50400001928E-02 0. -1.
        1   -1    0    0  501    0  0.00000000000E+00  0.00000000000E+00 -0.13562779455E+04  0.13562779455E+04  0.50400001928E-02 0.  1.
    10030    2    1    2    0    0  0.00000000000E+00  0.00000000000E+00 -0.13102100250E+04  0.14023458662E+04  0.49992361287E+03 0.  0.
        1    1    3    3  502    0  0.32605680016E+02  0.17615800205E+03 -0.11440828806E+04  0.11580243563E+04  0.50400001928E-02 0.  1.
       -1    1    3    3    0  502 -0.32605680016E+02 -0.17615800205E+03 -0.16612714445E+03  0.24432150991E+03  0.50400001928E-02 0. -1.
</event>
<event>
 5   0  0.4889251E-03  0.5001208E+03  0.7818609E-02  0.1013747E+00
        2   -1    0    0  501    0  0.00000000000E+00  0.00000000000E+00  0.49136123155E+02  0.49136123221E+02  0.25500000920E-02 0. -1.
       -2   -1    0    0    0  501  0.00000000000E+00  0.00000000000E+00 -0.12725910933E+04  0.12725910933E+04  0.25500000920E-02 0.  1.
    10030    2    1    2    0    0  0.00000000000E+00  0.00000000000E+00 -0.12234549701E+04  0.13217272165E+04  0.50012075633E+03 0.  0.
        5    1    3    3  502    0 -0.19391041794E+03 -0.48646978640E+02 -0.10085049798E+04  0.10281401475E+04  0.46999998093E+01 0.  1.
       -5    1    3    3    0  502  0.19391041794E+03  0.48646978640E+02 -0.21494999030E+03  0.29358706893E+03  0.46999998093E+01 0. -1.
</event>
<event>
 5   0  0.4978779E-03  0.5000207E+03  0.7818609E-02  0.1013774E+00
       -2   -1    0    0    0  501  0.00000000000E+00  0.00000000000E+00  0.52049091991E+02  0.52049092053E+02  0.25500000920E-02 0.  1.
        2   -1    0    0  501    0  0.00000000000E+00  0.00000000000E+00 -0.12008889323E+04  0.12008889323E+04  0.25500000920E-02 0. -1.
    10030    2    1    2    0    0  0.00000000000E+00  0.00000000000E+00 -0.11488398403E+04  0.12529380244E+04  0.50002071377E+03 0.  0.
        1    1    3    3  502    0 -0.23045800121E+03  0.77336384169E+02 -0.42802250884E+03  0.49223477603E+03  0.50400001928E-02 0. -1.
       -1    1    3    3    0  502  0.23045800121E+03 -0.77336384169E+02 -0.72081733150E+03  0.76070324835E+03  0.50400001928E-02 0.  1.
</event>
<event>
 5   0  0.3055293E-03  0.5002673E+03  0.7818609E-02  0.1013709E+00
        1   -1    0    0  501    0  0.00000000000E+00  0.00000000000E+00  0.90985715551E+03  0.90985715552E+03  0.50400001928E-02 0. -1.
       -1   -1    0    0    0  501  0.00000000000E+00  0.00000000000E+00 -0.68765560730E+02  0.68765560915E+02  0.50400001928E-02 0.  1.
    10030    2    1    2    0    0  0.00000000000E+00  0.00000000000E+00  0.84109159478E+03  0.97862271644E+03  0.50026727888E+03 0.  0.
        3    1    3    3  502    0 -0.17669761668E+03  0.40482197782E+02  0.83386551774E+02  0.19953491749E+03  0.10100000352E+00 0.  1.
       -3    1    3    3    0  502  0.17669761668E+03 -0.40482197782E+02  0.75770504301E+03  0.77908779895E+03  0.10100000352E+00 0. -1.
</event>
<event>
 5   0  0.3055293E-03  0.5001467E+03  0.7818609E-02  0.1013741E+00
       -1   -1    0    0    0  501  0.00000000000E+00  0.00000000000E+00  0.14179866484E+03  0.14179866493E+03  0.50400001928E-02 0. -1.
        1   -1    0    0  501    0  0.00000000000E+00  0.00000000000E+00 -0.44102454262E+03  0.44102454264E+03  0.50400001928E-02 0.  1.
    10030    2    1    2    0    0  0.00000000000E+00  0.00000000000E+00 -0.29922587778E+03  0.58282320757E+03  0.50014674382E+03 0.  0.
        3    1    3    3  502    0  0.13125968554E+03  0.47322588612E+02  0.92221135532E+02  0.16725214641E+03  0.10100000352E+00 0. -1.
       -3    1    3    3    0  502 -0.13125968554E+03 -0.47322588612E+02 -0.39144701331E+03  0.41557106116E+03  0.10100000352E+00 0.  1.
</event>
<event>
 5   0  0.4978779E-03  0.5000186E+03  0.7818609E-02  0.1013774E+00
       -2   -1    0    0    0  501  0.00000000000E+00  0.00000000000E+00  0.15231099446E+03  0.15231099448E+03  0.25500000920E-02 0. -1.
        2   -1    0    0  501    0  0.00000000000E+00  0.00000000000E+00 -0.41037511400E+03  0.41037511401E+03  0.25500000920E-02 0.  1.
    10030    2    1    2    0    0  0.00000000000E+00  0.00000000000E+00 -0.25806411954E+03  0.56268610849E+03  0.50001856655E+03 0.  0.
        1    1    3    3  502    0  0.21958624675E+03 -0.10472074225E+03 -0.19387383037E+03  0.31108136515E+03  0.50400001928E-02 0. -1.
       -1    1    3    3    0  502 -0.21958624675E+03  0.10472074225E+03 -0.64190289176E+02  0.25160474334E+03  0.50400001928E-02 0.  1.
</event>
<event>
 5   0  0.2005125E-03  0.4999941E+03  0.7818609E-02  0.1013780E+00
        3   -1    0    0  501    0  0.00000000000E+00  0.00000000000E+00  0.44140810254E+03  0.44140811410E+03  0.10100000352E+00 0. -1.
       -3   -1    0    0    0  501  0.00000000000E+00  0.00000000000E+00 -0.14158895805E+03  0.14158899407E+03  0.10100000352E+00 0.  1.
    10030    2    1    2    0    0  0.00000000000E+00  0.00000000000E+00  0.29981914449E+03  0.58299710817E+03  0.49999410869E+03 0.  0.
        5    1    3    3  502    0 -0.86730585027E+02 -0.21522868630E+03  0.25823450638E+03  0.34720704496E+03  0.46999998093E+01 0. -1.
       -5    1    3    3    0  502  0.86730585027E+02  0.21522868630E+03  0.41584638109E+02  0.23579006321E+03  0.46999998093E+01 0.  1.
</event>
<event>
 5   0  0.2863538E-03  0.4998854E+03  0.7818609E-02  0.1013809E+00
       -1   -1    0    0    0  501  0.00000000000E+00  0.00000000000E+00  0.22450172135E+03  0.22450172141E+03  0.50400001928E-02 0. -1.
        1   -1    0    0  501    0  0.00000000000E+00  0.00000000000E+00 -0.27826665921E+03  0.27826665926E+03  0.50400001928E-02 0.  1.
    10030    2    1    2    0    0  0.00000000000E+00  0.00000000000E+00 -0.53764937865E+02  0.50276838066E+03  0.49988536291E+03 0.  0.
        1    1    3    3  502    0 -0.11117749051E+03 -0.22072538253E+03 -0.64396581535E+02  0.25539586651E+03  0.50400001928E-02 0.  1.
       -1    1    3    3    0  502  0.11117749051E+03  0.22072538253E+03  0.10631643671E+02  0.24737251416E+03  0.50400001928E-02 0. -1.
</event>
<event>
 5   0  0.3013734E-03  0.5002069E+03  0.7818609E-02  0.1013725E+00
        1   -1    0    0  501    0  0.00000000000E+00  0.00000000000E+00  0.19945390541E+03  0.19945390548E+03  0.50400001928E-02 0. -1.
       -1   -1    0    0    0  501  0.00000000000E+00  0.00000000000E+00 -0.31361504798E+03  0.31361504802E+03  0.50400001928E-02 0.  1.
    10030    2    1    2    0    0  0.00000000000E+00  0.00000000000E+00 -0.11416114257E+03  0.51306895350E+03  0.50020694175E+03 0.  0.
        2    1    3    3  502    0  0.11726185902E+03  0.13757679327E+03  0.12020480635E+03  0.21708733981E+03  0.25500000920E-02 0. -1.
       -2    1    3    3    0  502 -0.11726185902E+03 -0.13757679327E+03 -0.23436594892E+03  0.29598161370E+03  0.25500000920E-02 0.  1.
</event>
<event>
 5   0  0.3211775E-03  0.4999446E+03  0.7818609E-02  0.1013793E+00
        1   -1    0    0  501    0  0.00000000000E+00  0.00000000000E+00  0.37261609891E+03  0.37261609894E+03  0.50400001928E-02 0. -1.
       -1   -1    0    0    0  501  0.00000000000E+00  0.00000000000E+00 -0.16769580243E+03  0.16769580251E+03  0.50400001928E-02 0.  1.
    10030    2    1    2    0    0  0.00000000000E+00  0.00000000000E+00  0.20492029648E+03  0.54031190145E+03  0.49994461987E+03 0.  0.
        4    1    3    3  502    0 -0.55879561148E+02 -0.21180594747E+03  0.23260005793E+03  0.31951319939E+03  0.12699999809E+01 0. -1.
       -4    1    3    3    0  502  0.55879561148E+02  0.21180594747E+03 -0.27679761455E+02  0.22079870206E+03  0.12699999809E+01 0.  1.
</event>
<event>
 5   0  0.3013734E-03  0.5000588E+03  0.7818609E-02  0.1013764E+00
       -1   -1    0    0    0  501  0.00000000000E+00  0.00000000000E+00  0.25649804914E+03  0.25649804919E+03  0.50400001928E-02 0. -1.
        1   -1    0    0  501    0  0.00000000000E+00  0.00000000000E+00 -0.24372383762E+03  0.24372383767E+03  0.50400001928E-02 0.  1.
    10030    2    1    2    0    0  0.00000000000E+00  0.00000000000E+00  0.12774211522E+02  0.50022188686E+03  0.50005875216E+03 0.  0.
        2    1    3    3  502    0 -0.12297099971E+02 -0.65763834253E+02  0.24737769166E+03  0.25626514179E+03  0.25500000920E-02 0. -1.
       -2    1    3    3    0  502  0.12297099971E+02  0.65763834253E+02 -0.23460348013E+03  0.24395674506E+03  0.25500000920E-02 0.  1.
</event>
<event>
 5   0  0.2863538E-03  0.5000116E+03  0.7818609E-02  0.1013776E+00
       -1   -1    0    0    0  501  0.00000000000E+00  0.00000000000E+00  0.10179918868E+03  0.10179918881E+03  0.50400001928E-02 0.  1.
        1   -1    0    0  501    0  0.00000000000E+00  0.00000000000E+00 -0.61398238023E+03  0.61398238025E+03  0.50400001928E-02 0. -1.
    10030    2    1    2    0    0  0.00000000000E+00  0.00000000000E+00 -0.51218319155E+03  0.71578156905E+03  0.50001163276E+03 0.  0.
        1    1    3    3  502    0 -0.12157281948E+03 -0.13939800998E+03 -0.15308649919E+02  0.18559663362E+03  0.50400001928E-02 0.  1.
       -1    1    3    3    0  502  0.12157281948E+03  0.13939800998E+03 -0.49687454163E+03  0.53018493544E+03  0.50400001928E-02 0. -1.
</event>
<event>
 5   0  0.3055293E-03  0.4991133E+03  0.7818609E-02  0.1014011E+00
        1   -1    0    0  501    0  0.00000000000E+00  0.00000000000E+00  0.12343158804E+04  0.12343158804E+04  0.50400001928E-02 0.  1.
       -1   -1    0    0    0  501  0.00000000000E+00  0.00000000000E+00 -0.50455911189E+02  0.50455911441E+02  0.50400001928E-02 0. -1.
    10030    2    1    2    0    0  0.00000000000E+00  0.00000000000E+00  0.11838599692E+04  0.12847717918E+04  0.49911334428E+03 0.  0.
        3    1    3    3  502    0 -0.10583406392E+03 -0.21638205720E+03  0.75986916945E+03  0.79713437302E+03  0.10100000352E+00 0.  1.
       -3    1    3    3    0  502  0.10583406392E+03  0.21638205720E+03  0.42399079974E+03  0.48763741881E+03  0.10100000352E+00 0. -1.
</event>
<event>
 5   0  0.3211775E-03  0.4999434E+03  0.7818609E-02  0.1013794E+00
        1   -1    0    0  501    0  0.00000000000E+00  0.00000000000E+00  0.19166559466E+04  0.19166559466E+04  0.50400001928E-02 0.  1.
       -1   -1    0    0    0  501  0.00000000000E+00  0.00000000000E+00 -0.32601492521E+02  0.32601492911E+02  0.50400001928E-02 0. -1.
    10030    2    1    2    0    0  0.00000000000E+00  0.00000000000E+00  0.18840544541E+04  0.19492574395E+04  0.49994337637E+03 0.  0.
        4    1    3    3  502    0  0.13210078474E+03 -0.10166462034E+03  0.21575389114E+03  0.27264934770E+03  0.12699999809E+01 0. -1.
       -4    1    3    3    0  502 -0.13210078474E+03  0.10166462034E+03  0.16683005629E+04  0.16766080918E+04  0.12699999809E+01 0.  1.
</event>
<event>
 5   0  0.4889251E-03  0.5002587E+03  0.7818609E-02  0.1013711E+00
        2   -1    0    0  501    0  0.00000000000E+00  0.00000000000E+00  0.12550224848E+04  0.12550224848E+04  0.25500000920E-02 0.  1.
       -2   -1    0    0    0  501  0.00000000000E+00  0.00000000000E+00 -0.49851458819E+02  0.49851458884E+02  0.25500000920E-02 0. -1.
    10030    2    1    2    0    0  0.00000000000E+00  0.00000000000E+00  0.12051710259E+04  0.13048739437E+04  0.50025874010E+03 0.  0.
        5    1    3    3  502    0 -0.79684298449E+00 -0.23773775826E+03  0.80501359256E+03  0.83939790973E+03  0.46999998093E+01 0.  1.
       -5    1    3    3    0  502  0.79684298449E+00  0.23773775826E+03  0.40015743339E+03  0.46547603392E+03  0.46999998093E+01 0. -1.
</event>
<event>
 5   0  0.3013734E-03  0.4996241E+03  0.7818609E-02  0.1013877E+00
       -1   -1    0    0    0  501  0.00000000000E+00  0.00000000000E+00  0.32531965375E+03  0.32531965378E+03  0.50400001928E-02 0.  1.
        1   -1    0    0  501    0  0.00000000000E+00  0.00000000000E+00 -0.19182998595E+03  0.19182998601E+03  0.50400001928E-02 0. -1.
    10030    2    1    2    0    0  0.00000000000E+00  0.00000000000E+00  0.13348966780E+03  0.51714963980E+03  0.49962411725E+03 0.  0.
        2    1    3    3  502    0  0.14156223781E+03 -0.81071223423E+02  0.26257331325E+03  0.30912320405E+03  0.25500000920E-02 0.  1.
       -2    1    3    3    0  502 -0.14156223781E+03  0.81071223423E+02 -0.12908364546E+03  0.20802643575E+03  0.25500000920E-02 0. -1.
</event>
<event>
 5   0  0.3055293E-03  0.4996142E+03  0.7818609E-02  0.1013880E+00
        1   -1    0    0  501    0  0.00000000000E+00  0.00000000000E+00  0.25411669132E+03  0.25411669137E+03  0.50400001928E-02 0.  1.
       -1   -1    0    0    0  501  0.00000000000E+00  0.00000000000E+00 -0.24557061367E+03  0.24557061372E+03  0.50400001928E-02 0. -1.
    10030    2    1    2    0    0  0.00000000000E+00  0.00000000000E+00  0.85460776467E+01  0.49968730509E+03  0.49961421860E+03 0.  0.
        3    1    3    3  502    0  0.16216260563E+03  0.10722779429E+03  0.16116877351E+03  0.25252701696E+03  0.10100000352E+00 0.  1.
       -3    1    3    3    0  502 -0.16216260563E+03 -0.10722779429E+03 -0.15262269587E+03  0.24716028813E+03  0.10100000352E+00 0. -1.
</event>
<event>
 5   0  0.2005125E-03  0.4999590E+03  0.7818609E-02  0.1013790E+00
       -4   -1    0    0    0  501  0.00000000000E+00  0.00000000000E+00  0.76861317078E+03  0.76861422001E+03  0.12699999809E+01 0.  1.
        4   -1    0    0  501    0  0.00000000000E+00  0.00000000000E+00 -0.81295897859E+02  0.81305817188E+02  0.12699999809E+01 0. -1.
    10030    2    1    2    0    0  0.00000000000E+00  0.00000000000E+00  0.68731727292E+03  0.84992003719E+03  0.49995903429E+03 0.  0.
        3    1    3    3  502    0 -0.37879779892E+02  0.22129007590E+03  0.15677241764E+03  0.27382800541E+03  0.10100000352E+00 0. -1.
       -3    1    3    3    0  502  0.37879779892E+02 -0.22129007590E+03  0.53054485528E+03  0.57609203178E+03  0.10100000352E+00 0.  1.
</event>
<event>
 5   0  0.4978779E-03  0.4999900E+03  0.7818609E-02  0.1013782E+00
       -2   -1    0    0    0  501  0.00000000000E+00  0.00000000000E+00  0.69801175790E+02  0.69801175836E+02  0.25500000920E-02 0. -1.
        2   -1    0    0  501    0  0.00000000000E+00  0.00000000000E+00 -0.89536467005E+03  0.89536467006E+03  0.25500000920E-02 0.  1.
    10030    2    1    2    0    0  0.00000000000E+00  0.00000000000E+00 -0.82556349426E+03  0.96516584589E+03  0.49999002692E+03 0.  0.
        1    1    3    3  502    0  0.17733944157E+03  0.17323446077E+03 -0.47497595006E+03  0.53578130715E+03  0.50400001928E-02 0.  1.
       -1    1    3    3    0  502 -0.17733944157E+03 -0.17323446077E+03 -0.35058754420E+03  0.42938453874E+03  0.50400001928E-02 0. -1.
</event>
<event>
 5   0  0.2005125E-03  0.4998222E+03  0.7818609E-02  0.1013825E+00
        3   -1    0    0  501    0  0.00000000000E+00  0.00000000000E+00  0.25811343046E+03  0.25811345022E+03  0.10100000352E+00 0. -1.
       -3   -1    0    0    0  501  0.00000000000E+00  0.00000000000E+00 -0.24196936644E+03  0.24196938752E+03  0.10100000352E+00 0.  1.
    10030    2    1    2    0    0  0.00000000000E+00  0.00000000000E+00  0.16144064020E+02  0.50008283773E+03  0.49982218217E+03 0.  0.
        4    1    3    3  502    0  0.22248472971E+03  0.48048732167E+02  0.11130434928E+03  0.25337404501E+03  0.12699999809E+01 0.  1.
       -4    1    3    3    0  502 -0.22248472971E+03 -0.48048732167E+02 -0.95160285262E+02  0.24670879272E+03  0.12699999809E+01 0. -1.
</event>
<event>
 5   0  0.2863538E-03  0.4992253E+03  0.7818609E-02  0.1013981E+00
       -1   -1    0    0    0  501  0.00000000000E+00  0.00000000000E+00  0.66742697556E+02  0.66742697746E+02  0.50400001928E-02 0. -1.
        1   -1    0    0  501    0  0.00000000000E+00  0.00000000000E+00 -0.93353256382E+03  0.93353256384E+03  0.50400001928E-02 0.  1.
    10030    2    1    2    0    0  0.00000000000E+00  0.00000000000E+00 -0.86678986627E+03  0.10002752616E+04  0.49922532655E+03 0.  0.
        1    1    3    3  502    0  0.81566216791E+02  0.23150600374E+02 -0.90379525396E+03  0.90776365819E+03  0.50400001928E-02 0.  1.
       -1    1    3    3    0  502 -0.81566216791E+02 -0.23150600374E+02  0.37005387692E+02  0.92511603396E+02  0.50400001928E-02 0. -1.
</event>
<event>
 5   0  0.4989875E-03  0.5001218E+03  0.7818609E-02  0.1013747E+00
        2   -1    0    0  501    0  0.00000000000E+00  0.00000000000E+00  0.13231809786E+03  0.13231809788E+03  0.25500000920E-02 0. -1.
       -2   -1    0    0    0  501  0.00000000000E+00  0.00000000000E+00 -0.47257670731E+03  0.47257670732E+03  0.25500000920E-02 0.  1.
    10030    2    1    2    0    0  0.00000000000E+00  0.00000000000E+00 -0.34025860946E+03  0.60489480520E+03  0.50012178922E+03 0.  0.
        2    1    3    3  502    0  0.11867589064E+03  0.13124322288E+03 -0.38384300058E+03  0.42266322252E+03  0.25500000920E-02 0.  1.
       -2    1    3    3    0  502 -0.11867589064E+03 -0.13124322288E+03  0.43584391122E+02  0.18223158268E+03  0.25500000920E-02 0. -1.
</event>
<event>
 5   0  0.3057783E-03  0.5001448E+03  0.7818609E-02  0.1013741E+00
        1   -1    0    0  501    0  0.00000000000E+00  0.00000000000E+00  0.61185001213E+03  0.61185001215E+03  0.50400001928E-02 0. -1.
       -1   -1    0    0    0  501  0.00000000000E+00  0.00000000000E+00 -0.10220839722E+03  0.10220839735E+03  0.50400001928E-02 0.  1.
    10030    2    1    2    0    0  0.00000000000E+00  0.00000000000E+00  0.50964161491E+03  0.71405840950E+03  0.50014481556E+03 0.  0.
        5    1    3    3  502    0  0.66607194220E+02  0.19221156588E+03  0.47276176848E+02  0.20889933288E+03  0.46999998093E+01 0.  1.
       -5    1    3    3    0  502 -0.66607194220E+02 -0.19221156588E+03  0.46236543806E+03  0.50515907662E+03  0.46999998093E+01 0. -1.
</event>
<event>
 5   0  0.3211775E-03  0.5001536E+03  0.7818609E-02  0.1013739E+00
       -1   -1    0    0    0  501  0.00000000000E+00  0.00000000000E+00  0.11441330658E+03  0.11441330669E+03  0.50400001928E-02 0. -1.
        1   -1    0    0  501    0  0.00000000000E+00  0.00000000000E+00 -0.54660085509E+03  0.54660085511E+03  0.50400001928E-02 0.  1.
    10030    2    1    2    0    0  0.00000000000E+00  0.00000000000E+00 -0.43218754851E+03  0.66101416181E+03  0.50015362142E+03 0.  0.
        4    1    3    3  502    0 -0.12902807043E+03  0.12869882140E+03 -0.44241620894E+03  0.47848233449E+03  0.12699999809E+01 0.  1.
       -4    1    3    3    0  502  0.12902807043E+03 -0.12869882140E+03  0.10228660426E+02  0.18253182732E+03  0.12699999809E+01 0. -1.
</event>
<event>
 5   0  0.3055293E-03  0.4999714E+03  0.7818609E-02  0.1013786E+00
       -1   -1    0    0    0  501  0.00000000000E+00  0.00000000000E+00  0.93264611098E+02  0.93264611234E+02  0.50400001928E-02 0. -1.
        1   -1    0    0  501    0  0.00000000000E+00  0.00000000000E+00 -0.67005963294E+03  0.67005963296E+03  0.50400001928E-02 0.  1.
    10030    2    1    2    0    0  0.00000000000E+00  0.00000000000E+00 -0.57679502185E+03  0.76332424420E+03  0.49997140373E+03 0.  0.
        3    1    3    3  502    0 -0.99867594642E+02  0.90857490790E+02 -0.60960843230E+03  0.62438054985E+03  0.10100000352E+00 0.  1.
       -3    1    3    3    0  502  0.99867594642E+02 -0.90857490790E+02  0.32813410458E+02  0.13894369435E+03  0.10100000352E+00 0. -1.
</event>
<event>
 5   0  0.2005125E-03  0.5000578E+03  0.7818609E-02  0.1013764E+00
        3   -1    0    0  501    0  0.00000000000E+00  0.00000000000E+00  0.84440499440E+02  0.84440559843E+02  0.10100000352E+00 0.  1.
       -3   -1    0    0    0  501  0.00000000000E+00  0.00000000000E+00 -0.74033692113E+03  0.74033692802E+03  0.10100000352E+00 0. -1.
    10030    2    1    2    0    0  0.00000000000E+00  0.00000000000E+00 -0.65589642169E+03  0.82477748786E+03  0.50005778516E+03 0.  0.
        2    1    3    3  502    0  0.14989956143E+03 -0.16935439986E+02  0.92428669414E+00  0.15085603056E+03  0.25500000920E-02 0.  1.
       -2    1    3    3    0  502 -0.14989956143E+03  0.16935439986E+02 -0.65682070838E+03  0.67392145730E+03  0.25500000920E-02 0. -1.
</event>
<event>
 5   0  0.5118882E-03  0.5001049E+03  0.7818609E-02  0.1013752E+00
       -2   -1    0    0    0  501  0.00000000000E+00  0.00000000000E+00  0.56093567906E+02  0.56093567964E+02  0.25500000920E-02 0.  1.
        2   -1    0    0  501    0  0.00000000000E+00  0.00000000000E+00 -0.11146772918E+04  0.11146772918E+04  0.25500000920E-02 0. -1.
    10030    2    1    2    0    0  0.00000000000E+00  0.00000000000E+00 -0.10585837239E+04  0.11707708598E+04  0.50010489459E+03 0.  0.
        3    1    3    3  502    0 -0.37039979064E+02 -0.24224215282E+03 -0.64571048717E+03  0.69064843741E+03  0.10100000352E+00 0. -1.
       -3    1    3    3    0  502  0.37039979064E+02  0.24224215282E+03 -0.41287323674E+03  0.48012242237E+03  0.10100000352E+00 0.  1.
</event>
<event>
 5   0  0.5095783E-03  0.4998957E+03  0.7818609E-02  0.1013806E+00
        2   -1    0    0  501    0  0.00000000000E+00  0.00000000000E+00  0.81829901363E+03  0.81829901364E+03  0.25500000920E-02 0.  1.
       -2   -1    0    0    0  501  0.00000000000E+00  0.00000000000E+00 -0.76346075311E+02  0.76346075354E+02  0.25500000920E-02 0. -1.
    10030    2    1    2    0    0  0.00000000000E+00  0.00000000000E+00  0.74195293832E+03  0.89464508899E+03  0.49989566168E+03 0.  0.
        4    1    3    3  502    0 -0.69493104795E+01  0.24944465350E+03  0.39637312475E+03  0.46838466563E+03  0.12699999809E+01 0. -1.
       -4    1    3    3    0  502  0.69493104795E+01 -0.24944465350E+03  0.34557981357E+03  0.42626042336E+03  0.12699999809E+01 0.  1.
</event>
<event>
 5   0  0.3211775E-03  0.5000256E+03  0.7818609E-02  0.1013772E+00
       -1   -1    0    0    0  501  0.00000000000E+00  0.00000000000E+00  0.73063445333E+03  0.73063445335E+03  0.50400001928E-02 0. -1.
        1   -1    0    0  501    0  0.00000000000E+00  0.00000000000E+00 -0.85550858795E+02  0.85550858943E+02  0.50400001928E-02 0.  1.
    10030    2    1    2    0    0  0.00000000000E+00  0.00000000000E+00  0.64508359454E+03  0.81618531230E+03  0.50002561941E+03 0.  0.
        4    1    3    3  502    0 -0.14413477496E+03  0.96687437919E+02  0.28814041364E+02  0.17594077380E+03  0.12699999809E+01 0.  1.
       -4    1    3    3    0  502  0.14413477496E+03 -0.96687437919E+02  0.61626955318E+03  0.64024453850E+03  0.12699999809E+01 0. -1.
</event>
<event>
 5   0  0.3057783E-03  0.4994137E+03  0.7818609E-02  0.1013932E+00
       -1   -1    0    0    0  501  0.00000000000E+00  0.00000000000E+00  0.83713635295E+02  0.83713635446E+02  0.50400001928E-02 0. -1.
        1   -1    0    0  501    0  0.00000000000E+00  0.00000000000E+00 -0.74484303357E+03  0.74484303358E+03  0.50400001928E-02 0.  1.
    10030    2    1    2    0    0  0.00000000000E+00  0.00000000000E+00 -0.66112939827E+03  0.82855666903E+03  0.49941372882E+03 0.  0.
        5    1    3    3  502    0 -0.49966824586E+02 -0.13734539961E+03  0.52501895560E+01  0.14632189461E+03  0.46999998093E+01 0. -1.
       -5    1    3    3    0  502  0.49966824586E+02  0.13734539961E+03 -0.66637958783E+03  0.68223477442E+03  0.46999998093E+01 0.  1.
</event>
<event>
 5   0  0.5118882E-03  0.5004922E+03  0.7818609E-02  0.1013651E+00
        2   -1    0    0  501    0  0.00000000000E+00  0.00000000000E+00  0.97298991252E+03  0.97298991253E+03  0.25500000920E-02 0. -1.
       -2   -1    0    0    0  501  0.00000000000E+00  0.00000000000E+00 -0.64361516954E+02  0.64361517004E+02  0.25500000920E-02 0.  1.
    10030    2    1    2    0    0  0.00000000000E+00  0.00000000000E+00  0.90862839557E+03  0.10373514295E+04  0.50049218487E+03 0.  0.
        3    1    3    3  502    0  0.45966584200E+02  0.22678350443E+03  0.25681857834E+03  0.34568696407E+03  0.10100000352E+00 0.  1.
       -3    1    3    3    0  502 -0.45966584200E+02 -0.22678350443E+03  0.65180981723E+03  0.69166446546E+03  0.10100000352E+00 0. -1.
</event>
<event>
 5   0  0.3013734E-03  0.4992829E+03  0.7818609E-02  0.1013966E+00
        1   -1    0    0  501    0  0.00000000000E+00  0.00000000000E+00  0.10665751572E+04  0.10665751572E+04  0.50400001928E-02 0.  1.
       -1   -1    0    0    0  501  0.00000000000E+00  0.00000000000E+00 -0.58430808542E+02  0.58430808759E+02  0.50400001928E-02 0. -1.
    10030    2    1    2    0    0  0.00000000000E+00  0.00000000000E+00  0.10081443486E+04  0.11250059659E+04  0.49928288147E+03 0.  0.
        2    1    3    3  502    0  0.22319411545E+03  0.88263997143E+02  0.34935614913E+03  0.42385830805E+03  0.25500000920E-02 0. -1.
       -2    1    3    3    0  502 -0.22319411545E+03 -0.88263997143E+02  0.65878819949E+03  0.70114765788E+03  0.25500000920E-02 0.  1.
</event>
<event>
 5   0  0.5118882E-03  0.5001497E+03  0.7818609E-02  0.1013740E+00
       -2   -1    0    0    0  501  0.00000000000E+00  0.00000000000E+00  0.25312831305E+03  0.25312831307E+03  0.25500000920E-02 0.  1.
        2   -1    0    0  501    0  0.00000000000E+00  0.00000000000E+00 -0.24705824160E+03  0.24705824161E+03  0.25500000920E-02 0. -1.
    10030    2    1    2    0    0  0.00000000000E+00  0.00000000000E+00  0.60700714544E+01  0.50018655468E+03  0.50014972129E+03 0.  0.
        3    1    3    3  502    0  0.63348359229E+02 -0.21843829287E+03 -0.10093955467E+03  0.24883148174E+03  0.10100000352E+00 0. -1.
       -3    1    3    3    0  502 -0.63348359229E+02  0.21843829287E+03  0.10700962612E+03  0.25135507294E+03  0.10100000352E+00 0.  1.
</event>
<event>
 5   0  0.3057783E-03  0.4999861E+03  0.7818609E-02  0.1013783E+00
        1   -1    0    0  501    0  0.00000000000E+00  0.00000000000E+00  0.30128061166E+03  0.30128061170E+03  0.50400001928E-02 0.  1.
       -1   -1    0    0    0  501  0.00000000000E+00  0.00000000000E+00 -0.20743624973E+03  0.20743624979E+03  0.50400001928E-02 0. -1.
    10030    2    1    2    0    0  0.00000000000E+00  0.00000000000E+00  0.93844361929E+02  0.50871686149E+03  0.49998608070E+03 0.  0.
        5    1    3    3  502    0  0.10075669731E+03 -0.13824436406E+03 -0.13849897588E+03  0.22015329333E+03  0.46999998093E+01 0. -1.
       -5    1    3    3    0  502 -0.10075669731E+03  0.13824436406E+03  0.23234333781E+03  0.28856356816E+03  0.46999998093E+01 0.  1.
</event>
<event>
 5   0  0.3013734E-03  0.5004662E+03  0.7818609E-02  0.1013657E+00
        1   -1    0    0  501    0  0.00000000000E+00  0.00000000000E+00  0.73421323776E+03  0.73421323778E+03  0.50400001928E-02 0. -1.
       -1   -1    0    0    0  501  0.00000000000E+00  0.00000000000E+00 -0.85283959427E+02  0.85283959576E+02  0.50400001928E-02 0.  1.
    10030    2    1    2    0    0  0.00000000000E+00  0.00000000000E+00  0.64892927833E+03  0.81949719735E+03  0.50046623082E+03 0.  0.
        2    1    3    3  502    0 -0.23353974366E+03  0.81993522240E+02  0.26423648953E+03  0.36205617239E+03  0.25500000920E-02 0.  1.
       -2    1    3    3    0  502  0.23353974366E+03 -0.81993522240E+02  0.38469278880E+03  0.45744102496E+03  0.25500000920E-02 0. -1.
</event>
<event>
 5   0  0.4889251E-03  0.5000356E+03  0.7818609E-02  0.1013770E+00
       -2   -1    0    0    0  501  0.00000000000E+00  0.00000000000E+00  0.46315778780E+02  0.46315778851E+02  0.25500000920E-02 0.  1.
        2   -1    0    0  501    0  0.00000000000E+00  0.00000000000E+00 -0.13496244809E+04  0.13496244809E+04  0.25500000920E-02 0. -1.
    10030    2    1    2    0    0  0.00000000000E+00  0.00000000000E+00 -0.13033087022E+04  0.13959402598E+04  0.50003563452E+03 0.  0.
        5    1    3    3  502    0 -0.14215317136E+03  0.10159089316E+03 -0.15258643546E+03  0.23201927503E+03  0.46999998093E+01 0.  1.
       -5    1    3    3    0  502  0.14215317136E+03 -0.10159089316E+03 -0.11507222667E+04  0.11639209848E+04  0.46999998093E+01 0. -1.
</event>
<event>
 5   0  0.2863538E-03  0.4999395E+03  0.7818609E-02  0.1013795E+00
        1   -1    0    0  501    0  0.00000000000E+00  0.00000000000E+00  0.52874825459E+03  0.52874825462E+03  0.50400001928E-02 0.  1.
       -1   -1    0    0    0  501  0.00000000000E+00  0.00000000000E+00 -0.11817509130E+03  0.11817509141E+03  0.50400001928E-02 0. -1.
    10030    2    1    2    0    0  0.00000000000E+00  0.00000000000E+00  0.41057316330E+03  0.64692334602E+03  0.49993948955E+03 0.  0.
        1    1    3    3  502    0  0.19139181479E+03 -0.28587336497E+02  0.53612239335E+00  0.19351576171E+03  0.50400001928E-02 0. -1.
       -1    1    3    3    0  502 -0.19139181479E+03  0.28587336497E+02  0.41003704090E+03  0.45340758432E+03  0.50400001928E-02 0.  1.
</event>
<event>
 5   0  0.2863538E-03  0.5004200E+03  0.7818609E-02  0.1013669E+00
       -1   -1    0    0    0  501  0.00000000000E+00  0.00000000000E+00  0.58118388164E+03  0.58118388166E+03  0.50400001928E-02 0. -1.
        1   -1    0    0  501    0  0.00000000000E+00  0.00000000000E+00 -0.10771983881E+03  0.10771983893E+03  0.50400001928E-02 0.  1.
    10030    2    1    2    0    0  0.00000000000E+00  0.00000000000E+00  0.47346404283E+03  0.68890372060E+03  0.50041996003E+03 0.  0.
        1    1    3    3  502    0  0.15983797916E+03  0.49335936488E+02  0.49288837034E+03  0.52050087402E+03  0.50400001928E-02 0. -1.
       -1    1    3    3    0  502 -0.15983797916E+03 -0.49335936488E+02 -0.19424327511E+02  0.16840284658E+03  0.50400001928E-02 0.  1.
</event>
<event>
 5   0  0.4889251E-03  0.5000968E+03  0.7818609E-02  0.1013754E+00
        2   -1    0    0  501    0  0.00000000000E+00  0.00000000000E+00  0.78890789845E+03  0.78890789846E+03  0.25500000920E-02 0. -1.
       -2   -1    0    0    0  501  0.00000000000E+00  0.00000000000E+00 -0.79254116125E+02  0.79254116166E+02  0.25500000920E-02 0.  1.
    10030    2    1    2    0    0  0.00000000000E+00  0.00000000000E+00  0.70965378233E+03  0.86816201462E+03  0.50009678350E+03 0.  0.
        5    1    3    3  502    0  0.92906738050E+02  0.19767158557E+03  0.56599319139E+03  0.60669275619E+03  0.46999998093E+01 0. -1.
       -5    1    3    3    0  502 -0.92906738050E+02 -0.19767158557E+03  0.14366059094E+03  0.26146925843E+03  0.46999998093E+01 0.  1.
</event>
<event>
 5   0  0.3013734E-03  0.5000058E+03  0.7818609E-02  0.1013777E+00
        1   -1    0    0  501    0  0.00000000000E+00  0.00000000000E+00  0.62191719718E+03  0.62191719720E+03  0.50400001928E-02 0.  1.
       -1   -1    0    0    0  501  0.00000000000E+00  0.00000000000E+00 -0.10049804016E+03  0.10049804028E+03  0.50400001928E-02 0. -1.
    10030    2    1    2    0    0  0.00000000000E+00  0.00000000000E+00  0.52141915702E+03  0.72241523748E+03  0.50000583800E+03 0.  0.
        2    1    3    3  502    0 -0.93237386303E+02 -0.22831266975E+03  0.31995705142E+03  0.40397079119E+03  0.25500000920E-02 0.  1.
       -2    1    3    3    0  502  0.93237386303E+02  0.22831266975E+03  0.20146210560E+03  0.31844444629E+03  0.25500000920E-02 0. -1.
</event>
<event>
 5   0  0.2863538E-03  0.4999892E+03  0.7818609E-02  0.1013782E+00
        1   -1    0    0  501    0  0.00000000000E+00  0.00000000000E+00  0.38337641538E+03  0.38337641541E+03  0.50400001928E-02 0.  1.
       -1   -1    0    0    0  501  0.00000000000E+00  0.00000000000E+00 -0.16301809775E+03  0.16301809783E+03  0.50400001928E-02 0. -1.
    10030    2    1    2    0    0  0.00000000000E+00  0.00000000000E+00  0.22035831763E+03  0.54639451324E+03  0.49998917583E+03 0.  0.
        1    1    3    3  502    0 -0.23238286594E+03 -0.21564140908E+02  0.12248962364E+02  0.23370247252E+03  0.50400001928E-02 0. -1.
       -1    1    3    3    0  502  0.23238286594E+03  0.21564140908E+02  0.20810935526E+03  0.31269204072E+03  0.50400001928E-02 0.  1.
</event>
<event>
 5   0  0.4889251E-03  0.5001091E+03  0.7818609E-02  0.1013750E+00
       -2   -1    0    0    0  501  0.00000000000E+00  0.00000000000E+00  0.31725930883E+02  0.31725930986E+02  0.25500000920E-02 0. -1.
        2   -1    0    0  501    0  0.00000000000E+00  0.00000000000E+00 -0.19708568335E+04  0.19708568335E+04  0.25500000920E-02 0.  1.
    10030    2    1    2    0    0  0.00000000000E+00  0.00000000000E+00 -0.19391309026E+04  0.20025827645E+04  0.50010905924E+03 0.  0.
        5    1    3    3  502    0 -0.15354220358E+03 -0.19671287568E+03 -0.90830972163E+03  0.94197654118E+03  0.46999998093E+01 0.  1.
       -5    1    3    3    0  502  0.15354220358E+03  0.19671287568E+03 -0.10308211810E+04  0.10606062233E+04  0.46999998093E+01 0. -1.
</event>
<event>
 5   0  0.3057783E-03  0.5001521E+03  0.7818609E-02  0.1013739E+00
        1   -1    0    0  501    0  0.00000000000E+00  0.00000000000E+00  0.24581478747E+03  0.24581478753E+03  0.50400001928E-02 0. -1.
       -1   -1    0    0    0  501  0.00000000000E+00  0.00000000000E+00 -0.25441113436E+03  0.25441113441E+03  0.50400001928E-02 0.  1.
    10030    2    1    2    0    0  0.00000000000E+00  0.00000000000E+00 -0.85963468893E+01  0.50022592194E+03  0.50015205268E+03 0.  0.
        5    1    3    3  502    0 -0.75086090730E+02 -0.20376171395E+03 -0.12824860344E+03  0.25224304029E+03  0.46999998093E+01 0.  1.
       -5    1    3    3    0  502  0.75086090730E+02  0.20376171395E+03  0.11965225656E+03  0.24798288165E+03  0.46999998093E+01 0. -1.
</event>
<event>
 5   0  0.5118882E-03  0.4997317E+03  0.7818609E-02  0.1013849E+00
        2   -1    0    0  501    0  0.00000000000E+00  0.00000000000E+00  0.10168401783E+04  0.10168401783E+04  0.25500000920E-02 0. -1.
       -2   -1    0    0    0  501  0.00000000000E+00  0.00000000000E+00 -0.61398979746E+02  0.61398979799E+02  0.25500000920E-02 0.  1.
    10030    2    1    2    0    0  0.00000000000E+00  0.00000000000E+00  0.95544119852E+03  0.10782391581E+04  0.49973172619E+03 0.  0.
        3    1    3    3  502    0 -0.56360515521E+02  0.28566016494E+02  0.99931728230E+03  0.10013129211E+04  0.10100000352E+00 0. -1.
       -3    1    3    3    0  502  0.56360515521E+02 -0.28566016494E+02 -0.43876083783E+02  0.76926236989E+02  0.10100000352E+00 0.  1.
</event>
<event>
 5   0  0.3013734E-03  0.4999918E+03  0.7818609E-02  0.1013781E+00
        1   -1    0    0  501    0  0.00000000000E+00  0.00000000000E+00  0.14398754836E+03  0.14398754845E+03  0.50400001928E-02 0.  1.
       -1   -1    0    0    0  501  0.00000000000E+00  0.00000000000E+00 -0.43405112207E+03  0.43405112209E+03  0.50400001928E-02 0. -1.
    10030    2    1    2    0    0  0.00000000000E+00  0.00000000000E+00 -0.29006357371E+03  0.57803867054E+03  0.49999182778E+03 0.  0.
        2    1    3    3  502    0  0.11319209076E+03  0.48693690065E+02 -0.39650446291E+03  0.41520996372E+03  0.25500000920E-02 0. -1.
       -2    1    3    3    0  502 -0.11319209076E+03 -0.48693690065E+02  0.10644088920E+03  0.16282870682E+03  0.25500000920E-02 0.  1.
</event>
<event>
 5   0  0.3013734E-03  0.4998966E+03  0.7818609E-02  0.1013806E+00
        1   -1    0    0  501    0  0.00000000000E+00  0.00000000000E+00  0.84325010047E+02  0.84325010198E+02  0.50400001928E-02 0.  1.
       -1   -1    0    0    0  501  0.00000000000E+00  0.00000000000E+00 -0.74087342664E+03  0.74087342666E+03  0.50400001928E-02 0. -1.
    10030    2    1    2    0    0  0.00000000000E+00  0.00000000000E+00 -0.65654841659E+03  0.82519843686E+03  0.49989662617E+03 0.  0.
        2    1    3    3  502    0 -0.22325156745E+03 -0.57328053676E+02 -0.48786218401E+03  0.53957138425E+03  0.25500000920E-02 0.  1.
       -2    1    3    3    0  502  0.22325156745E+03  0.57328053676E+02 -0.16868623258E+03  0.28562705260E+03  0.25500000920E-02 0. -1.
</event>
<event>
 5   0  0.2863538E-03  0.4995327E+03  0.7818609E-02  0.1013901E+00
       -1   -1    0    0    0  501  0.00000000000E+00  0.00000000000E+00  0.21767458391E+03  0.21767458397E+03  0.50400001928E-02 0.  1.
        1   -1    0    0  501    0  0.00000000000E+00  0.00000000000E+00 -0.28658937490E+03  0.28658937494E+03  0.50400001928E-02 0. -1.
    10030    2    1    2    0    0  0.00000000000E+00  0.00000000000E+00 -0.68914790986E+02  0.50426395891E+03  0.49953267345E+03 0.  0.
        1    1    3    3  502    0  0.22862748552E+03 -0.72167613547E+02 -0.10515306096E+03  0.26179354048E+03  0.50400001928E-02 0. -1.
       -1    1    3    3    0  502 -0.22862748552E+03  0.72167613547E+02  0.36238269977E+02  0.24247041844E+03  0.50400001928E-02 0.  1.
</event>
<event>
 5   0  0.3211775E-03  0.5000688E+03  0.7818609E-02  0.1013761E+00
       -1   -1    0    0    0  501  0.00000000000E+00  0.00000000000E+00  0.17118746828E+03  0.17118746836E+03  0.50400001928E-02 0.  1.
        1   -1    0    0  501    0  0.00000000000E+00  0.00000000000E+00 -0.36519733988E+03  0.36519733992E+03  0.50400001928E-02 0. -1.
    10030    2    1    2    0    0  0.00000000000E+00  0.00000000000E+00 -0.19400987160E+03  0.53638480827E+03  0.50006882753E+03 0.  0.
        4    1    3    3  502    0  0.24320478792E+02  0.24189589383E+03 -0.34364492408E+02  0.24553541574E+03  0.12699999809E+01 0.  1.
       -4    1    3    3    0  502 -0.24320478792E+02 -0.24189589383E+03 -0.15964537919E+03  0.29084939254E+03  0.12699999809E+01 0. -1.
</event>
<event>
 5   0  0.4989875E-03  0.4998939E+03  0.7818609E-02  0.1013807E+00
        2   -1    0    0  501    0  0.00000000000E+00  0.00000000000E+00  0.28454024965E+03  0.28454024966E+03  0.25500000920E-02 0. -1.
       -2   -1    0    0    0  501  0.00000000000E+00  0.00000000000E+00 -0.21955934268E+03  0.21955934269E+03  0.25500000920E-02 0.  1.
    10030    2    1    2    0    0  0.00000000000E+00  0.00000000000E+00  0.64980906971E+02  0.50409959236E+03  0.49989386948E+03 0.  0.
        2    1    3    3  502    0  0.60823913561E+02  0.23613011233E+03 -0.22894221038E+02  0.24491044031E+03  0.25500000920E-02 0. -1.
       -2    1    3    3    0  502 -0.60823913561E+02 -0.23613011233E+03  0.87875128009E+02  0.25918915205E+03  0.25500000920E-02 0.  1.
</event>
<event>
 5   0  0.4978779E-03  0.4999842E+03  0.7818609E-02  0.1013783E+00
       -2   -1    0    0    0  501  0.00000000000E+00  0.00000000000E+00  0.34965372025E+02  0.34965372118E+02  0.25500000920E-02 0.  1.
        2   -1    0    0  501    0  0.00000000000E+00  0.00000000000E+00 -0.17873701358E+04  0.17873701358E+04  0.25500000920E-02 0. -1.
    10030    2    1    2    0    0  0.00000000000E+00  0.00000000000E+00 -0.17524047638E+04  0.18223355080E+04  0.49998424708E+03 0.  0.
        1    1    3    3  502    0 -0.17309412616E+03  0.61769315440E+02 -0.14938730135E+04  0.15051357432E+04  0.50400001928E-02 0. -1.
       -1    1    3    3    0  502  0.17309412616E+03 -0.61769315440E+02 -0.25853175028E+03  0.31719976477E+03  0.50400001928E-02 0.  1.
</event>
<event>
 5   0  0.5118882E-03  0.4999588E+03  0.7818609E-02  0.1013790E+00
        2   -1    0    0  501    0  0.00000000000E+00  0.00000000000E+00  0.64924980087E+03  0.64924980088E+03  0.25500000920E-02 0. -1.
       -2   -1    0    0    0  501  0.00000000000E+00  0.00000000000E+00 -0.96249103471E+02  0.96249103505E+02  0.25500000920E-02 0.  1.
    10030    2    1    2    0    0  0.00000000000E+00  0.00000000000E+00  0.55300069740E+03  0.74549890438E+03  0.49995884342E+03 0.  0.
        3    1    3    3  502    0  0.93390582522E+01 -0.13686439060E+03 -0.35106821147E+02  0.14160359641E+03  0.10100000352E+00 0.  1.
       -3    1    3    3    0  502 -0.93390582522E+01  0.13686439060E+03  0.58810751855E+03  0.60389530798E+03  0.10100000352E+00 0. -1.
</event>
<event>
 5   0  0.4978779E-03  0.4998837E+03  0.7818609E-02  0.1013809E+00
       -2   -1    0    0    0  501  0.00000000000E+00  0.00000000000E+00  0.57810704437E+03  0.57810704438E+03  0.25500000920E-02 0. -1.
        2   -1    0    0  501    0  0.00000000000E+00  0.00000000000E+00 -0.10806118281E+03  0.10806118284E+03  0.25500000920E-02 0.  1.
    10030    2    1    2    0    0  0.00000000000E+00  0.00000000000E+00  0.47004586156E+03  0.68616822722E+03  0.49988371055E+03 0.  0.
        1    1    3    3  502    0  0.35299793589E+02  0.23268190213E+03  0.11949140009E+03  0.26394154226E+03  0.50400001928E-02 0.  1.
       -1    1    3    3    0  502 -0.35299793589E+02 -0.23268190213E+03  0.35055446147E+03  0.42222668496E+03  0.50400001928E-02 0. -1.
</event>
<event>
 5   0  0.5095783E-03  0.4997272E+03  0.7818609E-02  0.1013850E+00
        2   -1    0    0  501    0  0.00000000000E+00  0.00000000000E+00  0.13211305893E+04  0.13211305893E+04  0.25500000920E-02 0. -1.
       -2   -1    0    0    0  501  0.00000000000E+00  0.00000000000E+00 -0.47256347934E+02  0.47256348002E+02  0.25500000920E-02 0.  1.
    10030    2    1    2    0    0  0.00000000000E+00  0.00000000000E+00  0.12738742414E+04  0.13683869373E+04  0.49972715293E+03 0.  0.
        4    1    3    3  502    0  0.41577581707E+02  0.13708672244E+03  0.11975050115E+04  0.12060436685E+04  0.12699999809E+01 0. -1.
       -4    1    3    3    0  502 -0.41577581707E+02 -0.13708672244E+03  0.76369229869E+02  0.16234326885E+03  0.12699999809E+01 0.  1.
</event>
<event>
 5   0  0.3055293E-03  0.5002967E+03  0.7818609E-02  0.1013702E+00
        1   -1    0    0  501    0  0.00000000000E+00  0.00000000000E+00  0.34943157233E+03  0.34943157237E+03  0.50400001928E-02 0. -1.
       -1   -1    0    0    0  501  0.00000000000E+00  0.00000000000E+00 -0.17907423509E+03  0.17907423516E+03  0.50400001928E-02 0.  1.
    10030    2    1    2    0    0  0.00000000000E+00  0.00000000000E+00  0.17035733724E+03  0.52850580753E+03  0.50029667822E+03 0.  0.
        3    1    3    3  502    0 -0.23866116834E+02  0.21859405687E+03  0.21115550451E+03  0.30485998511E+03  0.10100000352E+00 0. -1.
       -3    1    3    3    0  502  0.23866116834E+02 -0.21859405687E+03 -0.40798167268E+02  0.22364582242E+03  0.10100000352E+00 0.  1.
</event>
<event>
 5   0  0.2863538E-03  0.5001087E+03  0.7818609E-02  0.1013751E+00
        1   -1    0    0  501    0  0.00000000000E+00  0.00000000000E+00  0.26598591260E+03  0.26598591265E+03  0.50400001928E-02 0. -1.
       -1   -1    0    0    0  501  0.00000000000E+00  0.00000000000E+00 -0.23507700001E+03  0.23507700006E+03  0.50400001928E-02 0.  1.
    10030    2    1    2    0    0  0.00000000000E+00  0.00000000000E+00  0.30908912589E+02  0.50106291271E+03  0.50010866981E+03 0.  0.
        1    1    3    3  502    0 -0.17328499286E+03 -0.14998756185E+03 -0.84752444773E+02  0.24435002431E+03  0.50400001928E-02 0.  1.
       -1    1    3    3    0  502  0.17328499286E+03  0.14998756185E+03  0.11566135736E+03  0.25671288840E+03  0.50400001928E-02 0. -1.
</event>
<event>
 5   0  0.3057783E-03  0.4999837E+03  0.7818609E-02  0.1013783E+00
        1   -1    0    0  501    0  0.00000000000E+00  0.00000000000E+00  0.34191736508E+03  0.34191736511E+03  0.50400001928E-02 0.  1.
       -1   -1    0    0    0  501  0.00000000000E+00  0.00000000000E+00 -0.18278079944E+03  0.18278079951E+03  0.50400001928E-02 0. -1.
    10030    2    1    2    0    0  0.00000000000E+00  0.00000000000E+00  0.15913656564E+03  0.52469816462E+03  0.49998371717E+03 0.  0.
        5    1    3    3  502    0  0.68532696410E+02 -0.35899441426E+02 -0.16985275755E+03  0.18670176651E+03  0.46999998093E+01 0. -1.
       -5    1    3    3    0  502 -0.68532696410E+02  0.35899441426E+02  0.32898932318E+03  0.33799639812E+03  0.46999998093E+01 0.  1.
</event>
<event>
 5   0  0.2863538E-03  0.4994319E+03  0.7818609E-02  0.1013927E+00
       -1   -1    0    0    0  501  0.00000000000E+00  0.00000000000E+00  0.17457696585E+03  0.17457696592E+03  0.50400001928E-02 0.  1.
        1   -1    0    0  501    0  0.00000000000E+00  0.00000000000E+00 -0.35719515893E+03  0.35719515896E+03  0.50400001928E-02 0. -1.
    10030    2    1    2    0    0  0.00000000000E+00  0.00000000000E+00 -0.18261819308E+03  0.53177212488E+03  0.49943186558E+03 0.  0.
        1    1    3    3  502    0  0.16908115976E+03  0.69987136081E+02  0.89609542135E+02  0.20375600082E+03  0.50400001928E-02 0.  1.
       -1    1    3    3    0  502 -0.16908115976E+03 -0.69987136081E+02 -0.27222773521E+03  0.32801612406E+03  0.50400001928E-02 0. -1.
</event>
<event>
 5   0  0.3211775E-03  0.5000514E+03  0.7818609E-02  0.1013765E+00
       -1   -1    0    0    0  501  0.00000000000E+00  0.00000000000E+00  0.72570862235E+03  0.72570862237E+03  0.50400001928E-02 0.  1.
        1   -1    0    0  501    0  0.00000000000E+00  0.00000000000E+00 -0.86140441737E+02  0.86140441884E+02  0.50400001928E-02 0. -1.
    10030    2    1    2    0    0  0.00000000000E+00  0.00000000000E+00  0.63956818061E+03  0.81184906425E+03  0.50005144283E+03 0.  0.
        4    1    3    3  502    0 -0.14937132339E+03  0.51212001917E+02  0.63450125623E+03  0.65385619095E+03  0.12699999809E+01 0.  1.
       -4    1    3    3    0  502  0.14937132339E+03 -0.51212001917E+02  0.50669243863E+01  0.15799287330E+03  0.12699999809E+01 0. -1.
</event>
<event>
 5   0  0.3055293E-03  0.4997749E+03  0.7818609E-02  0.1013838E+00
        1   -1    0    0  501    0  0.00000000000E+00  0.00000000000E+00  0.16037804647E+03  0.16037804655E+03  0.50400001928E-02 0.  1.
       -1   -1    0    0    0  501  0.00000000000E+00  0.00000000000E+00 -0.38935343873E+03  0.38935343876E+03  0.50400001928E-02 0. -1.
    10030    2    1    2    0    0  0.00000000000E+00  0.00000000000E+00 -0.22897539226E+03  0.54973148532E+03  0.49977492503E+03 0.  0.
        3    1    3    3  502    0 -0.22535120136E+03  0.10589534063E+03 -0.13773682993E+03  0.28454952406E+03  0.10100000352E+00 0.  1.
       -3    1    3    3    0  502  0.22535120136E+03 -0.10589534063E+03 -0.91238562321E+02  0.26518196126E+03  0.10100000352E+00 0. -1.
</event>
<event>
 5   0  0.5095783E-03  0.5002570E+03  0.7818609E-02  0.1013712E+00
        2   -1    0    0  501    0  0.00000000000E+00  0.00000000000E+00  0.45879367609E+03  0.45879367609E+03  0.25500000920E-02 0.  1.
       -2   -1    0    0    0  501  0.00000000000E+00  0.00000000000E+00 -0.13636691361E+03  0.13636691364E+03  0.25500000920E-02 0. -1.
    10030    2    1    2    0    0  0.00000000000E+00  0.00000000000E+00  0.32242676247E+03  0.59516058973E+03  0.50025704434E+03 0.  0.
        4    1    3    3  502    0 -0.15465679903E+03  0.19428134573E+03  0.12554792199E+03  0.27825862143E+03  0.12699999809E+01 0.  1.
       -4    1    3    3    0  502  0.15465679903E+03 -0.19428134573E+03  0.19687884048E+03  0.31690196830E+03  0.12699999809E+01 0. -1.
</event>
<event>
 5   0  0.3013734E-03  0.5000984E+03  0.7818609E-02  0.1013753E+00
        1   -1    0    0  501    0  0.00000000000E+00  0.00000000000E+00  0.29072369799E+03  0.29072369804E+03  0.50400001928E-02 0. -1.
       -1   -1    0    0    0  501  0.00000000000E+00  0.00000000000E+00 -0.21506534557E+03  0.21506534563E+03  0.50400001928E-02 0.  1.
    10030    2    1    2    0    0  0.00000000000E+00  0.00000000000E+00  0.75658352427E+02  0.50578904366E+03  0.50009836072E+03 0.  0.
        2    1    3    3  502    0  0.20216284837E+03  0.12533307755E+03  0.11581952525E+03  0.26456069251E+03  0.25500000920E-02 0.  1.
       -2    1    3    3    0  502 -0.20216284837E+03 -0.12533307755E+03 -0.40161172819E+02  0.24122835115E+03  0.25500000920E-02 0. -1.
</event>
<event>
 5   0  0.3055293E-03  0.5001337E+03  0.7818609E-02  0.1013744E+00
        1   -1    0    0  501    0  0.00000000000E+00  0.00000000000E+00  0.48786196303E+03  0.48786196306E+03  0.50400001928E-02 0.  1.
       -1   -1    0    0    0  501  0.00000000000E+00  0.00000000000E+00 -0.12817850569E+03  0.12817850579E+03  0.50400001928E-02 0. -1.
    10030    2    1    2    0    0  0.00000000000E+00  0.00000000000E+00  0.35968345734E+03  0.61604046885E+03  0.50013365191E+03 0.  0.
        3    1    3    3  502    0 -0.17129349034E+01 -0.66796535377E+02 -0.11697898293E+03  0.13471749676E+03  0.10100000352E+00 0. -1.
       -3    1    3    3    0  502  0.17129349034E+01  0.66796535377E+02  0.47666244028E+03  0.48132297209E+03  0.10100000352E+00 0.  1.
</event>
<event>
 5   0  0.4889251E-03  0.5000049E+03  0.7818609E-02  0.1013778E+00
       -2   -1    0    0    0  501  0.00000000000E+00  0.00000000000E+00  0.17088310281E+03  0.17088310283E+03  0.25500000920E-02 0. -1.
        2   -1    0    0  501    0  0.00000000000E+00  0.00000000000E+00 -0.36575422887E+03  0.36575422888E+03  0.25500000920E-02 0.  1.
    10030    2    1    2    0    0  0.00000000000E+00  0.00000000000E+00 -0.19487112606E+03  0.53663733171E+03  0.50000486999E+03 0.  0.
        5    1    3    3  502    0  0.14642916994E+02 -0.23345779752E+03 -0.19199354643E+03  0.30265586086E+03  0.46999998093E+01 0. -1.
       -5    1    3    3    0  502 -0.14642916994E+02  0.23345779752E+03 -0.28775796244E+01  0.23398147085E+03  0.46999998093E+01 0.  1.
</event>
<event>
 5   0  0.3013734E-03  0.4999574E+03  0.7818609E-02  0.1013790E+00
       -1   -1    0    0    0  501  0.00000000000E+00  0.00000000000E+00  0.23893471809E+03  0.23893471814E+03  0.50400001928E-02 0. -1.
        1   -1    0    0  501    0  0.00000000000E+00  0.00000000000E+00 -0.26153311096E+03  0.26153311101E+03  0.50400001928E-02 0.  1.
    10030    2    1    2    0    0  0.00000000000E+00  0.00000000000E+00 -0.22598392875E+02  0.50046782915E+03  0.49995735884E+03 0.  0.
        2    1    3    3  502    0  0.20052144481E+03 -0.13579427291E+03  0.50735085187E+02  0.24743278534E+03  0.25500000920E-02 0.  1.
       -2    1    3    3    0  502 -0.20052144481E+03  0.13579427291E+03 -0.73333478061E+02  0.25303504381E+03  0.25500000920E-02 0. -1.
</event>
<event>
 5   0  0.3055293E-03  0.5000757E+03  0.7818609E-02  0.1013759E+00
        1   -1    0    0  501    0  0.00000000000E+00  0.00000000000E+00  0.67156627523E+03  0.67156627525E+03  0.50400001928E-02 0. -1.
       -1   -1    0    0    0  501  0.00000000000E+00  0.00000000000E+00 -0.93094183757E+02  0.93094183894E+02  0.50400001928E-02 0.  1.
    10030    2    1    2    0    0  0.00000000000E+00  0.00000000000E+00  0.57847209148E+03  0.76466045915E+03  0.50007565144E+03 0.  0.
        3    1    3    3  502    0 -0.24971040916E+03  0.10235783446E+01  0.30873226346E+03  0.39707928284E+03  0.10100000352E+00 0.  1.
       -3    1    3    3    0  502  0.24971040916E+03 -0.10235783446E+01  0.26973982801E+03  0.36758117630E+03  0.10100000352E+00 0. -1.
</event>
<event>
 5   0  0.3057783E-03  0.4996662E+03  0.7818609E-02  0.1013866E+00
       -1   -1    0    0    0  501  0.00000000000E+00  0.00000000000E+00  0.73085892382E+02  0.73085892556E+02  0.50400001928E-02 0.  1.
        1   -1    0    0  501    0  0.00000000000E+00  0.00000000000E+00 -0.85401683247E+03  0.85401683249E+03  0.50400001928E-02 0. -1.
    10030    2    1    2    0    0  0.00000000000E+00  0.00000000000E+00 -0.78093094009E+03  0.92710272504E+03  0.49966621818E+03 0.  0.
        5    1    3    3  502    0  0.47222271765E+02  0.21198551329E+02 -0.84387454573E+03  0.84547363085E+03  0.46999998093E+01 0. -1.
       -5    1    3    3    0  502 -0.47222271765E+02 -0.21198551329E+02  0.62943605643E+02  0.81629094192E+02  0.46999998093E+01 0.  1.
</event>
<event>
 5   0  0.2005125E-03  0.5000431E+03  0.7818609E-02  0.1013768E+00
       -3   -1    0    0    0  501  0.00000000000E+00  0.00000000000E+00  0.20426338313E+03  0.20426340810E+03  0.10100000352E+00 0.  1.
        3   -1    0    0  501    0  0.00000000000E+00  0.00000000000E+00 -0.30603023654E+03  0.30603025321E+03  0.10100000352E+00 0. -1.
    10030    2    1    2    0    0  0.00000000000E+00  0.00000000000E+00 -0.10176685341E+03  0.51029366131E+03  0.50004312646E+03 0.  0.
        5    1    3    3  502    0  0.29311140509E+02  0.20774382256E+03  0.87814605168E+02  0.22748655708E+03  0.46999998093E+01 0.  1.
       -5    1    3    3    0  502 -0.29311140509E+02 -0.20774382256E+03 -0.18958145858E+03  0.28280710424E+03  0.46999998093E+01 0. -1.
</event>
<event>
 5   0  0.4989875E-03  0.5000872E+03  0.7818609E-02  0.1013756E+00
       -2   -1    0    0    0  501  0.00000000000E+00  0.00000000000E+00  0.21528253605E+03  0.21528253607E+03  0.25500000920E-02 0. -1.
        2   -1    0    0  501    0  0.00000000000E+00  0.00000000000E+00 -0.29041742779E+03  0.29041742781E+03  0.25500000920E-02 0.  1.
    10030    2    1    2    0    0  0.00000000000E+00  0.00000000000E+00 -0.75134891743E+02  0.50569996387E+03  0.50008719390E+03 0.  0.
        2    1    3    3  502    0 -0.37284071600E+02  0.99590134014E+02 -0.26641139460E+03  0.28685070676E+03  0.25500000920E-02 0.  1.
       -2    1    3    3    0  502  0.37284071600E+02 -0.99590134014E+02  0.19127650286E+03  0.21884925712E+03  0.25500000920E-02 0. -1.
</event>
<event>
 5   0  0.4989875E-03  0.4999943E+03  0.7818609E-02  0.1013780E+00
        2   -1    0    0  501    0  0.00000000000E+00  0.00000000000E+00  0.87760470632E+03  0.87760470632E+03  0.25500000920E-02 0.  1.
       -2   -1    0    0    0  501  0.00000000000E+00  0.00000000000E+00 -0.71214961749E+02  0.71214961794E+02  0.25500000920E-02 0. -1.
    10030    2    1    2    0    0  0.00000000000E+00  0.00000000000E+00  0.80638974457E+03  0.94881966812E+03  0.49999434243E+03 0.  0.
        2    1    3    3  502    0  0.61408247016E+02 -0.46244939183E+02  0.85461889735E+03  0.85806936020E+03  0.25500000920E-02 0.  1.
       -2    1    3    3    0  502 -0.61408247016E+02  0.46244939183E+02 -0.48229152783E+02  0.90750307913E+02  0.25500000920E-02 0. -1.
</event>
<event>
 5   0  0.4889251E-03  0.5000895E+03  0.7818609E-02  0.1013756E+00
       -2   -1    0    0    0  501  0.00000000000E+00  0.00000000000E+00  0.38957359112E+03  0.38957359112E+03  0.25500000920E-02 0. -1.
        2   -1    0    0  501    0  0.00000000000E+00  0.00000000000E+00 -0.16048927853E+03  0.16048927855E+03  0.25500000920E-02 0.  1.
    10030    2    1    2    0    0  0.00000000000E+00  0.00000000000E+00  0.22908431258E+03  0.55006286968E+03  0.50008953031E+03 0.  0.
        5    1    3    3  502    0 -0.13333321529E+03 -0.12915672296E+02  0.34671764456E+03  0.37172540395E+03  0.46999998093E+01 0. -1.
       -5    1    3    3    0  502  0.13333321529E+03  0.12915672296E+02 -0.11763333198E+03  0.17833746573E+03  0.46999998093E+01 0.  1.
</event>
<event>
 5   0  0.5095783E-03  0.4998359E+03  0.7818609E-02  0.1013822E+00
        2   -1    0    0  501    0  0.00000000000E+00  0.00000000000E+00  0.38016045364E+03  0.38016045365E+03  0.25500000920E-02 0.  1.
       -2   -1    0    0    0  501  0.00000000000E+00  0.00000000000E+00 -0.16429639718E+03  0.16429639720E+03  0.25500000920E-02 0. -1.
    10030    2    1    2    0    0  0.00000000000E+00  0.00000000000E+00  0.21586405646E+03  0.54445685085E+03  0.49983594465E+03 0.  0.
        4    1    3    3  502    0 -0.21382968876E+01  0.22343226632E+03 -0.14002275411E+02  0.22388440447E+03  0.12699999809E+01 0. -1.
       -4    1    3    3    0  502  0.21382968876E+01 -0.22343226632E+03  0.22986633188E+03  0.32057244638E+03  0.12699999809E+01 0.  1.
</event>
<event>
 5   0  0.2863538E-03  0.5001237E+03  0.7818609E-02  0.1013747E+00
       -1   -1    0    0    0  501  0.00000000000E+00  0.00000000000E+00  0.12633935296E+03  0.12633935306E+03  0.50400001928E-02 0. -1.
        1   -1    0    0  501    0  0.00000000000E+00  0.00000000000E+00 -0.49494425132E+03  0.49494425134E+03  0.50400001928E-02 0.  1.
    10030    2    1    2    0    0  0.00000000000E+00  0.00000000000E+00 -0.36860489836E+03  0.62128360440E+03  0.50012373069E+03 0.  0.
        1    1    3    3  502    0 -0.22629712699E+03  0.69409595790E+02 -0.28447862742E+03  0.37007589918E+03  0.50400001928E-02 0.  1.
       -1    1    3    3    0  502  0.22629712699E+03 -0.69409595790E+02 -0.84126270941E+02  0.25120770522E+03  0.50400001928E-02 0. -1.
</event>
<event>
 5   0  0.5095783E-03  0.5000736E+03  0.7818609E-02  0.1013760E+00
       -2   -1    0    0    0  501  0.00000000000E+00  0.00000000000E+00  0.96144340782E+02  0.96144340815E+02  0.25500000920E-02 0. -1.
        2   -1    0    0  501    0  0.00000000000E+00  0.00000000000E+00 -0.65025574732E+03  0.65025574733E+03  0.25500000920E-02 0.  1.
    10030    2    1    2    0    0  0.00000000000E+00  0.00000000000E+00 -0.55411140654E+03  0.74640008814E+03  0.50007363530E+03 0.  0.
        4    1    3    3  502    0 -0.77396118112E+02  0.23684356171E+03 -0.30806998091E+03  0.39622437818E+03  0.12699999809E+01 0.  1.
       -4    1    3    3    0  502  0.77396118112E+02 -0.23684356171E+03 -0.24604142563E+03  0.35017570996E+03  0.12699999809E+01 0. -1.
</event>
<event>
 5   0  0.3211775E-03  0.4998412E+03  0.7818609E-02  0.1013820E+00
        1   -1    0    0  501    0  0.00000000000E+00  0.00000000000E+00  0.11245355913E+04  0.11245355913E+04  0.50400001928E-02 0.  1.
       -1   -1    0    0    0  501  0.00000000000E+00  0.00000000000E+00 -0.55543204818E+02  0.55543205047E+02  0.50400001928E-02 0. -1.
    10030    2    1    2    0    0  0.00000000000E+00  0.00000000000E+00  0.10689923864E+04  0.11800787963E+04  0.49984121803E+03 0.  0.
        4    1    3    3  502    0 -0.10765011482E+03 -0.84061791314E+02  0.40373652716E+02  0.14243095420E+03  0.12699999809E+01 0. -1.
       -4    1    3    3    0  502  0.10765011482E+03  0.84061791314E+02  0.10286187337E+04  0.10376478421E+04  0.12699999809E+01 0.  1.
</event>
<event>
 5   0  0.4978779E-03  0.5000012E+03  0.7818609E-02  0.1013779E+00
       -2   -1    0    0    0  501  0.00000000000E+00  0.00000000000E+00  0.12175957373E+03  0.12175957376E+03  0.25500000920E-02 0. -1.
        2   -1    0    0  501    0  0.00000000000E+00  0.00000000000E+00 -0.51330903723E+03  0.51330903723E+03  0.25500000920E-02 0.  1.
    10030    2    1    2    0    0  0.00000000000E+00  0.00000000000E+00 -0.39154946350E+03  0.63506861099E+03  0.50000115830E+03 0.  0.
        1    1    3    3  502    0 -0.17796864966E+03  0.17458099466E+03 -0.21950026867E+03  0.33216220726E+03  0.50400001928E-02 0.  1.
       -1    1    3    3    0  502  0.17796864966E+03 -0.17458099466E+03 -0.17204919482E+03  0.30290640373E+03  0.50400001928E-02 0. -1.
</event>
<event>
 5   0  0.3055293E-03  0.4997465E+03  0.7818609E-02  0.1013845E+00
        1   -1    0    0  501    0  0.00000000000E+00  0.00000000000E+00  0.24449156780E+03  0.24449156785E+03  0.50400001928E-02 0. -1.
       -1   -1    0    0    0  501  0.00000000000E+00  0.00000000000E+00 -0.25537338919E+03  0.25537338924E+03  0.50400001928E-02 0.  1.
    10030    2    1    2    0    0  0.00000000000E+00  0.00000000000E+00 -0.10881821383E+02  0.49986495709E+03  0.49974649703E+03 0.  0.
        3    1    3    3  502    0 -0.40146094113E+01  0.17521781036E+03 -0.18358206602E+03  0.25381052642E+03  0.10100000352E+00 0.  1.
       -3    1    3    3    0  502  0.40146094113E+01 -0.17521781036E+03  0.17270024464E+03  0.24605443067E+03  0.10100000352E+00 0. -1.
</event>
<event>
 5   0  0.5118882E-03  0.5004501E+03  0.7818609E-02  0.1013661E+00
       -2   -1    0    0    0  501  0.00000000000E+00  0.00000000000E+00  0.13722069892E+03  0.13722069894E+03  0.25500000920E-02 0. -1.
        2   -1    0    0  501    0  0.00000000000E+00  0.00000000000E+00 -0.45629109070E+03  0.45629109071E+03  0.25500000920E-02 0.  1.
    10030    2    1    2    0    0  0.00000000000E+00  0.00000000000E+00 -0.31907039178E+03  0.59351178965E+03  0.50045012693E+03 0.  0.
        3    1    3    3  502    0  0.12889504637E+03  0.23353423851E+02  0.93307871204E+02  0.16082812072E+03  0.10100000352E+00 0. -1.
       -3    1    3    3    0  502 -0.12889504637E+03 -0.23353423851E+02 -0.41237826298E+03  0.43268366894E+03  0.10100000352E+00 0.  1.
</event>
<event>
 5   0  0.3057783E-03  0.5001945E+03  0.7818609E-02  0.1013728E+00
       -1   -1    0    0    0  501  0.00000000000E+00  0.00000000000E+00  0.15044979637E+03  0.15044979646E+03  0.50400001928E-02 0.  1.
        1   -1    0    0  501    0  0.00000000000E+00  0.00000000000E+00 -0.41574421038E+03  0.41574421042E+03  0.50400001928E-02 0. -1.
    10030    2    1    2    0    0  0.00000000000E+00  0.00000000000E+00 -0.26529441401E+03  0.56619400687E+03  0.50019448948E+03 0.  0.
        5    1    3    3  502    0  0.11330241916E+03 -0.85920837554E+02  0.10017854210E+03  0.17400476663E+03  0.46999998093E+01 0.  1.
       -5    1    3    3    0  502 -0.11330241916E+03  0.85920837554E+02 -0.36547295611E+03  0.39218924024E+03  0.46999998093E+01 0. -1.
</event>
<event>
 5   0  0.4978779E-03  0.5002934E+03  0.7818609E-02  0.1013702E+00
       -2   -1    0    0    0  501  0.00000000000E+00  0.00000000000E+00  0.12867631593E+03  0.12867631596E+03  0.25500000920E-02 0. -1.
        2   -1    0    0  501    0  0.00000000000E+00  0.00000000000E+00 -0.48628503587E+03  0.48628503588E+03  0.25500000920E-02 0.  1.
    10030    2    1    2    0    0  0.00000000000E+00  0.00000000000E+00 -0.35760871994E+03  0.61496135184E+03  0.50029338160E+03 0.  0.
        1    1    3    3  502    0  0.13955039899E+03 -0.20753019551E+03 -0.18556731287E+03  0.31141342864E+03  0.50400001928E-02 0.  1.
       -1    1    3    3    0  502 -0.13955039899E+03  0.20753019551E+03 -0.17204140708E+03  0.30354792320E+03  0.50400001928E-02 0. -1.
</event>
<event>
 5   0  0.5118882E-03  0.4994648E+03  0.7818609E-02  0.1013919E+00
        2   -1    0    0  501    0  0.00000000000E+00  0.00000000000E+00  0.20443585677E+03  0.20443585679E+03  0.25500000920E-02 0. -1.
       -2   -1    0    0    0  501  0.00000000000E+00  0.00000000000E+00 -0.30506525569E+03  0.30506525570E+03  0.25500000920E-02 0.  1.
    10030    2    1    2    0    0  0.00000000000E+00  0.00000000000E+00 -0.10062939892E+03  0.50950111249E+03  0.49946482128E+03 0.  0.
        3    1    3    3  502    0  0.15644639745E+03  0.11028589030E+02 -0.24856274032E+03  0.29390568407E+03  0.10100000352E+00 0.  1.
       -3    1    3    3    0  502 -0.15644639745E+03 -0.11028589030E+02  0.14793334141E+03  0.21559542841E+03  0.10100000352E+00 0. -1.
</event>
<event>
 5   0  0.3057783E-03  0.4999023E+03  0.7818609E-02  0.1013804E+00
        1   -1    0    0  501    0  0.00000000000E+00  0.00000000000E+00  0.69136538294E+03  0.69136538296E+03  0.50400001928E-02 0.  1.
       -1   -1    0    0    0  501  0.00000000000E+00  0.00000000000E+00 -0.90365487899E+02  0.90365488039E+02  0.50400001928E-02 0. -1.
    10030    2    1    2    0    0  0.00000000000E+00  0.00000000000E+00  0.60099989504E+03  0.78173087100E+03  0.49990227128E+03 0.  0.
        5    1    3    3  502    0  0.75567348066E+01  0.74685813576E+02 -0.72249211906E+02  0.10429340156E+03  0.46999998093E+01 0. -1.
       -5    1    3    3    0  502 -0.75567348066E+01 -0.74685813576E+02  0.67324910695E+03  0.67743746944E+03  0.46999998093E+01 0.  1.
</event>
<event>
 5   0  0.3211775E-03  0.4991184E+03  0.7818609E-02  0.1014009E+00
       -1   -1    0    0    0  501  0.00000000000E+00  0.00000000000E+00  0.14365839676E+03  0.14365839685E+03  0.50400001928E-02 0.  1.
        1   -1    0    0  501    0  0.00000000000E+00  0.00000000000E+00 -0.43352701027E+03  0.43352701030E+03  0.50400001928E-02 0. -1.
    10030    2    1    2    0    0  0.00000000000E+00  0.00000000000E+00 -0.28986861351E+03  0.57718540715E+03  0.49911840392E+03 0.  0.
        4    1    3    3  502    0  0.13165314638E+03  0.11256003458E+03 -0.35268894939E+03  0.39292928150E+03  0.12699999809E+01 0.  1.
       -4    1    3    3    0  502 -0.13165314638E+03 -0.11256003458E+03  0.62820335886E+02  0.18425612565E+03  0.12699999809E+01 0. -1.
</event>
<event>
 5   0  0.3013734E-03  0.5000965E+03  0.7818609E-02  0.1013754E+00
       -1   -1    0    0    0  501  0.00000000000E+00  0.00000000000E+00  0.45995966758E+02  0.45995967034E+02  0.50400001928E-02 0.  1.
        1   -1    0    0  501    0  0.00000000000E+00  0.00000000000E+00 -0.13593393698E+04  0.13593393698E+04  0.50400001928E-02 0. -1.
    10030    2    1    2    0    0  0.00000000000E+00  0.00000000000E+00 -0.13133434031E+04  0.14053353369E+04  0.50009650536E+03 0.  0.
        2    1    3    3  502    0  0.17349989857E+03  0.39567186822E+02 -0.11502981647E+04  0.11639818061E+04  0.25500000920E-02 0. -1.
       -2    1    3    3    0  502 -0.17349989857E+03 -0.39567186822E+02 -0.16304523833E+03  0.24135353079E+03  0.25500000920E-02 0.  1.
</event>
<event>
 5   0  0.5095783E-03  0.4997799E+03  0.7818609E-02  0.1013836E+00
       -2   -1    0    0    0  501  0.00000000000E+00  0.00000000000E+00  0.60775107584E+02  0.60775107638E+02  0.25500000920E-02 0.  1.
        2   -1    0    0  501    0  0.00000000000E+00  0.00000000000E+00 -0.10274762084E+04  0.10274762084E+04  0.25500000920E-02 0. -1.
    10030    2    1    2    0    0  0.00000000000E+00  0.00000000000E+00 -0.96670110084E+03  0.10882513161E+04  0.49977986009E+03 0.  0.
        4    1    3    3  502    0  0.53075273356E+02 -0.16566108008E+03 -0.87397756059E+03  0.89112230777E+03  0.12699999809E+01 0. -1.
       -4    1    3    3    0  502 -0.53075273356E+02  0.16566108008E+03 -0.92723540259E+02  0.19712900830E+03  0.12699999809E+01 0.  1.
</event>
<event>
 5   0  0.4978779E-03  0.5000578E+03  0.7818609E-02  0.1013764E+00
       -2   -1    0    0    0  501  0.00000000000E+00  0.00000000000E+00  0.11388498817E+03  0.11388498820E+03  0.25500000920E-02 0. -1.
        2   -1    0    0  501    0  0.00000000000E+00  0.00000000000E+00 -0.54892624405E+03  0.54892624406E+03  0.25500000920E-02 0.  1.
    10030    2    1    2    0    0  0.00000000000E+00  0.00000000000E+00 -0.43504125589E+03  0.66281123225E+03  0.50005783194E+03 0.  0.
        1    1    3    3  502    0 -0.66145934919E+02  0.76150334581E+02 -0.52076149680E+03  0.53044009533E+03  0.50400001928E-02 0.  1.
       -1    1    3    3    0  502  0.66145934919E+02 -0.76150334581E+02  0.85720240911E+02  0.13237113692E+03  0.50400001928E-02 0. -1.
</event>
<event>
 5   0  0.2863538E-03  0.4999136E+03  0.7818609E-02  0.1013801E+00
       -1   -1    0    0    0  501  0.00000000000E+00  0.00000000000E+00  0.12770835990E+03  0.12770836000E+03  0.50400001928E-02 0. -1.
        1   -1    0    0  501    0  0.00000000000E+00  0.00000000000E+00 -0.48922715970E+03  0.48922715972E+03  0.50400001928E-02 0.  1.
    10030    2    1    2    0    0  0.00000000000E+00  0.00000000000E+00 -0.36151879979E+03  0.61693551973E+03  0.49991358543E+03 0.  0.
        1    1    3    3  502    0 -0.24191052712E+03 -0.28122750263E+02 -0.25020673171E+03  0.34916328678E+03  0.50400001928E-02 0.  1.
       -1    1    3    3    0  502  0.24191052712E+03  0.28122750263E+02 -0.11131206808E+03  0.26777223295E+03  0.50400001928E-02 0. -1.
</event>
<event>
 5   0  0.4889251E-03  0.5001101E+03  0.7818609E-02  0.1013750E+00
        2   -1    0    0  501    0  0.00000000000E+00  0.00000000000E+00  0.91551923329E+03  0.91551923329E+03  0.25500000920E-02 0.  1.
       -2   -1    0    0    0  501  0.00000000000E+00  0.00000000000E+00 -0.68297333172E+02  0.68297333219E+02  0.25500000920E-02 0. -1.
    10030    2    1    2    0    0  0.00000000000E+00  0.00000000000E+00  0.84722190012E+03  0.98381656651E+03  0.50011007639E+03 0.  0.
        5    1    3    3  502    0  0.54833883693E+02 -0.72789951703E+02 -0.34372065813E+02  0.97512362171E+02  0.46999998093E+01 0. -1.
       -5    1    3    3    0  502 -0.54833883693E+02  0.72789951703E+02  0.88159396593E+03  0.88630420434E+03  0.46999998093E+01 0.  1.
</event>
<event>
 5   0  0.3211775E-03  0.4999911E+03  0.7818609E-02  0.1013781E+00
        1   -1    0    0  501    0  0.00000000000E+00  0.00000000000E+00  0.11372311025E+04  0.11372311025E+04  0.50400001928E-02 0.  1.
       -1   -1    0    0    0  501  0.00000000000E+00  0.00000000000E+00 -0.54956096981E+02  0.54956097212E+02  0.50400001928E-02 0. -1.
    10030    2    1    2    0    0  0.00000000000E+00  0.00000000000E+00  0.10822750055E+04  0.11921871997E+04  0.49999113153E+03 0.  0.
        4    1    3    3  502    0  0.24649264421E+03  0.33370481172E+02  0.60069817638E+03  0.65016315235E+03  0.12699999809E+01 0. -1.
       -4    1    3    3    0  502 -0.24649264421E+03 -0.33370481172E+02  0.48157682910E+03  0.54202404734E+03  0.12699999809E+01 0.  1.
</event>
<event>
 5   0  0.3055293E-03  0.4999454E+03  0.7818609E-02  0.1013793E+00
        1   -1    0    0  501    0  0.00000000000E+00  0.00000000000E+00  0.21357896098E+03  0.21357896104E+03  0.50400001928E-02 0. -1.
       -1   -1    0    0    0  501  0.00000000000E+00  0.00000000000E+00 -0.29256793810E+03  0.29256793815E+03  0.50400001928E-02 0.  1.
    10030    2    1    2    0    0  0.00000000000E+00  0.00000000000E+00 -0.78988977123E+02  0.50614689919E+03  0.49994542207E+03 0.  0.
        3    1    3    3  502    0  0.42010734324E+02  0.38973978970E+02 -0.28582823367E+03  0.29151614397E+03  0.10100000352E+00 0.  1.
       -3    1    3    3    0  502 -0.42010734324E+02 -0.38973978970E+02  0.20683925654E+03  0.21463075521E+03  0.10100000352E+00 0. -1.
</event>
<event>
 5   0  0.2005125E-03  0.4999731E+03  0.7818609E-02  0.1013786E+00
        3   -1    0    0  501    0  0.00000000000E+00  0.00000000000E+00  0.97010376351E+02  0.97010428928E+02  0.10100000352E+00 0.  1.
       -3   -1    0    0    0  501  0.00000000000E+00  0.00000000000E+00 -0.64419154847E+03  0.64419155638E+03  0.10100000352E+00 0. -1.
    10030    2    1    2    0    0  0.00000000000E+00  0.00000000000E+00 -0.54718117212E+03  0.74120198531E+03  0.49997314719E+03 0.  0.
        2    1    3    3  502    0  0.15887691286E+02 -0.69492344712E+02  0.81623378236E+02  0.10836964791E+03  0.25500000920E-02 0.  1.
       -2    1    3    3    0  502 -0.15887691286E+02  0.69492344712E+02 -0.62880455035E+03  0.63283233740E+03  0.25500000920E-02 0. -1.
</event>
<event>
 5   0  0.3013734E-03  0.4999676E+03  0.7818609E-02  0.1013787E+00
       -1   -1    0    0    0  501  0.00000000000E+00  0.00000000000E+00  0.14646392869E+03  0.14646392877E+03  0.50400001928E-02 0.  1.
        1   -1    0    0  501    0  0.00000000000E+00  0.00000000000E+00 -0.42667092429E+03  0.42667092432E+03  0.50400001928E-02 0. -1.
    10030    2    1    2    0    0  0.00000000000E+00  0.00000000000E+00 -0.28020699560E+03  0.57313485309E+03  0.49996759840E+03 0.  0.
        2    1    3    3  502    0  0.55050204991E+02  0.21761756896E+02  0.13831370234E+03  0.15044859386E+03  0.25500000920E-02 0.  1.
       -2    1    3    3    0  502 -0.55050204991E+02 -0.21761756896E+02 -0.41852069794E+03  0.42268625923E+03  0.25500000920E-02 0. -1.
</event>
<event>
 5   0  0.2005125E-03  0.4999945E+03  0.7818609E-02  0.1013780E+00
       -3   -1    0    0    0  501  0.00000000000E+00  0.00000000000E+00  0.86016625765E+03  0.86016626358E+03  0.10100000352E+00 0. -1.
        3   -1    0    0  501    0  0.00000000000E+00  0.00000000000E+00 -0.72658740152E+02  0.72658810350E+02  0.10100000352E+00 0.  1.
    10030    2    1    2    0    0  0.00000000000E+00  0.00000000000E+00  0.78750751750E+03  0.93282507393E+03  0.49999452841E+03 0.  0.
        4    1    3    3  502    0 -0.22390176682E+03  0.31281081666E+02  0.59283498756E+03  0.63448045095E+03  0.12699999809E+01 0. -1.
       -4    1    3    3    0  502  0.22390176682E+03 -0.31281081666E+02  0.19467252994E+03  0.29834462299E+03  0.12699999809E+01 0.  1.
</event>
<event>
 5   0  0.5095783E-03  0.4998686E+03  0.7818609E-02  0.1013813E+00
       -2   -1    0    0    0  501  0.00000000000E+00  0.00000000000E+00  0.41671750906E+02  0.41671750984E+02  0.25500000920E-02 0.  1.
        2   -1    0    0  501    0  0.00000000000E+00  0.00000000000E+00 -0.14990289150E+04  0.14990289150E+04  0.25500000920E-02 0. -1.
    10030    2    1    2    0    0  0.00000000000E+00  0.00000000000E+00 -0.14573571641E+04  0.15407006660E+04  0.49986862117E+03 0.  0.
        4    1    3    3  502    0 -0.10575230727E+01  0.96827075542E+02 -0.14388520546E+04  0.14421072945E+04  0.12699999809E+01 0. -1.
       -4    1    3    3    0  502  0.10575230727E+01 -0.96827075542E+02 -0.18505109423E+02  0.98593371419E+02  0.12699999809E+01 0.  1.
</event>
<event>
 5   0  0.2863538E-03  0.5012444E+03  0.7818609E-02  0.1013455E+00
        1   -1    0    0  501    0  0.00000000000E+00  0.00000000000E+00  0.46488840642E+03  0.46488840644E+03  0.50400001928E-02 0. -1.
       -1   -1    0    0    0  501  0.00000000000E+00  0.00000000000E+00 -0.13511091138E+03  0.13511091147E+03  0.50400001928E-02 0.  1.
    10030    2    1    2    0    0  0.00000000000E+00  0.00000000000E+00  0.32977749504E+03  0.59999931792E+03  0.50124443665E+03 0.  0.
        1    1    3    3  502    0 -0.17714008372E+03  0.93912916278E+02  0.34489297082E+03  0.39893534119E+03  0.50400001928E-02 0. -1.
       -1    1    3    3    0  502  0.17714008372E+03 -0.93912916278E+02 -0.15115475789E+02  0.20106397673E+03  0.50400001928E-02 0.  1.
</event>
<event>
 5   0  0.3055293E-03  0.5000396E+03  0.7818609E-02  0.1013769E+00
       -1   -1    0    0    0  501  0.00000000000E+00  0.00000000000E+00  0.46839794134E+03  0.46839794137E+03  0.50400001928E-02 0.  1.
        1   -1    0    0  501    0  0.00000000000E+00  0.00000000000E+00 -0.13345466154E+03  0.13345466164E+03  0.50400001928E-02 0. -1.
    10030    2    1    2    0    0  0.00000000000E+00  0.00000000000E+00  0.33494327980E+03  0.60185260301E+03  0.50003955350E+03 0.  0.
        3    1    3    3  502    0 -0.82933922749E+02 -0.23834681473E+02 -0.11496346821E+03  0.14374538882E+03  0.10100000352E+00 0. -1.
       -3    1    3    3    0  502  0.82933922749E+02  0.23834681473E+02  0.44990674801E+03  0.45810721419E+03  0.10100000352E+00 0.  1.
</event>
<event>
 5   0  0.4989875E-03  0.5002685E+03  0.7818609E-02  0.1013709E+00
        2   -1    0    0  501    0  0.00000000000E+00  0.00000000000E+00  0.41607141480E+03  0.41607141481E+03  0.25500000920E-02 0. -1.
       -2   -1    0    0    0  501  0.00000000000E+00  0.00000000000E+00 -0.15037597979E+03  0.15037597981E+03  0.25500000920E-02 0.  1.
    10030    2    1    2    0    0  0.00000000000E+00  0.00000000000E+00  0.26569543502E+03  0.56644739462E+03  0.50026851458E+03 0.  0.
        2    1    3    3  502    0 -0.14508024649E+03  0.75609414959E+02 -0.81397222373E+02  0.18273086595E+03  0.25500000920E-02 0.  1.
       -2    1    3    3    0  502  0.14508024649E+03 -0.75609414959E+02  0.34709265739E+03  0.38371652867E+03  0.25500000920E-02 0. -1.
</event>
<event>
 5   0  0.5095783E-03  0.4997543E+03  0.7818609E-02  0.1013843E+00
       -2   -1    0    0    0  501  0.00000000000E+00  0.00000000000E+00  0.25276533382E+03  0.25276533383E+03  0.25500000920E-02 0. -1.
        2   -1    0    0  501    0  0.00000000000E+00  0.00000000000E+00 -0.24702194842E+03  0.24702194843E+03  0.25500000920E-02 0.  1.
    10030    2    1    2    0    0  0.00000000000E+00  0.00000000000E+00  0.57433853978E+01  0.49978728227E+03  0.49975428066E+03 0.  0.
        4    1    3    3  502    0  0.13411600086E+03  0.17141495150E+03  0.12562663163E+03  0.25130429912E+03  0.12699999809E+01 0. -1.
       -4    1    3    3    0  502 -0.13411600086E+03 -0.17141495150E+03 -0.11988324623E+03  0.24848298314E+03  0.12699999809E+01 0.  1.
</event>
<event>
 5   0  0.3057783E-03  0.4998240E+03  0.7818609E-02  0.1013825E+00
       -1   -1    0    0    0  501  0.00000000000E+00  0.00000000000E+00  0.15800194569E+03  0.15800194577E+03  0.50400001928E-02 0. -1.
        1   -1    0    0  501    0  0.00000000000E+00  0.00000000000E+00 -0.39528624819E+03  0.39528624822E+03  0.50400001928E-02 0.  1.
    10030    2    1    2    0    0  0.00000000000E+00  0.00000000000E+00 -0.23728430250E+03  0.55328819399E+03  0.49982395440E+03 0.  0.
        5    1    3    3  502    0  0.21067931807E+03 -0.82930552184E+02 -0.23563886221E+03  0.32681954490E+03  0.46999998093E+01 0.  1.
       -5    1    3    3    0  502 -0.21067931807E+03  0.82930552184E+02 -0.16454402886E+01  0.22646864909E+03  0.46999998093E+01 0. -1.
</event>
<event>
 5   0  0.5095783E-03  0.5001664E+03  0.7818609E-02  0.1013735E+00
        2   -1    0    0  501    0  0.00000000000E+00  0.00000000000E+00  0.95733242678E+03  0.95733242678E+03  0.25500000920E-02 0. -1.
       -2   -1    0    0    0  501  0.00000000000E+00  0.00000000000E+00 -0.65329035394E+02  0.65329035443E+02  0.25500000920E-02 0.  1.
    10030    2    1    2    0    0  0.00000000000E+00  0.00000000000E+00  0.89200339139E+03  0.10226614622E+04  0.50016638839E+03 0.  0.
        4    1    3    3  502    0 -0.13557331196E+03 -0.21003676459E+03  0.45962977459E+03  0.52321764877E+03  0.12699999809E+01 0.  1.
       -4    1    3    3    0  502  0.13557331196E+03  0.21003676459E+03  0.43237361680E+03  0.49944381345E+03  0.12699999809E+01 0. -1.
</event>
<event>
 5   0  0.3013734E-03  0.4999963E+03  0.7818609E-02  0.1013780E+00
       -1   -1    0    0    0  501  0.00000000000E+00  0.00000000000E+00  0.87641430091E+02  0.87641430236E+02  0.50400001928E-02 0. -1.
        1   -1    0    0  501    0  0.00000000000E+00  0.00000000000E+00 -0.71312262406E+03  0.71312262408E+03  0.50400001928E-02 0.  1.
    10030    2    1    2    0    0  0.00000000000E+00  0.00000000000E+00 -0.62548119397E+03  0.80076405432E+03  0.49999634666E+03 0.  0.
        2    1    3    3  502    0 -0.21172089673E+03 -0.13180821844E+03 -0.34047740319E+03  0.42204739859E+03  0.25500000920E-02 0.  1.
       -2    1    3    3    0  502  0.21172089673E+03  0.13180821844E+03 -0.28500379078E+03  0.37871665573E+03  0.25500000920E-02 0. -1.
</event>
<event>
 5   0  0.4889251E-03  0.5001535E+03  0.7818609E-02  0.1013739E+00
       -2   -1    0    0    0  501  0.00000000000E+00  0.00000000000E+00  0.83225075672E+02  0.83225075711E+02  0.25500000920E-02 0.  1.
        2   -1    0    0  501    0  0.00000000000E+00  0.00000000000E+00 -0.75143689965E+03  0.75143689966E+03  0.25500000920E-02 0. -1.
    10030    2    1    2    0    0  0.00000000000E+00  0.00000000000E+00 -0.66821182398E+03  0.83466197537E+03  0.50015354784E+03 0.  0.
        5    1    3    3  502    0 -0.18192673321E+03 -0.14345049970E+03 -0.17719396057E+03  0.29171076734E+03  0.46999998093E+01 0.  1.
       -5    1    3    3    0  502  0.18192673321E+03  0.14345049970E+03 -0.49101786341E+03  0.54295120803E+03  0.46999998093E+01 0. -1.
</event>
<event>
 5   0  0.3013734E-03  0.5001975E+03  0.7818609E-02  0.1013727E+00
       -1   -1    0    0    0  501  0.00000000000E+00  0.00000000000E+00  0.69999131537E+02  0.69999131719E+02  0.50400001928E-02 0. -1.
        1   -1    0    0  501    0  0.00000000000E+00  0.00000000000E+00 -0.89357375831E+03  0.89357375833E+03  0.50400001928E-02 0.  1.
    10030    2    1    2    0    0  0.00000000000E+00  0.00000000000E+00 -0.82357462677E+03  0.96357289004E+03  0.50019750955E+03 0.  0.
        2    1    3    3  502    0 -0.12908430279E+03  0.15280210081E+03 -0.12258473551E+03  0.23460233721E+03  0.25500000920E-02 0. -1.
       -2    1    3    3    0  502  0.12908430279E+03 -0.15280210081E+03 -0.70098989126E+03  0.72897055283E+03  0.25500000920E-02 0.  1.
</event>
<event>
 5   0  0.5118882E-03  0.4999544E+03  0.7818609E-02  0.1013791E+00
        2   -1    0    0  501    0  0.00000000000E+00  0.00000000000E+00  0.50187186771E+03  0.50187186772E+03  0.25500000920E-02 0. -1.
       -2   -1    0    0    0  501  0.00000000000E+00  0.00000000000E+00 -0.12451104103E+03  0.12451104106E+03  0.25500000920E-02 0.  1.
    10030    2    1    2    0    0  0.00000000000E+00  0.00000000000E+00  0.37736082668E+03  0.62638290878E+03  0.49995435281E+03 0.  0.
        3    1    3    3  502    0 -0.10829827265E+03  0.20991068475E+03  0.29121445620E+03  0.37496250630E+03  0.10100000352E+00 0. -1.
       -3    1    3    3    0  502  0.10829827265E+03 -0.20991068475E+03  0.86146370479E+02  0.25142040247E+03  0.10100000352E+00 0.  1.
</event>
<event>
 5   0  0.2005125E-03  0.4998626E+03  0.7818609E-02  0.1013815E+00
        4   -1    0    0  501    0  0.00000000000E+00  0.00000000000E+00  0.43032966399E+03  0.43033153802E+03  0.12699999809E+01 0. -1.
       -4   -1    0    0    0  501  0.00000000000E+00  0.00000000000E+00 -0.14515270724E+03  0.14515826301E+03  0.12699999809E+01 0.  1.
    10030    2    1    2    0    0  0.00000000000E+00  0.00000000000E+00  0.28517695675E+03  0.57548980102E+03  0.49986259554E+03 0.  0.
        4    1    3    3  502    0  0.12334918508E+03  0.20244558022E+03  0.51462791471E+02  0.24258867702E+03  0.12699999809E+01 0.  1.
       -4    1    3    3    0  502 -0.12334918508E+03 -0.20244558022E+03  0.23371416528E+03  0.33290112401E+03  0.12699999809E+01 0. -1.
</event>
<event>
 5   0  0.4989875E-03  0.4999405E+03  0.7818609E-02  0.1013794E+00
       -2   -1    0    0    0  501  0.00000000000E+00  0.00000000000E+00  0.36029746183E+03  0.36029746184E+03  0.25500000920E-02 0. -1.
        2   -1    0    0  501    0  0.00000000000E+00  0.00000000000E+00 -0.17342652404E+03  0.17342652406E+03  0.25500000920E-02 0.  1.
    10030    2    1    2    0    0  0.00000000000E+00  0.00000000000E+00  0.18687093779E+03  0.53372398589E+03  0.49994054219E+03 0.  0.
        2    1    3    3  502    0 -0.24725029489E+03  0.28975989222E+02  0.11761127167E+03  0.27532658336E+03  0.25500000920E-02 0. -1.
       -2    1    3    3    0  502  0.24725029489E+03 -0.28975989222E+02  0.69259666124E+02  0.25839740253E+03  0.25500000920E-02 0.  1.
</event>
<event>
 5   0  0.3057783E-03  0.4999999E+03  0.7818609E-02  0.1013779E+00
       -1   -1    0    0    0  501  0.00000000000E+00  0.00000000000E+00  0.19353345244E+03  0.19353345250E+03  0.50400001928E-02 0.  1.
        1   -1    0    0  501    0  0.00000000000E+00  0.00000000000E+00 -0.32294145770E+03  0.32294145774E+03  0.50400001928E-02 0. -1.
    10030    2    1    2    0    0  0.00000000000E+00  0.00000000000E+00 -0.12940800526E+03  0.51647491024E+03  0.49999990108E+03 0.  0.
        5    1    3    3  502    0  0.11954879827E+03 -0.14592203677E+03 -0.23409750615E+03  0.30068070834E+03  0.46999998093E+01 0. -1.
       -5    1    3    3    0  502 -0.11954879827E+03  0.14592203677E+03  0.10468950088E+03  0.21579420191E+03  0.46999998093E+01 0.  1.
</event>
<event>
 5   0  0.5095783E-03  0.4999467E+03  0.7818609E-02  0.1013793E+00
        2   -1    0    0  501    0  0.00000000000E+00  0.00000000000E+00  0.61048342455E+03  0.61048342456E+03  0.25500000920E-02 0. -1.
       -2   -1    0    0    0  501  0.00000000000E+00  0.00000000000E+00 -0.10235606264E+03  0.10235606267E+03  0.25500000920E-02 0.  1.
    10030    2    1    2    0    0  0.00000000000E+00  0.00000000000E+00  0.50812736191E+03  0.71283948723E+03  0.49994671579E+03 0.  0.
        4    1    3    3  502    0 -0.15099994491E+03  0.46859832572E+02 -0.22003990527E+02  0.15963275281E+03  0.12699999809E+01 0.  1.
       -4    1    3    3    0  502  0.15099994491E+03 -0.46859832572E+02  0.53013135244E+03  0.55320673442E+03  0.12699999809E+01 0. -1.
</event>
<event>
 5   0  0.4889251E-03  0.4997616E+03  0.7818609E-02  0.1013841E+00
       -2   -1    0    0    0  501  0.00000000000E+00  0.00000000000E+00  0.56077582408E+02  0.56077582466E+02  0.25500000920E-02 0. -1.
        2   -1    0    0  501    0  0.00000000000E+00  0.00000000000E+00 -0.11134647748E+04  0.11134647748E+04  0.25500000920E-02 0.  1.
    10030    2    1    2    0    0  0.00000000000E+00  0.00000000000E+00 -0.10573871923E+04  0.11695423572E+04  0.49976159397E+03 0.  0.
        5    1    3    3  502    0 -0.90844720701E+02  0.20607742642E+03 -0.78179960647E+03  0.81360517675E+03  0.46999998093E+01 0.  1.
       -5    1    3    3    0  502  0.90844720701E+02 -0.20607742642E+03 -0.27558758587E+03  0.35593718047E+03  0.46999998093E+01 0. -1.
</event>
<event>
 5   0  0.3211775E-03  0.5001707E+03  0.7818609E-02  0.1013734E+00
       -1   -1    0    0    0  501  0.00000000000E+00  0.00000000000E+00  0.10598920271E+03  0.10598920283E+03  0.50400001928E-02 0.  1.
        1   -1    0    0  501    0  0.00000000000E+00  0.00000000000E+00 -0.59008541921E+03  0.59008541923E+03  0.50400001928E-02 0. -1.
    10030    2    1    2    0    0  0.00000000000E+00  0.00000000000E+00 -0.48409621650E+03  0.69607462206E+03  0.50017070350E+03 0.  0.
        4    1    3    3  502    0  0.11222562133E+03  0.10057367308E+03 -0.51979577893E+03  0.54120136594E+03  0.12699999809E+01 0. -1.
       -4    1    3    3    0  502 -0.11222562133E+03 -0.10057367308E+03  0.35699562433E+02  0.15487325611E+03  0.12699999809E+01 0.  1.
</event>
<event>
 5   0  0.2005125E-03  0.4999508E+03  0.7818609E-02  0.1013792E+00
        4   -1    0    0  501    0  0.00000000000E+00  0.00000000000E+00  0.21577193146E+03  0.21577566894E+03  0.12699999809E+01 0.  1.
       -4   -1    0    0    0  501  0.00000000000E+00  0.00000000000E+00 -0.28959305782E+03  0.28959584258E+03  0.12699999809E+01 0. -1.
    10030    2    1    2    0    0  0.00000000000E+00  0.00000000000E+00 -0.73821126355E+02  0.50537151152E+03  0.49995080354E+03 0.  0.
        1    1    3    3  502    0  0.60823090696E+02 -0.14304557838E+02 -0.28157544387E+03  0.28842468576E+03  0.50400001928E-02 0. -1.
       -1    1    3    3    0  502 -0.60823090696E+02  0.14304557838E+02  0.20775431752E+03  0.21694682576E+03  0.50400001928E-02 0.  1.
</event>
<event>
 5   0  0.4889251E-03  0.5000886E+03  0.7818609E-02  0.1013756E+00
        2   -1    0    0  501    0  0.00000000000E+00  0.00000000000E+00  0.11105815482E+04  0.11105815482E+04  0.25500000920E-02 0. -1.
       -2   -1    0    0    0  501  0.00000000000E+00  0.00000000000E+00 -0.56296767990E+02  0.56296768048E+02  0.25500000920E-02 0.  1.
    10030    2    1    2    0    0  0.00000000000E+00  0.00000000000E+00  0.10542847802E+04  0.11668783162E+04  0.50008859930E+03 0.  0.
        5    1    3    3  502    0 -0.60041422164E+02 -0.18729370426E+02 -0.37431676025E+02  0.73341543891E+02  0.46999998093E+01 0.  1.
       -5    1    3    3    0  502  0.60041422164E+02  0.18729370426E+02  0.10917164562E+04  0.10935367723E+04  0.46999998093E+01 0. -1.
</event>
<event>
 5   0  0.3055293E-03  0.5004908E+03  0.7818609E-02  0.1013651E+00
       -1   -1    0    0    0  501  0.00000000000E+00  0.00000000000E+00  0.13251121470E+03  0.13251121479E+03  0.50400001928E-02 0.  1.
        1   -1    0    0  501    0  0.00000000000E+00  0.00000000000E+00 -0.47258466953E+03  0.47258466956E+03  0.50400001928E-02 0. -1.
    10030    2    1    2    0    0  0.00000000000E+00  0.00000000000E+00 -0.34007345484E+03  0.60509588435E+03  0.50049083366E+03 0.  0.
        3    1    3    3  502    0  0.73249426080E+02 -0.21706068371E+03 -0.48281229458E+02  0.23411942711E+03  0.10100000352E+00 0.  1.
       -3    1    3    3    0  502 -0.73249426080E+02  0.21706068371E+03 -0.29179222538E+03  0.37097645724E+03  0.10100000352E+00 0. -1.
</event>
<event>
 5   0  0.4978779E-03  0.5003472E+03  0.7818609E-02  0.1013688E+00
        2   -1    0    0  501    0  0.00000000000E+00  0.00000000000E+00  0.69283843851E+02  0.69283843898E+02  0.25500000920E-02 0.  1.
       -2   -1    0    0    0  501  0.00000000000E+00  0.00000000000E+00 -0.90333941119E+03  0.90333941119E+03  0.25500000920E-02 0. -1.
    10030    2    1    2    0    0  0.00000000000E+00  0.00000000000E+00 -0.83405556734E+03  0.97262325509E+03  0.50034718640E+03 0.  0.
        1    1    3    3  502    0 -0.14276089725E+03 -0.19517436256E+03 -0.29235865137E+03  0.37940385691E+03  0.50400001928E-02 0.  1.
       -1    1    3    3    0  502  0.14276089725E+03  0.19517436256E+03 -0.54169691596E+03  0.59321939818E+03  0.50400001928E-02 0. -1.
</event>
<event>
 5   0  0.2863538E-03  0.4999343E+03  0.7818609E-02  0.1013796E+00
       -1   -1    0    0    0  501  0.00000000000E+00  0.00000000000E+00  0.82770875535E+02  0.82770875688E+02  0.50400001928E-02 0. -1.
        1   -1    0    0  501    0  0.00000000000E+00  0.00000000000E+00 -0.75489796697E+03  0.75489796698E+03  0.50400001928E-02 0.  1.
    10030    2    1    2    0    0  0.00000000000E+00  0.00000000000E+00 -0.67212709143E+03  0.83766884267E+03  0.49993425862E+03 0.  0.
        1    1    3    3  502    0 -0.14079069352E+03 -0.46852485339E+02 -0.67312314503E+03  0.68928364492E+03  0.50400001928E-02 0.  1.
       -1    1    3    3    0  502  0.14079069352E+03  0.46852485339E+02  0.99605359355E+00  0.14838519775E+03  0.50400001928E-02 0. -1.
</event>
<event>
 5   0  0.4978779E-03  0.5014204E+03  0.7818609E-02  0.1013409E+00
       -2   -1    0    0    0  501  0.00000000000E+00  0.00000000000E+00  0.25095107146E+03  0.25095107148E+03  0.25500000920E-02 0. -1.
        2   -1    0    0  501    0  0.00000000000E+00  0.00000000000E+00 -0.25046952327E+03  0.25046952328E+03  0.25500000920E-02 0.  1.
    10030    2    1    2    0    0  0.00000000000E+00  0.00000000000E+00  0.48154819614E+00  0.50142059475E+03  0.50142036352E+03 0.  0.
        1    1    3    3  502    0  0.70932770683E+02 -0.10434995189E+03  0.21688626352E+03  0.25091835673E+03  0.50400001928E-02 0. -1.
       -1    1    3    3    0  502 -0.70932770683E+02  0.10434995189E+03 -0.21640471532E+03  0.25050223802E+03  0.50400001928E-02 0.  1.
</event>
<event>
 5   0  0.4978779E-03  0.5001114E+03  0.7818609E-02  0.1013750E+00
       -2   -1    0    0    0  501  0.00000000000E+00  0.00000000000E+00  0.47853031847E+02  0.47853031915E+02  0.25500000920E-02 0. -1.
        2   -1    0    0  501    0  0.00000000000E+00  0.00000000000E+00 -0.13066645295E+04  0.13066645295E+04  0.25500000920E-02 0.  1.
    10030    2    1    2    0    0  0.00000000000E+00  0.00000000000E+00 -0.12588114977E+04  0.13545175614E+04  0.50011142515E+03 0.  0.
        1    1    3    3  502    0  0.93136428144E+02  0.19204409452E+03 -0.27655489913E+03  0.34933929173E+03  0.50400001928E-02 0. -1.
       -1    1    3    3    0  502 -0.93136428144E+02 -0.19204409452E+03 -0.98225659855E+03  0.10051782697E+04  0.50400001928E-02 0.  1.
</event>
<event>
 5   0  0.4889251E-03  0.4999972E+03  0.7818609E-02  0.1013780E+00
        2   -1    0    0  501    0  0.00000000000E+00  0.00000000000E+00  0.38331921091E+03  0.38331921092E+03  0.25500000920E-02 0.  1.
       -2   -1    0    0    0  501  0.00000000000E+00  0.00000000000E+00 -0.16304764429E+03  0.16304764431E+03  0.25500000920E-02 0. -1.
    10030    2    1    2    0    0  0.00000000000E+00  0.00000000000E+00  0.22027156663E+03  0.54636685523E+03  0.49999717742E+03 0.  0.
        5    1    3    3  502    0 -0.21300537598E+03 -0.45454953979E+02 -0.23874234473E+02  0.21915636452E+03  0.46999998093E+01 0. -1.
       -5    1    3    3    0  502  0.21300537598E+03  0.45454953979E+02  0.24414580110E+03  0.32721049071E+03  0.46999998093E+01 0.  1.
</event>
<event>
 5   0  0.5118882E-03  0.4998952E+03  0.7818609E-02  0.1013806E+00
       -2   -1    0    0    0  501  0.00000000000E+00  0.00000000000E+00  0.95720560342E+02  0.95720560376E+02  0.25500000920E-02 0. -1.
        2   -1    0    0  501    0  0.00000000000E+00  0.00000000000E+00 -0.65266870060E+03  0.65266870060E+03  0.25500000920E-02 0.  1.
    10030    2    1    2    0    0  0.00000000000E+00  0.00000000000E+00 -0.55694814025E+03  0.74838926098E+03  0.49989524404E+03 0.  0.
        3    1    3    3  502    0  0.18784770688E+02 -0.18246716442E+03 -0.53265664754E+03  0.56335623550E+03  0.10100000352E+00 0.  1.
       -3    1    3    3    0  502 -0.18784770688E+02  0.18246716442E+03 -0.24291492711E+02  0.18503302548E+03  0.10100000352E+00 0. -1.
</event>
<event>
 5   0  0.3013734E-03  0.4999870E+03  0.7818609E-02  0.1013782E+00
       -1   -1    0    0    0  501  0.00000000000E+00  0.00000000000E+00  0.21776243500E+03  0.21776243505E+03  0.50400001928E-02 0. -1.
        1   -1    0    0  501    0  0.00000000000E+00  0.00000000000E+00 -0.28699511308E+03  0.28699511312E+03  0.50400001928E-02 0.  1.
    10030    2    1    2    0    0  0.00000000000E+00  0.00000000000E+00 -0.69232678080E+02  0.50475754818E+03  0.49998701856E+03 0.  0.
        2    1    3    3  502    0 -0.24688069466E+03 -0.36403880351E+02 -0.19593673198E+02  0.25031826129E+03  0.25500000920E-02 0. -1.
       -2    1    3    3    0  502  0.24688069466E+03  0.36403880351E+02 -0.49639004883E+02  0.25443928689E+03  0.25500000920E-02 0.  1.
</event>
<event>
 5   0  0.3055293E-03  0.5001187E+03  0.7818609E-02  0.1013748E+00
        1   -1    0    0  501    0  0.00000000000E+00  0.00000000000E+00  0.10126642561E+03  0.10126642573E+03  0.50400001928E-02 0. -1.
       -1   -1    0    0    0  501  0.00000000000E+00  0.00000000000E+00 -0.61747694801E+03  0.61747694803E+03  0.50400001928E-02 0.  1.
    10030    2    1    2    0    0  0.00000000000E+00  0.00000000000E+00 -0.51621052240E+03  0.71874337377E+03  0.50011871980E+03 0.  0.
        3    1    3    3  502    0 -0.55594774820E+02  0.14475443616E+03  0.23828286631E+02  0.15688347020E+03  0.10100000352E+00 0. -1.
       -3    1    3    3    0  502  0.55594774820E+02 -0.14475443616E+03 -0.54003880903E+03  0.56185990357E+03  0.10100000352E+00 0.  1.
</event>
<event>
 5   0  0.3057783E-03  0.5001826E+03  0.7818609E-02  0.1013731E+00
        1   -1    0    0  501    0  0.00000000000E+00  0.00000000000E+00  0.11973678877E+04  0.11973678877E+04  0.50400001928E-02 0.  1.
       -1   -1    0    0    0  501  0.00000000000E+00  0.00000000000E+00 -0.52235954439E+02  0.52235954682E+02  0.50400001928E-02 0. -1.
    10030    2    1    2    0    0  0.00000000000E+00  0.00000000000E+00  0.11451319332E+04  0.12496038423E+04  0.50018258500E+03 0.  0.
        5    1    3    3  502    0 -0.44729707556E+02  0.10190594666E+03  0.11319721601E+04  0.11374395061E+04  0.46999998093E+01 0.  1.
       -5    1    3    3    0  502  0.44729707556E+02 -0.10190594666E+03  0.13159773091E+02  0.11216433626E+03  0.46999998093E+01 0. -1.
</event>
<event>
 5   0  0.2005125E-03  0.4999256E+03  0.7818609E-02  0.1013798E+00
        3   -1    0    0  501    0  0.00000000000E+00  0.00000000000E+00  0.73736493075E+02  0.73736562247E+02  0.10100000352E+00 0.  1.
       -3   -1    0    0    0  501  0.00000000000E+00  0.00000000000E+00 -0.84736015289E+03  0.84736015891E+03  0.10100000352E+00 0. -1.
    10030    2    1    2    0    0  0.00000000000E+00  0.00000000000E+00 -0.77362365982E+03  0.92109672116E+03  0.49992559717E+03 0.  0.
        1    1    3    3  502    0  0.24993274360E+03 -0.12874816309E+01 -0.38007567178E+03  0.45489070142E+03  0.50400001928E-02 0.  1.
       -1    1    3    3    0  502 -0.24993274360E+03  0.12874816309E+01 -0.39354798803E+03  0.46620601974E+03  0.50400001928E-02 0. -1.
</event>
<event>
 5   0  0.3013734E-03  0.5000171E+03  0.7818609E-02  0.1013774E+00
       -1   -1    0    0    0  501  0.00000000000E+00  0.00000000000E+00  0.64867849497E+02  0.64867849692E+02  0.50400001928E-02 0. -1.
        1   -1    0    0  501    0  0.00000000000E+00  0.00000000000E+00 -0.96356332049E+03  0.96356332051E+03  0.50400001928E-02 0.  1.
    10030    2    1    2    0    0  0.00000000000E+00  0.00000000000E+00 -0.89869547100E+03  0.10284311702E+04  0.50001712195E+03 0.  0.
        2    1    3    3  502    0  0.42351887967E+02  0.24320431700E+03 -0.53064328663E+03  0.58525577304E+03  0.25500000920E-02 0.  1.
       -2    1    3    3    0  502 -0.42351887967E+02 -0.24320431700E+03 -0.36805218437E+03  0.44317539716E+03  0.25500000920E-02 0. -1.
</event>
<event>
 5   0  0.2863538E-03  0.4999925E+03  0.7818609E-02  0.1013781E+00
       -1   -1    0    0    0  501  0.00000000000E+00  0.00000000000E+00  0.75162612189E+02  0.75162612358E+02  0.50400001928E-02 0.  1.
        1   -1    0    0  501    0  0.00000000000E+00  0.00000000000E+00 -0.83150552672E+03  0.83150552674E+03  0.50400001928E-02 0. -1.
    10030    2    1    2    0    0  0.00000000000E+00  0.00000000000E+00 -0.75634291453E+03  0.90666813910E+03  0.49999251003E+03 0.  0.
        1    1    3    3  502    0  0.88718797924E+02  0.11959177093E+01 -0.80199321961E+03  0.80688634866E+03  0.50400001928E-02 0. -1.
       -1    1    3    3    0  502 -0.88718797924E+02 -0.11959177093E+01  0.45650305075E+02  0.99781790439E+02  0.50400001928E-02 0.  1.
</event>
<event>
 5   0  0.4978779E-03  0.4984542E+03  0.7818609E-02  0.1014183E+00
        2   -1    0    0  501    0  0.00000000000E+00  0.00000000000E+00  0.92509423912E+02  0.92509423947E+02  0.25500000920E-02 0. -1.
       -2   -1    0    0    0  501  0.00000000000E+00  0.00000000000E+00 -0.67143585834E+03  0.67143585834E+03  0.25500000920E-02 0.  1.
    10030    2    1    2    0    0  0.00000000000E+00  0.00000000000E+00 -0.57892643442E+03  0.76394528229E+03  0.49845418832E+03 0.  0.
        1    1    3    3  502    0  0.13848433868E+02  0.21924485950E+03 -0.10906780549E+03  0.24526694387E+03  0.50400001928E-02 0. -1.
       -1    1    3    3    0  502 -0.13848433868E+02 -0.21924485950E+03 -0.46985862893E+03  0.51867833841E+03  0.50400001928E-02 0.  1.
</event>
<event>
 5   0  0.3055293E-03  0.5003890E+03  0.7818609E-02  0.1013677E+00
        1   -1    0    0  501    0  0.00000000000E+00  0.00000000000E+00  0.71120986504E+03  0.71120986506E+03  0.50400001928E-02 0. -1.
       -1   -1    0    0    0  501  0.00000000000E+00  0.00000000000E+00 -0.88015199152E+02  0.88015199296E+02  0.50400001928E-02 0.  1.
    10030    2    1    2    0    0  0.00000000000E+00  0.00000000000E+00  0.62319466589E+03  0.79922506436E+03  0.50038896061E+03 0.  0.
        3    1    3    3  502    0  0.26133236970E+02  0.60229636361E+02  0.69720544019E+03  0.70028993367E+03  0.10100000352E+00 0. -1.
       -3    1    3    3    0  502 -0.26133236970E+02 -0.60229636361E+02 -0.74010774298E+02  0.98935130686E+02  0.10100000352E+00 0.  1.
</event>
<event>
 5   0  0.4989875E-03  0.5001343E+03  0.7818609E-02  0.1013744E+00
        2   -1    0    0  501    0  0.00000000000E+00  0.00000000000E+00  0.10426635285E+04  0.10426635285E+04  0.25500000920E-02 0.  1.
       -2   -1    0    0    0  501  0.00000000000E+00  0.00000000000E+00 -0.59974850822E+02  0.59974850876E+02  0.25500000920E-02 0. -1.
    10030    2    1    2    0    0  0.00000000000E+00  0.00000000000E+00  0.98268867763E+03  0.11026383793E+04  0.50013434038E+03 0.  0.
        2    1    3    3  502    0 -0.18493766147E+03  0.12093154456E+03  0.23322472753E+03  0.32127892965E+03  0.25500000920E-02 0. -1.
       -2    1    3    3    0  502  0.18493766147E+03 -0.12093154456E+03  0.74946395010E+03  0.78135944968E+03  0.25500000920E-02 0.  1.
</event>
<event>
 5   0  0.3057783E-03  0.5000106E+03  0.7818609E-02  0.1013776E+00
        1   -1    0    0  501    0  0.00000000000E+00  0.00000000000E+00  0.54139111469E+03  0.54139111471E+03  0.50400001928E-02 0. -1.
       -1   -1    0    0    0  501  0.00000000000E+00  0.00000000000E+00 -0.11544825245E+03  0.11544825256E+03  0.50400001928E-02 0.  1.
    10030    2    1    2    0    0  0.00000000000E+00  0.00000000000E+00  0.42594286224E+03  0.65683936727E+03  0.50001063239E+03 0.  0.
        5    1    3    3  502    0  0.68356247913E+02 -0.20531379893E+03  0.48611532123E+02  0.22183665999E+03  0.46999998093E+01 0.  1.
       -5    1    3    3    0  502 -0.68356247913E+02  0.20531379893E+03  0.37733133011E+03  0.43500270728E+03  0.46999998093E+01 0. -1.
</event>
<event>
 5   0  0.5095783E-03  0.5001615E+03  0.7818609E-02  0.1013737E+00
        2   -1    0    0  501    0  0.00000000000E+00  0.00000000000E+00  0.86618411630E+03  0.86618411630E+03  0.25500000920E-02 0.  1.
       -2   -1    0    0    0  501  0.00000000000E+00  0.00000000000E+00 -0.72202176486E+02  0.72202176531E+02  0.25500000920E-02 0. -1.
    10030    2    1    2    0    0  0.00000000000E+00  0.00000000000E+00  0.79398193981E+03  0.93838629283E+03  0.50016148775E+03 0.  0.
        4    1    3    3  502    0 -0.21015086921E+03  0.39527491648E+02  0.15371823690E+03  0.26335663971E+03  0.12699999809E+01 0. -1.
       -4    1    3    3    0  502  0.21015086921E+03 -0.39527491648E+02  0.64026370291E+03  0.67502965312E+03  0.12699999809E+01 0.  1.
</event>
<event>
 5   0  0.4978779E-03  0.5007786E+03  0.7818609E-02  0.1013576E+00
       -2   -1    0    0    0  501  0.00000000000E+00  0.00000000000E+00  0.21271014956E+03  0.21271014958E+03  0.25500000920E-02 0. -1.
        2   -1    0    0  501    0  0.00000000000E+00  0.00000000000E+00 -0.29474286191E+03  0.29474286192E+03  0.25500000920E-02 0.  1.
    10030    2    1    2    0    0  0.00000000000E+00  0.00000000000E+00 -0.82032712352E+02  0.50745301150E+03  0.50077858679E+03 0.  0.
        1    1    3    3  502    0 -0.21788389957E+02  0.14815911908E+03 -0.24436214430E+03  0.28659852772E+03  0.50400001928E-02 0.  1.
       -1    1    3    3    0  502  0.21788389957E+02 -0.14815911908E+03  0.16232943195E+03  0.22085448378E+03  0.50400001928E-02 0. -1.
</event>
<event>
 5   0  0.4978779E-03  0.4999525E+03  0.7818609E-02  0.1013791E+00
        2   -1    0    0  501    0  0.00000000000E+00  0.00000000000E+00  0.92676691638E+03  0.92676691638E+03  0.25500000920E-02 0. -1.
       -2   -1    0    0    0  501  0.00000000000E+00  0.00000000000E+00 -0.67425940507E+02  0.67425940555E+02  0.25500000920E-02 0.  1.
    10030    2    1    2    0    0  0.00000000000E+00  0.00000000000E+00  0.85934097587E+03  0.99419285694E+03  0.49995252172E+03 0.  0.
        1    1    3    3  502    0  0.13772299480E+03  0.99061528685E+01  0.84405037345E+03  0.85527000889E+03  0.50400001928E-02 0. -1.
       -1    1    3    3    0  502 -0.13772299480E+03 -0.99061528685E+01  0.15290602426E+02  0.13892284805E+03  0.50400001928E-02 0.  1.
</event>
<event>
 5   0  0.3013734E-03  0.5005387E+03  0.7818609E-02  0.1013638E+00
        1   -1    0    0  501    0  0.00000000000E+00  0.00000000000E+00  0.51699871230E+03  0.51699871232E+03  0.50400001928E-02 0. -1.
       -1   -1    0    0    0  501  0.00000000000E+00  0.00000000000E+00 -0.12115069286E+03  0.12115069296E+03  0.50400001928E-02 0.  1.
    10030    2    1    2    0    0  0.00000000000E+00  0.00000000000E+00  0.39584801944E+03  0.63814940529E+03  0.50053871875E+03 0.  0.
        2    1    3    3  502    0 -0.22149652801E+02  0.24581416877E+02 -0.11834969154E+03  0.12288817139E+03  0.25500000920E-02 0.  1.
       -2    1    3    3    0  502  0.22149652801E+02 -0.24581416877E+02  0.51419771098E+03  0.51526123390E+03  0.25500000920E-02 0. -1.
</event>
<event>
 5   0  0.5095783E-03  0.4998847E+03  0.7818609E-02  0.1013809E+00
        2   -1    0    0  501    0  0.00000000000E+00  0.00000000000E+00  0.15697905273E+04  0.15697905273E+04  0.25500000920E-02 0. -1.
       -2   -1    0    0    0  501  0.00000000000E+00  0.00000000000E+00 -0.39795864953E+02  0.39795865035E+02  0.25500000920E-02 0.  1.
    10030    2    1    2    0    0  0.00000000000E+00  0.00000000000E+00  0.15299946624E+04  0.16095863924E+04  0.49988467429E+03 0.  0.
        4    1    3    3  502    0  0.21654174858E+03 -0.49938437361E+02  0.39666683142E+03  0.45467610939E+03  0.12699999809E+01 0.  1.
       -4    1    3    3    0  502 -0.21654174858E+03  0.49938437361E+02  0.11333278310E+04  0.11549102830E+04  0.12699999809E+01 0. -1.
</event>
<event>
 5   0  0.5095783E-03  0.5000749E+03  0.7818609E-02  0.1013759E+00
        2   -1    0    0  501    0  0.00000000000E+00  0.00000000000E+00  0.12519261103E+03  0.12519261106E+03  0.25500000920E-02 0.  1.
       -2   -1    0    0    0  501  0.00000000000E+00  0.00000000000E+00 -0.49938034374E+03  0.49938034375E+03  0.25500000920E-02 0. -1.
    10030    2    1    2    0    0  0.00000000000E+00  0.00000000000E+00 -0.37418773270E+03  0.62457295481E+03  0.50007491096E+03 0.  0.
        4    1    3    3  502    0  0.18050986132E+03  0.62869144231E+02 -0.38840795767E+03  0.43289570778E+03  0.12699999809E+01 0. -1.
       -4    1    3    3    0  502 -0.18050986132E+03 -0.62869144231E+02  0.14220224964E+02  0.19167724703E+03  0.12699999809E+01 0.  1.
</event>
<event>
 5   0  0.2005125E-03  0.5000592E+03  0.7818609E-02  0.1013763E+00
       -4   -1    0    0    0  501  0.00000000000E+00  0.00000000000E+00  0.99952719922E+03  0.99952800605E+03  0.12699999809E+01 0. -1.
        4   -1    0    0  501    0  0.00000000000E+00  0.00000000000E+00 -0.62537101548E+02  0.62549995763E+02  0.12699999809E+01 0.  1.
    10030    2    1    2    0    0  0.00000000000E+00  0.00000000000E+00  0.93699009767E+03  0.10620780018E+04  0.50005923529E+03 0.  0.
        1    1    3    3  502    0 -0.14597021327E+02 -0.57252457187E+02  0.98449407947E+03  0.98626543559E+03  0.50400001928E-02 0. -1.
       -1    1    3    3    0  502  0.14597021327E+02  0.57252457187E+02 -0.47503981802E+02  0.75812566228E+02  0.50400001928E-02 0.  1.
</event>
<event>
 5   0  0.4978779E-03  0.4999057E+03  0.7818609E-02  0.1013804E+00
       -2   -1    0    0    0  501  0.00000000000E+00  0.00000000000E+00  0.20141216598E+03  0.20141216600E+03  0.25500000920E-02 0.  1.
        2   -1    0    0  501    0  0.00000000000E+00  0.00000000000E+00 -0.31019189124E+03  0.31019189125E+03  0.25500000920E-02 0. -1.
    10030    2    1    2    0    0  0.00000000000E+00  0.00000000000E+00 -0.10877972526E+03  0.51160405725E+03  0.49990567387E+03 0.  0.
        1    1    3    3  502    0 -0.87684449645E+02  0.21117955012E+03  0.48923262510E+02  0.23383509304E+03  0.50400001928E-02 0. -1.
       -1    1    3    3    0  502  0.87684449645E+02 -0.21117955012E+03 -0.15770298777E+03  0.27776896420E+03  0.50400001928E-02 0.  1.
</event>
<event>
 5   0  0.3055293E-03  0.4999258E+03  0.7818609E-02  0.1013798E+00
       -1   -1    0    0    0  501  0.00000000000E+00  0.00000000000E+00  0.69361281783E+02  0.69361281966E+02  0.50400001928E-02 0. -1.
        1   -1    0    0  501    0  0.00000000000E+00  0.00000000000E+00 -0.90081173163E+03  0.90081173165E+03  0.50400001928E-02 0.  1.
    10030    2    1    2    0    0  0.00000000000E+00  0.00000000000E+00 -0.83145044985E+03  0.97017301361E+03  0.49992582029E+03 0.  0.
        3    1    3    3  502    0 -0.55555537788E+02 -0.18044358454E+03 -0.97821537685E+02  0.21263905666E+03  0.10100000352E+00 0. -1.
       -3    1    3    3    0  502  0.55555537788E+02  0.18044358454E+03 -0.73362891217E+03  0.75753395696E+03  0.10100000352E+00 0.  1.
</event>
<event>
 5   0  0.3057783E-03  0.4997872E+03  0.7818609E-02  0.1013834E+00
        1   -1    0    0  501    0  0.00000000000E+00  0.00000000000E+00  0.36278920310E+03  0.36278920313E+03  0.50400001928E-02 0. -1.
       -1   -1    0    0    0  501  0.00000000000E+00  0.00000000000E+00 -0.17212971895E+03  0.17212971902E+03  0.50400001928E-02 0.  1.
    10030    2    1    2    0    0  0.00000000000E+00  0.00000000000E+00  0.19065948415E+03  0.53491892216E+03  0.49978716909E+03 0.  0.
        5    1    3    3  502    0 -0.31758773706E+02  0.96382672968E+02  0.33969082094E+03  0.35455631877E+03  0.46999998093E+01 0. -1.
       -5    1    3    3    0  502  0.31758773706E+02 -0.96382672968E+02 -0.14903133679E+03  0.18036260338E+03  0.46999998093E+01 0.  1.
</event>
<event>
 5   0  0.3055293E-03  0.4998964E+03  0.7818609E-02  0.1013806E+00
        1   -1    0    0  501    0  0.00000000000E+00  0.00000000000E+00  0.29051345806E+03  0.29051345810E+03  0.50400001928E-02 0. -1.
       -1   -1    0    0    0  501  0.00000000000E+00  0.00000000000E+00 -0.21504719851E+03  0.21504719857E+03  0.50400001928E-02 0.  1.
    10030    2    1    2    0    0  0.00000000000E+00  0.00000000000E+00  0.75466259549E+02  0.50556065667E+03  0.49989641051E+03 0.  0.
        3    1    3    3  502    0 -0.16677201632E+03  0.16697601190E+03 -0.45541850709E+02  0.24034967099E+03  0.10100000352E+00 0.  1.
       -3    1    3    3    0  502  0.16677201632E+03 -0.16697601190E+03  0.12100811026E+03  0.26521098568E+03  0.10100000352E+00 0. -1.
</event>
<event>
 5   0  0.2005125E-03  0.4979584E+03  0.7818609E-02  0.1014313E+00
       -4   -1    0    0    0  501  0.00000000000E+00  0.00000000000E+00  0.26197587181E+03  0.26197895013E+03  0.12699999809E+01 0.  1.
        4   -1    0    0  501    0  0.00000000000E+00  0.00000000000E+00 -0.23662112827E+03  0.23662453644E+03  0.12699999809E+01 0. -1.
    10030    2    1    2    0    0  0.00000000000E+00  0.00000000000E+00  0.25354743543E+02  0.49860348657E+03  0.49795840569E+03 0.  0.
        5    1    3    3  502    0 -0.20460523219E+03  0.42518724959E+02 -0.12276578220E+03  0.24241425347E+03  0.46999998093E+01 0. -1.
       -5    1    3    3    0  502  0.20460523219E+03 -0.42518724959E+02  0.14812052574E+03  0.25618923310E+03  0.46999998093E+01 0.  1.
</event>
<event>
 5   0  0.5118882E-03  0.4998834E+03  0.7818609E-02  0.1013809E+00
       -2   -1    0    0    0  501  0.00000000000E+00  0.00000000000E+00  0.32154704044E+02  0.32154704146E+02  0.25500000920E-02 0. -1.
        2   -1    0    0  501    0  0.00000000000E+00  0.00000000000E+00 -0.19428212864E+04  0.19428212864E+04  0.25500000920E-02 0.  1.
    10030    2    1    2    0    0  0.00000000000E+00  0.00000000000E+00 -0.19106665824E+04  0.19749759906E+04  0.49988336070E+03 0.  0.
        3    1    3    3  502    0  0.54072262293E+02  0.10195063145E+03 -0.18312616017E+04  0.18348942217E+04  0.10100000352E+00 0.  1.
       -3    1    3    3    0  502 -0.54072262293E+02 -0.10195063145E+03 -0.79404980629E+02  0.14008176881E+03  0.10100000352E+00 0. -1.
</event>
<event>
 5   0  0.4889251E-03  0.5000119E+03  0.7818609E-02  0.1013776E+00
       -2   -1    0    0    0  501  0.00000000000E+00  0.00000000000E+00  0.12281684821E+03  0.12281684823E+03  0.25500000920E-02 0. -1.
        2   -1    0    0  501    0  0.00000000000E+00  0.00000000000E+00 -0.50891198275E+03  0.50891198275E+03  0.25500000920E-02 0.  1.
    10030    2    1    2    0    0  0.00000000000E+00  0.00000000000E+00 -0.38609513454E+03  0.63172883099E+03  0.50001186284E+03 0.  0.
        5    1    3    3  502    0 -0.65338099713E+02  0.22913987570E+03 -0.28849052601E+03  0.37419650387E+03  0.46999998093E+01 0.  1.
       -5    1    3    3    0  502  0.65338099713E+02 -0.22913987570E+03 -0.97604608527E+02  0.25753232712E+03  0.46999998093E+01 0. -1.
</event>
<event>
 5   0  0.4989875E-03  0.4998542E+03  0.7818609E-02  0.1013817E+00
        2   -1    0    0  501    0  0.00000000000E+00  0.00000000000E+00  0.10380919644E+04  0.10380919644E+04  0.25500000920E-02 0. -1.
       -2   -1    0    0    0  501  0.00000000000E+00  0.00000000000E+00 -0.60171496558E+02  0.60171496612E+02  0.25500000920E-02 0.  1.
    10030    2    1    2    0    0  0.00000000000E+00  0.00000000000E+00  0.97792046783E+03  0.10982634610E+04  0.49985416711E+03 0.  0.
        2    1    3    3  502    0  0.34133453232E+02  0.19762998708E+03  0.16128860746E+03  0.25736495357E+03  0.25500000920E-02 0.  1.
       -2    1    3    3    0  502 -0.34133453232E+02 -0.19762998708E+03  0.81663186038E+03  0.84089850744E+03  0.25500000920E-02 0. -1.
</event>
<event>
 5   0  0.3013734E-03  0.4999299E+03  0.7818609E-02  0.1013797E+00
        1   -1    0    0  501    0  0.00000000000E+00  0.00000000000E+00  0.52474735928E+03  0.52474735930E+03  0.50400001928E-02 0. -1.
       -1   -1    0    0    0  501  0.00000000000E+00  0.00000000000E+00 -0.11907155463E+03  0.11907155473E+03  0.50400001928E-02 0.  1.
    10030    2    1    2    0    0  0.00000000000E+00  0.00000000000E+00  0.40567580465E+03  0.64381891403E+03  0.49992993068E+03 0.  0.
        2    1    3    3  502    0 -0.18554940314E+03 -0.12430393334E+03  0.58266688843E+02  0.23081389881E+03  0.25500000920E-02 0.  1.
       -2    1    3    3    0  502  0.18554940314E+03  0.12430393334E+03  0.34740911581E+03  0.41300501522E+03  0.25500000920E-02 0. -1.
</event>
<event>
 5   0  0.4978779E-03  0.4989755E+03  0.7818609E-02  0.1014047E+00
        2   -1    0    0  501    0  0.00000000000E+00  0.00000000000E+00  0.16881937526E+04  0.16881937526E+04  0.25500000920E-02 0. -1.
       -2   -1    0    0    0  501  0.00000000000E+00  0.00000000000E+00 -0.36870259293E+02  0.36870259381E+02  0.25500000920E-02 0.  1.
    10030    2    1    2    0    0  0.00000000000E+00  0.00000000000E+00  0.16513234933E+04  0.17250640119E+04  0.49897551632E+03 0.  0.
        1    1    3    3  502    0 -0.16303433518E+03  0.18695736105E+03  0.91783986475E+03  0.95076982842E+03  0.50400001928E-02 0.  1.
       -1    1    3    3    0  502  0.16303433518E+03 -0.18695736105E+03  0.73348362852E+03  0.77429418352E+03  0.50400001928E-02 0. -1.
</event>
<event>
 5   0  0.2005125E-03  0.5001601E+03  0.7818609E-02  0.1013737E+00
        3   -1    0    0  501    0  0.00000000000E+00  0.00000000000E+00  0.19954447251E+03  0.19954449807E+03  0.10100000352E+00 0. -1.
       -3   -1    0    0    0  501  0.00000000000E+00  0.00000000000E+00 -0.31341395449E+03  0.31341397077E+03  0.10100000352E+00 0.  1.
    10030    2    1    2    0    0  0.00000000000E+00  0.00000000000E+00 -0.11386948199E+03  0.51295846883E+03  0.50016010619E+03 0.  0.
        2    1    3    3  502    0  0.72918309002E+02  0.23884435663E+03 -0.43316158406E+02  0.25345610284E+03  0.25500000920E-02 0.  1.
       -2    1    3    3    0  502 -0.72918309002E+02 -0.23884435663E+03 -0.70553323581E+02  0.25950236599E+03  0.25500000920E-02 0. -1.
</event>
<event>
 5   0  0.2005125E-03  0.4999505E+03  0.7818609E-02  0.1013792E+00
        4   -1    0    0  501    0  0.00000000000E+00  0.00000000000E+00  0.61526214400E+03  0.61526345474E+03  0.12699999809E+01 0.  1.
       -4   -1    0    0    0  501  0.00000000000E+00  0.00000000000E+00 -0.10155721129E+03  0.10156515183E+03  0.12699999809E+01 0. -1.
    10030    2    1    2    0    0  0.00000000000E+00  0.00000000000E+00  0.51370493271E+03  0.71682860657E+03  0.49995049086E+03 0.  0.
        1    1    3    3  502    0 -0.28990853028E+02  0.15408544890E+03  0.53600115725E+03  0.55846220617E+03  0.50400001928E-02 0.  1.
       -1    1    3    3    0  502  0.28990853028E+02 -0.15408544890E+03 -0.22296224542E+02  0.15836640040E+03  0.50400001928E-02 0. -1.
</event>
<event>
 5   0  0.2863538E-03  0.4999059E+03  0.7818609E-02  0.1013803E+00
       -1   -1    0    0    0  501  0.00000000000E+00  0.00000000000E+00  0.97543665330E+02  0.97543665461E+02  0.50400001928E-02 0. -1.
        1   -1    0    0  501    0  0.00000000000E+00  0.00000000000E+00 -0.64049756052E+03  0.64049756054E+03  0.50400001928E-02 0.  1.
    10030    2    1    2    0    0  0.00000000000E+00  0.00000000000E+00 -0.54295389519E+03  0.73804122600E+03  0.49990591012E+03 0.  0.
        1    1    3    3  502    0  0.76323330091E+02 -0.98076131962E+02 -0.59165419400E+03  0.60456502023E+03  0.50400001928E-02 0.  1.
       -1    1    3    3    0  502 -0.76323330091E+02  0.98076131962E+02  0.48700298815E+02  0.13347620577E+03  0.50400001928E-02 0. -1.
</event>
<event>
 5   0  0.2005125E-03  0.5001482E+03  0.7818609E-02  0.1013740E+00
        3   -1    0    0  501    0  0.00000000000E+00  0.00000000000E+00  0.23260675146E+03  0.23260677339E+03  0.10100000352E+00 0. -1.
       -3   -1    0    0    0  501  0.00000000000E+00  0.00000000000E+00 -0.26885312793E+03  0.26885314690E+03  0.10100000352E+00 0.  1.
    10030    2    1    2    0    0  0.00000000000E+00  0.00000000000E+00 -0.36246376464E+02  0.50145992029E+03  0.50014822987E+03 0.  0.
        1    1    3    3  502    0 -0.20966700097E+03  0.56701172046E+00  0.11852985944E+03  0.24085244529E+03  0.50400001928E-02 0. -1.
       -1    1    3    3    0  502  0.20966700097E+03 -0.56701172046E+00 -0.15477623590E+03  0.26060747500E+03  0.50400001928E-02 0.  1.
</event>
<event>
 5   0  0.3055293E-03  0.5008773E+03  0.7818609E-02  0.1013550E+00
        1   -1    0    0  501    0  0.00000000000E+00  0.00000000000E+00  0.71302605061E+02  0.71302605240E+02  0.50400001928E-02 0. -1.
       -1   -1    0    0    0  501  0.00000000000E+00  0.00000000000E+00 -0.87962438091E+03  0.87962438092E+03  0.50400001928E-02 0.  1.
    10030    2    1    2    0    0  0.00000000000E+00  0.00000000000E+00 -0.80832177585E+03  0.95092698616E+03  0.50087727010E+03 0.  0.
        3    1    3    3  502    0  0.22716579415E+03 -0.67914873822E+02 -0.55725733036E+03  0.60560091691E+03  0.10100000352E+00 0. -1.
       -3    1    3    3    0  502 -0.22716579415E+03  0.67914873822E+02 -0.25106444548E+03  0.34532606925E+03  0.10100000352E+00 0.  1.
</event>
<event>
 5   0  0.3013734E-03  0.5000610E+03  0.7818609E-02  0.1013763E+00
       -1   -1    0    0    0  501  0.00000000000E+00  0.00000000000E+00  0.19267113016E+03  0.19267113023E+03  0.50400001928E-02 0. -1.
        1   -1    0    0  501    0  0.00000000000E+00  0.00000000000E+00 -0.32446610713E+03  0.32446610717E+03  0.50400001928E-02 0.  1.
    10030    2    1    2    0    0  0.00000000000E+00  0.00000000000E+00 -0.13179497696E+03  0.51713723740E+03  0.50006100263E+03 0.  0.
        2    1    3    3  502    0 -0.15157565908E+03 -0.65120442576E+02  0.12839968378E+03  0.20905102551E+03  0.25500000920E-02 0. -1.
       -2    1    3    3    0  502  0.15157565908E+03  0.65120442576E+02 -0.26019466075E+03  0.30808621189E+03  0.25500000920E-02 0.  1.
</event>
<event>
 5   0  0.3055293E-03  0.5001609E+03  0.7818609E-02  0.1013737E+00
        1   -1    0    0  501    0  0.00000000000E+00  0.00000000000E+00  0.60037070508E+03  0.60037070510E+03  0.50400001928E-02 0.  1.
       -1   -1    0    0    0  501  0.00000000000E+00  0.00000000000E+00 -0.10416935129E+03  0.10416935141E+03  0.50400001928E-02 0. -1.
    10030    2    1    2    0    0  0.00000000000E+00  0.00000000000E+00  0.49620135380E+03  0.70454005651E+03  0.50016088184E+03 0.  0.
        3    1    3    3  502    0  0.20226122324E+03 -0.14044160468E+03  0.18659076278E+03  0.30894913773E+03  0.10100000352E+00 0. -1.
       -3    1    3    3    0  502 -0.20226122324E+03  0.14044160468E+03  0.30961059102E+03  0.39559091878E+03  0.10100000352E+00 0.  1.
</event>
<event>
 5   0  0.3211775E-03  0.5000664E+03  0.7818609E-02  0.1013762E+00
        1   -1    0    0  501    0  0.00000000000E+00  0.00000000000E+00  0.39183216834E+03  0.39183216838E+03  0.50400001928E-02 0. -1.
       -1   -1    0    0    0  501  0.00000000000E+00  0.00000000000E+00 -0.15954943789E+03  0.15954943797E+03  0.50400001928E-02 0.  1.
    10030    2    1    2    0    0  0.00000000000E+00  0.00000000000E+00  0.23228273045E+03  0.55138160635E+03  0.50006640454E+03 0.  0.
        4    1    3    3  502    0  0.19325696966E+01 -0.10409383801E+03 -0.13450874205E+03  0.17009843187E+03  0.12699999809E+01 0.  1.
       -4    1    3    3    0  502 -0.19325696966E+01  0.10409383801E+03  0.36679147250E+03  0.38128317448E+03  0.12699999809E+01 0. -1.
</event>
<event>
 5   0  0.2005125E-03  0.4999888E+03  0.7818609E-02  0.1013782E+00
        4   -1    0    0  501    0  0.00000000000E+00  0.00000000000E+00  0.35162621769E+03  0.35162851117E+03  0.12699999809E+01 0. -1.
       -4   -1    0    0    0  501  0.00000000000E+00  0.00000000000E+00 -0.17773249326E+03  0.17773703064E+03  0.12699999809E+01 0.  1.
    10030    2    1    2    0    0  0.00000000000E+00  0.00000000000E+00  0.17389372443E+03  0.52936554180E+03  0.49998884933E+03 0.  0.
        5    1    3    3  502    0  0.13710487624E+03  0.20897864309E+03  0.84508963632E+02  0.26388193437E+03  0.46999998093E+01 0.  1.
       -5    1    3    3    0  502 -0.13710487624E+03 -0.20897864309E+03  0.89384760798E+02  0.26548360743E+03  0.46999998093E+01 0. -1.
</event>
<event>
 5   0  0.4989875E-03  0.5003124E+03  0.7818609E-02  0.1013697E+00
       -2   -1    0    0    0  501  0.00000000000E+00  0.00000000000E+00  0.46125594950E+02  0.46125595021E+02  0.25500000920E-02 0.  1.
        2   -1    0    0  501    0  0.00000000000E+00  0.00000000000E+00 -0.13566898441E+04  0.13566898441E+04  0.25500000920E-02 0. -1.
    10030    2    1    2    0    0  0.00000000000E+00  0.00000000000E+00 -0.13105642492E+04  0.14028154392E+04  0.50031240750E+03 0.  0.
        2    1    3    3  502    0  0.15310851583E+03 -0.19483495078E+03 -0.75140450232E+03  0.79120894951E+03  0.25500000920E-02 0. -1.
       -2    1    3    3    0  502 -0.15310851583E+03  0.19483495078E+03 -0.55915974688E+03  0.61160648966E+03  0.25500000920E-02 0.  1.
</event>
<event>
 5   0  0.3013734E-03  0.5000599E+03  0.7818609E-02  0.1013763E+00
       -1   -1    0    0    0  501  0.00000000000E+00  0.00000000000E+00  0.51642152967E+02  0.51642153213E+02  0.50400001928E-02 0.  1.
        1   -1    0    0  501    0  0.00000000000E+00  0.00000000000E+00 -0.12105416085E+04  0.12105416085E+04  0.50400001928E-02 0. -1.
    10030    2    1    2    0    0  0.00000000000E+00  0.00000000000E+00 -0.11588994555E+04  0.12621837617E+04  0.50005989673E+03 0.  0.
        2    1    3    3  502    0  0.35036248929E+02  0.24027774689E+03 -0.72992382938E+03  0.76925270951E+03  0.25500000920E-02 0. -1.
       -2    1    3    3    0  502 -0.35036248929E+02 -0.24027774689E+03 -0.42897562613E+03  0.49293105219E+03  0.25500000920E-02 0.  1.
</event>
<event>
 5   0  0.3057783E-03  0.5000357E+03  0.7818609E-02  0.1013770E+00
        1   -1    0    0  501    0  0.00000000000E+00  0.00000000000E+00  0.10971937019E+04  0.10971937019E+04  0.50400001928E-02 0.  1.
       -1   -1    0    0    0  501  0.00000000000E+00  0.00000000000E+00 -0.56971640605E+02  0.56971640828E+02  0.50400001928E-02 0. -1.
    10030    2    1    2    0    0  0.00000000000E+00  0.00000000000E+00  0.10402220613E+04  0.11541653427E+04  0.50003570030E+03 0.  0.
        5    1    3    3  502    0 -0.18049181490E+03  0.16820013963E+03  0.61296281437E+03  0.66076779886E+03  0.46999998093E+01 0. -1.
       -5    1    3    3    0  502  0.18049181490E+03 -0.16820013963E+03  0.42725924691E+03  0.49339754386E+03  0.46999998093E+01 0.  1.
</event>
<event>
 5   0  0.3057783E-03  0.4999963E+03  0.7818609E-02  0.1013780E+00
        1   -1    0    0  501    0  0.00000000000E+00  0.00000000000E+00  0.93059233658E+03  0.93059233659E+03  0.50400001928E-02 0. -1.
       -1   -1    0    0    0  501  0.00000000000E+00  0.00000000000E+00 -0.67160524547E+02  0.67160524736E+02  0.50400001928E-02 0.  1.
    10030    2    1    2    0    0  0.00000000000E+00  0.00000000000E+00  0.86343181203E+03  0.99775286133E+03  0.49999627825E+03 0.  0.
        5    1    3    3  502    0  0.20288562849E+03  0.65145751014E+02  0.17099342999E+03  0.27325334439E+03  0.46999998093E+01 0.  1.
       -5    1    3    3    0  502 -0.20288562849E+03 -0.65145751014E+02  0.69243838205E+03  0.72449951694E+03  0.46999998093E+01 0. -1.
</event>
<event>
 5   0  0.5118882E-03  0.4999209E+03  0.7818609E-02  0.1013800E+00
       -2   -1    0    0    0  501  0.00000000000E+00  0.00000000000E+00  0.15870775220E+03  0.15870775222E+03  0.25500000920E-02 0.  1.
        2   -1    0    0  501    0  0.00000000000E+00  0.00000000000E+00 -0.39368107692E+03  0.39368107693E+03  0.25500000920E-02 0. -1.
    10030    2    1    2    0    0  0.00000000000E+00  0.00000000000E+00 -0.23497332473E+03  0.55238882915E+03  0.49992094899E+03 0.  0.
        3    1    3    3  502    0 -0.78552028295E+02  0.10092179884E+03  0.11981995467E+03  0.17524971432E+03  0.10100000352E+00 0.  1.
       -3    1    3    3    0  502  0.78552028295E+02 -0.10092179884E+03 -0.35479327939E+03  0.37713911483E+03  0.10100000352E+00 0. -1.
</event>
<event>
 5   0  0.5118882E-03  0.4999239E+03  0.7818609E-02  0.1013799E+00
       -2   -1    0    0    0  501  0.00000000000E+00  0.00000000000E+00  0.66326362619E+02  0.66326362668E+02  0.25500000920E-02 0. -1.
        2   -1    0    0  501    0  0.00000000000E+00  0.00000000000E+00 -0.94202313728E+03  0.94202313728E+03  0.25500000920E-02 0.  1.
    10030    2    1    2    0    0  0.00000000000E+00  0.00000000000E+00 -0.87569677466E+03  0.10083495000E+04  0.49992386711E+03 0.  0.
        3    1    3    3  502    0  0.51264355683E+02 -0.12648888588E+03 -0.15462620596E+02  0.13735565242E+03  0.10100000352E+00 0. -1.
       -3    1    3    3    0  502 -0.51264355683E+02  0.12648888588E+03 -0.86023415407E+03  0.87099384753E+03  0.10100000352E+00 0.  1.
</event>
<event>
 5   0  0.5095783E-03  0.5002399E+03  0.7818609E-02  0.1013716E+00
        2   -1    0    0  501    0  0.00000000000E+00  0.00000000000E+00  0.16351040044E+03  0.16351040046E+03  0.25500000920E-02 0. -1.
       -2   -1    0    0    0  501  0.00000000000E+00  0.00000000000E+00 -0.38260550671E+03  0.38260550672E+03  0.25500000920E-02 0.  1.
    10030    2    1    2    0    0  0.00000000000E+00  0.00000000000E+00 -0.21909510627E+03  0.54611590718E+03  0.50023986095E+03 0.  0.
        4    1    3    3  502    0  0.11701322619E+03 -0.33585740823E+02  0.12898072238E+03  0.17736329027E+03  0.12699999809E+01 0. -1.
       -4    1    3    3    0  502 -0.11701322619E+03  0.33585740823E+02 -0.34807582865E+03  0.36875261691E+03  0.12699999809E+01 0.  1.
</event>
<event>
 5   0  0.5118882E-03  0.5032177E+03  0.7818609E-02  0.1012942E+00
        2   -1    0    0  501    0  0.00000000000E+00  0.00000000000E+00  0.14269364834E+04  0.14269364834E+04  0.25500000920E-02 0. -1.
       -2   -1    0    0    0  501  0.00000000000E+00  0.00000000000E+00 -0.44365679799E+02  0.44365679872E+02  0.25500000920E-02 0.  1.
    10030    2    1    2    0    0  0.00000000000E+00  0.00000000000E+00  0.13825708036E+04  0.14713021633E+04  0.50321767526E+03 0.  0.
        3    1    3    3  502    0 -0.24897990654E+03  0.35261327677E+02  0.71620491321E+03  0.75906774598E+03  0.10100000352E+00 0. -1.
       -3    1    3    3    0  502  0.24897990654E+03 -0.35261327677E+02  0.66636589042E+03  0.71223441731E+03  0.10100000352E+00 0.  1.
</event>
<event>
 5   0  0.4978779E-03  0.4998407E+03  0.7818609E-02  0.1013821E+00
       -2   -1    0    0    0  501  0.00000000000E+00  0.00000000000E+00  0.11818523702E+03  0.11818523705E+03  0.25500000920E-02 0. -1.
        2   -1    0    0  501    0  0.00000000000E+00  0.00000000000E+00 -0.52849393874E+03  0.52849393875E+03  0.25500000920E-02 0.  1.
    10030    2    1    2    0    0  0.00000000000E+00  0.00000000000E+00 -0.41030870172E+03  0.64667917580E+03  0.49984070033E+03 0.  0.
        1    1    3    3  502    0  0.12292627345E+03  0.21687848020E+03 -0.22804486026E+03  0.33786328921E+03  0.50400001928E-02 0. -1.
       -1    1    3    3    0  502 -0.12292627345E+03 -0.21687848020E+03 -0.18226384146E+03  0.30881588659E+03  0.50400001928E-02 0.  1.
</event>
<event>
 5   0  0.4889251E-03  0.5000943E+03  0.7818609E-02  0.1013754E+00
        2   -1    0    0  501    0  0.00000000000E+00  0.00000000000E+00  0.23209959103E+04  0.23209959103E+04  0.25500000920E-02 0. -1.
       -2   -1    0    0    0  501  0.00000000000E+00  0.00000000000E+00 -0.26938258127E+02  0.26938258248E+02  0.25500000920E-02 0.  1.
    10030    2    1    2    0    0  0.00000000000E+00  0.00000000000E+00  0.22940576521E+04  0.23479341685E+04  0.50009433944E+03 0.  0.
        5    1    3    3  502    0 -0.48263729966E+02  0.64212039828E+02  0.35507973466E+02  0.87951576831E+02  0.46999998093E+01 0.  1.
       -5    1    3    3    0  502  0.48263729966E+02 -0.64212039828E+02  0.22585496787E+04  0.22599825917E+04  0.46999998093E+01 0. -1.
</event>
<event>
 5   0  0.4889251E-03  0.5017459E+03  0.7818609E-02  0.1013324E+00
       -2   -1    0    0    0  501  0.00000000000E+00  0.00000000000E+00  0.81812512922E+02  0.81812512962E+02  0.25500000920E-02 0. -1.
        2   -1    0    0  501    0  0.00000000000E+00  0.00000000000E+00 -0.76928613278E+03  0.76928613278E+03  0.25500000920E-02 0.  1.
    10030    2    1    2    0    0  0.00000000000E+00  0.00000000000E+00 -0.68747361986E+03  0.85109864574E+03  0.50174587870E+03 0.  0.
        5    1    3    3  502    0 -0.74106351918E+02  0.11544892342E+03  0.12460344578E+02  0.13783162009E+03  0.46999998093E+01 0. -1.
       -5    1    3    3    0  502  0.74106351918E+02 -0.11544892342E+03 -0.69993396443E+03  0.71326702565E+03  0.46999998093E+01 0.  1.
</event>
<event>
 5   0  0.3055293E-03  0.5000662E+03  0.7818609E-02  0.1013762E+00
        1   -1    0    0  501    0  0.00000000000E+00  0.00000000000E+00  0.12506631263E+03  0.12506631273E+03  0.50400001928E-02 0.  1.
       -1   -1    0    0    0  501  0.00000000000E+00  0.00000000000E+00 -0.49986721264E+03  0.49986721266E+03  0.50400001928E-02 0. -1.
    10030    2    1    2    0    0  0.00000000000E+00  0.00000000000E+00 -0.37480090001E+03  0.62493352540E+03  0.50006619214E+03 0.  0.
        3    1    3    3  502    0 -0.86672371000E+02  0.56772850853E+02  0.96975411974E+02  0.14191369637E+03  0.10100000352E+00 0.  1.
       -3    1    3    3    0  502  0.86672371000E+02 -0.56772850853E+02 -0.47177631198E+03  0.48301982903E+03  0.10100000352E+00 0. -1.
</event>
<event>
 5   0  0.2005125E-03  0.4998888E+03  0.7818609E-02  0.1013808E+00
        3   -1    0    0  501    0  0.00000000000E+00  0.00000000000E+00  0.14242341615E+03  0.14242345196E+03  0.10100000352E+00 0.  1.
       -3   -1    0    0    0  501  0.00000000000E+00  0.00000000000E+00 -0.43863709992E+03  0.43863711155E+03  0.10100000352E+00 0. -1.
    10030    2    1    2    0    0  0.00000000000E+00  0.00000000000E+00 -0.29621368377E+03  0.58106056351E+03  0.49988881965E+03 0.  0.
        1    1    3    3  502    0 -0.22916697687E+03  0.90328759565E+02 -0.19735964955E+03  0.31563843142E+03  0.50400001928E-02 0. -1.
       -1    1    3    3    0  502  0.22916697687E+03 -0.90328759565E+02 -0.98854034220E+02  0.26542213209E+03  0.50400001928E-02 0.  1.
</event>
<event>
 5   0  0.2863538E-03  0.5000013E+03  0.7818609E-02  0.1013779E+00
        1   -1    0    0  501    0  0.00000000000E+00  0.00000000000E+00  0.10107244893E+04  0.10107244894E+04  0.50400001928E-02 0. -1.
       -1   -1    0    0    0  501  0.00000000000E+00  0.00000000000E+00 -0.61837151599E+02  0.61837151804E+02  0.50400001928E-02 0.  1.
    10030    2    1    2    0    0  0.00000000000E+00  0.00000000000E+00  0.94888733775E+03  0.10725616412E+04  0.50000129436E+03 0.  0.
        1    1    3    3  502    0 -0.19988943300E+03 -0.73791822883E+02  0.75494851063E+03  0.78444137593E+03  0.50400001928E-02 0. -1.
       -1    1    3    3    0  502  0.19988943300E+03  0.73791822883E+02  0.19393882712E+03  0.28812026523E+03  0.50400001928E-02 0.  1.
</event>
<event>
 5   0  0.3055293E-03  0.4994503E+03  0.7818609E-02  0.1013922E+00
       -1   -1    0    0    0  501  0.00000000000E+00  0.00000000000E+00  0.90100974202E+02  0.90100974343E+02  0.50400001928E-02 0. -1.
        1   -1    0    0  501    0  0.00000000000E+00  0.00000000000E+00 -0.69214179324E+03  0.69214179325E+03  0.50400001928E-02 0.  1.
    10030    2    1    2    0    0  0.00000000000E+00  0.00000000000E+00 -0.60204081903E+03  0.78224276760E+03  0.49945029750E+03 0.  0.
        3    1    3    3  502    0 -0.14522891369E+03 -0.20225195599E+03 -0.33095704789E+03  0.41416164576E+03  0.10100000352E+00 0.  1.
       -3    1    3    3    0  502  0.14522891369E+03  0.20225195599E+03 -0.27108377114E+03  0.36808112183E+03  0.10100000352E+00 0. -1.
</event>
<event>
 5   0  0.3211775E-03  0.5000081E+03  0.7818609E-02  0.1013777E+00
       -1   -1    0    0    0  501  0.00000000000E+00  0.00000000000E+00  0.43408053064E+02  0.43408053357E+02  0.50400001928E-02 0. -1.
        1   -1    0    0  501    0  0.00000000000E+00  0.00000000000E+00 -0.14398719249E+04  0.14398719249E+04  0.50400001928E-02 0.  1.
    10030    2    1    2    0    0  0.00000000000E+00  0.00000000000E+00 -0.13964638718E+04  0.14832799783E+04  0.50000814851E+03 0.  0.
        4    1    3    3  502    0 -0.45615181353E+02 -0.13233536618E+03 -0.13127155143E+04  0.13201579559E+04  0.12699999809E+01 0.  1.
       -4    1    3    3    0  502  0.45615181353E+02  0.13233536618E+03 -0.83748357486E+02  0.16312202240E+03  0.12699999809E+01 0. -1.
</event>
<event>
 5   0  0.3211775E-03  0.5001069E+03  0.7818609E-02  0.1013751E+00
       -1   -1    0    0    0  501  0.00000000000E+00  0.00000000000E+00  0.18808666883E+03  0.18808666889E+03  0.50400001928E-02 0. -1.
        1   -1    0    0  501    0  0.00000000000E+00  0.00000000000E+00 -0.33243571854E+03  0.33243571858E+03  0.50400001928E-02 0.  1.
    10030    2    1    2    0    0  0.00000000000E+00  0.00000000000E+00 -0.14434904972E+03  0.52052238747E+03  0.50010689628E+03 0.  0.
        4    1    3    3  502    0 -0.17794683673E+03 -0.99209251941E+02  0.78718003197E+02  0.21841632105E+03  0.12699999809E+01 0. -1.
       -4    1    3    3    0  502  0.17794683673E+03  0.99209251941E+02 -0.22306705291E+03  0.30210606642E+03  0.12699999809E+01 0.  1.
</event>
<event>
 5   0  0.5095783E-03  0.5002004E+03  0.7818609E-02  0.1013727E+00
       -2   -1    0    0    0  501  0.00000000000E+00  0.00000000000E+00  0.18673834452E+03  0.18673834454E+03  0.25500000920E-02 0. -1.
        2   -1    0    0  501    0  0.00000000000E+00  0.00000000000E+00 -0.33496121585E+03  0.33496121586E+03  0.25500000920E-02 0.  1.
    10030    2    1    2    0    0  0.00000000000E+00  0.00000000000E+00 -0.14822287133E+03  0.52169956040E+03  0.50020037159E+03 0.  0.
        4    1    3    3  502    0 -0.18998835901E+03 -0.12657911436E+03 -0.18063163383E+03  0.29111380729E+03  0.12699999809E+01 0.  1.
       -4    1    3    3    0  502  0.18998835901E+03  0.12657911436E+03  0.32408762501E+02  0.23058575311E+03  0.12699999809E+01 0. -1.
</event>
<event>
 5   0  0.4889251E-03  0.4999951E+03  0.7818609E-02  0.1013780E+00
       -2   -1    0    0    0  501  0.00000000000E+00  0.00000000000E+00  0.33141534088E+02  0.33141534186E+02  0.25500000920E-02 0.  1.
        2   -1    0    0  501    0  0.00000000000E+00  0.00000000000E+00 -0.18858142507E+04  0.18858142507E+04  0.25500000920E-02 0. -1.
    10030    2    1    2    0    0  0.00000000000E+00  0.00000000000E+00 -0.18526727166E+04  0.19189557849E+04  0.49999510945E+03 0.  0.
        5    1    3    3  502    0  0.16058043404E+03 -0.17200536807E+03 -0.60283651971E+03  0.64715213199E+03  0.46999998093E+01 0.  1.
       -5    1    3    3    0  502 -0.16058043404E+03  0.17200536807E+03 -0.12498361969E+04  0.12718036529E+04  0.46999998093E+01 0. -1.
</event>
<event>
 5   0  0.3211775E-03  0.5001648E+03  0.7818609E-02  0.1013736E+00
       -1   -1    0    0    0  501  0.00000000000E+00  0.00000000000E+00  0.95818436773E+02  0.95818436905E+02  0.50400001928E-02 0. -1.
        1   -1    0    0  501    0  0.00000000000E+00  0.00000000000E+00 -0.65270535421E+03  0.65270535423E+03  0.50400001928E-02 0.  1.
    10030    2    1    2    0    0  0.00000000000E+00  0.00000000000E+00 -0.55688691744E+03  0.74852379113E+03  0.50016479992E+03 0.  0.
        4    1    3    3  502    0  0.16925746087E+02 -0.30870093803E+02 -0.64897335432E+03  0.64992882002E+03  0.12699999809E+01 0.  1.
       -4    1    3    3    0  502 -0.16925746087E+02  0.30870093803E+02  0.92086436883E+02  0.98594971118E+02  0.12699999809E+01 0. -1.
</event>
<event>
 5   0  0.5118882E-03  0.5000440E+03  0.7818609E-02  0.1013767E+00
       -2   -1    0    0    0  501  0.00000000000E+00  0.00000000000E+00  0.32740287844E+02  0.32740287943E+02  0.25500000920E-02 0. -1.
        2   -1    0    0  501    0  0.00000000000E+00  0.00000000000E+00 -0.19092992598E+04  0.19092992598E+04  0.25500000920E-02 0.  1.
    10030    2    1    2    0    0  0.00000000000E+00  0.00000000000E+00 -0.18765589719E+04  0.19420395477E+04  0.50004402783E+03 0.  0.
        3    1    3    3  502    0 -0.70216841309E+02  0.88223322233E+00 -0.18702130516E+04  0.18715309380E+04  0.10100000352E+00 0.  1.
       -3    1    3    3    0  502  0.70216841309E+02 -0.88223322233E+00 -0.63459202792E+01  0.70508609716E+02  0.10100000352E+00 0. -1.
</event>
<event>
 5   0  0.4978779E-03  0.5000459E+03  0.7818609E-02  0.1013767E+00
        2   -1    0    0  501    0  0.00000000000E+00  0.00000000000E+00  0.74184477789E+03  0.74184477789E+03  0.25500000920E-02 0.  1.
       -2   -1    0    0    0  501  0.00000000000E+00  0.00000000000E+00 -0.84264905736E+02  0.84264905775E+02  0.25500000920E-02 0. -1.
    10030    2    1    2    0    0  0.00000000000E+00  0.00000000000E+00  0.65757987215E+03  0.82610968367E+03  0.50004591908E+03 0.  0.
        1    1    3    3  502    0  0.15703881638E+03  0.11562160356E+03  0.58728407348E+03  0.61881510005E+03  0.50400001928E-02 0.  1.
       -1    1    3    3    0  502 -0.15703881638E+03 -0.11562160356E+03  0.70295798671E+02  0.20729458362E+03  0.50400001928E-02 0. -1.
</event>
<event>
 5   0  0.2005125E-03  0.5001560E+03  0.7818609E-02  0.1013738E+00
        3   -1    0    0  501    0  0.00000000000E+00  0.00000000000E+00  0.32407236650E+03  0.32407238224E+03  0.10100000352E+00 0.  1.
       -3   -1    0    0    0  501  0.00000000000E+00  0.00000000000E+00 -0.19297845672E+03  0.19297848315E+03  0.10100000352E+00 0. -1.
    10030    2    1    2    0    0  0.00000000000E+00  0.00000000000E+00  0.13109390978E+03  0.51705086539E+03  0.50015595990E+03 0.  0.
        3    1    3    3  502    0  0.39973685775E+02  0.21993273709E+03  0.18145330544E+03  0.28791251563E+03  0.10100000352E+00 0.  1.
       -3    1    3    3    0  502 -0.39973685775E+02 -0.21993273709E+03 -0.50359395666E+02  0.22913834976E+03  0.10100000352E+00 0. -1.
</event>
<event>
 5   0  0.4989875E-03  0.4999943E+03  0.7818609E-02  0.1013780E+00
       -2   -1    0    0    0  501  0.00000000000E+00  0.00000000000E+00  0.14818056961E+03  0.14818056963E+03  0.25500000920E-02 0. -1.
        2   -1    0    0  501    0  0.00000000000E+00  0.00000000000E+00 -0.42177312985E+03  0.42177312986E+03  0.25500000920E-02 0.  1.
    10030    2    1    2    0    0  0.00000000000E+00  0.00000000000E+00 -0.27359256024E+03  0.56995369949E+03  0.49999433051E+03 0.  0.
        2    1    3    3  502    0  0.14570784322E+03 -0.31358612487E+01 -0.36833756716E+03  0.39612267366E+03  0.25500000920E-02 0.  1.
       -2    1    3    3    0  502 -0.14570784322E+03  0.31358612487E+01  0.94745006910E+02  0.17383102583E+03  0.25500000920E-02 0. -1.
</event>
<event>
 5   0  0.2005125E-03  0.4994236E+03  0.7818609E-02  0.1013929E+00
       -4   -1    0    0    0  501  0.00000000000E+00  0.00000000000E+00  0.17919199651E+03  0.17919649693E+03  0.12699999809E+01 0.  1.
        4   -1    0    0  501    0  0.00000000000E+00  0.00000000000E+00 -0.34797411953E+03  0.34797643708E+03  0.12699999809E+01 0. -1.
    10030    2    1    2    0    0  0.00000000000E+00  0.00000000000E+00 -0.16878212302E+03  0.52717293402E+03  0.49942356503E+03 0.  0.
        1    1    3    3  502    0  0.96892034589E+02  0.16739513305E+03  0.82330319826E+02  0.21020817901E+03  0.50400001928E-02 0.  1.
       -1    1    3    3    0  502 -0.96892034589E+02 -0.16739513305E+03 -0.25111244285E+03  0.31696475500E+03  0.50400001928E-02 0. -1.
</event>
<event>
 5   0  0.3211775E-03  0.5000510E+03  0.7818609E-02  0.1013766E+00
        1   -1    0    0  501    0  0.00000000000E+00  0.00000000000E+00  0.12592514815E+03  0.12592514825E+03  0.50400001928E-02 0.  1.
       -1   -1    0    0    0  501  0.00000000000E+00  0.00000000000E+00 -0.49642776835E+03  0.49642776838E+03  0.50400001928E-02 0. -1.
    10030    2    1    2    0    0  0.00000000000E+00  0.00000000000E+00 -0.37050262020E+03  0.62235291663E+03  0.50005095867E+03 0.  0.
        4    1    3    3  502    0 -0.20210288390E+03  0.14246227552E+03 -0.13918420124E+03  0.28375152934E+03  0.12699999809E+01 0. -1.
       -4    1    3    3    0  502  0.20210288390E+03 -0.14246227552E+03 -0.23131841896E+03  0.33860138729E+03  0.12699999809E+01 0.  1.
</event>
<event>
 5   0  0.4889251E-03  0.5002571E+03  0.7818609E-02  0.1013712E+00
       -2   -1    0    0    0  501  0.00000000000E+00  0.00000000000E+00  0.21639138468E+03  0.21639138469E+03  0.25500000920E-02 0. -1.
        2   -1    0    0  501    0  0.00000000000E+00  0.00000000000E+00 -0.28912566059E+03  0.28912566061E+03  0.25500000920E-02 0.  1.
    10030    2    1    2    0    0  0.00000000000E+00  0.00000000000E+00 -0.72734275920E+02  0.50551704530E+03  0.50025714207E+03 0.  0.
        5    1    3    3  502    0  0.18978471075E+03  0.46253963465E+02 -0.19416453958E+03  0.27546256370E+03  0.46999998093E+01 0.  1.
       -5    1    3    3    0  502 -0.18978471075E+03 -0.46253963465E+02  0.12143026366E+03  0.23005448160E+03  0.46999998093E+01 0. -1.
</event>
<event>
 5   0  0.2005125E-03  0.5000514E+03  0.7818609E-02  0.1013765E+00
       -4   -1    0    0    0  501  0.00000000000E+00  0.00000000000E+00  0.86986047334E+02  0.86995317866E+02  0.12699999809E+01 0. -1.
        4   -1    0    0  501    0  0.00000000000E+00  0.00000000000E+00 -0.71860577475E+03  0.71860689700E+03  0.12699999809E+01 0.  1.
    10030    2    1    2    0    0  0.00000000000E+00  0.00000000000E+00 -0.63161972742E+03  0.80560221486E+03  0.50005144588E+03 0.  0.
        4    1    3    3  502    0 -0.17796201863E+02  0.10463196538E+03 -0.68051249824E+03  0.68874046356E+03  0.12699999809E+01 0.  1.
       -4    1    3    3    0  502  0.17796201863E+02 -0.10463196538E+03  0.48892770821E+02  0.11686175130E+03  0.12699999809E+01 0. -1.
</event>
<event>
 5   0  0.3057783E-03  0.4998633E+03  0.7818609E-02  0.1013815E+00
        1   -1    0    0  501    0  0.00000000000E+00  0.00000000000E+00  0.53855028315E+03  0.53855028317E+03  0.50400001928E-02 0.  1.
       -1   -1    0    0    0  501  0.00000000000E+00  0.00000000000E+00 -0.11598887296E+03  0.11598887307E+03  0.50400001928E-02 0. -1.
    10030    2    1    2    0    0  0.00000000000E+00  0.00000000000E+00  0.42256141019E+03  0.65453915625E+03  0.49986334301E+03 0.  0.
        5    1    3    3  502    0  0.17982210705E+02 -0.19096299472E+03  0.42100940703E+03  0.46266752216E+03  0.46999998093E+01 0.  1.
       -5    1    3    3    0  502 -0.17982210705E+02  0.19096299472E+03  0.15520031518E+01  0.19187163408E+03  0.46999998093E+01 0. -1.
</event>
<event>
 5   0  0.3211775E-03  0.5000288E+03  0.7818609E-02  0.1013771E+00
        1   -1    0    0  501    0  0.00000000000E+00  0.00000000000E+00  0.27499171655E+03  0.27499171659E+03  0.50400001928E-02 0.  1.
       -1   -1    0    0    0  501  0.00000000000E+00  0.00000000000E+00 -0.22730574995E+03  0.22730575000E+03  0.50400001928E-02 0. -1.
    10030    2    1    2    0    0  0.00000000000E+00  0.00000000000E+00  0.47685966600E+02  0.50229746660E+03  0.50002879271E+03 0.  0.
        4    1    3    3  502    0 -0.16777144686E+03  0.15417278310E+03 -0.79527153474E+02  0.24133521598E+03  0.12699999809E+01 0. -1.
       -4    1    3    3    0  502  0.16777144686E+03 -0.15417278310E+03  0.12721312007E+03  0.26096225062E+03  0.12699999809E+01 0.  1.
</event>
<event>
 5   0  0.3055293E-03  0.5002544E+03  0.7818609E-02  0.1013713E+00
       -1   -1    0    0    0  501  0.00000000000E+00  0.00000000000E+00  0.12752509798E+03  0.12752509807E+03  0.50400001928E-02 0. -1.
        1   -1    0    0  501    0  0.00000000000E+00  0.00000000000E+00 -0.49059852801E+03  0.49059852804E+03  0.50400001928E-02 0.  1.
    10030    2    1    2    0    0  0.00000000000E+00  0.00000000000E+00 -0.36307343003E+03  0.61812362611E+03  0.50025443682E+03 0.  0.
        3    1    3    3  502    0 -0.45155455840E+02 -0.12435331193E+03  0.80754716103E+02  0.15499708305E+03  0.10100000352E+00 0. -1.
       -3    1    3    3    0  502  0.45155455840E+02  0.12435331193E+03 -0.44382814614E+03  0.46312654306E+03  0.10100000352E+00 0.  1.
</event>
<event>
 5   0  0.2005125E-03  0.4999457E+03  0.7818609E-02  0.1013793E+00
       -3   -1    0    0    0  501  0.00000000000E+00  0.00000000000E+00  0.14041249719E+03  0.14041253352E+03  0.10100000352E+00 0. -1.
        3   -1    0    0  501    0  0.00000000000E+00  0.00000000000E+00 -0.44502036846E+03  0.44502037992E+03  0.10100000352E+00 0.  1.
    10030    2    1    2    0    0  0.00000000000E+00  0.00000000000E+00 -0.30460787126E+03  0.58543291344E+03  0.49994573796E+03 0.  0.
        3    1    3    3  502    0  0.78457505372E+02  0.19816968332E+03  0.64235909255E+00  0.21313663778E+03  0.10100000352E+00 0. -1.
       -3    1    3    3    0  502 -0.78457505372E+02 -0.19816968332E+03 -0.30525023036E+03  0.37229627566E+03  0.10100000352E+00 0.  1.
</event>
<event>
 5   0  0.2005125E-03  0.5003495E+03  0.7818609E-02  0.1013688E+00
       -3   -1    0    0    0  501  0.00000000000E+00  0.00000000000E+00  0.14254238836E+03  0.14254242414E+03  0.10100000352E+00 0. -1.
        3   -1    0    0  501    0  0.00000000000E+00  0.00000000000E+00 -0.43907918648E+03  0.43907919809E+03  0.10100000352E+00 0.  1.
    10030    2    1    2    0    0  0.00000000000E+00  0.00000000000E+00 -0.29653679812E+03  0.58162162223E+03  0.50034951664E+03 0.  0.
        4    1    3    3  502    0  0.21000336349E+03  0.13207190842E+03 -0.11075600079E+03  0.27168530744E+03  0.12699999809E+01 0. -1.
       -4    1    3    3    0  502 -0.21000336349E+03 -0.13207190842E+03 -0.18578079733E+03  0.30993631479E+03  0.12699999809E+01 0.  1.
</event>
<event>
 5   0  0.3057783E-03  0.5002209E+03  0.7818609E-02  0.1013721E+00
       -1   -1    0    0    0  501  0.00000000000E+00  0.00000000000E+00  0.13696473752E+03  0.13696473761E+03  0.50400001928E-02 0. -1.
        1   -1    0    0  501    0  0.00000000000E+00  0.00000000000E+00 -0.45672517837E+03  0.45672517840E+03  0.50400001928E-02 0.  1.
    10030    2    1    2    0    0  0.00000000000E+00  0.00000000000E+00 -0.31976044086E+03  0.59368991601E+03  0.50022092802E+03 0.  0.
        5    1    3    3  502    0 -0.79713831260E+02  0.17776512760E+03 -0.34594954628E+03  0.39706159982E+03  0.46999998093E+01 0.  1.
       -5    1    3    3    0  502  0.79713831260E+02 -0.17776512760E+03  0.26189105419E+02  0.19662831619E+03  0.46999998093E+01 0. -1.
</event>
<event>
 5   0  0.3211775E-03  0.4999633E+03  0.7818609E-02  0.1013788E+00
       -1   -1    0    0    0  501  0.00000000000E+00  0.00000000000E+00  0.79531598339E+03  0.79531598341E+03  0.50400001928E-02 0. -1.
        1   -1    0    0  501    0  0.00000000000E+00  0.00000000000E+00 -0.78573591144E+02  0.78573591306E+02  0.50400001928E-02 0.  1.
    10030    2    1    2    0    0  0.00000000000E+00  0.00000000000E+00  0.71674239225E+03  0.87388957471E+03  0.49996333060E+03 0.  0.
        4    1    3    3  502    0 -0.22530001783E+02  0.67539351387E+02 -0.60470788098E+02  0.93421058008E+02  0.12699999809E+01 0.  1.
       -4    1    3    3    0  502  0.22530001783E+02 -0.67539351387E+02  0.77721318034E+03  0.78046851670E+03  0.12699999809E+01 0. -1.
</event>
<event>
 5   0  0.3057783E-03  0.5000842E+03  0.7818609E-02  0.1013757E+00
       -1   -1    0    0    0  501  0.00000000000E+00  0.00000000000E+00  0.11064230497E+03  0.11064230508E+03  0.50400001928E-02 0. -1.
        1   -1    0    0  501    0  0.00000000000E+00  0.00000000000E+00 -0.56507374173E+03  0.56507374175E+03  0.50400001928E-02 0.  1.
    10030    2    1    2    0    0  0.00000000000E+00  0.00000000000E+00 -0.45443143676E+03  0.67571604684E+03  0.50008423814E+03 0.  0.
        5    1    3    3  502    0  0.19567023012E+03  0.11017172888E+03 -0.78741019864E+02  0.23800606506E+03  0.46999998093E+01 0. -1.
       -5    1    3    3    0  502 -0.19567023012E+03 -0.11017172888E+03 -0.37569041690E+03  0.43770998178E+03  0.46999998093E+01 0.  1.
</event>
<event>
 5   0  0.4978779E-03  0.5002215E+03  0.7818609E-02  0.1013721E+00
        2   -1    0    0  501    0  0.00000000000E+00  0.00000000000E+00  0.65396107138E+03  0.65396107139E+03  0.25500000920E-02 0. -1.
       -2   -1    0    0    0  501  0.00000000000E+00  0.00000000000E+00 -0.95656137841E+02  0.95656137875E+02  0.25500000920E-02 0.  1.
    10030    2    1    2    0    0  0.00000000000E+00  0.00000000000E+00  0.55830493354E+03  0.74961720926E+03  0.50022151254E+03 0.  0.
        1    1    3    3  502    0 -0.10348452246E+03 -0.20869047715E+03  0.14267037841E+03  0.27315855934E+03  0.50400001928E-02 0. -1.
       -1    1    3    3    0  502  0.10348452246E+03  0.20869047715E+03  0.41563455513E+03  0.47645864992E+03  0.50400001928E-02 0.  1.
</event>
<event>
 5   0  0.2863538E-03  0.5001781E+03  0.7818609E-02  0.1013732E+00
        1   -1    0    0  501    0  0.00000000000E+00  0.00000000000E+00  0.39853018731E+03  0.39853018734E+03  0.50400001928E-02 0.  1.
       -1   -1    0    0    0  501  0.00000000000E+00  0.00000000000E+00 -0.15693802644E+03  0.15693802652E+03  0.50400001928E-02 0. -1.
    10030    2    1    2    0    0  0.00000000000E+00  0.00000000000E+00  0.24159216087E+03  0.55546821386E+03  0.50017813268E+03 0.  0.
        1    1    3    3  502    0 -0.22111578716E+03 -0.12420933696E+02 -0.82278749388E+01  0.22161716737E+03  0.50400001928E-02 0. -1.
       -1    1    3    3    0  502  0.22111578716E+03  0.12420933696E+02  0.24982003581E+03  0.33385104648E+03  0.50400001928E-02 0.  1.
</event>
<event>
 5   0  0.5095783E-03  0.5004217E+03  0.7818609E-02  0.1013669E+00
       -2   -1    0    0    0  501  0.00000000000E+00  0.00000000000E+00  0.64911754288E+02  0.64911754338E+02  0.25500000920E-02 0.  1.
        2   -1    0    0  501    0  0.00000000000E+00  0.00000000000E+00 -0.96447064008E+03  0.96447064008E+03  0.25500000920E-02 0. -1.
    10030    2    1    2    0    0  0.00000000000E+00  0.00000000000E+00 -0.89955888579E+03  0.10293823944E+04  0.50042174707E+03 0.  0.
        4    1    3    3  502    0  0.24426664050E+02  0.10947138778E+03  0.10293179755E+02  0.11264195093E+03  0.12699999809E+01 0.  1.
       -4    1    3    3    0  502 -0.24426664050E+02 -0.10947138778E+03 -0.90985206554E+03  0.91674044349E+03  0.12699999809E+01 0. -1.
</event>
<event>
 5   0  0.4889251E-03  0.4998869E+03  0.7818609E-02  0.1013808E+00
        2   -1    0    0  501    0  0.00000000000E+00  0.00000000000E+00  0.41193620530E+03  0.41193620530E+03  0.25500000920E-02 0.  1.
       -2   -1    0    0    0  501  0.00000000000E+00  0.00000000000E+00 -0.15165388658E+03  0.15165388660E+03  0.25500000920E-02 0. -1.
    10030    2    1    2    0    0  0.00000000000E+00  0.00000000000E+00  0.26028231871E+03  0.56359009191E+03  0.49988689347E+03 0.  0.
        5    1    3    3  502    0  0.19913032717E+03  0.12680090035E+03  0.22255152378E+03  0.32447284365E+03  0.46999998093E+01 0.  1.
       -5    1    3    3    0  502 -0.19913032717E+03 -0.12680090035E+03  0.37730794931E+02  0.23911724826E+03  0.46999998093E+01 0. -1.
</event>
<event>
 5   0  0.2005125E-03  0.4983284E+03  0.7818609E-02  0.1014216E+00
        4   -1    0    0  501    0  0.00000000000E+00  0.00000000000E+00  0.95963271886E+03  0.95963355924E+03  0.12699999809E+01 0.  1.
       -4   -1    0    0    0  501  0.00000000000E+00  0.00000000000E+00 -0.64687234056E+02  0.64699699765E+02  0.12699999809E+01 0. -1.
    10030    2    1    2    0    0  0.00000000000E+00  0.00000000000E+00  0.89494548481E+03  0.10243332590E+04  0.49832841051E+03 0.  0.
        3    1    3    3  502    0 -0.18487150333E+03  0.16352882058E+03  0.37735377350E+03  0.45090467782E+03  0.10100000352E+00 0. -1.
       -3    1    3    3    0  502  0.18487150333E+03 -0.16352882058E+03  0.51759171130E+03  0.57342858118E+03  0.10100000352E+00 0.  1.
</event>
<event>
 5   0  0.2863538E-03  0.5008072E+03  0.7818609E-02  0.1013568E+00
       -1   -1    0    0    0  501  0.00000000000E+00  0.00000000000E+00  0.72603456026E+02  0.72603456201E+02  0.50400001928E-02 0.  1.
        1   -1    0    0  501    0  0.00000000000E+00  0.00000000000E+00 -0.86362231265E+03  0.86362231267E+03  0.50400001928E-02 0. -1.
    10030    2    1    2    0    0  0.00000000000E+00  0.00000000000E+00 -0.79101885663E+03  0.93622576887E+03  0.50080720717E+03 0.  0.
        1    1    3    3  502    0  0.24313682916E+03 -0.59201817971E+02 -0.41239567204E+03  0.48238010250E+03  0.50400001928E-02 0.  1.
       -1    1    3    3    0  502 -0.24313682916E+03  0.59201817971E+02 -0.37862318459E+03  0.45384566637E+03  0.50400001928E-02 0. -1.
</event>
<event>
 5   0  0.4989875E-03  0.5000882E+03  0.7818609E-02  0.1013756E+00
       -2   -1    0    0    0  501  0.00000000000E+00  0.00000000000E+00  0.32947990778E+03  0.32947990779E+03  0.25500000920E-02 0.  1.
        2   -1    0    0  501    0  0.00000000000E+00  0.00000000000E+00 -0.18975981473E+03  0.18975981474E+03  0.25500000920E-02 0. -1.
    10030    2    1    2    0    0  0.00000000000E+00  0.00000000000E+00  0.13972009305E+03  0.51923972253E+03  0.50008817728E+03 0.  0.
        2    1    3    3  502    0  0.22482500647E+03 -0.49981114028E+02  0.17094154633E+03  0.28681946859E+03  0.25500000920E-02 0.  1.
       -2    1    3    3    0  502 -0.22482500647E+03  0.49981114028E+02 -0.31221453278E+02  0.23242025395E+03  0.25500000920E-02 0. -1.
</event>
<event>
 5   0  0.3055293E-03  0.5000339E+03  0.7818609E-02  0.1013770E+00
       -1   -1    0    0    0  501  0.00000000000E+00  0.00000000000E+00  0.43611864296E+02  0.43611864587E+02  0.50400001928E-02 0.  1.
        1   -1    0    0  501    0  0.00000000000E+00  0.00000000000E+00 -0.14332907569E+04  0.14332907569E+04  0.50400001928E-02 0. -1.
    10030    2    1    2    0    0  0.00000000000E+00  0.00000000000E+00 -0.13896788926E+04  0.14769026215E+04  0.50003392768E+03 0.  0.
        3    1    3    3  502    0 -0.19466796009E+03  0.10254705200E+03 -0.34415612264E+03  0.40847883607E+03  0.10100000352E+00 0.  1.
       -3    1    3    3    0  502  0.19466796009E+03 -0.10254705200E+03 -0.10455227699E+04  0.10684237854E+04  0.10100000352E+00 0. -1.
</event>
<event>
 5   0  0.3055293E-03  0.4995705E+03  0.7818609E-02  0.1013891E+00
        1   -1    0    0  501    0  0.00000000000E+00  0.00000000000E+00  0.29005368145E+03  0.29005368150E+03  0.50400001928E-02 0.  1.
       -1   -1    0    0    0  501  0.00000000000E+00  0.00000000000E+00 -0.21510734396E+03  0.21510734402E+03  0.50400001928E-02 0. -1.
    10030    2    1    2    0    0  0.00000000000E+00  0.00000000000E+00  0.74946337494E+02  0.50516102551E+03  0.49957052374E+03 0.  0.
        3    1    3    3  502    0 -0.24208992821E+03  0.61483510279E+02  0.39714152690E+02  0.25291298801E+03  0.10100000352E+00 0.  1.
       -3    1    3    3    0  502  0.24208992821E+03 -0.61483510279E+02  0.35232184804E+02  0.25224803751E+03  0.10100000352E+00 0. -1.
</event>
<event>
 5   0  0.4989875E-03  0.4997928E+03  0.7818609E-02  0.1013833E+00
        2   -1    0    0  501    0  0.00000000000E+00  0.00000000000E+00  0.13933089048E+04  0.13933089048E+04  0.25500000920E-02 0.  1.
       -2   -1    0    0    0  501  0.00000000000E+00  0.00000000000E+00 -0.44820076640E+02  0.44820076713E+02  0.25500000920E-02 0. -1.
    10030    2    1    2    0    0  0.00000000000E+00  0.00000000000E+00  0.13484888282E+04  0.14381289815E+04  0.49979280487E+03 0.  0.
        2    1    3    3  502    0 -0.15914444146E+02 -0.18341653911E+03  0.11604681003E+04  0.11749813224E+04  0.25500000920E-02 0.  1.
       -2    1    3    3    0  502  0.15914444146E+02  0.18341653911E+03  0.18802072789E+03  0.26314765907E+03  0.25500000920E-02 0. -1.
</event>
<event>
 5   0  0.3055293E-03  0.5001169E+03  0.7818609E-02  0.1013748E+00
       -1   -1    0    0    0  501  0.00000000000E+00  0.00000000000E+00  0.33481164419E+03  0.33481164423E+03  0.50400001928E-02 0.  1.
        1   -1    0    0  501    0  0.00000000000E+00  0.00000000000E+00 -0.18675944915E+03  0.18675944922E+03  0.50400001928E-02 0. -1.
    10030    2    1    2    0    0  0.00000000000E+00  0.00000000000E+00  0.14805219504E+03  0.52157109345E+03  0.50011693939E+03 0.  0.
        3    1    3    3  502    0  0.89518074395E+02  0.15275061877E+03  0.25818844114E+03  0.31306152513E+03  0.10100000352E+00 0.  1.
       -3    1    3    3    0  502 -0.89518074395E+02 -0.15275061877E+03 -0.11013624609E+03  0.20850956832E+03  0.10100000352E+00 0. -1.
</event>
<event>
 5   0  0.5118882E-03  0.5000694E+03  0.7818609E-02  0.1013761E+00
       -2   -1    0    0    0  501  0.00000000000E+00  0.00000000000E+00  0.72546834087E+02  0.72546834132E+02  0.25500000920E-02 0. -1.
        2   -1    0    0  501    0  0.00000000000E+00  0.00000000000E+00 -0.86175156580E+03  0.86175156581E+03  0.25500000920E-02 0.  1.
    10030    2    1    2    0    0  0.00000000000E+00  0.00000000000E+00 -0.78920473172E+03  0.93429839994E+03  0.50006938675E+03 0.  0.
        3    1    3    3  502    0 -0.21475436282E+03  0.12417798209E+03 -0.45302280668E+03  0.51649712600E+03  0.10100000352E+00 0. -1.
       -3    1    3    3    0  502  0.21475436282E+03 -0.12417798209E+03 -0.33618192503E+03  0.41780127394E+03  0.10100000352E+00 0.  1.
</event>
<event>
 5   0  0.5118882E-03  0.4999849E+03  0.7818609E-02  0.1013783E+00
       -2   -1    0    0    0  501  0.00000000000E+00  0.00000000000E+00  0.12363542327E+03  0.12363542329E+03  0.25500000920E-02 0. -1.
        2   -1    0    0  501    0  0.00000000000E+00  0.00000000000E+00 -0.50548796351E+03  0.50548796351E+03  0.25500000920E-02 0.  1.
    10030    2    1    2    0    0  0.00000000000E+00  0.00000000000E+00 -0.38185254024E+03  0.62912338680E+03  0.49998487311E+03 0.  0.
        3    1    3    3  502    0 -0.77391770827E+02 -0.12540672420E+03  0.63172119293E+02  0.16033421195E+03  0.10100000352E+00 0. -1.
       -3    1    3    3    0  502  0.77391770827E+02  0.12540672420E+03 -0.44502465953E+03  0.46878917485E+03  0.10100000352E+00 0.  1.
</event>
<event>
 5   0  0.4989875E-03  0.4999228E+03  0.7818609E-02  0.1013799E+00
       -2   -1    0    0    0  501  0.00000000000E+00  0.00000000000E+00  0.37639110747E+03  0.37639110748E+03  0.25500000920E-02 0.  1.
        2   -1    0    0  501    0  0.00000000000E+00  0.00000000000E+00 -0.16599941767E+03  0.16599941769E+03  0.25500000920E-02 0. -1.
    10030    2    1    2    0    0  0.00000000000E+00  0.00000000000E+00  0.21039168980E+03  0.54239052517E+03  0.49992281270E+03 0.  0.
        2    1    3    3  502    0 -0.14428103048E+03  0.20311528132E+03  0.12710727706E+03  0.27969464269E+03  0.25500000920E-02 0. -1.
       -2    1    3    3    0  502  0.14428103048E+03 -0.20311528132E+03  0.83284412739E+02  0.26269588248E+03  0.25500000920E-02 0.  1.
</event>
<event>
 5   0  0.3211775E-03  0.4997294E+03  0.7818609E-02  0.1013850E+00
        1   -1    0    0  501    0  0.00000000000E+00  0.00000000000E+00  0.57497069984E+03  0.57497069986E+03  0.50400001928E-02 0. -1.
       -1   -1    0    0    0  501  0.00000000000E+00  0.00000000000E+00 -0.10858354938E+03  0.10858354950E+03  0.50400001928E-02 0.  1.
    10030    2    1    2    0    0  0.00000000000E+00  0.00000000000E+00  0.46638715046E+03  0.68355424936E+03  0.49972936446E+03 0.  0.
        4    1    3    3  502    0  0.22275760575E+03 -0.11184410968E+03  0.20947447879E+03  0.32559365159E+03  0.12699999809E+01 0.  1.
       -4    1    3    3    0  502 -0.22275760575E+03  0.11184410968E+03  0.25691267167E+03  0.35796059777E+03  0.12699999809E+01 0. -1.
</event>
<event>
 5   0  0.4978779E-03  0.5002365E+03  0.7818609E-02  0.1013717E+00
        2   -1    0    0  501    0  0.00000000000E+00  0.00000000000E+00  0.19062224923E+03  0.19062224925E+03  0.25500000920E-02 0. -1.
       -2   -1    0    0    0  501  0.00000000000E+00  0.00000000000E+00 -0.32818388814E+03  0.32818388815E+03  0.25500000920E-02 0.  1.
    10030    2    1    2    0    0  0.00000000000E+00  0.00000000000E+00 -0.13756163890E+03  0.51880613740E+03  0.50023654775E+03 0.  0.
        1    1    3    3  502    0  0.19119522868E+03  0.19827143543E+02  0.97192406521E+02  0.21539520655E+03  0.50400001928E-02 0. -1.
       -1    1    3    3    0  502 -0.19119522868E+03 -0.19827143543E+02 -0.23475404542E+03  0.30341093085E+03  0.50400001928E-02 0.  1.
</event>
<event>
 5   0  0.4989875E-03  0.5002827E+03  0.7818609E-02  0.1013705E+00
        2   -1    0    0  501    0  0.00000000000E+00  0.00000000000E+00  0.36975533651E+03  0.36975533652E+03  0.25500000920E-02 0.  1.
       -2   -1    0    0    0  501  0.00000000000E+00  0.00000000000E+00 -0.16922187677E+03  0.16922187679E+03  0.25500000920E-02 0. -1.
    10030    2    1    2    0    0  0.00000000000E+00  0.00000000000E+00  0.20053345975E+03  0.53897721331E+03  0.50028268808E+03 0.  0.
        2    1    3    3  502    0 -0.24029408300E+02 -0.83750318386E+02 -0.15234528021E+03  0.17550103333E+03  0.25500000920E-02 0. -1.
       -2    1    3    3    0  502  0.24029408300E+02  0.83750318386E+02  0.35287873995E+03  0.36347617998E+03  0.25500000920E-02 0.  1.
</event>
<event>
 5   0  0.4978779E-03  0.4998581E+03  0.7818609E-02  0.1013816E+00
        2   -1    0    0  501    0  0.00000000000E+00  0.00000000000E+00  0.37401831398E+03  0.37401831399E+03  0.25500000920E-02 0. -1.
       -2   -1    0    0    0  501  0.00000000000E+00  0.00000000000E+00 -0.16700929755E+03  0.16700929757E+03  0.25500000920E-02 0.  1.
    10030    2    1    2    0    0  0.00000000000E+00  0.00000000000E+00  0.20700901643E+03  0.54102761156E+03  0.49985812346E+03 0.  0.
        1    1    3    3  502    0 -0.96555313932E+02 -0.34542716551E+02 -0.14318961105E+03  0.17612323144E+03  0.50400001928E-02 0.  1.
       -1    1    3    3    0  502  0.96555313932E+02  0.34542716551E+02  0.35019862748E+03  0.36490438012E+03  0.50400001928E-02 0. -1.
</event>
<event>
 5   0  0.5118882E-03  0.4983763E+03  0.7818609E-02  0.1014204E+00
        2   -1    0    0  501    0  0.00000000000E+00  0.00000000000E+00  0.54482452405E+03  0.54482452406E+03  0.25500000920E-02 0. -1.
       -2   -1    0    0    0  501  0.00000000000E+00  0.00000000000E+00 -0.11397201005E+03  0.11397201008E+03  0.25500000920E-02 0.  1.
    10030    2    1    2    0    0  0.00000000000E+00  0.00000000000E+00  0.43085251400E+03  0.65879653413E+03  0.49837634832E+03 0.  0.
        3    1    3    3  502    0  0.40396936740E+02 -0.41042819603E+02 -0.10505484927E+03  0.11980382755E+03  0.10100000352E+00 0.  1.
       -3    1    3    3    0  502 -0.40396936740E+02  0.41042819603E+02  0.53590736327E+03  0.53899270658E+03  0.10100000352E+00 0. -1.
</event>
<event>
 5   0  0.2005125E-03  0.4998418E+03  0.7818609E-02  0.1013820E+00
        4   -1    0    0  501    0  0.00000000000E+00  0.00000000000E+00  0.71529121314E+02  0.71540394854E+02  0.12699999809E+01 0. -1.
       -4   -1    0    0    0  501  0.00000000000E+00  0.00000000000E+00 -0.87313675719E+03  0.87313768082E+03  0.12699999809E+01 0.  1.
    10030    2    1    2    0    0  0.00000000000E+00  0.00000000000E+00 -0.80160763588E+03  0.94467807567E+03  0.49984183974E+03 0.  0.
        3    1    3    3  502    0 -0.21247079156E+01  0.20563068424E+03 -0.66923027217E+03  0.70011260528E+03  0.10100000352E+00 0.  1.
       -3    1    3    3    0  502  0.21247079156E+01 -0.20563068424E+03 -0.13237736371E+03  0.24456547039E+03  0.10100000352E+00 0. -1.
</event>
<event>
 5   0  0.5118882E-03  0.5002999E+03  0.7818609E-02  0.1013701E+00
       -2   -1    0    0    0  501  0.00000000000E+00  0.00000000000E+00  0.30986602780E+02  0.30986602885E+02  0.25500000920E-02 0. -1.
        2   -1    0    0  501    0  0.00000000000E+00  0.00000000000E+00 -0.20194212861E+04  0.20194212861E+04  0.25500000920E-02 0.  1.
    10030    2    1    2    0    0  0.00000000000E+00  0.00000000000E+00 -0.19884346833E+04  0.20504078890E+04  0.50029993143E+03 0.  0.
        3    1    3    3  502    0  0.14898820663E+03 -0.18072326757E+03 -0.63420026913E+03  0.67606832253E+03  0.10100000352E+00 0.  1.
       -3    1    3    3    0  502 -0.14898820663E+03  0.18072326757E+03 -0.13542344142E+04  0.13743395664E+04  0.10100000352E+00 0. -1.
</event>
<event>
 5   0  0.5095783E-03  0.4997402E+03  0.7818609E-02  0.1013847E+00
       -2   -1    0    0    0  501  0.00000000000E+00  0.00000000000E+00  0.24543242090E+03  0.24543242091E+03  0.25500000920E-02 0.  1.
        2   -1    0    0  501    0  0.00000000000E+00  0.00000000000E+00 -0.25438803449E+03  0.25438803450E+03  0.25500000920E-02 0. -1.
    10030    2    1    2    0    0  0.00000000000E+00  0.00000000000E+00 -0.89556135897E+01  0.49982045541E+03  0.49974021715E+03 0.  0.
        4    1    3    3  502    0 -0.13561400036E+03  0.50858431772E+02 -0.20811727843E+03  0.25355897077E+03  0.12699999809E+01 0. -1.
       -4    1    3    3    0  502  0.13561400036E+03 -0.50858431772E+02  0.19916166484E+03  0.24626148464E+03  0.12699999809E+01 0.  1.
</event>
<event>
 5   0  0.2863538E-03  0.4999865E+03  0.7818609E-02  0.1013782E+00
       -1   -1    0    0    0  501  0.00000000000E+00  0.00000000000E+00  0.63863341748E+02  0.63863341947E+02  0.50400001928E-02 0. -1.
        1   -1    0    0  501    0  0.00000000000E+00  0.00000000000E+00 -0.97859918982E+03  0.97859918983E+03  0.50400001928E-02 0.  1.
    10030    2    1    2    0    0  0.00000000000E+00  0.00000000000E+00 -0.91473584807E+03  0.10424625318E+04  0.49998645823E+03 0.  0.
        1    1    3    3  502    0  0.21763127920E+03  0.10431431630E+03 -0.32141554760E+03  0.40193631901E+03  0.50400001928E-02 0. -1.
       -1    1    3    3    0  502 -0.21763127920E+03 -0.10431431630E+03 -0.59332030047E+03  0.64052621278E+03  0.50400001928E-02 0.  1.
</event>
<event>
 5   0  0.3013734E-03  0.5001156E+03  0.7818609E-02  0.1013749E+00
        1   -1    0    0  501    0  0.00000000000E+00  0.00000000000E+00  0.35259759616E+03  0.35259759619E+03  0.50400001928E-02 0. -1.
       -1   -1    0    0    0  501  0.00000000000E+00  0.00000000000E+00 -0.17733782972E+03  0.17733782979E+03  0.50400001928E-02 0.  1.
    10030    2    1    2    0    0  0.00000000000E+00  0.00000000000E+00  0.17525976644E+03  0.52993542598E+03  0.50011555663E+03 0.  0.
        2    1    3    3  502    0  0.78332023522E+02  0.22570872596E+03  0.94142866084E+01  0.23910032138E+03  0.25500000920E-02 0.  1.
       -2    1    3    3    0  502 -0.78332023522E+02 -0.22570872596E+03  0.16584547983E+03  0.29083510460E+03  0.25500000920E-02 0. -1.
</event>
<event>
 5   0  0.3057783E-03  0.4999504E+03  0.7818609E-02  0.1013792E+00
        1   -1    0    0  501    0  0.00000000000E+00  0.00000000000E+00  0.26117828524E+03  0.26117828529E+03  0.50400001928E-02 0.  1.
       -1   -1    0    0    0  501  0.00000000000E+00  0.00000000000E+00 -0.23925268358E+03  0.23925268363E+03  0.50400001928E-02 0. -1.
    10030    2    1    2    0    0  0.00000000000E+00  0.00000000000E+00  0.21925601660E+02  0.50043096892E+03  0.49995042019E+03 0.  0.
        5    1    3    3  502    0 -0.85854696281E+02  0.14349935505E+03 -0.17496401468E+03  0.24206939130E+03  0.46999998093E+01 0.  1.
       -5    1    3    3    0  502  0.85854696281E+02 -0.14349935505E+03  0.19688961634E+03  0.25836157762E+03  0.46999998093E+01 0. -1.
</event>
<event>
 5   0  0.3057783E-03  0.5002777E+03  0.7818609E-02  0.1013706E+00
       -1   -1    0    0    0  501  0.00000000000E+00  0.00000000000E+00  0.15870071843E+03  0.15870071851E+03  0.50400001928E-02 0. -1.
        1   -1    0    0  501    0  0.00000000000E+00  0.00000000000E+00 -0.39426056471E+03  0.39426056474E+03  0.50400001928E-02 0.  1.
    10030    2    1    2    0    0  0.00000000000E+00  0.00000000000E+00 -0.23555984627E+03  0.55296128325E+03  0.50027766251E+03 0.  0.
        5    1    3    3  502    0  0.20926836688E+03 -0.12064904019E+03 -0.46165599236E+02  0.24597315468E+03  0.46999998093E+01 0.  1.
       -5    1    3    3    0  502 -0.20926836688E+03  0.12064904019E+03 -0.18939424704E+03  0.30698812857E+03  0.46999998093E+01 0. -1.
</event>
<event>
 5   0  0.2863538E-03  0.4999386E+03  0.7818609E-02  0.1013795E+00
       -1   -1    0    0    0  501  0.00000000000E+00  0.00000000000E+00  0.48016328807E+02  0.48016329072E+02  0.50400001928E-02 0.  1.
        1   -1    0    0  501    0  0.00000000000E+00  0.00000000000E+00 -0.13013208113E+04  0.13013208113E+04  0.50400001928E-02 0. -1.
    10030    2    1    2    0    0  0.00000000000E+00  0.00000000000E+00 -0.12533044824E+04  0.13493371403E+04  0.49993858880E+03 0.  0.
        1    1    3    3  502    0 -0.17970741457E+03  0.10986614968E+03 -0.98996009891E+03  0.10121197178E+04  0.50400001928E-02 0. -1.
       -1    1    3    3    0  502  0.17970741457E+03 -0.10986614968E+03 -0.26334438354E+03  0.33721742254E+03  0.50400001928E-02 0.  1.
</event>
<event>
 5   0  0.5095783E-03  0.4987512E+03  0.7818609E-02  0.1014105E+00
        2   -1    0    0  501    0  0.00000000000E+00  0.00000000000E+00  0.58647018418E+03  0.58647018419E+03  0.25500000920E-02 0.  1.
       -2   -1    0    0    0  501  0.00000000000E+00  0.00000000000E+00 -0.10603811570E+03  0.10603811573E+03  0.25500000920E-02 0. -1.
    10030    2    1    2    0    0  0.00000000000E+00  0.00000000000E+00  0.48043206848E+03  0.69250829991E+03  0.49875121355E+03 0.  0.
        4    1    3    3  502    0  0.20898763566E+03 -0.30886196922E+02  0.42419305901E+03  0.47388938924E+03  0.12699999809E+01 0.  1.
       -4    1    3    3    0  502 -0.20898763566E+03  0.30886196922E+02  0.56239009469E+02  0.21861891067E+03  0.12699999809E+01 0. -1.
</event>
<event>
 5   0  0.2863538E-03  0.5001620E+03  0.7818609E-02  0.1013737E+00
        1   -1    0    0  501    0  0.00000000000E+00  0.00000000000E+00  0.46253814603E+03  0.46253814606E+03  0.50400001928E-02 0. -1.
       -1   -1    0    0    0  501  0.00000000000E+00  0.00000000000E+00 -0.13521155360E+03  0.13521155369E+03  0.50400001928E-02 0.  1.
    10030    2    1    2    0    0  0.00000000000E+00  0.00000000000E+00  0.32732659244E+03  0.59774969975E+03  0.50016197920E+03 0.  0.
        1    1    3    3  502    0 -0.23112090236E+03 -0.80509114553E+02  0.10223508198E+03  0.26523687723E+03  0.50400001928E-02 0.  1.
       -1    1    3    3    0  502  0.23112090236E+03  0.80509114553E+02  0.22509151046E+03  0.33251282252E+03  0.50400001928E-02 0. -1.
</event>
<event>
 5   0  0.4889251E-03  0.5013361E+03  0.7818609E-02  0.1013431E+00
        2   -1    0    0  501    0  0.00000000000E+00  0.00000000000E+00  0.34357879210E+03  0.34357879211E+03  0.25500000920E-02 0.  1.
       -2   -1    0    0    0  501  0.00000000000E+00  0.00000000000E+00 -0.18288224087E+03  0.18288224089E+03  0.25500000920E-02 0. -1.
    10030    2    1    2    0    0  0.00000000000E+00  0.00000000000E+00  0.16069655123E+03  0.52646103299E+03  0.50133605265E+03 0.  0.
        5    1    3    3  502    0  0.18750379430E+03 -0.59533707334E+02  0.24340541182E+03  0.31300194838E+03  0.46999998093E+01 0.  1.
       -5    1    3    3    0  502 -0.18750379430E+03  0.59533707334E+02 -0.82708860596E+02  0.21345908462E+03  0.46999998093E+01 0. -1.
</event>
<event>
 5   0  0.4889251E-03  0.4998020E+03  0.7818609E-02  0.1013831E+00
       -2   -1    0    0    0  501  0.00000000000E+00  0.00000000000E+00  0.55947301624E+02  0.55947301682E+02  0.25500000920E-02 0.  1.
        2   -1    0    0  501    0  0.00000000000E+00  0.00000000000E+00 -0.11162381505E+04  0.11162381505E+04  0.25500000920E-02 0. -1.
    10030    2    1    2    0    0  0.00000000000E+00  0.00000000000E+00 -0.10602908488E+04  0.11721854521E+04  0.49980201089E+03 0.  0.
        5    1    3    3  502    0  0.10379500852E+03 -0.15343337982E+03 -0.92338172158E+03  0.94179143104E+03  0.46999998093E+01 0. -1.
       -5    1    3    3    0  502 -0.10379500852E+03  0.15343337982E+03 -0.13690912725E+03  0.23039402110E+03  0.46999998093E+01 0.  1.
</event>
<event>
 5   0  0.4889251E-03  0.4995188E+03  0.7818609E-02  0.1013905E+00
        2   -1    0    0  501    0  0.00000000000E+00  0.00000000000E+00  0.12083459447E+04  0.12083459447E+04  0.25500000920E-02 0.  1.
       -2   -1    0    0    0  501  0.00000000000E+00  0.00000000000E+00 -0.51624080054E+02  0.51624080117E+02  0.25500000920E-02 0. -1.
    10030    2    1    2    0    0  0.00000000000E+00  0.00000000000E+00  0.11567218646E+04  0.12599700248E+04  0.49951875969E+03 0.  0.
        5    1    3    3  502    0  0.18322630755E+03 -0.96267288012E+02  0.93075645009E+03  0.95350350282E+03  0.46999998093E+01 0. -1.
       -5    1    3    3    0  502 -0.18322630755E+03  0.96267288012E+02  0.22596541451E+03  0.30646652195E+03  0.46999998093E+01 0.  1.
</event>
<event>
 5   0  0.2005125E-03  0.5013038E+03  0.7818609E-02  0.1013439E+00
        3   -1    0    0  501    0  0.00000000000E+00  0.00000000000E+00  0.68391846250E+03  0.68391846996E+03  0.10100000352E+00 0.  1.
       -3   -1    0    0    0  501  0.00000000000E+00  0.00000000000E+00 -0.91862327969E+02  0.91862383492E+02  0.10100000352E+00 0. -1.
    10030    2    1    2    0    0  0.00000000000E+00  0.00000000000E+00  0.59205613453E+03  0.77578085345E+03  0.50130376634E+03 0.  0.
        5    1    3    3  502    0 -0.33586494051E+02 -0.14343154118E+03 -0.17717868832E+02  0.14844754112E+03  0.46999998093E+01 0. -1.
       -5    1    3    3    0  502  0.33586494051E+02  0.14343154118E+03  0.60977400337E+03  0.62733331234E+03  0.46999998093E+01 0.  1.
</event>
<event>
 5   0  0.4989875E-03  0.4999564E+03  0.7818609E-02  0.1013790E+00
        2   -1    0    0  501    0  0.00000000000E+00  0.00000000000E+00  0.15063803228E+04  0.15063803228E+04  0.25500000920E-02 0.  1.
       -2   -1    0    0    0  501  0.00000000000E+00  0.00000000000E+00 -0.41482957905E+02  0.41482957983E+02  0.25500000920E-02 0. -1.
    10030    2    1    2    0    0  0.00000000000E+00  0.00000000000E+00  0.14648973649E+04  0.15478632808E+04  0.49995644443E+03 0.  0.
        2    1    3    3  502    0  0.14423598009E+03  0.16937886159E+03  0.37950653668E+03  0.43990729489E+03  0.25500000920E-02 0. -1.
       -2    1    3    3    0  502 -0.14423598009E+03 -0.16937886159E+03  0.10853908283E+04  0.11079559859E+04  0.25500000920E-02 0.  1.
</event>
<event>
 5   0  0.3211775E-03  0.4997134E+03  0.7818609E-02  0.1013854E+00
       -1   -1    0    0    0  501  0.00000000000E+00  0.00000000000E+00  0.90909421120E+02  0.90909421260E+02  0.50400001928E-02 0.  1.
        1   -1    0    0  501    0  0.00000000000E+00  0.00000000000E+00 -0.68670951214E+03  0.68670951216E+03  0.50400001928E-02 0. -1.
    10030    2    1    2    0    0  0.00000000000E+00  0.00000000000E+00 -0.59580009102E+03  0.77761893342E+03  0.49971337500E+03 0.  0.
        4    1    3    3  502    0  0.82342924795E+02  0.15295140804E+02 -0.66421069075E+03  0.66947124897E+03  0.12699999809E+01 0. -1.
       -4    1    3    3    0  502 -0.82342924795E+02 -0.15295140804E+02  0.68410599728E+02  0.10814768445E+03  0.12699999809E+01 0.  1.
</event>
<event>
 5   0  0.4978779E-03  0.4998157E+03  0.7818609E-02  0.1013827E+00
        2   -1    0    0  501    0  0.00000000000E+00  0.00000000000E+00  0.20799261339E+03  0.20799261340E+03  0.25500000920E-02 0. -1.
       -2   -1    0    0    0  501  0.00000000000E+00  0.00000000000E+00 -0.30026996447E+03  0.30026996448E+03  0.25500000920E-02 0.  1.
    10030    2    1    2    0    0  0.00000000000E+00  0.00000000000E+00 -0.92277351081E+02  0.50826257789E+03  0.49981570459E+03 0.  0.
        1    1    3    3  502    0  0.89159836344E+02 -0.20328275776E+03  0.70608255928E+02  0.23293535981E+03  0.50400001928E-02 0. -1.
       -1    1    3    3    0  502 -0.89159836344E+02  0.20328275776E+03 -0.16288560701E+03  0.27532721808E+03  0.50400001928E-02 0.  1.
</event>
<event>
 5   0  0.4889251E-03  0.4999884E+03  0.7818609E-02  0.1013782E+00
        2   -1    0    0  501    0  0.00000000000E+00  0.00000000000E+00  0.16271182775E+03  0.16271182777E+03  0.25500000920E-02 0. -1.
       -2   -1    0    0    0  501  0.00000000000E+00  0.00000000000E+00 -0.38409691690E+03  0.38409691690E+03  0.25500000920E-02 0.  1.
    10030    2    1    2    0    0  0.00000000000E+00  0.00000000000E+00 -0.22138508915E+03  0.54680874467E+03  0.49998844542E+03 0.  0.
        5    1    3    3  502    0  0.15955479767E+03  0.19224135478E+03 -0.10218252506E+03  0.26995894201E+03  0.46999998093E+01 0. -1.
       -5    1    3    3    0  502 -0.15955479767E+03 -0.19224135478E+03 -0.11920256409E+03  0.27684980266E+03  0.46999998093E+01 0.  1.
</event>
<event>
 5   0  0.5095783E-03  0.5001228E+03  0.7818609E-02  0.1013747E+00
       -2   -1    0    0    0  501  0.00000000000E+00  0.00000000000E+00  0.63496959358E+02  0.63496959409E+02  0.25500000920E-02 0. -1.
        2   -1    0    0  501    0  0.00000000000E+00  0.00000000000E+00 -0.98478269232E+03  0.98478269232E+03  0.25500000920E-02 0.  1.
    10030    2    1    2    0    0  0.00000000000E+00  0.00000000000E+00 -0.92128573296E+03  0.10482796517E+04  0.50012281140E+03 0.  0.
        4    1    3    3  502    0  0.21045446005E+03 -0.11011669559E+03 -0.29677122908E+03  0.38012043054E+03  0.12699999809E+01 0. -1.
       -4    1    3    3    0  502 -0.21045446005E+03  0.11011669559E+03 -0.62451450389E+03  0.66815922120E+03  0.12699999809E+01 0.  1.
</event>
<event>
 5   0  0.4889251E-03  0.5001456E+03  0.7818609E-02  0.1013741E+00
        2   -1    0    0  501    0  0.00000000000E+00  0.00000000000E+00  0.69337301358E+03  0.69337301359E+03  0.25500000920E-02 0. -1.
       -2   -1    0    0    0  501  0.00000000000E+00  0.00000000000E+00 -0.90191577367E+02  0.90191577403E+02  0.25500000920E-02 0.  1.
    10030    2    1    2    0    0  0.00000000000E+00  0.00000000000E+00  0.60318143622E+03  0.78356459099E+03  0.50014560206E+03 0.  0.
        5    1    3    3  502    0 -0.24263708612E+03  0.13996241233E+02  0.20962734245E+03  0.32098966188E+03  0.46999998093E+01 0.  1.
       -5    1    3    3    0  502  0.24263708612E+03 -0.13996241233E+02  0.39355409376E+03  0.46257492911E+03  0.46999998093E+01 0. -1.
</event>
<event>
 5   0  0.4889251E-03  0.5000420E+03  0.7818609E-02  0.1013768E+00
        2   -1    0    0  501    0  0.00000000000E+00  0.00000000000E+00  0.68326790762E+03  0.68326790763E+03  0.25500000920E-02 0. -1.
       -2   -1    0    0    0  501  0.00000000000E+00  0.00000000000E+00 -0.91487546074E+02  0.91487546109E+02  0.25500000920E-02 0.  1.
    10030    2    1    2    0    0  0.00000000000E+00  0.00000000000E+00  0.59178036155E+03  0.77475545374E+03  0.50004201501E+03 0.  0.
        5    1    3    3  502    0 -0.78358455517E+02  0.23522395612E+03  0.24645407911E+03  0.34961701931E+03  0.46999998093E+01 0.  1.
       -5    1    3    3    0  502  0.78358455517E+02 -0.23522395612E+03  0.34532628244E+03  0.42513843442E+03  0.46999998093E+01 0. -1.
</event>
<event>
 5   0  0.3211775E-03  0.5000449E+03  0.7818609E-02  0.1013767E+00
       -1   -1    0    0    0  501  0.00000000000E+00  0.00000000000E+00  0.44077462194E+02  0.44077462482E+02  0.50400001928E-02 0.  1.
        1   -1    0    0  501    0  0.00000000000E+00  0.00000000000E+00 -0.14182130260E+04  0.14182130260E+04  0.50400001928E-02 0. -1.
    10030    2    1    2    0    0  0.00000000000E+00  0.00000000000E+00 -0.13741355638E+04  0.14622904884E+04  0.50004492299E+03 0.  0.
        4    1    3    3  502    0  0.56683584959E+02  0.20845077479E+03 -0.31896517645E+03  0.38523389130E+03  0.12699999809E+01 0.  1.
       -4    1    3    3    0  502 -0.56683584959E+02 -0.20845077479E+03 -0.10551703873E+04  0.10770565971E+04  0.12699999809E+01 0. -1.
</event>
<event>
 5   0  0.3055293E-03  0.5003282E+03  0.7818609E-02  0.1013693E+00
       -1   -1    0    0    0  501  0.00000000000E+00  0.00000000000E+00  0.38234469944E+03  0.38234469947E+03  0.50400001928E-02 0.  1.
        1   -1    0    0  501    0  0.00000000000E+00  0.00000000000E+00 -0.16367974134E+03  0.16367974142E+03  0.50400001928E-02 0. -1.
    10030    2    1    2    0    0  0.00000000000E+00  0.00000000000E+00  0.21866495809E+03  0.54602444089E+03  0.50032821842E+03 0.  0.
        3    1    3    3  502    0  0.22056317405E+02  0.22387967341E+03 -0.10084840452E+02  0.22518948357E+03  0.10100000352E+00 0. -1.
       -3    1    3    3    0  502 -0.22056317405E+02 -0.22387967341E+03  0.22874979854E+03  0.32083495732E+03  0.10100000352E+00 0.  1.
</event>
<event>
 5   0  0.3057783E-03  0.5000699E+03  0.7818609E-02  0.1013761E+00
       -1   -1    0    0    0  501  0.00000000000E+00  0.00000000000E+00  0.50491155271E+03  0.50491155273E+03  0.50400001928E-02 0.  1.
        1   -1    0    0  501    0  0.00000000000E+00  0.00000000000E+00 -0.12381864661E+03  0.12381864671E+03  0.50400001928E-02 0. -1.
    10030    2    1    2    0    0  0.00000000000E+00  0.00000000000E+00  0.38109290610E+03  0.62873019945E+03  0.50006985574E+03 0.  0.
        5    1    3    3  502    0 -0.63083273333E+02  0.18305693899E+03 -0.82717040608E+01  0.19385523819E+03  0.46999998093E+01 0. -1.
       -5    1    3    3    0  502  0.63083273333E+02 -0.18305693899E+03  0.38936461016E+03  0.43487496126E+03  0.46999998093E+01 0.  1.
</event>
<event>
 5   0  0.4978779E-03  0.5001693E+03  0.7818609E-02  0.1013735E+00
       -2   -1    0    0    0  501  0.00000000000E+00  0.00000000000E+00  0.33891593391E+02  0.33891593487E+02  0.25500000920E-02 0. -1.
        2   -1    0    0  501    0  0.00000000000E+00  0.00000000000E+00 -0.18453639572E+04  0.18453639572E+04  0.25500000920E-02 0.  1.
    10030    2    1    2    0    0  0.00000000000E+00  0.00000000000E+00 -0.18114723638E+04  0.18792555507E+04  0.50016927130E+03 0.  0.
        1    1    3    3  502    0  0.17418265782E+03  0.13786559743E+03 -0.13373414715E+04  0.13556654206E+04  0.50400001928E-02 0.  1.
       -1    1    3    3    0  502 -0.17418265782E+03 -0.13786559743E+03 -0.47413089231E+03  0.52359013007E+03  0.50400001928E-02 0. -1.
</event>
<event>
 5   0  0.4889251E-03  0.5000205E+03  0.7818609E-02  0.1013774E+00
       -2   -1    0    0    0  501  0.00000000000E+00  0.00000000000E+00  0.44746781116E+03  0.44746781117E+03  0.25500000920E-02 0. -1.
        2   -1    0    0  501    0  0.00000000000E+00  0.00000000000E+00 -0.13968629567E+03  0.13968629569E+03  0.25500000920E-02 0.  1.
    10030    2    1    2    0    0  0.00000000000E+00  0.00000000000E+00  0.30778151549E+03  0.58715410687E+03  0.50002048351E+03 0.  0.
        5    1    3    3  502    0  0.53314303970E+02  0.24399793162E+03  0.14182239457E+03  0.28725091339E+03  0.46999998093E+01 0. -1.
       -5    1    3    3    0  502 -0.53314303970E+02 -0.24399793162E+03  0.16595912092E+03  0.29990319348E+03  0.46999998093E+01 0.  1.
</event>
<event>
 5   0  0.3057783E-03  0.5001025E+03  0.7818609E-02  0.1013752E+00
       -1   -1    0    0    0  501  0.00000000000E+00  0.00000000000E+00  0.10155484760E+03  0.10155484773E+03  0.50400001928E-02 0. -1.
        1   -1    0    0  501    0  0.00000000000E+00  0.00000000000E+00 -0.61568323304E+03  0.61568323306E+03  0.50400001928E-02 0.  1.
    10030    2    1    2    0    0  0.00000000000E+00  0.00000000000E+00 -0.51412838543E+03  0.71723808079E+03  0.50010245733E+03 0.  0.
        5    1    3    3  502    0  0.35509055447E+02  0.10050966348E+03 -0.58139379365E+03  0.59110398304E+03  0.46999998093E+01 0.  1.
       -5    1    3    3    0  502 -0.35509055447E+02 -0.10050966348E+03  0.67265408223E+02  0.12613409774E+03  0.46999998093E+01 0. -1.
</event>
<event>
 5   0  0.2863538E-03  0.4999193E+03  0.7818609E-02  0.1013800E+00
       -1   -1    0    0    0  501  0.00000000000E+00  0.00000000000E+00  0.13556176465E+03  0.13556176475E+03  0.50400001928E-02 0. -1.
        1   -1    0    0  501    0  0.00000000000E+00  0.00000000000E+00 -0.46089572551E+03  0.46089572554E+03  0.50400001928E-02 0.  1.
    10030    2    1    2    0    0  0.00000000000E+00  0.00000000000E+00 -0.32533396086E+03  0.59645749029E+03  0.49991934513E+03 0.  0.
        1    1    3    3  502    0 -0.15245549454E+03  0.18671135609E+03 -0.83741055829E+02  0.25517909939E+03  0.50400001928E-02 0.  1.
       -1    1    3    3    0  502  0.15245549454E+03 -0.18671135609E+03 -0.24159290503E+03  0.34127839090E+03  0.50400001928E-02 0. -1.
</event>
<event>
 5   0  0.2005125E-03  0.4999615E+03  0.7818609E-02  0.1013789E+00
       -3   -1    0    0    0  501  0.00000000000E+00  0.00000000000E+00  0.41399341940E+03  0.41399343172E+03  0.10100000352E+00 0. -1.
        3   -1    0    0  501    0  0.00000000000E+00  0.00000000000E+00 -0.15094532669E+03  0.15094536048E+03  0.10100000352E+00 0.  1.
    10030    2    1    2    0    0  0.00000000000E+00  0.00000000000E+00  0.26304809272E+03  0.56493879220E+03  0.49996153838E+03 0.  0.
        5    1    3    3  502    0  0.13610820629E+03 -0.95549216916E+02  0.34235616031E+03  0.38063752727E+03  0.46999998093E+01 0. -1.
       -5    1    3    3    0  502 -0.13610820629E+03  0.95549216916E+02 -0.79308067591E+02  0.18430126493E+03  0.46999998093E+01 0.  1.
</event>
<event>
 5   0  0.5095783E-03  0.5001295E+03  0.7818609E-02  0.1013745E+00
        2   -1    0    0  501    0  0.00000000000E+00  0.00000000000E+00  0.30810745772E+03  0.30810745773E+03  0.25500000920E-02 0.  1.
       -2   -1    0    0    0  501  0.00000000000E+00  0.00000000000E+00 -0.20295636066E+03  0.20295636067E+03  0.25500000920E-02 0. -1.
    10030    2    1    2    0    0  0.00000000000E+00  0.00000000000E+00  0.10515109706E+03  0.51106381840E+03  0.50012945650E+03 0.  0.
        4    1    3    3  502    0  0.10237212488E+03 -0.21671317371E+03  0.12545168006E+03  0.27052613282E+03  0.12699999809E+01 0.  1.
       -4    1    3    3    0  502 -0.10237212488E+03  0.21671317371E+03 -0.20300583000E+02  0.24053768557E+03  0.12699999809E+01 0. -1.
</event>
<event>
 5   0  0.3211775E-03  0.4998125E+03  0.7818609E-02  0.1013828E+00
        1   -1    0    0  501    0  0.00000000000E+00  0.00000000000E+00  0.38037044002E+03  0.38037044006E+03  0.50400001928E-02 0.  1.
       -1   -1    0    0    0  501  0.00000000000E+00  0.00000000000E+00 -0.16419029104E+03  0.16419029112E+03  0.50400001928E-02 0. -1.
    10030    2    1    2    0    0  0.00000000000E+00  0.00000000000E+00  0.21618014899E+03  0.54456073118E+03  0.49981249797E+03 0.  0.
        4    1    3    3  502    0 -0.35400803760E+02  0.21230869854E+01 -0.16143110976E+03  0.16528563308E+03  0.12699999809E+01 0. -1.
       -4    1    3    3    0  502  0.35400803760E+02 -0.21230869854E+01  0.37761125874E+03  0.37927509809E+03  0.12699999809E+01 0.  1.
</event>
<event>
 5   0  0.5095783E-03  0.4999003E+03  0.7818609E-02  0.1013805E+00
       -2   -1    0    0    0  501  0.00000000000E+00  0.00000000000E+00  0.67663899753E+03  0.67663899753E+03  0.25500000920E-02 0. -1.
        2   -1    0    0  501    0  0.00000000000E+00  0.00000000000E+00 -0.92331463646E+02  0.92331463682E+02  0.25500000920E-02 0.  1.
    10030    2    1    2    0    0  0.00000000000E+00  0.00000000000E+00  0.58430753388E+03  0.76897046122E+03  0.49990026612E+03 0.  0.
        4    1    3    3  502    0 -0.16740994489E+03 -0.18048347957E+03  0.22557979619E+03  0.33389853758E+03  0.12699999809E+01 0.  1.
       -4    1    3    3    0  502  0.16740994489E+03  0.18048347957E+03  0.35872773769E+03  0.43507192363E+03  0.12699999809E+01 0. -1.
</event>
<event>
 5   0  0.4978779E-03  0.5000362E+03  0.7818609E-02  0.1013769E+00
       -2   -1    0    0    0  501  0.00000000000E+00  0.00000000000E+00  0.53211719814E+02  0.53211719875E+02  0.25500000920E-02 0. -1.
        2   -1    0    0  501    0  0.00000000000E+00  0.00000000000E+00 -0.11747234518E+04  0.11747234518E+04  0.25500000920E-02 0.  1.
    10030    2    1    2    0    0  0.00000000000E+00  0.00000000000E+00 -0.11215117320E+04  0.12279351717E+04  0.50003621955E+03 0.  0.
        1    1    3    3  502    0  0.19579109387E+03 -0.88354570527E+01 -0.17955489346E+03  0.26580477334E+03  0.50400001928E-02 0. -1.
       -1    1    3    3    0  502 -0.19579109387E+03  0.88354570527E+01 -0.94195683854E+03  0.96213039835E+03  0.50400001928E-02 0.  1.
</event>
<event>
 5   0  0.2005125E-03  0.5001960E+03  0.7818609E-02  0.1013728E+00
       -4   -1    0    0    0  501  0.00000000000E+00  0.00000000000E+00  0.23835603253E+03  0.23835941589E+03  0.12699999809E+01 0. -1.
        4   -1    0    0  501    0  0.00000000000E+00  0.00000000000E+00 -0.26241162280E+03  0.26241469601E+03  0.12699999809E+01 0.  1.
    10030    2    1    2    0    0  0.00000000000E+00  0.00000000000E+00 -0.24055590274E+02  0.50077411190E+03  0.50019600131E+03 0.  0.
        4    1    3    3  502    0 -0.17843576183E+03  0.92786532254E+01  0.16316583275E+03  0.24197131314E+03  0.12699999809E+01 0. -1.
       -4    1    3    3    0  502  0.17843576183E+03 -0.92786532254E+01 -0.18722142302E+03  0.25880279876E+03  0.12699999809E+01 0.  1.
</event>
<event>
 5   0  0.2863538E-03  0.5001997E+03  0.7818609E-02  0.1013727E+00
        1   -1    0    0  501    0  0.00000000000E+00  0.00000000000E+00  0.19181892195E+04  0.19181892195E+04  0.50400001928E-02 0. -1.
       -1   -1    0    0    0  501  0.00000000000E+00  0.00000000000E+00 -0.32608843432E+02  0.32608843822E+02  0.50400001928E-02 0.  1.
    10030    2    1    2    0    0  0.00000000000E+00  0.00000000000E+00  0.18855803761E+04  0.19507980634E+04  0.50019968940E+03 0.  0.
        1    1    3    3  502    0  0.18624381681E+03 -0.74572050189E+02  0.15252186356E+04  0.15383561474E+04  0.50400001928E-02 0. -1.
       -1    1    3    3    0  502 -0.18624381681E+03  0.74572050189E+02  0.36036174053E+03  0.41244191595E+03  0.50400001928E-02 0.  1.
</event>
<event>
 5   0  0.3057783E-03  0.5000753E+03  0.7818609E-02  0.1013759E+00
       -1   -1    0    0    0  501  0.00000000000E+00  0.00000000000E+00  0.19744718134E+03  0.19744718141E+03  0.50400001928E-02 0. -1.
        1   -1    0    0  501    0  0.00000000000E+00  0.00000000000E+00 -0.31663565465E+03  0.31663565469E+03  0.50400001928E-02 0.  1.
    10030    2    1    2    0    0  0.00000000000E+00  0.00000000000E+00 -0.11918847330E+03  0.51408283610E+03  0.50007526454E+03 0.  0.
        5    1    3    3  502    0 -0.16080410187E+03 -0.16474918104E+03 -0.15977376020E+03  0.28026772251E+03  0.46999998093E+01 0. -1.
       -5    1    3    3    0  502  0.16080410187E+03  0.16474918104E+03  0.40585286894E+02  0.23381511359E+03  0.46999998093E+01 0.  1.
</event>
<event>
 5   0  0.5095783E-03  0.5003506E+03  0.7818609E-02  0.1013687E+00
       -2   -1    0    0    0  501  0.00000000000E+00  0.00000000000E+00  0.66377680792E+02  0.66377680841E+02  0.25500000920E-02 0. -1.
        2   -1    0    0  501    0  0.00000000000E+00  0.00000000000E+00 -0.94290244525E+03  0.94290244525E+03  0.25500000920E-02 0.  1.
    10030    2    1    2    0    0  0.00000000000E+00  0.00000000000E+00 -0.87652476446E+03  0.10092801261E+04  0.50035058731E+03 0.  0.
        4    1    3    3  502    0 -0.91904434407E+02 -0.19309084633E+03 -0.70014637914E+03  0.73207722620E+03  0.12699999809E+01 0.  1.
       -4    1    3    3    0  502  0.91904434407E+02  0.19309084633E+03 -0.17637838532E+03  0.27720289989E+03  0.12699999809E+01 0. -1.
</event>
<event>
 5   0  0.2005125E-03  0.5002050E+03  0.7818609E-02  0.1013725E+00
       -3   -1    0    0    0  501  0.00000000000E+00  0.00000000000E+00  0.47056494431E+03  0.47056495515E+03  0.10100000352E+00 0. -1.
        3   -1    0    0  501    0  0.00000000000E+00  0.00000000000E+00 -0.13292796645E+03  0.13292800482E+03  0.10100000352E+00 0.  1.
    10030    2    1    2    0    0  0.00000000000E+00  0.00000000000E+00  0.33763697786E+03  0.60349295997E+03  0.50020498190E+03 0.  0.
        1    1    3    3  502    0  0.18533976244E+03 -0.78660829972E+02  0.34782253510E+03  0.40189410255E+03  0.50400001928E-02 0. -1.
       -1    1    3    3    0  502 -0.18533976244E+03  0.78660829972E+02 -0.10185557246E+02  0.20159885742E+03  0.50400001928E-02 0.  1.
</event>
<event>
 5   0  0.3211775E-03  0.5000562E+03  0.7818609E-02  0.1013764E+00
       -1   -1    0    0    0  501  0.00000000000E+00  0.00000000000E+00  0.10549517879E+03  0.10549517891E+03  0.50400001928E-02 0.  1.
        1   -1    0    0  501    0  0.00000000000E+00  0.00000000000E+00 -0.59257725417E+03  0.59257725419E+03  0.50400001928E-02 0. -1.
    10030    2    1    2    0    0  0.00000000000E+00  0.00000000000E+00 -0.48708207538E+03  0.69807243310E+03  0.50005617054E+03 0.  0.
        4    1    3    3  502    0 -0.20657073977E+03 -0.58274312900E+02 -0.42256018626E+03  0.47394734938E+03  0.12699999809E+01 0. -1.
       -4    1    3    3    0  502  0.20657073977E+03  0.58274312900E+02 -0.64521889117E+02  0.22412508371E+03  0.12699999809E+01 0.  1.
</event>
<event>
 5   0  0.5095783E-03  0.5000070E+03  0.7818609E-02  0.1013777E+00
        2   -1    0    0  501    0  0.00000000000E+00  0.00000000000E+00  0.55139841850E+03  0.55139841850E+03  0.25500000920E-02 0.  1.
       -2   -1    0    0    0  501  0.00000000000E+00  0.00000000000E+00 -0.11335134418E+03  0.11335134421E+03  0.25500000920E-02 0. -1.
    10030    2    1    2    0    0  0.00000000000E+00  0.00000000000E+00  0.43804707431E+03  0.66474976272E+03  0.50000700767E+03 0.  0.
        4    1    3    3  502    0 -0.11665509723E+03 -0.21833095798E+03  0.26552345196E+03  0.36301671499E+03  0.12699999809E+01 0. -1.
       -4    1    3    3    0  502  0.11665509723E+03  0.21833095798E+03  0.17252362235E+03  0.30173304773E+03  0.12699999809E+01 0.  1.
</event>
<event>
 5   0  0.2005125E-03  0.5002536E+03  0.7818609E-02  0.1013713E+00
       -4   -1    0    0    0  501  0.00000000000E+00  0.00000000000E+00  0.11324092443E+04  0.11324099565E+04  0.12699999809E+01 0. -1.
        4   -1    0    0  501    0  0.00000000000E+00  0.00000000000E+00 -0.55240041681E+02  0.55254638764E+02  0.12699999809E+01 0.  1.
    10030    2    1    2    0    0  0.00000000000E+00  0.00000000000E+00  0.10771692027E+04  0.11876645953E+04  0.50025363534E+03 0.  0.
        3    1    3    3  502    0  0.95497131336E+02 -0.22218844707E+03  0.69015730477E+03  0.73130330482E+03  0.10100000352E+00 0. -1.
       -3    1    3    3    0  502 -0.95497131336E+02  0.22218844707E+03  0.38701189788E+03  0.45636129044E+03  0.10100000352E+00 0.  1.
</event>
<event>
 5   0  0.4978779E-03  0.5000159E+03  0.7818609E-02  0.1013775E+00
        2   -1    0    0  501    0  0.00000000000E+00  0.00000000000E+00  0.13204900029E+04  0.13204900029E+04  0.25500000920E-02 0. -1.
       -2   -1    0    0    0  501  0.00000000000E+00  0.00000000000E+00 -0.47333932042E+02  0.47333932111E+02  0.25500000920E-02 0.  1.
    10030    2    1    2    0    0  0.00000000000E+00  0.00000000000E+00  0.12731560709E+04  0.13678239350E+04  0.50001593618E+03 0.  0.
        1    1    3    3  502    0 -0.23481647130E+03  0.24030154131E+02  0.41120102665E+03  0.47413342832E+03  0.50400001928E-02 0.  1.
       -1    1    3    3    0  502  0.23481647130E+03 -0.24030154131E+02  0.86195504421E+03  0.89369050670E+03  0.50400001928E-02 0. -1.
</event>
<event>
 5   0  0.2863538E-03  0.4998336E+03  0.7818609E-02  0.1013822E+00
       -1   -1    0    0    0  501  0.00000000000E+00  0.00000000000E+00  0.66823159965E+02  0.66823160155E+02  0.50400001928E-02 0.  1.
        1   -1    0    0  501    0  0.00000000000E+00  0.00000000000E+00 -0.93468216474E+03  0.93468216475E+03  0.50400001928E-02 0. -1.
    10030    2    1    2    0    0  0.00000000000E+00  0.00000000000E+00 -0.86785900477E+03  0.10015053249E+04  0.49983363598E+03 0.  0.
        1    1    3    3  502    0 -0.48142727650E+02 -0.21664561225E+03 -0.20367766198E+03  0.30122688052E+03  0.50400001928E-02 0.  1.
       -1    1    3    3    0  502  0.48142727650E+02  0.21664561225E+03 -0.66418134280E+03  0.70027844439E+03  0.50400001928E-02 0. -1.
</event>
<event>
 5   0  0.3211775E-03  0.4996291E+03  0.7818609E-02  0.1013876E+00
        1   -1    0    0  501    0  0.00000000000E+00  0.00000000000E+00  0.16602498390E+03  0.16602498397E+03  0.50400001928E-02 0.  1.
       -1   -1    0    0    0  501  0.00000000000E+00  0.00000000000E+00 -0.37589105496E+03  0.37589105499E+03  0.50400001928E-02 0. -1.
    10030    2    1    2    0    0  0.00000000000E+00  0.00000000000E+00 -0.20986607106E+03  0.54191603897E+03  0.49962908793E+03 0.  0.
        4    1    3    3  502    0 -0.96848646578E+01  0.15394910976E+03  0.10819619265E+03  0.18842015285E+03  0.12699999809E+01 0.  1.
       -4    1    3    3    0  502  0.96848646578E+01 -0.15394910976E+03 -0.31806226371E+03  0.35349588611E+03  0.12699999809E+01 0. -1.
</event>
<event>
 5   0  0.3055293E-03  0.4999399E+03  0.7818609E-02  0.1013795E+00
       -1   -1    0    0    0  501  0.00000000000E+00  0.00000000000E+00  0.74270653918E+02  0.74270654089E+02  0.50400001928E-02 0.  1.
        1   -1    0    0  501    0  0.00000000000E+00  0.00000000000E+00 -0.84131438774E+03  0.84131438776E+03  0.50400001928E-02 0. -1.
    10030    2    1    2    0    0  0.00000000000E+00  0.00000000000E+00 -0.76704373383E+03  0.91558504185E+03  0.49993987564E+03 0.  0.
        3    1    3    3  502    0  0.33721514834E+02  0.18641098152E+03 -0.68220565277E+03  0.70801889626E+03  0.10100000352E+00 0. -1.
       -3    1    3    3    0  502 -0.33721514834E+02 -0.18641098152E+03 -0.84838081061E+02  0.20756614559E+03  0.10100000352E+00 0.  1.
</event>
<event>
 5   0  0.5118882E-03  0.4997904E+03  0.7818609E-02  0.1013834E+00
       -2   -1    0    0    0  501  0.00000000000E+00  0.00000000000E+00  0.75047308289E+02  0.75047308332E+02  0.25500000920E-02 0. -1.
        2   -1    0    0  501    0  0.00000000000E+00  0.00000000000E+00 -0.83210980583E+03  0.83210980583E+03  0.25500000920E-02 0.  1.
    10030    2    1    2    0    0  0.00000000000E+00  0.00000000000E+00 -0.75706249754E+03  0.90715711417E+03  0.49979036065E+03 0.  0.
        3    1    3    3  502    0 -0.14583172283E+03 -0.69891706723E+02 -0.72432975602E+03  0.74216261541E+03  0.10100000352E+00 0.  1.
       -3    1    3    3    0  502  0.14583172283E+03  0.69891706723E+02 -0.32732741522E+02  0.16499449876E+03  0.10100000352E+00 0. -1.
</event>
<event>
 5   0  0.4989875E-03  0.4998899E+03  0.7818609E-02  0.1013808E+00
       -2   -1    0    0    0  501  0.00000000000E+00  0.00000000000E+00  0.14069120587E+04  0.14069120587E+04  0.25500000920E-02 0.  1.
        2   -1    0    0  501    0  0.00000000000E+00  0.00000000000E+00 -0.44403969891E+02  0.44403969964E+02  0.25500000920E-02 0. -1.
    10030    2    1    2    0    0  0.00000000000E+00  0.00000000000E+00  0.13625080888E+04  0.14513160287E+04  0.49988991087E+03 0.  0.
        2    1    3    3  502    0  0.21343949092E+03 -0.12919747414E+03  0.72471371088E+03  0.76645832656E+03  0.25500000920E-02 0.  1.
       -2    1    3    3    0  502 -0.21343949092E+03  0.12919747414E+03  0.63779437792E+03  0.68485770209E+03  0.25500000920E-02 0. -1.
</event>
<event>
 5   0  0.3013734E-03  0.4998678E+03  0.7818609E-02  0.1013813E+00
       -1   -1    0    0    0  501  0.00000000000E+00  0.00000000000E+00  0.12619530353E+03  0.12619530363E+03  0.50400001928E-02 0. -1.
        1   -1    0    0  501    0  0.00000000000E+00  0.00000000000E+00 -0.49500218714E+03  0.49500218716E+03  0.50400001928E-02 0.  1.
    10030    2    1    2    0    0  0.00000000000E+00  0.00000000000E+00 -0.36880688360E+03  0.62119749080E+03  0.49986778770E+03 0.  0.
        2    1    3    3  502    0  0.49913469056E+02  0.22843456270E+03 -0.74696584295E+02  0.24546544266E+03  0.25500000920E-02 0. -1.
       -2    1    3    3    0  502 -0.49913469056E+02 -0.22843456270E+03 -0.29411029931E+03  0.37573204814E+03  0.25500000920E-02 0.  1.
</event>
<event>
 5   0  0.4978779E-03  0.5002183E+03  0.7818609E-02  0.1013722E+00
        2   -1    0    0  501    0  0.00000000000E+00  0.00000000000E+00  0.16944160397E+04  0.16944160397E+04  0.25500000920E-02 0. -1.
       -2   -1    0    0    0  501  0.00000000000E+00  0.00000000000E+00 -0.36918080620E+02  0.36918080708E+02  0.25500000920E-02 0.  1.
    10030    2    1    2    0    0  0.00000000000E+00  0.00000000000E+00  0.16574979591E+04  0.17313341204E+04  0.50021830449E+03 0.  0.
        1    1    3    3  502    0  0.27391955639E+02 -0.18697085560E+03  0.13958526517E+04  0.14085854767E+04  0.50400001928E-02 0. -1.
       -1    1    3    3    0  502 -0.27391955639E+02  0.18697085560E+03  0.26164530741E+03  0.32274864367E+03  0.50400001928E-02 0.  1.
</event>
<event>
 5   0  0.4889251E-03  0.5003610E+03  0.7818609E-02  0.1013685E+00
       -2   -1    0    0    0  501  0.00000000000E+00  0.00000000000E+00  0.11601030383E+03  0.11601030386E+03  0.25500000920E-02 0.  1.
        2   -1    0    0  501    0  0.00000000000E+00  0.00000000000E+00 -0.53952347819E+03  0.53952347819E+03  0.25500000920E-02 0. -1.
    10030    2    1    2    0    0  0.00000000000E+00  0.00000000000E+00 -0.42351317436E+03  0.65553378205E+03  0.50036100024E+03 0.  0.
        5    1    3    3  502    0 -0.23188657742E+03 -0.78933756393E+02 -0.14538796600E+03  0.28488887894E+03  0.46999998093E+01 0.  1.
       -5    1    3    3    0  502  0.23188657742E+03  0.78933756393E+02 -0.27812520836E+03  0.37064490312E+03  0.46999998093E+01 0. -1.
</event>
<event>
 5   0  0.3211775E-03  0.4998852E+03  0.7818609E-02  0.1013809E+00
       -1   -1    0    0    0  501  0.00000000000E+00  0.00000000000E+00  0.77070787801E+02  0.77070787966E+02  0.50400001928E-02 0.  1.
        1   -1    0    0  501    0  0.00000000000E+00  0.00000000000E+00 -0.81057057324E+03  0.81057057325E+03  0.50400001928E-02 0. -1.
    10030    2    1    2    0    0  0.00000000000E+00  0.00000000000E+00 -0.73349978544E+03  0.88764136122E+03  0.49988523774E+03 0.  0.
        4    1    3    3  502    0 -0.61850388895E+02 -0.15677639246E+03 -0.69448571581E+03  0.71464419833E+03  0.12699999809E+01 0. -1.
       -4    1    3    3    0  502  0.61850388895E+02  0.15677639246E+03 -0.39014069628E+02  0.17299716289E+03  0.12699999809E+01 0.  1.
</event>
<event>
 5   0  0.4978779E-03  0.5003691E+03  0.7818609E-02  0.1013683E+00
        2   -1    0    0  501    0  0.00000000000E+00  0.00000000000E+00  0.13196600052E+03  0.13196600055E+03  0.25500000920E-02 0. -1.
       -2   -1    0    0    0  501  0.00000000000E+00  0.00000000000E+00 -0.47430638947E+03  0.47430638948E+03  0.25500000920E-02 0.  1.
    10030    2    1    2    0    0  0.00000000000E+00  0.00000000000E+00 -0.34234038895E+03  0.60627239003E+03  0.50036913275E+03 0.  0.
        1    1    3    3  502    0 -0.23952090569E+03  0.64706168784E+02 -0.21015379999E+03  0.32514884625E+03  0.50400001928E-02 0.  1.
       -1    1    3    3    0  502  0.23952090569E+03 -0.64706168784E+02 -0.13218658896E+03  0.28112354378E+03  0.50400001928E-02 0. -1.
</event>
<event>
 5   0  0.2863538E-03  0.4998497E+03  0.7818609E-02  0.1013818E+00
        1   -1    0    0  501    0  0.00000000000E+00  0.00000000000E+00  0.10500965148E+03  0.10500965160E+03  0.50400001928E-02 0.  1.
       -1   -1    0    0    0  501  0.00000000000E+00  0.00000000000E+00 -0.59482566289E+03  0.59482566291E+03  0.50400001928E-02 0. -1.
    10030    2    1    2    0    0  0.00000000000E+00  0.00000000000E+00 -0.48981601141E+03  0.69983531451E+03  0.49984971983E+03 0.  0.
        1    1    3    3  502    0  0.57704962330E+02  0.11308209319E+03 -0.54631817806E+03  0.56087518592E+03  0.50400001928E-02 0. -1.
       -1    1    3    3    0  502 -0.57704962330E+02 -0.11308209319E+03  0.56502166653E+02  0.13896012860E+03  0.50400001928E-02 0.  1.
</event>
<event>
 5   0  0.4978779E-03  0.5000528E+03  0.7818609E-02  0.1013765E+00
        2   -1    0    0  501    0  0.00000000000E+00  0.00000000000E+00  0.26450484570E+03  0.26450484571E+03  0.25500000920E-02 0.  1.
       -2   -1    0    0    0  501  0.00000000000E+00  0.00000000000E+00 -0.23634043945E+03  0.23634043947E+03  0.25500000920E-02 0. -1.
    10030    2    1    2    0    0  0.00000000000E+00  0.00000000000E+00  0.28164406246E+02  0.50084528518E+03  0.50005276312E+03 0.  0.
        1    1    3    3  502    0  0.18660354138E+03 -0.18211524001E+02  0.17975490889E+03  0.25973903934E+03  0.50400001928E-02 0.  1.
       -1    1    3    3    0  502 -0.18660354138E+03  0.18211524001E+02 -0.15159050265E+03  0.24110624584E+03  0.50400001928E-02 0. -1.
</event>
<event>
 5   0  0.3013734E-03  0.4998799E+03  0.7818609E-02  0.1013810E+00
       -1   -1    0    0    0  501  0.00000000000E+00  0.00000000000E+00  0.95746031516E+02  0.95746031649E+02  0.50400001928E-02 0. -1.
        1   -1    0    0  501    0  0.00000000000E+00  0.00000000000E+00 -0.65245508072E+03  0.65245508074E+03  0.50400001928E-02 0.  1.
    10030    2    1    2    0    0  0.00000000000E+00  0.00000000000E+00 -0.55670904921E+03  0.74820111239E+03  0.49987992470E+03 0.  0.
        2    1    3    3  502    0  0.11894904931E+03 -0.16268635600E+03 -0.57085466647E+02  0.20946235287E+03  0.25500000920E-02 0. -1.
       -2    1    3    3    0  502 -0.11894904931E+03  0.16268635600E+03 -0.49962358256E+03  0.53873875953E+03  0.25500000920E-02 0.  1.
</event>
<event>
 5   0  0.4989875E-03  0.5016335E+03  0.7818609E-02  0.1013353E+00
       -2   -1    0    0    0  501  0.00000000000E+00  0.00000000000E+00  0.37304814745E+03  0.37304814746E+03  0.25500000920E-02 0.  1.
        2   -1    0    0  501    0  0.00000000000E+00  0.00000000000E+00 -0.16863516746E+03  0.16863516748E+03  0.25500000920E-02 0. -1.
    10030    2    1    2    0    0  0.00000000000E+00  0.00000000000E+00  0.20441297999E+03  0.54168331494E+03  0.50163347904E+03 0.  0.
        2    1    3    3  502    0  0.16529645470E+03 -0.16794235820E+03  0.19498144722E+03  0.30585179153E+03  0.25500000920E-02 0.  1.
       -2    1    3    3    0  502 -0.16529645470E+03  0.16794235820E+03  0.94315327731E+01  0.23583152341E+03  0.25500000920E-02 0. -1.
</event>
<event>
 5   0  0.4989875E-03  0.4999614E+03  0.7818609E-02  0.1013789E+00
       -2   -1    0    0    0  501  0.00000000000E+00  0.00000000000E+00  0.19823894583E+03  0.19823894585E+03  0.25500000920E-02 0. -1.
        2   -1    0    0  501    0  0.00000000000E+00  0.00000000000E+00 -0.31522743142E+03  0.31522743144E+03  0.25500000920E-02 0.  1.
    10030    2    1    2    0    0  0.00000000000E+00  0.00000000000E+00 -0.11698848559E+03  0.51346637728E+03  0.49996141335E+03 0.  0.
        2    1    3    3  502    0  0.21543409575E+03 -0.96196806266E+02 -0.14333736143E+03  0.27606389539E+03  0.25500000920E-02 0.  1.
       -2    1    3    3    0  502 -0.21543409575E+03  0.96196806266E+02  0.26348875837E+02  0.23740248190E+03  0.25500000920E-02 0. -1.
</event>
<event>
 5   0  0.3211775E-03  0.4998133E+03  0.7818609E-02  0.1013828E+00
       -1   -1    0    0    0  501  0.00000000000E+00  0.00000000000E+00  0.43125918988E+03  0.43125918991E+03  0.50400001928E-02 0.  1.
        1   -1    0    0  501    0  0.00000000000E+00  0.00000000000E+00 -0.14481625612E+03  0.14481625621E+03  0.50400001928E-02 0. -1.
    10030    2    1    2    0    0  0.00000000000E+00  0.00000000000E+00  0.28644293376E+03  0.57607544612E+03  0.49981333047E+03 0.  0.
        4    1    3    3  502    0  0.75922005336E+02  0.16736819205E+03 -0.51954693778E+02  0.19098996233E+03  0.12699999809E+01 0. -1.
       -4    1    3    3    0  502 -0.75922005336E+02 -0.16736819205E+03  0.33839762754E+03  0.38508548379E+03  0.12699999809E+01 0.  1.
</event>
<event>
 5   0  0.3057783E-03  0.4996648E+03  0.7818609E-02  0.1013866E+00
        1   -1    0    0  501    0  0.00000000000E+00  0.00000000000E+00  0.57521289597E+03  0.57521289599E+03  0.50400001928E-02 0. -1.
       -1   -1    0    0    0  501  0.00000000000E+00  0.00000000000E+00 -0.10850979308E+03  0.10850979320E+03  0.50400001928E-02 0.  1.
    10030    2    1    2    0    0  0.00000000000E+00  0.00000000000E+00  0.46670310289E+03  0.68372268919E+03  0.49966481713E+03 0.  0.
        5    1    3    3  502    0  0.11490864479E+03 -0.17565598377E+03  0.41863776775E+03  0.46833608858E+03  0.46999998093E+01 0. -1.
       -5    1    3    3    0  502 -0.11490864479E+03  0.17565598377E+03  0.48065335138E+02  0.21538660061E+03  0.46999998093E+01 0.  1.
</event>
<event>
 5   0  0.2005125E-03  0.5022668E+03  0.7818609E-02  0.1013189E+00
        4   -1    0    0  501    0  0.00000000000E+00  0.00000000000E+00  0.68689444519E+02  0.68701184038E+02  0.12699999809E+01 0. -1.
       -4   -1    0    0    0  501  0.00000000000E+00  0.00000000000E+00 -0.91807065993E+03  0.91807153835E+03  0.12699999809E+01 0.  1.
    10030    2    1    2    0    0  0.00000000000E+00  0.00000000000E+00 -0.84938121541E+03  0.98677272239E+03  0.50226681809E+03 0.  0.
        3    1    3    3  502    0  0.22925908914E+03 -0.60991813709E+02 -0.58655878886E+03  0.63271712027E+03  0.10100000352E+00 0.  1.
       -3    1    3    3    0  502 -0.22925908914E+03  0.60991813709E+02 -0.26282242656E+03  0.35405560212E+03  0.10100000352E+00 0. -1.
</event>
<event>
 5   0  0.5118882E-03  0.4999404E+03  0.7818609E-02  0.1013794E+00
       -2   -1    0    0    0  501  0.00000000000E+00  0.00000000000E+00  0.15505478538E+03  0.15505478540E+03  0.25500000920E-02 0. -1.
        2   -1    0    0  501    0  0.00000000000E+00  0.00000000000E+00 -0.40298727086E+03  0.40298727087E+03  0.25500000920E-02 0.  1.
    10030    2    1    2    0    0  0.00000000000E+00  0.00000000000E+00 -0.24793248548E+03  0.55804205626E+03  0.49994041565E+03 0.  0.
        3    1    3    3  502    0  0.17023574933E+03 -0.88991497743E+02 -0.30251004053E+03  0.35834624575E+03  0.10100000352E+00 0.  1.
       -3    1    3    3    0  502 -0.17023574933E+03  0.88991497743E+02  0.54577555052E+02  0.19969581051E+03  0.10100000352E+00 0. -1.
</event>
<event>
 5   0  0.2005125E-03  0.4998934E+03  0.7818609E-02  0.1013807E+00
       -4   -1    0    0    0  501  0.00000000000E+00  0.00000000000E+00  0.12505341035E+03  0.12505985903E+03  0.12699999809E+01 0.  1.
        4   -1    0    0  501    0  0.00000000000E+00  0.00000000000E+00 -0.49955316225E+03  0.49955477659E+03  0.12699999809E+01 0. -1.
    10030    2    1    2    0    0  0.00000000000E+00  0.00000000000E+00 -0.37449975190E+03  0.62461463563E+03  0.49989336750E+03 0.  0.
        5    1    3    3  502    0  0.18083342123E+03 -0.78556150736E+02  0.46177517803E+01  0.19726938101E+03  0.46999998093E+01 0.  1.
       -5    1    3    3    0  502 -0.18083342123E+03  0.78556150736E+02 -0.37911750368E+03  0.42734525462E+03  0.46999998093E+01 0. -1.
</event>
<event>
 5   0  0.2863538E-03  0.4995296E+03  0.7818609E-02  0.1013902E+00
       -1   -1    0    0    0  501  0.00000000000E+00  0.00000000000E+00  0.49716462160E+03  0.49716462163E+03  0.50400001928E-02 0. -1.
        1   -1    0    0  501    0  0.00000000000E+00  0.00000000000E+00 -0.12547646911E+03  0.12547646921E+03  0.50400001928E-02 0.  1.
    10030    2    1    2    0    0  0.00000000000E+00  0.00000000000E+00  0.37168815249E+03  0.62264109084E+03  0.49952962405E+03 0.  0.
        1    1    3    3  502    0 -0.46783199480E+02 -0.22871779156E+03  0.75183280005E+02  0.24526112931E+03  0.50400001928E-02 0.  1.
       -1    1    3    3    0  502  0.46783199480E+02  0.22871779156E+03  0.29650487249E+03  0.37737996153E+03  0.50400001928E-02 0. -1.
</event>
<event>
 5   0  0.4978779E-03  0.4994644E+03  0.7818609E-02  0.1013919E+00
       -2   -1    0    0    0  501  0.00000000000E+00  0.00000000000E+00  0.23389393543E+03  0.23389393544E+03  0.25500000920E-02 0.  1.
        2   -1    0    0  501    0  0.00000000000E+00  0.00000000000E+00 -0.26664293881E+03  0.26664293882E+03  0.25500000920E-02 0. -1.
    10030    2    1    2    0    0  0.00000000000E+00  0.00000000000E+00 -0.32749003381E+02  0.50053687426E+03  0.49946437838E+03 0.  0.
        1    1    3    3  502    0  0.13674854715E+03  0.55412919582E+01 -0.22571368070E+03  0.26396502940E+03  0.50400001928E-02 0. -1.
       -1    1    3    3    0  502 -0.13674854715E+03 -0.55412919582E+01  0.19296467732E+03  0.23657184486E+03  0.50400001928E-02 0.  1.
</event>
<event>
 5   0  0.3057783E-03  0.4998991E+03  0.7818609E-02  0.1013805E+00
        1   -1    0    0  501    0  0.00000000000E+00  0.00000000000E+00  0.51750497499E+03  0.51750497501E+03  0.50400001928E-02 0.  1.
       -1   -1    0    0    0  501  0.00000000000E+00  0.00000000000E+00 -0.12072305637E+03  0.12072305648E+03  0.50400001928E-02 0. -1.
    10030    2    1    2    0    0  0.00000000000E+00  0.00000000000E+00  0.39678191862E+03  0.63822803149E+03  0.49989911906E+03 0.  0.
        5    1    3    3  502    0 -0.21517320521E+03 -0.59134531836E+02  0.34202147937E+03  0.40840810894E+03  0.46999998093E+01 0.  1.
       -5    1    3    3    0  502  0.21517320521E+03  0.59134531836E+02  0.54760439250E+02  0.22981992255E+03  0.46999998093E+01 0. -1.
</event>
<event>
 5   0  0.3057783E-03  0.4999329E+03  0.7818609E-02  0.1013796E+00
       -1   -1    0    0    0  501  0.00000000000E+00  0.00000000000E+00  0.28615756767E+03  0.28615756771E+03  0.50400001928E-02 0.  1.
        1   -1    0    0  501    0  0.00000000000E+00  0.00000000000E+00 -0.21835255304E+03  0.21835255310E+03  0.50400001928E-02 0. -1.
    10030    2    1    2    0    0  0.00000000000E+00  0.00000000000E+00  0.67805014632E+02  0.50451012081E+03  0.49993293750E+03 0.  0.
        5    1    3    3  502    0 -0.17093432453E+03 -0.55743361498E+02 -0.14128202039E+03  0.22871065768E+03  0.46999998093E+01 0. -1.
       -5    1    3    3    0  502  0.17093432453E+03  0.55743361498E+02  0.20908703502E+03  0.27579946313E+03  0.46999998093E+01 0.  1.
</event>
<event>
 5   0  0.4989875E-03  0.5002133E+03  0.7818609E-02  0.1013723E+00
       -2   -1    0    0    0  501  0.00000000000E+00  0.00000000000E+00  0.31830827438E+02  0.31830827540E+02  0.25500000920E-02 0.  1.
        2   -1    0    0  501    0  0.00000000000E+00  0.00000000000E+00 -0.19651810027E+04  0.19651810027E+04  0.25500000920E-02 0. -1.
    10030    2    1    2    0    0  0.00000000000E+00  0.00000000000E+00 -0.19333501752E+04  0.19970118302E+04  0.50021330444E+03 0.  0.
        2    1    3    3  502    0 -0.91718277982E+02 -0.50796693708E+02 -0.18732113563E+04  0.18761432066E+04  0.25500000920E-02 0. -1.
       -2    1    3    3    0  502  0.91718277982E+02  0.50796693708E+02 -0.60138818956E+02  0.12086862355E+03  0.25500000920E-02 0.  1.
</event>
<event>
 5   0  0.4989875E-03  0.5005652E+03  0.7818609E-02  0.1013632E+00
        2   -1    0    0  501    0  0.00000000000E+00  0.00000000000E+00  0.35846740822E+03  0.35846740823E+03  0.25500000920E-02 0.  1.
       -2   -1    0    0    0  501  0.00000000000E+00  0.00000000000E+00 -0.17474774538E+03  0.17474774540E+03  0.25500000920E-02 0. -1.
    10030    2    1    2    0    0  0.00000000000E+00  0.00000000000E+00  0.18371966284E+03  0.53321515363E+03  0.50056516613E+03 0.  0.
        2    1    3    3  502    0  0.11567514993E+03  0.21973455993E+03  0.12516164306E+03  0.27808173985E+03  0.25500000920E-02 0.  1.
       -2    1    3    3    0  502 -0.11567514993E+03 -0.21973455993E+03  0.58558019779E+02  0.25513341378E+03  0.25500000920E-02 0. -1.
</event>
<event>
 5   0  0.2863538E-03  0.5000496E+03  0.7818609E-02  0.1013766E+00
        1   -1    0    0  501    0  0.00000000000E+00  0.00000000000E+00  0.53062538136E+03  0.53062538138E+03  0.50400001928E-02 0. -1.
       -1   -1    0    0    0  501  0.00000000000E+00  0.00000000000E+00 -0.11780890474E+03  0.11780890485E+03  0.50400001928E-02 0.  1.
    10030    2    1    2    0    0  0.00000000000E+00  0.00000000000E+00  0.41281647661E+03  0.64843428623E+03  0.50004957774E+03 0.  0.
        1    1    3    3  502    0 -0.14375697675E+03 -0.18607487082E+03  0.31661183073E+03  0.39437669467E+03  0.50400001928E-02 0. -1.
       -1    1    3    3    0  502  0.14375697675E+03  0.18607487082E+03  0.96204645883E+02  0.25405759156E+03  0.50400001928E-02 0.  1.
</event>
<event>
 5   0  0.4889251E-03  0.4998654E+03  0.7818609E-02  0.1013814E+00
        2   -1    0    0  501    0  0.00000000000E+00  0.00000000000E+00  0.18720561955E+04  0.18720561955E+04  0.25500000920E-02 0.  1.
       -2   -1    0    0    0  501  0.00000000000E+00  0.00000000000E+00 -0.33367771322E+02  0.33367771420E+02  0.25500000920E-02 0. -1.
    10030    2    1    2    0    0  0.00000000000E+00  0.00000000000E+00  0.18386884241E+04  0.19054239669E+04  0.49986535438E+03 0.  0.
        5    1    3    3  502    0 -0.10445728898E+03  0.18593737090E+03  0.42291840199E+03  0.47367298409E+03  0.46999998093E+01 0. -1.
       -5    1    3    3    0  502  0.10445728898E+03 -0.18593737090E+03  0.14157700221E+04  0.14317509828E+04  0.46999998093E+01 0.  1.
</event>
<event>
 5   0  0.3211775E-03  0.4999703E+03  0.7818609E-02  0.1013787E+00
       -1   -1    0    0    0  501  0.00000000000E+00  0.00000000000E+00  0.27012498753E+03  0.27012498757E+03  0.50400001928E-02 0. -1.
        1   -1    0    0  501    0  0.00000000000E+00  0.00000000000E+00 -0.23134687453E+03  0.23134687458E+03  0.50400001928E-02 0.  1.
    10030    2    1    2    0    0  0.00000000000E+00  0.00000000000E+00  0.38778112999E+02  0.50147186216E+03  0.49997028560E+03 0.  0.
        4    1    3    3  502    0 -0.23330126864E+03 -0.75374854316E+02  0.68321929774E+02  0.25451984127E+03  0.12699999809E+01 0. -1.
       -4    1    3    3    0  502  0.23330126864E+03  0.75374854316E+02 -0.29543816774E+02  0.24695202089E+03  0.12699999809E+01 0.  1.
</event>
<event>
 5   0  0.4989875E-03  0.4999500E+03  0.7818609E-02  0.1013792E+00
        2   -1    0    0  501    0  0.00000000000E+00  0.00000000000E+00  0.45965495335E+03  0.45965495336E+03  0.25500000920E-02 0.  1.
       -2   -1    0    0    0  501  0.00000000000E+00  0.00000000000E+00 -0.13594437523E+03  0.13594437525E+03  0.25500000920E-02 0. -1.
    10030    2    1    2    0    0  0.00000000000E+00  0.00000000000E+00  0.32371057813E+03  0.59559932861E+03  0.49995001936E+03 0.  0.
        2    1    3    3  502    0  0.22417986940E+03 -0.10971984870E+03  0.17838185125E+03  0.30678191587E+03  0.25500000920E-02 0. -1.
       -2    1    3    3    0  502 -0.22417986940E+03  0.10971984870E+03  0.14532872688E+03  0.28881741275E+03  0.25500000920E-02 0.  1.
</event>
<event>
 5   0  0.3055293E-03  0.5000352E+03  0.7818609E-02  0.1013770E+00
        1   -1    0    0  501    0  0.00000000000E+00  0.00000000000E+00  0.33283192624E+03  0.33283192628E+03  0.50400001928E-02 0.  1.
       -1   -1    0    0    0  501  0.00000000000E+00  0.00000000000E+00 -0.18780887399E+03  0.18780887405E+03  0.50400001928E-02 0. -1.
    10030    2    1    2    0    0  0.00000000000E+00  0.00000000000E+00  0.14502305225E+03  0.52064080033E+03  0.50003515605E+03 0.  0.
        3    1    3    3  502    0 -0.79386973285E+02 -0.16483076635E+03  0.24993693735E+03  0.30974175682E+03  0.10100000352E+00 0.  1.
       -3    1    3    3    0  502  0.79386973285E+02  0.16483076635E+03 -0.10491388510E+03  0.21089904351E+03  0.10100000352E+00 0. -1.
</event>
<event>
 5   0  0.3057783E-03  0.4999221E+03  0.7818609E-02  0.1013799E+00
        1   -1    0    0  501    0  0.00000000000E+00  0.00000000000E+00  0.17321078773E+03  0.17321078780E+03  0.50400001928E-02 0.  1.
       -1   -1    0    0    0  501  0.00000000000E+00  0.00000000000E+00 -0.36071961007E+03  0.36071961011E+03  0.50400001928E-02 0. -1.
    10030    2    1    2    0    0  0.00000000000E+00  0.00000000000E+00 -0.18750882234E+03  0.53393039791E+03  0.49992210529E+03 0.  0.
        5    1    3    3  502    0  0.10930835234E+03 -0.18333651855E+03 -0.23258908383E+03  0.31572197713E+03  0.46999998093E+01 0. -1.
       -5    1    3    3    0  502 -0.10930835234E+03  0.18333651855E+03  0.45080261486E+02  0.21820842078E+03  0.46999998093E+01 0.  1.
</event>
<event>
 5   0  0.2005125E-03  0.4993978E+03  0.7818609E-02  0.1013936E+00
        4   -1    0    0  501    0  0.00000000000E+00  0.00000000000E+00  0.49455013018E+03  0.49455176085E+03  0.12699999809E+01 0. -1.
       -4   -1    0    0    0  501  0.00000000000E+00  0.00000000000E+00 -0.12606820352E+03  0.12607460029E+03  0.12699999809E+01 0.  1.
    10030    2    1    2    0    0  0.00000000000E+00  0.00000000000E+00  0.36848192666E+03  0.62062636115E+03  0.49939778721E+03 0.  0.
        5    1    3    3  502    0  0.15263539773E+03  0.17109566221E+03  0.61490539752E+02  0.23743307845E+03  0.46999998093E+01 0.  1.
       -5    1    3    3    0  502 -0.15263539773E+03 -0.17109566221E+03  0.30699138691E+03  0.38319328269E+03  0.46999998093E+01 0. -1.
</event>
<event>
 5   0  0.3057783E-03  0.4999746E+03  0.7818609E-02  0.1013786E+00
        1   -1    0    0  501    0  0.00000000000E+00  0.00000000000E+00  0.19218243195E+03  0.19218243201E+03  0.50400001928E-02 0. -1.
       -1   -1    0    0    0  501  0.00000000000E+00  0.00000000000E+00 -0.32517885040E+03  0.32517885044E+03  0.50400001928E-02 0.  1.
    10030    2    1    2    0    0  0.00000000000E+00  0.00000000000E+00 -0.13299641845E+03  0.51736128245E+03  0.49997464861E+03 0.  0.
        5    1    3    3  502    0 -0.18334554042E+03  0.15694824952E+03 -0.13374451257E+03  0.27596743442E+03  0.46999998093E+01 0.  1.
       -5    1    3    3    0  502  0.18334554042E+03 -0.15694824952E+03  0.74809412193E+00  0.24139384803E+03  0.46999998093E+01 0. -1.
</event>
<event>
 5   0  0.4989875E-03  0.4996308E+03  0.7818609E-02  0.1013875E+00
        2   -1    0    0  501    0  0.00000000000E+00  0.00000000000E+00  0.54677138548E+03  0.54677138549E+03  0.25500000920E-02 0.  1.
       -2   -1    0    0    0  501  0.00000000000E+00  0.00000000000E+00 -0.11413863629E+03  0.11413863631E+03  0.25500000920E-02 0. -1.
    10030    2    1    2    0    0  0.00000000000E+00  0.00000000000E+00  0.43263274920E+03  0.66091002180E+03  0.49963082495E+03 0.  0.
        2    1    3    3  502    0 -0.54587048110E+02  0.18783213930E+03  0.42187014188E+03  0.46501083319E+03  0.25500000920E-02 0.  1.
       -2    1    3    3    0  502  0.54587048110E+02 -0.18783213930E+03  0.10762607319E+02  0.19589918861E+03  0.25500000920E-02 0. -1.
</event>
<event>
 5   0  0.4989875E-03  0.4998588E+03  0.7818609E-02  0.1013816E+00
        2   -1    0    0  501    0  0.00000000000E+00  0.00000000000E+00  0.13220663889E+04  0.13220663889E+04  0.25500000920E-02 0.  1.
       -2   -1    0    0    0  501  0.00000000000E+00  0.00000000000E+00 -0.47247776970E+02  0.47247777039E+02  0.25500000920E-02 0. -1.
    10030    2    1    2    0    0  0.00000000000E+00  0.00000000000E+00  0.12748186119E+04  0.13693141659E+04  0.49985877178E+03 0.  0.
        2    1    3    3  502    0 -0.21176044320E+02  0.15210611349E+03  0.97253647497E+02  0.18177724438E+03  0.25500000920E-02 0. -1.
       -2    1    3    3    0  502  0.21176044320E+02 -0.15210611349E+03  0.11775649644E+04  0.11875369215E+04  0.25500000920E-02 0.  1.
</event>
<event>
 5   0  0.3013734E-03  0.5003307E+03  0.7818609E-02  0.1013693E+00
        1   -1    0    0  501    0  0.00000000000E+00  0.00000000000E+00  0.53930868325E+03  0.53930868328E+03  0.50400001928E-02 0.  1.
       -1   -1    0    0    0  501  0.00000000000E+00  0.00000000000E+00 -0.11604247157E+03  0.11604247168E+03  0.50400001928E-02 0. -1.
    10030    2    1    2    0    0  0.00000000000E+00  0.00000000000E+00  0.42326621168E+03  0.65535115496E+03  0.50033074097E+03 0.  0.
        2    1    3    3  502    0 -0.87667212774E+02  0.16513396945E+03  0.42934951833E+03  0.46829026998E+03  0.25500000920E-02 0.  1.
       -2    1    3    3    0  502  0.87667212774E+02 -0.16513396945E+03 -0.60833066531E+01  0.18706088498E+03  0.25500000920E-02 0. -1.
</event>
<event>
 5   0  0.5095783E-03  0.5003390E+03  0.7818609E-02  0.1013690E+00
        2   -1    0    0  501    0  0.00000000000E+00  0.00000000000E+00  0.13569876946E+03  0.13569876948E+03  0.25500000920E-02 0.  1.
       -2   -1    0    0    0  501  0.00000000000E+00  0.00000000000E+00 -0.46120377194E+03  0.46120377195E+03  0.25500000920E-02 0. -1.
    10030    2    1    2    0    0  0.00000000000E+00  0.00000000000E+00 -0.32550500249E+03  0.59690254143E+03  0.50033902239E+03 0.  0.
        4    1    3    3  502    0  0.43945214457E+02 -0.23047321841E+03 -0.26630350536E+03  0.35492007008E+03  0.12699999809E+01 0. -1.
       -4    1    3    3    0  502 -0.43945214457E+02  0.23047321841E+03 -0.59201497129E+02  0.24198247135E+03  0.12699999809E+01 0.  1.
</event>
<event>
 5   0  0.3057783E-03  0.4993622E+03  0.7818609E-02  0.1013946E+00
        1   -1    0    0  501    0  0.00000000000E+00  0.00000000000E+00  0.93180572375E+03  0.93180572377E+03  0.50400001928E-02 0.  1.
       -1   -1    0    0    0  501  0.00000000000E+00  0.00000000000E+00 -0.66903064976E+02  0.66903065166E+02  0.50400001928E-02 0. -1.
    10030    2    1    2    0    0  0.00000000000E+00  0.00000000000E+00  0.86490265878E+03  0.99870878893E+03  0.49936222918E+03 0.  0.
        5    1    3    3  502    0  0.60948852119E+02 -0.11198131208E+03  0.32075910347E+01  0.12762035680E+03  0.46999998093E+01 0. -1.
       -5    1    3    3    0  502 -0.60948852119E+02  0.11198131208E+03  0.86169506774E+03  0.87108843214E+03  0.46999998093E+01 0.  1.
</event>
<event>
 5   0  0.3057783E-03  0.5003470E+03  0.7818609E-02  0.1013688E+00
       -1   -1    0    0    0  501  0.00000000000E+00  0.00000000000E+00  0.11623183828E+03  0.11623183839E+03  0.50400001928E-02 0. -1.
        1   -1    0    0  501    0  0.00000000000E+00  0.00000000000E+00 -0.53846497076E+03  0.53846497078E+03  0.50400001928E-02 0.  1.
    10030    2    1    2    0    0  0.00000000000E+00  0.00000000000E+00 -0.42223313248E+03  0.65469680916E+03  0.50034697338E+03 0.  0.
        5    1    3    3  502    0  0.17190357991E+03 -0.17288194805E+03 -0.13796210170E+03  0.28016894948E+03  0.46999998093E+01 0. -1.
       -5    1    3    3    0  502 -0.17190357991E+03  0.17288194805E+03 -0.28427103078E+03  0.37452785969E+03  0.46999998093E+01 0.  1.
</event>
<event>
 5   0  0.3055293E-03  0.4999707E+03  0.7818609E-02  0.1013787E+00
        1   -1    0    0  501    0  0.00000000000E+00  0.00000000000E+00  0.71862461764E+03  0.71862461766E+03  0.50400001928E-02 0.  1.
       -1   -1    0    0    0  501  0.00000000000E+00  0.00000000000E+00 -0.86961500481E+02  0.86961500627E+02  0.50400001928E-02 0. -1.
    10030    2    1    2    0    0  0.00000000000E+00  0.00000000000E+00  0.63166311716E+03  0.80558611829E+03  0.49997069954E+03 0.  0.
        3    1    3    3  502    0 -0.40837307347E+02  0.19404119317E+03  0.56110950443E+03  0.59511642263E+03  0.10100000352E+00 0.  1.
       -3    1    3    3    0  502  0.40837307347E+02 -0.19404119317E+03  0.70553612726E+02  0.21046969565E+03  0.10100000352E+00 0. -1.
</event>
<event>
 5   0  0.4989875E-03  0.5000428E+03  0.7818609E-02  0.1013768E+00
       -2   -1    0    0    0  501  0.00000000000E+00  0.00000000000E+00  0.62251732211E+02  0.62251732263E+02  0.25500000920E-02 0. -1.
        2   -1    0    0  501    0  0.00000000000E+00  0.00000000000E+00 -0.10041601715E+04  0.10041601715E+04  0.25500000920E-02 0.  1.
    10030    2    1    2    0    0  0.00000000000E+00  0.00000000000E+00 -0.94190843930E+03  0.10664119038E+04  0.50004283866E+03 0.  0.
        2    1    3    3  502    0  0.11346994512E+03 -0.57370583318E+02 -0.93006136434E+03  0.93871239137E+03  0.25500000920E-02 0.  1.
       -2    1    3    3    0  502 -0.11346994512E+03  0.57370583318E+02 -0.11847074958E+02  0.12769951240E+03  0.25500000920E-02 0. -1.
</event>
<event>
 5   0  0.2863538E-03  0.4997751E+03  0.7818609E-02  0.1013838E+00
       -1   -1    0    0    0  501  0.00000000000E+00  0.00000000000E+00  0.19200332617E+03  0.19200332623E+03  0.50400001928E-02 0.  1.
        1   -1    0    0  501    0  0.00000000000E+00  0.00000000000E+00 -0.32522243627E+03  0.32522243631E+03  0.50400001928E-02 0. -1.
    10030    2    1    2    0    0  0.00000000000E+00  0.00000000000E+00 -0.13321911010E+03  0.51722576254E+03  0.49977510757E+03 0.  0.
        1    1    3    3  502    0  0.13270808397E+03  0.16672804255E+02 -0.28505887065E+03  0.31487771867E+03  0.50400001928E-02 0. -1.
       -1    1    3    3    0  502 -0.13270808397E+03 -0.16672804255E+02  0.15183976055E+03  0.20234804388E+03  0.50400001928E-02 0.  1.
</event>
<event>
 5   0  0.4989875E-03  0.4998134E+03  0.7818609E-02  0.1013828E+00
        2   -1    0    0  501    0  0.00000000000E+00  0.00000000000E+00  0.19689802263E+03  0.19689802264E+03  0.25500000920E-02 0.  1.
       -2   -1    0    0    0  501  0.00000000000E+00  0.00000000000E+00 -0.31718626012E+03  0.31718626013E+03  0.25500000920E-02 0. -1.
    10030    2    1    2    0    0  0.00000000000E+00  0.00000000000E+00 -0.12028823749E+03  0.51408428277E+03  0.49981335487E+03 0.  0.
        2    1    3    3  502    0 -0.30471932703E+02 -0.74433454583E+02 -0.30351031487E+03  0.31398628805E+03  0.25500000920E-02 0. -1.
       -2    1    3    3    0  502  0.30471932703E+02  0.74433454583E+02  0.18322207738E+03  0.20009799472E+03  0.25500000920E-02 0.  1.
</event>
<event>
 5   0  0.4989875E-03  0.4999591E+03  0.7818609E-02  0.1013790E+00
        2   -1    0    0  501    0  0.00000000000E+00  0.00000000000E+00  0.25576211177E+03  0.25576211178E+03  0.25500000920E-02 0. -1.
       -2   -1    0    0    0  501  0.00000000000E+00  0.00000000000E+00 -0.24432768053E+03  0.24432768054E+03  0.25500000920E-02 0.  1.
    10030    2    1    2    0    0  0.00000000000E+00  0.00000000000E+00  0.11434431241E+02  0.50008979232E+03  0.49995905249E+03 0.  0.
        2    1    3    3  502    0 -0.18281950547E+03  0.54586274145E+02 -0.15584013036E+03  0.24635092681E+03  0.25500000920E-02 0.  1.
       -2    1    3    3    0  502  0.18281950547E+03 -0.54586274145E+02  0.16727456160E+03  0.25373886551E+03  0.25500000920E-02 0. -1.
</event>
<event>
 5   0  0.3055293E-03  0.4998026E+03  0.7818609E-02  0.1013830E+00
       -1   -1    0    0    0  501  0.00000000000E+00  0.00000000000E+00  0.12255444504E+03  0.12255444514E+03  0.50400001928E-02 0.  1.
        1   -1    0    0  501    0  0.00000000000E+00  0.00000000000E+00 -0.50957483807E+03  0.50957483809E+03  0.50400001928E-02 0. -1.
    10030    2    1    2    0    0  0.00000000000E+00  0.00000000000E+00 -0.38702039303E+03  0.63212928323E+03  0.49980260714E+03 0.  0.
        3    1    3    3  502    0 -0.67576636815E+02  0.82170364373E+02 -0.47950235465E+03  0.49116299630E+03  0.10100000352E+00 0. -1.
       -3    1    3    3    0  502  0.67576636815E+02 -0.82170364373E+02  0.92481961623E+02  0.14096628693E+03  0.10100000352E+00 0.  1.
</event>
<event>
 5   0  0.2863538E-03  0.5007212E+03  0.7818609E-02  0.1013591E+00
        1   -1    0    0  501    0  0.00000000000E+00  0.00000000000E+00  0.39087864819E+03  0.39087864822E+03  0.50400001928E-02 0. -1.
       -1   -1    0    0    0  501  0.00000000000E+00  0.00000000000E+00 -0.16035778424E+03  0.16035778432E+03  0.50400001928E-02 0.  1.
    10030    2    1    2    0    0  0.00000000000E+00  0.00000000000E+00  0.23052086395E+03  0.55123643254E+03  0.50072121569E+03 0.  0.
        1    1    3    3  502    0 -0.17813229123E+03 -0.69833952070E+02 -0.62499383510E+02  0.20128106469E+03  0.50400001928E-02 0.  1.
       -1    1    3    3    0  502  0.17813229123E+03  0.69833952070E+02  0.29302024746E+03  0.34995536785E+03  0.50400001928E-02 0. -1.
</event>
<event>
 5   0  0.3055293E-03  0.4999771E+03  0.7818609E-02  0.1013785E+00
        1   -1    0    0  501    0  0.00000000000E+00  0.00000000000E+00  0.41813261790E+03  0.41813261793E+03  0.50400001928E-02 0.  1.
       -1   -1    0    0    0  501  0.00000000000E+00  0.00000000000E+00 -0.14946039515E+03  0.14946039524E+03  0.50400001928E-02 0. -1.
    10030    2    1    2    0    0  0.00000000000E+00  0.00000000000E+00  0.26867222275E+03  0.56759301317E+03  0.49997706479E+03 0.  0.
        3    1    3    3  502    0  0.19067379473E+03  0.91228746909E+02 -0.17187668753E+02  0.21207217267E+03  0.10100000352E+00 0. -1.
       -3    1    3    3    0  502 -0.19067379473E+03 -0.91228746909E+02  0.28585989150E+03  0.35552084050E+03  0.10100000352E+00 0.  1.
</event>
<event>
 5   0  0.3057783E-03  0.5002245E+03  0.7818609E-02  0.1013720E+00
        1   -1    0    0  501    0  0.00000000000E+00  0.00000000000E+00  0.17210027705E+04  0.17210027705E+04  0.50400001928E-02 0.  1.
       -1   -1    0    0    0  501  0.00000000000E+00  0.00000000000E+00 -0.36348654384E+02  0.36348654734E+02  0.50400001928E-02 0. -1.
    10030    2    1    2    0    0  0.00000000000E+00  0.00000000000E+00  0.16846541161E+04  0.17573514252E+04  0.50022449045E+03 0.  0.
        5    1    3    3  502    0  0.19927998263E+03  0.10361809721E+03  0.12285284425E+04  0.12489008951E+04  0.46999998093E+01 0. -1.
       -5    1    3    3    0  502 -0.19927998263E+03 -0.10361809721E+03  0.45612567353E+03  0.50845053014E+03  0.46999998093E+01 0.  1.
</event>
<event>
 5   0  0.3211775E-03  0.4995979E+03  0.7818609E-02  0.1013884E+00
        1   -1    0    0  501    0  0.00000000000E+00  0.00000000000E+00  0.21694858254E+03  0.21694858260E+03  0.50400001928E-02 0. -1.
       -1   -1    0    0    0  501  0.00000000000E+00  0.00000000000E+00 -0.28762350181E+03  0.28762350185E+03  0.50400001928E-02 0.  1.
    10030    2    1    2    0    0  0.00000000000E+00  0.00000000000E+00 -0.70674919271E+02  0.50457208445E+03  0.49959788250E+03 0.  0.
        4    1    3    3  502    0 -0.23566366237E+03 -0.18356920324E+01  0.48295021581E+02  0.24057172223E+03  0.12699999809E+01 0. -1.
       -4    1    3    3    0  502  0.23566366237E+03  0.18356920324E+01 -0.11896994085E+03  0.26400036222E+03  0.12699999809E+01 0.  1.
</event>
<event>
 5   0  0.3211775E-03  0.5004346E+03  0.7818609E-02  0.1013666E+00
       -1   -1    0    0    0  501  0.00000000000E+00  0.00000000000E+00  0.29422237224E+03  0.29422237228E+03  0.50400001928E-02 0.  1.
        1   -1    0    0  501    0  0.00000000000E+00  0.00000000000E+00 -0.21279383169E+03  0.21279383175E+03  0.50400001928E-02 0. -1.
    10030    2    1    2    0    0  0.00000000000E+00  0.00000000000E+00  0.81428540547E+02  0.50701620403E+03  0.50043463503E+03 0.  0.
        4    1    3    3  502    0 -0.80620454880E+01  0.20786942338E+03 -0.10015535474E+03  0.23088395730E+03  0.12699999809E+01 0. -1.
       -4    1    3    3    0  502  0.80620454880E+01 -0.20786942338E+03  0.18158389529E+03  0.27613224673E+03  0.12699999809E+01 0.  1.
</event>
<event>
 5   0  0.4978779E-03  0.4999712E+03  0.7818609E-02  0.1013786E+00
        2   -1    0    0  501    0  0.00000000000E+00  0.00000000000E+00  0.13310428007E+04  0.13310428007E+04  0.25500000920E-02 0.  1.
       -2   -1    0    0    0  501  0.00000000000E+00  0.00000000000E+00 -0.46950256800E+02  0.46950256869E+02  0.25500000920E-02 0. -1.
    10030    2    1    2    0    0  0.00000000000E+00  0.00000000000E+00  0.12840925439E+04  0.13779930576E+04  0.49997120459E+03 0.  0.
        1    1    3    3  502    0  0.14100529699E+03 -0.12510700814E+03  0.18951327243E+03  0.26730046337E+03  0.50400001928E-02 0. -1.
       -1    1    3    3    0  502 -0.14100529699E+03  0.12510700814E+03  0.10945792715E+04  0.11106925942E+04  0.50400001928E-02 0.  1.
</event>
<event>
 5   0  0.5118882E-03  0.5001378E+03  0.7818609E-02  0.1013743E+00
       -2   -1    0    0    0  501  0.00000000000E+00  0.00000000000E+00  0.24441843344E+03  0.24441843346E+03  0.25500000920E-02 0.  1.
        2   -1    0    0  501    0  0.00000000000E+00  0.00000000000E+00 -0.25584999004E+03  0.25584999005E+03  0.25500000920E-02 0. -1.
    10030    2    1    2    0    0  0.00000000000E+00  0.00000000000E+00 -0.11431556594E+02  0.50026842351E+03  0.50013779608E+03 0.  0.
        3    1    3    3  502    0  0.19926189110E+03 -0.15069565409E+03  0.52398062760E+01  0.24988386738E+03  0.10100000352E+00 0. -1.
       -3    1    3    3    0  502 -0.19926189110E+03  0.15069565409E+03 -0.16671362870E+02  0.25038455613E+03  0.10100000352E+00 0.  1.
</event>
<event>
 5   0  0.3057783E-03  0.5002014E+03  0.7818609E-02  0.1013726E+00
       -1   -1    0    0    0  501  0.00000000000E+00  0.00000000000E+00  0.34752139345E+03  0.34752139348E+03  0.50400001928E-02 0.  1.
        1   -1    0    0  501    0  0.00000000000E+00  0.00000000000E+00 -0.17998995507E+03  0.17998995514E+03  0.50400001928E-02 0. -1.
    10030    2    1    2    0    0  0.00000000000E+00  0.00000000000E+00  0.16753143838E+03  0.52751134862E+03  0.50020139952E+03 0.  0.
        5    1    3    3  502    0 -0.78218639283E+02  0.53868152644E+02  0.32771392597E+03  0.34123077334E+03  0.46999998093E+01 0.  1.
       -5    1    3    3    0  502  0.78218639283E+02 -0.53868152644E+02 -0.16018248759E+03  0.18628057528E+03  0.46999998093E+01 0. -1.
</event>
<event>
 5   0  0.4989875E-03  0.5000737E+03  0.7818609E-02  0.1013760E+00
        2   -1    0    0  501    0  0.00000000000E+00  0.00000000000E+00  0.43090145672E+03  0.43090145672E+03  0.25500000920E-02 0.  1.
       -2   -1    0    0    0  501  0.00000000000E+00  0.00000000000E+00 -0.14508754214E+03  0.14508754216E+03  0.25500000920E-02 0. -1.
    10030    2    1    2    0    0  0.00000000000E+00  0.00000000000E+00  0.28581391458E+03  0.57598899888E+03  0.50007372763E+03 0.  0.
        2    1    3    3  502    0 -0.42205195828E+02 -0.16753882485E+03 -0.65273873823E+02  0.18469221694E+03  0.25500000920E-02 0. -1.
       -2    1    3    3    0  502  0.42205195828E+02  0.16753882485E+03  0.35108778840E+03  0.39129678194E+03  0.25500000920E-02 0.  1.
</event>
<event>
 5   0  0.5095783E-03  0.5026648E+03  0.7818609E-02  0.1013086E+00
        2   -1    0    0  501    0  0.00000000000E+00  0.00000000000E+00  0.10067190578E+04  0.10067190578E+04  0.25500000920E-02 0. -1.
       -2   -1    0    0    0  501  0.00000000000E+00  0.00000000000E+00 -0.62746379662E+02  0.62746379714E+02  0.25500000920E-02 0.  1.
    10030    2    1    2    0    0  0.00000000000E+00  0.00000000000E+00  0.94397267818E+03  0.10694654376E+04  0.50266480380E+03 0.  0.
        4    1    3    3  502    0  0.20746686555E+03 -0.13217763740E+03  0.36240121621E+03  0.43800648687E+03  0.12699999809E+01 0.  1.
       -4    1    3    3    0  502 -0.20746686555E+03  0.13217763740E+03  0.58157146197E+03  0.63145895069E+03  0.12699999809E+01 0. -1.
</event>
<event>
 5   0  0.3211775E-03  0.4998399E+03  0.7818609E-02  0.1013821E+00
       -1   -1    0    0    0  501  0.00000000000E+00  0.00000000000E+00  0.35553123085E+03  0.35553123088E+03  0.50400001928E-02 0.  1.
        1   -1    0    0  501    0  0.00000000000E+00  0.00000000000E+00 -0.17568074205E+03  0.17568074212E+03  0.50400001928E-02 0. -1.
    10030    2    1    2    0    0  0.00000000000E+00  0.00000000000E+00  0.17985048880E+03  0.53121197300E+03  0.49983993632E+03 0.  0.
        4    1    3    3  502    0 -0.16054500227E+03  0.95833262616E+02 -0.86313183029E+02  0.20593758871E+03  0.12699999809E+01 0. -1.
       -4    1    3    3    0  502  0.16054500227E+03 -0.95833262616E+02  0.26616367183E+03  0.32527438429E+03  0.12699999809E+01 0.  1.
</event>
<event>
 5   0  0.4889251E-03  0.4996590E+03  0.7818609E-02  0.1013868E+00
        2   -1    0    0  501    0  0.00000000000E+00  0.00000000000E+00  0.17087788246E+04  0.17087788246E+04  0.25500000920E-02 0.  1.
       -2   -1    0    0    0  501  0.00000000000E+00  0.00000000000E+00 -0.36525955955E+02  0.36525956044E+02  0.25500000920E-02 0. -1.
    10030    2    1    2    0    0  0.00000000000E+00  0.00000000000E+00  0.16722528687E+04  0.17453047807E+04  0.49965900438E+03 0.  0.
        5    1    3    3  502    0 -0.19356199013E+03 -0.67646372011E+02  0.33783411881E+03  0.39521672219E+03  0.46999998093E+01 0. -1.
       -5    1    3    3    0  502  0.19356199013E+03  0.67646372011E+02  0.13344187499E+04  0.13500880585E+04  0.46999998093E+01 0.  1.
</event>
<event>
 5   0  0.5118882E-03  0.4997244E+03  0.7818609E-02  0.1013851E+00
        2   -1    0    0  501    0  0.00000000000E+00  0.00000000000E+00  0.24542934473E+04  0.24542934473E+04  0.25500000920E-02 0. -1.
       -2   -1    0    0    0  501  0.00000000000E+00  0.00000000000E+00 -0.25437516136E+02  0.25437516263E+02  0.25500000920E-02 0.  1.
    10030    2    1    2    0    0  0.00000000000E+00  0.00000000000E+00  0.24288559312E+04  0.24797309636E+04  0.49972444138E+03 0.  0.
        3    1    3    3  502    0 -0.11418195149E+03 -0.17015274882E+03  0.50496149575E+03  0.54495467552E+03  0.10100000352E+00 0.  1.
       -3    1    3    3    0  502  0.11418195149E+03  0.17015274882E+03  0.19238944354E+04  0.19347762881E+04  0.10100000352E+00 0. -1.
</event>
<event>
 5   0  0.3211775E-03  0.4999886E+03  0.7818609E-02  0.1013782E+00
       -1   -1    0    0    0  501  0.00000000000E+00  0.00000000000E+00  0.48398821337E+02  0.48398821600E+02  0.50400001928E-02 0.  1.
        1   -1    0    0  501    0  0.00000000000E+00  0.00000000000E+00 -0.12912946275E+04  0.12912946275E+04  0.50400001928E-02 0. -1.
    10030    2    1    2    0    0  0.00000000000E+00  0.00000000000E+00 -0.12428958062E+04  0.13396934491E+04  0.49998855248E+03 0.  0.
        4    1    3    3  502    0 -0.30408605696E+01  0.15748709055E+03 -0.10130291741E+03  0.18728407434E+03  0.12699999809E+01 0.  1.
       -4    1    3    3    0  502  0.30408605696E+01 -0.15748709055E+03 -0.11415928887E+04  0.11524093748E+04  0.12699999809E+01 0. -1.
</event>
<event>
 5   0  0.2005125E-03  0.5001244E+03  0.7818609E-02  0.1013746E+00
       -3   -1    0    0    0  501  0.00000000000E+00  0.00000000000E+00  0.45893390137E+03  0.45893391248E+03  0.10100000352E+00 0. -1.
        3   -1    0    0  501    0  0.00000000000E+00  0.00000000000E+00 -0.13625292394E+03  0.13625296138E+03  0.10100000352E+00 0.  1.
    10030    2    1    2    0    0  0.00000000000E+00  0.00000000000E+00  0.32268097743E+03  0.59518687386E+03  0.50012438615E+03 0.  0.
        4    1    3    3  502    0 -0.24445698675E+03 -0.27674354489E+02  0.10806009465E+03  0.26870743425E+03  0.12699999809E+01 0.  1.
       -4    1    3    3    0  502  0.24445698675E+03  0.27674354489E+02  0.21462088278E+03  0.32647943961E+03  0.12699999809E+01 0. -1.
</event>
<event>
 5   0  0.2863538E-03  0.5000634E+03  0.7818609E-02  0.1013762E+00
       -1   -1    0    0    0  501  0.00000000000E+00  0.00000000000E+00  0.66866975966E+03  0.66866975968E+03  0.50400001928E-02 0. -1.
        1   -1    0    0  501    0  0.00000000000E+00  0.00000000000E+00 -0.93492866375E+02  0.93492866511E+02  0.50400001928E-02 0.  1.
    10030    2    1    2    0    0  0.00000000000E+00  0.00000000000E+00  0.57517689329E+03  0.76216262619E+03  0.50006340617E+03 0.  0.
        1    1    3    3  502    0 -0.18370510333E+03 -0.89706649934E+02  0.50698407838E+03  0.54665135488E+03  0.50400001928E-02 0. -1.
       -1    1    3    3    0  502  0.18370510333E+03  0.89706649934E+02  0.68192814901E+02  0.21551127131E+03  0.50400001928E-02 0.  1.
</event>
<event>
 5   0  0.5095783E-03  0.5000228E+03  0.7818609E-02  0.1013773E+00
        2   -1    0    0  501    0  0.00000000000E+00  0.00000000000E+00  0.22021565143E+03  0.22021565144E+03  0.25500000920E-02 0.  1.
       -2   -1    0    0    0  501  0.00000000000E+00  0.00000000000E+00 -0.28383857046E+03  0.28383857048E+03  0.25500000920E-02 0. -1.
    10030    2    1    2    0    0  0.00000000000E+00  0.00000000000E+00 -0.63622919038E+02  0.50405422192E+03  0.50002278229E+03 0.  0.
        4    1    3    3  502    0  0.14641313906E+03 -0.18497787280E+03 -0.11524629193E+03  0.26255845334E+03  0.12699999809E+01 0. -1.
       -4    1    3    3    0  502 -0.14641313906E+03  0.18497787280E+03  0.51623372891E+02  0.24149576858E+03  0.12699999809E+01 0.  1.
</event>
<event>
 5   0  0.5118882E-03  0.5003946E+03  0.7818609E-02  0.1013676E+00
       -2   -1    0    0    0  501  0.00000000000E+00  0.00000000000E+00  0.12202047417E+03  0.12202047419E+03  0.25500000920E-02 0.  1.
        2   -1    0    0  501    0  0.00000000000E+00  0.00000000000E+00 -0.51301796319E+03  0.51301796319E+03  0.25500000920E-02 0. -1.
    10030    2    1    2    0    0  0.00000000000E+00  0.00000000000E+00 -0.39099748902E+03  0.63503843739E+03  0.50039462481E+03 0.  0.
        3    1    3    3  502    0 -0.20040079372E+03 -0.81815049822E+02 -0.36258852346E+02  0.21947413304E+03  0.10100000352E+00 0.  1.
       -3    1    3    3    0  502  0.20040079372E+03  0.81815049822E+02 -0.35473863667E+03  0.41556430435E+03  0.10100000352E+00 0. -1.
</event>
<event>
 5   0  0.4989875E-03  0.5010104E+03  0.7818609E-02  0.1013516E+00
        2   -1    0    0  501    0  0.00000000000E+00  0.00000000000E+00  0.68349467942E+03  0.68349467942E+03  0.25500000920E-02 0.  1.
       -2   -1    0    0    0  501  0.00000000000E+00  0.00000000000E+00 -0.91811767132E+02  0.91811767168E+02  0.25500000920E-02 0. -1.
    10030    2    1    2    0    0  0.00000000000E+00  0.00000000000E+00  0.59168291229E+03  0.77530644659E+03  0.50101039653E+03 0.  0.
        2    1    3    3  502    0  0.24974796225E+03 -0.41897179400E+01  0.26642880502E+03  0.36520666278E+03  0.25500000920E-02 0. -1.
       -2    1    3    3    0  502 -0.24974796225E+03  0.41897179400E+01  0.32525410726E+03  0.41009978381E+03  0.25500000920E-02 0.  1.
</event>
<event>
 5   0  0.4989875E-03  0.4995324E+03  0.7818609E-02  0.1013901E+00
        2   -1    0    0  501    0  0.00000000000E+00  0.00000000000E+00  0.23435927067E+04  0.23435927067E+04  0.25500000920E-02 0. -1.
       -2   -1    0    0    0  501  0.00000000000E+00  0.00000000000E+00 -0.26618594355E+02  0.26618594477E+02  0.25500000920E-02 0.  1.
    10030    2    1    2    0    0  0.00000000000E+00  0.00000000000E+00  0.23169741123E+04  0.23702113012E+04  0.49953235626E+03 0.  0.
        2    1    3    3  502    0 -0.19995915192E+03 -0.21938041020E+02  0.18609540437E+04  0.18717945648E+04  0.25500000920E-02 0. -1.
       -2    1    3    3    0  502  0.19995915192E+03  0.21938041020E+02  0.45602006866E+03  0.49841673639E+03  0.25500000920E-02 0.  1.
</event>
<event>
 5   0  0.5095783E-03  0.4998986E+03  0.7818609E-02  0.1013805E+00
        2   -1    0    0  501    0  0.00000000000E+00  0.00000000000E+00  0.50299555628E+03  0.50299555629E+03  0.25500000920E-02 0.  1.
       -2   -1    0    0    0  501  0.00000000000E+00  0.00000000000E+00 -0.12420520062E+03  0.12420520065E+03  0.25500000920E-02 0. -1.
    10030    2    1    2    0    0  0.00000000000E+00  0.00000000000E+00  0.37879035566E+03  0.62720075693E+03  0.49989864568E+03 0.  0.
        4    1    3    3  502    0 -0.43775542294E+02  0.23739998738E+03  0.10810355792E+03  0.26450528207E+03  0.12699999809E+01 0. -1.
       -4    1    3    3    0  502  0.43775542294E+02 -0.23739998738E+03  0.27068679774E+03  0.36269547486E+03  0.12699999809E+01 0.  1.
</event>
<event>
 5   0  0.4889251E-03  0.4998179E+03  0.7818609E-02  0.1013826E+00
        2   -1    0    0  501    0  0.00000000000E+00  0.00000000000E+00  0.96465465581E+03  0.96465465582E+03  0.25500000920E-02 0.  1.
       -2   -1    0    0    0  501  0.00000000000E+00  0.00000000000E+00 -0.64742850177E+02  0.64742850228E+02  0.25500000920E-02 0. -1.
    10030    2    1    2    0    0  0.00000000000E+00  0.00000000000E+00  0.89991180564E+03  0.10293975060E+04  0.49981793438E+03 0.  0.
        5    1    3    3  502    0 -0.12455866099E+02  0.27849176982E+02 -0.60801598994E+02  0.68188339893E+02  0.46999998093E+01 0. -1.
       -5    1    3    3    0  502  0.12455866099E+02 -0.27849176982E+02  0.96071340463E+03  0.96120916615E+03  0.46999998093E+01 0.  1.
</event>
<event>
 5   0  0.4889251E-03  0.5003573E+03  0.7818609E-02  0.1013686E+00
       -2   -1    0    0    0  501  0.00000000000E+00  0.00000000000E+00  0.52912620299E+03  0.52912620300E+03  0.25500000920E-02 0. -1.
        2   -1    0    0  501    0  0.00000000000E+00  0.00000000000E+00 -0.11828816789E+03  0.11828816792E+03  0.25500000920E-02 0.  1.
    10030    2    1    2    0    0  0.00000000000E+00  0.00000000000E+00  0.41083803510E+03  0.64741437092E+03  0.50035734889E+03 0.  0.
        5    1    3    3  502    0  0.42833450466E+02 -0.26068261052E+01 -0.11343258230E+03  0.12136943910E+03  0.46999998093E+01 0.  1.
       -5    1    3    3    0  502 -0.42833450466E+02  0.26068261052E+01  0.52427061740E+03  0.52604493182E+03  0.46999998093E+01 0. -1.
</event>
<event>
 5   0  0.5118882E-03  0.5004504E+03  0.7818609E-02  0.1013661E+00
        2   -1    0    0  501    0  0.00000000000E+00  0.00000000000E+00  0.35928227152E+03  0.35928227153E+03  0.25500000920E-02 0. -1.
       -2   -1    0    0    0  501  0.00000000000E+00  0.00000000000E+00 -0.17427147248E+03  0.17427147250E+03  0.25500000920E-02 0.  1.
    10030    2    1    2    0    0  0.00000000000E+00  0.00000000000E+00  0.18501079904E+03  0.53355374402E+03  0.50045039914E+03 0.  0.
        3    1    3    3  502    0 -0.84575076779E+02 -0.64236569736E+02 -0.14905012627E+03  0.18301702338E+03  0.10100000352E+00 0.  1.
       -3    1    3    3    0  502  0.84575076779E+02  0.64236569736E+02  0.33406092531E+03  0.35053672065E+03  0.10100000352E+00 0. -1.
</event>
<event>
 5   0  0.3211775E-03  0.5001390E+03  0.7818609E-02  0.1013743E+00
       -1   -1    0    0    0  501  0.00000000000E+00  0.00000000000E+00  0.78441516906E+02  0.78441517068E+02  0.50400001928E-02 0.  1.
        1   -1    0    0  501    0  0.00000000000E+00  0.00000000000E+00 -0.79721488415E+03  0.79721488417E+03  0.50400001928E-02 0. -1.
    10030    2    1    2    0    0  0.00000000000E+00  0.00000000000E+00 -0.71877336724E+03  0.87565640123E+03  0.50013896025E+03 0.  0.
        4    1    3    3  502    0 -0.16886463933E+03  0.14918117734E+03 -0.16949796237E+03  0.28196003660E+03  0.12699999809E+01 0.  1.
       -4    1    3    3    0  502  0.16886463933E+03 -0.14918117734E+03 -0.54927540487E+03  0.59369636464E+03  0.12699999809E+01 0. -1.
</event>
<event>
 5   0  0.2863538E-03  0.5016312E+03  0.7818609E-02  0.1013354E+00
        1   -1    0    0  501    0  0.00000000000E+00  0.00000000000E+00  0.93556818528E+03  0.93556818530E+03  0.50400001928E-02 0. -1.
       -1   -1    0    0    0  501  0.00000000000E+00  0.00000000000E+00 -0.67240917685E+02  0.67240917874E+02  0.50400001928E-02 0.  1.
    10030    2    1    2    0    0  0.00000000000E+00  0.00000000000E+00  0.86832726760E+03  0.10028091032E+04  0.50163119296E+03 0.  0.
        1    1    3    3  502    0  0.31182349986E+02 -0.24253452343E+03  0.32262320237E+03  0.40482226315E+03  0.50400001928E-02 0. -1.
       -1    1    3    3    0  502 -0.31182349986E+02  0.24253452343E+03  0.54570406522E+03  0.59798684002E+03  0.50400001928E-02 0.  1.
</event>
<event>
 5   0  0.4989875E-03  0.5000090E+03  0.7818609E-02  0.1013777E+00
       -2   -1    0    0    0  501  0.00000000000E+00  0.00000000000E+00  0.87574233404E+02  0.87574233441E+02  0.25500000920E-02 0.  1.
        2   -1    0    0  501    0  0.00000000000E+00  0.00000000000E+00 -0.71370607379E+03  0.71370607379E+03  0.25500000920E-02 0. -1.
    10030    2    1    2    0    0  0.00000000000E+00  0.00000000000E+00 -0.62613184039E+03  0.80128030723E+03  0.50000904914E+03 0.  0.
        2    1    3    3  502    0 -0.17572805539E+03  0.63952088171E+02 -0.47161334666E+02  0.19285852464E+03  0.25500000920E-02 0.  1.
       -2    1    3    3    0  502  0.17572805539E+03 -0.63952088171E+02 -0.57897050572E+03  0.60842178259E+03  0.25500000920E-02 0. -1.
</event>
<event>
 5   0  0.5095783E-03  0.4997431E+03  0.7818609E-02  0.1013846E+00
        2   -1    0    0  501    0  0.00000000000E+00  0.00000000000E+00  0.69011919927E+03  0.69011919928E+03  0.25500000920E-02 0.  1.
       -2   -1    0    0    0  501  0.00000000000E+00  0.00000000000E+00 -0.90471024055E+02  0.90471024091E+02  0.25500000920E-02 0. -1.
    10030    2    1    2    0    0  0.00000000000E+00  0.00000000000E+00  0.59964817522E+03  0.78059022337E+03  0.49974309678E+03 0.  0.
        4    1    3    3  502    0  0.10238204246E+03 -0.18071566283E+03  0.51678765599E+03  0.55696618183E+03  0.12699999809E+01 0.  1.
       -4    1    3    3    0  502 -0.10238204246E+03  0.18071566283E+03  0.82860519221E+02  0.22362404154E+03  0.12699999809E+01 0. -1.
</event>
<event>
 5   0  0.3057783E-03  0.5000466E+03  0.7818609E-02  0.1013767E+00
       -1   -1    0    0    0  501  0.00000000000E+00  0.00000000000E+00  0.61180059174E+02  0.61180059381E+02  0.50400001928E-02 0.  1.
        1   -1    0    0  501    0  0.00000000000E+00  0.00000000000E+00 -0.10217651922E+04  0.10217651922E+04  0.50400001928E-02 0. -1.
    10030    2    1    2    0    0  0.00000000000E+00  0.00000000000E+00 -0.96058513306E+03  0.10829452516E+04  0.50004661799E+03 0.  0.
        5    1    3    3  502    0 -0.20914134100E+03 -0.12542630379E+03 -0.59926176377E+03  0.64699969838E+03  0.46999998093E+01 0. -1.
       -5    1    3    3    0  502  0.20914134100E+03  0.12542630379E+03 -0.36132336930E+03  0.43594555325E+03  0.46999998093E+01 0.  1.
</event>
<event>
 5   0  0.2005125E-03  0.4991055E+03  0.7818609E-02  0.1014013E+00
       -3   -1    0    0    0  501  0.00000000000E+00  0.00000000000E+00  0.25341853462E+03  0.25341855475E+03  0.10100000352E+00 0.  1.
        3   -1    0    0  501    0  0.00000000000E+00  0.00000000000E+00 -0.24574591356E+03  0.24574593431E+03  0.10100000352E+00 0. -1.
    10030    2    1    2    0    0  0.00000000000E+00  0.00000000000E+00  0.76726210626E+01  0.49916448906E+03  0.49910551793E+03 0.  0.
        2    1    3    3  502    0 -0.71120061070E+02 -0.22729473494E+03  0.78381147995E+02  0.25072806781E+03  0.25500000920E-02 0.  1.
       -2    1    3    3    0  502  0.71120061070E+02  0.22729473494E+03 -0.70708526932E+02  0.24843642126E+03  0.25500000920E-02 0. -1.
</event>
<event>
 5   0  0.4978779E-03  0.4999474E+03  0.7818609E-02  0.1013793E+00
       -2   -1    0    0    0  501  0.00000000000E+00  0.00000000000E+00  0.91809141846E+02  0.91809141882E+02  0.25500000920E-02 0. -1.
        2   -1    0    0  501    0  0.00000000000E+00  0.00000000000E+00 -0.68061673825E+03  0.68061673826E+03  0.25500000920E-02 0.  1.
    10030    2    1    2    0    0  0.00000000000E+00  0.00000000000E+00 -0.58880759641E+03  0.77242588014E+03  0.49994735195E+03 0.  0.
        1    1    3    3  502    0 -0.24907076698E+03 -0.27199535910E+01 -0.26187790313E+03  0.36141898302E+03  0.50400001928E-02 0. -1.
       -1    1    3    3    0  502  0.24907076698E+03  0.27199535910E+01 -0.32692969328E+03  0.41100689712E+03  0.50400001928E-02 0.  1.
</event>
<event>
 5   0  0.2005125E-03  0.4999373E+03  0.7818609E-02  0.1013795E+00
       -3   -1    0    0    0  501  0.00000000000E+00  0.00000000000E+00  0.44559615169E+03  0.44559616314E+03  0.10100000352E+00 0.  1.
        3   -1    0    0  501    0  0.00000000000E+00  0.00000000000E+00 -0.14022633730E+03  0.14022637368E+03  0.10100000352E+00 0. -1.
    10030    2    1    2    0    0  0.00000000000E+00  0.00000000000E+00  0.30536981439E+03  0.58582253682E+03  0.49993731717E+03 0.  0.
        5    1    3    3  502    0 -0.66072637544E+02 -0.23302266667E+03  0.80478522135E+02  0.25527248018E+03  0.46999998093E+01 0.  1.
       -5    1    3    3    0  502  0.66072637544E+02  0.23302266667E+03  0.22489129225E+03  0.33055005664E+03  0.46999998093E+01 0. -1.
</event>
<event>
 5   0  0.3057783E-03  0.4999178E+03  0.7818609E-02  0.1013800E+00
       -1   -1    0    0    0  501  0.00000000000E+00  0.00000000000E+00  0.48468527618E+03  0.48468527621E+03  0.50400001928E-02 0. -1.
        1   -1    0    0  501    0  0.00000000000E+00  0.00000000000E+00 -0.12890724038E+03  0.12890724047E+03  0.50400001928E-02 0.  1.
    10030    2    1    2    0    0  0.00000000000E+00  0.00000000000E+00  0.35577803581E+03  0.61359251668E+03  0.49991775900E+03 0.  0.
        5    1    3    3  502    0 -0.92336370258E+02 -0.13403468826E+03  0.41065947124E+03  0.44176305215E+03  0.46999998093E+01 0. -1.
       -5    1    3    3    0  502  0.92336370258E+02  0.13403468826E+03 -0.54881435432E+02  0.17182946453E+03  0.46999998093E+01 0.  1.
</event>
<event>
 5   0  0.3211775E-03  0.4996962E+03  0.7818609E-02  0.1013858E+00
        1   -1    0    0  501    0  0.00000000000E+00  0.00000000000E+00  0.61341084116E+03  0.61341084118E+03  0.50400001928E-02 0. -1.
       -1   -1    0    0    0  501  0.00000000000E+00  0.00000000000E+00 -0.10176553317E+03  0.10176553329E+03  0.50400001928E-02 0.  1.
    10030    2    1    2    0    0  0.00000000000E+00  0.00000000000E+00  0.51164530799E+03  0.71517637447E+03  0.49969623314E+03 0.  0.
        4    1    3    3  502    0  0.14765143891E+03 -0.19973084487E+03  0.29446858765E+03  0.38523592747E+03  0.12699999809E+01 0.  1.
       -4    1    3    3    0  502 -0.14765143891E+03  0.19973084487E+03  0.21717672034E+03  0.32994044699E+03  0.12699999809E+01 0. -1.
</event>
<event>
 5   0  0.3211775E-03  0.5001590E+03  0.7818609E-02  0.1013737E+00
        1   -1    0    0  501    0  0.00000000000E+00  0.00000000000E+00  0.10307281648E+04  0.10307281648E+04  0.50400001928E-02 0.  1.
       -1   -1    0    0    0  501  0.00000000000E+00  0.00000000000E+00 -0.60675327233E+02  0.60675327442E+02  0.50400001928E-02 0. -1.
    10030    2    1    2    0    0  0.00000000000E+00  0.00000000000E+00  0.97005283759E+03  0.10914034923E+04  0.50015904994E+03 0.  0.
        4    1    3    3  502    0  0.21320779809E+03  0.50750108474E+02  0.74783305788E+03  0.77928751693E+03  0.12699999809E+01 0.  1.
       -4    1    3    3    0  502 -0.21320779809E+03 -0.50750108474E+02  0.22221977970E+03  0.31211597535E+03  0.12699999809E+01 0. -1.
</event>
<event>
 5   0  0.2863538E-03  0.5002411E+03  0.7818609E-02  0.1013716E+00
        1   -1    0    0  501    0  0.00000000000E+00  0.00000000000E+00  0.11597821334E+04  0.11597821334E+04  0.50400001928E-02 0.  1.
       -1   -1    0    0    0  501  0.00000000000E+00  0.00000000000E+00 -0.53941424165E+02  0.53941424400E+02  0.50400001928E-02 0. -1.
    10030    2    1    2    0    0  0.00000000000E+00  0.00000000000E+00  0.11058407093E+04  0.12137235578E+04  0.50024114244E+03 0.  0.
        1    1    3    3  502    0  0.84961674141E+02  0.72446521826E+01 -0.17586719453E+02  0.87064710328E+02  0.50400001928E-02 0. -1.
       -1    1    3    3    0  502 -0.84961674141E+02 -0.72446521826E+01  0.11234274287E+04  0.11266588475E+04  0.50400001928E-02 0.  1.
</event>
<event>
 5   0  0.2863538E-03  0.4999339E+03  0.7818609E-02  0.1013796E+00
        1   -1    0    0  501    0  0.00000000000E+00  0.00000000000E+00  0.10598452848E+04  0.10598452848E+04  0.50400001928E-02 0. -1.
       -1   -1    0    0    0  501  0.00000000000E+00  0.00000000000E+00 -0.58955272300E+02  0.58955272515E+02  0.50400001928E-02 0.  1.
    10030    2    1    2    0    0  0.00000000000E+00  0.00000000000E+00  0.10008900125E+04  0.11188005573E+04  0.49993386557E+03 0.  0.
        1    1    3    3  502    0  0.16208098226E+03  0.19029417785E+03  0.49784622429E+03  0.55707538269E+03  0.50400001928E-02 0.  1.
       -1    1    3    3    0  502 -0.16208098226E+03 -0.19029417785E+03  0.50304378818E+03  0.56172517461E+03  0.50400001928E-02 0. -1.
</event>
<event>
 5   0  0.2005125E-03  0.4999518E+03  0.7818609E-02  0.1013791E+00
        4   -1    0    0  501    0  0.00000000000E+00  0.00000000000E+00  0.10328801418E+03  0.10329582166E+03  0.12699999809E+01 0. -1.
       -4   -1    0    0    0  501  0.00000000000E+00  0.00000000000E+00 -0.60495621495E+03  0.60495754802E+03  0.12699999809E+01 0.  1.
    10030    2    1    2    0    0  0.00000000000E+00  0.00000000000E+00 -0.50166820077E+03  0.70825336968E+03  0.49995184968E+03 0.  0.
        1    1    3    3  502    0 -0.19637348202E+03  0.49913225447E+02 -0.43432081622E+02  0.20722022164E+03  0.50400001928E-02 0. -1.
       -1    1    3    3    0  502  0.19637348202E+03 -0.49913225447E+02 -0.45823611915E+03  0.50103314804E+03  0.50400001928E-02 0.  1.
</event>
<event>
 5   0  0.3057783E-03  0.4997874E+03  0.7818609E-02  0.1013834E+00
       -1   -1    0    0    0  501  0.00000000000E+00  0.00000000000E+00  0.59698779409E+02  0.59698779622E+02  0.50400001928E-02 0. -1.
        1   -1    0    0  501    0  0.00000000000E+00  0.00000000000E+00 -0.10460323601E+04  0.10460323601E+04  0.50400001928E-02 0.  1.
    10030    2    1    2    0    0  0.00000000000E+00  0.00000000000E+00 -0.98633358071E+03  0.11057311398E+04  0.49978737577E+03 0.  0.
        5    1    3    3  502    0  0.13672535480E+03 -0.20907192454E+03 -0.48330409356E+03  0.54406785342E+03  0.46999998093E+01 0. -1.
       -5    1    3    3    0  502 -0.13672535480E+03  0.20907192454E+03 -0.50302948715E+03  0.56166328633E+03  0.46999998093E+01 0.  1.
</event>
<event>
 5   0  0.5118882E-03  0.4998289E+03  0.7818609E-02  0.1013824E+00
       -2   -1    0    0    0  501  0.00000000000E+00  0.00000000000E+00  0.96757270899E+02  0.96757270933E+02  0.25500000920E-02 0.  1.
        2   -1    0    0  501    0  0.00000000000E+00  0.00000000000E+00 -0.64550431856E+03  0.64550431857E+03  0.25500000920E-02 0. -1.
    10030    2    1    2    0    0  0.00000000000E+00  0.00000000000E+00 -0.54874704766E+03  0.74226158950E+03  0.49982891566E+03 0.  0.
        3    1    3    3  502    0  0.40066850840E+02 -0.24558878126E+03 -0.30881933695E+03  0.39659626207E+03  0.10100000352E+00 0. -1.
       -3    1    3    3    0  502 -0.40066850840E+02  0.24558878126E+03 -0.23992771071E+03  0.34566532743E+03  0.10100000352E+00 0.  1.
</event>
<event>
 5   0  0.3055293E-03  0.5001970E+03  0.7818609E-02  0.1013728E+00
        1   -1    0    0  501    0  0.00000000000E+00  0.00000000000E+00  0.41855581954E+03  0.41855581957E+03  0.50400001928E-02 0. -1.
       -1   -1    0    0    0  501  0.00000000000E+00  0.00000000000E+00 -0.14944064021E+03  0.14944064029E+03  0.50400001928E-02 0.  1.
    10030    2    1    2    0    0  0.00000000000E+00  0.00000000000E+00  0.26911517933E+03  0.56799645986E+03  0.50019695987E+03 0.  0.
        3    1    3    3  502    0  0.14332760063E+03  0.14529851905E+03 -0.29585827073E+02  0.20622752509E+03  0.10100000352E+00 0. -1.
       -3    1    3    3    0  502 -0.14332760063E+03 -0.14529851905E+03  0.29870100640E+03  0.36176893477E+03  0.10100000352E+00 0.  1.
</event>
<event>
 5   0  0.2005125E-03  0.5005089E+03  0.7818609E-02  0.1013646E+00
       -3   -1    0    0    0  501  0.00000000000E+00  0.00000000000E+00  0.30127832022E+03  0.30127833715E+03  0.10100000352E+00 0.  1.
        3   -1    0    0  501    0  0.00000000000E+00  0.00000000000E+00 -0.20787187408E+03  0.20787189862E+03  0.10100000352E+00 0. -1.
    10030    2    1    2    0    0  0.00000000000E+00  0.00000000000E+00  0.93406446141E+02  0.50915023577E+03  0.50050893939E+03 0.  0.
        3    1    3    3  502    0 -0.20893717433E+03  0.39649965747E+02  0.18089134079E+03  0.27919267536E+03  0.10100000352E+00 0.  1.
       -3    1    3    3    0  502  0.20893717433E+03 -0.39649965747E+02 -0.87484894646E+02  0.22995756042E+03  0.10100000352E+00 0. -1.
</event>
<event>
 5   0  0.2005125E-03  0.5008879E+03  0.7818609E-02  0.1013547E+00
       -4   -1    0    0    0  501  0.00000000000E+00  0.00000000000E+00  0.96641446638E+03  0.96641530086E+03  0.12699999809E+01 0. -1.
        4   -1    0    0  501    0  0.00000000000E+00  0.00000000000E+00 -0.64894858732E+02  0.64907284567E+02  0.12699999809E+01 0.  1.
    10030    2    1    2    0    0  0.00000000000E+00  0.00000000000E+00  0.90151960765E+03  0.10313225854E+04  0.50088788389E+03 0.  0.
        5    1    3    3  502    0  0.11320445411E+03  0.14448174838E+03  0.10006706501E+03  0.20910698587E+03  0.46999998093E+01 0.  1.
       -5    1    3    3    0  502 -0.11320445411E+03 -0.14448174838E+03  0.80145254264E+03  0.82221559955E+03  0.46999998093E+01 0. -1.
</event>
<event>
 5   0  0.4889251E-03  0.5000525E+03  0.7818609E-02  0.1013765E+00
       -2   -1    0    0    0  501  0.00000000000E+00  0.00000000000E+00  0.95848456121E+02  0.95848456155E+02  0.25500000920E-02 0.  1.
        2   -1    0    0  501    0  0.00000000000E+00  0.00000000000E+00 -0.65220798725E+03  0.65220798725E+03  0.25500000920E-02 0. -1.
    10030    2    1    2    0    0  0.00000000000E+00  0.00000000000E+00 -0.55635953112E+03  0.74805644341E+03  0.50005251189E+03 0.  0.
        5    1    3    3  502    0 -0.77061146687E+02  0.14606455783E+03  0.25572248911E+01  0.16523288045E+03  0.46999998093E+01 0.  1.
       -5    1    3    3    0  502  0.77061146687E+02 -0.14606455783E+03 -0.55891675602E+03  0.58282356296E+03  0.46999998093E+01 0. -1.
</event>
<event>
 5   0  0.5118882E-03  0.4995272E+03  0.7818609E-02  0.1013902E+00
       -2   -1    0    0    0  501  0.00000000000E+00  0.00000000000E+00  0.34898043427E+02  0.34898043520E+02  0.25500000920E-02 0. -1.
        2   -1    0    0  501    0  0.00000000000E+00  0.00000000000E+00 -0.17875462604E+04  0.17875462604E+04  0.25500000920E-02 0.  1.
    10030    2    1    2    0    0  0.00000000000E+00  0.00000000000E+00 -0.17526482169E+04  0.18224443039E+04  0.49952724494E+03 0.  0.
        3    1    3    3  502    0 -0.46010753501E+02  0.19392328001E+03 -0.32714766772E+03  0.38307810517E+03  0.10100000352E+00 0. -1.
       -3    1    3    3    0  502  0.46010753501E+02 -0.19392328001E+03 -0.14255005492E+04  0.14393661987E+04  0.10100000352E+00 0.  1.
</event>
<event>
 5   0  0.2863538E-03  0.4998946E+03  0.7818609E-02  0.1013806E+00
       -1   -1    0    0    0  501  0.00000000000E+00  0.00000000000E+00  0.15339721146E+03  0.15339721154E+03  0.50400001928E-02 0.  1.
        1   -1    0    0  501    0  0.00000000000E+00  0.00000000000E+00 -0.40726717443E+03  0.40726717446E+03  0.50400001928E-02 0. -1.
    10030    2    1    2    0    0  0.00000000000E+00  0.00000000000E+00 -0.25386996297E+03  0.56066438600E+03  0.49989458451E+03 0.  0.
        1    1    3    3  502    0  0.21813026897E+03 -0.56029502318E+02 -0.24852801381E+03  0.33538976288E+03  0.50400001928E-02 0.  1.
       -1    1    3    3    0  502 -0.21813026897E+03  0.56029502318E+02 -0.53419491628E+01  0.22527462311E+03  0.50400001928E-02 0. -1.
</event>
<event>
 5   0  0.5095783E-03  0.4999540E+03  0.7818609E-02  0.1013791E+00
        2   -1    0    0  501    0  0.00000000000E+00  0.00000000000E+00  0.37364212147E+03  0.37364212148E+03  0.25500000920E-02 0. -1.
       -2   -1    0    0    0  501  0.00000000000E+00  0.00000000000E+00 -0.16724159604E+03  0.16724159606E+03  0.25500000920E-02 0.  1.
    10030    2    1    2    0    0  0.00000000000E+00  0.00000000000E+00  0.20640052543E+03  0.54088371754E+03  0.49995401689E+03 0.  0.
        4    1    3    3  502    0  0.56844826006E+02 -0.24338117978E+03  0.98223799838E+02  0.26854284699E+03  0.12699999809E+01 0.  1.
       -4    1    3    3    0  502 -0.56844826006E+02  0.24338117978E+03  0.10817672559E+03  0.27234087055E+03  0.12699999809E+01 0. -1.
</event>
<event>
 5   0  0.4978779E-03  0.4998860E+03  0.7818609E-02  0.1013809E+00
        2   -1    0    0  501    0  0.00000000000E+00  0.00000000000E+00  0.11957896427E+04  0.11957896427E+04  0.25500000920E-02 0. -1.
       -2   -1    0    0    0  501  0.00000000000E+00  0.00000000000E+00 -0.52242881507E+02  0.52242881569E+02  0.25500000920E-02 0.  1.
    10030    2    1    2    0    0  0.00000000000E+00  0.00000000000E+00  0.11435467612E+04  0.12480325243E+04  0.49988597361E+03 0.  0.
        1    1    3    3  502    0 -0.18547361041E+03 -0.16624281068E+03  0.62380676176E+03  0.67169338861E+03  0.50400001928E-02 0.  1.
       -1    1    3    3    0  502  0.18547361041E+03  0.16624281068E+03  0.51973999946E+03  0.57633913569E+03  0.50400001928E-02 0. -1.
</event>
<event>
 5   0  0.5118882E-03  0.5000523E+03  0.7818609E-02  0.1013765E+00
        2   -1    0    0  501    0  0.00000000000E+00  0.00000000000E+00  0.67637371673E+03  0.67637371673E+03  0.25500000920E-02 0.  1.
       -2   -1    0    0    0  501  0.00000000000E+00  0.00000000000E+00 -0.92423869870E+02  0.92423869906E+02  0.25500000920E-02 0. -1.
    10030    2    1    2    0    0  0.00000000000E+00  0.00000000000E+00  0.58394984686E+03  0.76879758664E+03  0.50005230284E+03 0.  0.
        3    1    3    3  502    0 -0.19175201715E+03  0.14444024229E+02  0.46295029765E+02  0.19778954952E+03  0.10100000352E+00 0. -1.
       -3    1    3    3    0  502  0.19175201715E+03 -0.14444024229E+02  0.53765481709E+03  0.57100803712E+03  0.10100000352E+00 0.  1.
</event>
<event>
 5   0  0.3057783E-03  0.5005423E+03  0.7818609E-02  0.1013637E+00
       -1   -1    0    0    0  501  0.00000000000E+00  0.00000000000E+00  0.23427509374E+03  0.23427509380E+03  0.50400001928E-02 0.  1.
        1   -1    0    0  501    0  0.00000000000E+00  0.00000000000E+00 -0.26735937083E+03  0.26735937088E+03  0.50400001928E-02 0. -1.
    10030    2    1    2    0    0  0.00000000000E+00  0.00000000000E+00 -0.33084277090E+02  0.50163446467E+03  0.50054227270E+03 0.  0.
        5    1    3    3  502    0  0.16518487968E+03 -0.29986541363E+02 -0.20249569414E+03  0.26308141949E+03  0.46999998093E+01 0. -1.
       -5    1    3    3    0  502 -0.16518487968E+03  0.29986541363E+02  0.16941141705E+03  0.23855304518E+03  0.46999998093E+01 0.  1.
</event>
<event>
 5   0  0.3013734E-03  0.4999308E+03  0.7818609E-02  0.1013797E+00
        1   -1    0    0  501    0  0.00000000000E+00  0.00000000000E+00  0.14998460857E+03  0.14998460865E+03  0.50400001928E-02 0.  1.
       -1   -1    0    0    0  501  0.00000000000E+00  0.00000000000E+00 -0.41659408982E+03  0.41659408985E+03  0.50400001928E-02 0. -1.
    10030    2    1    2    0    0  0.00000000000E+00  0.00000000000E+00 -0.26660948125E+03  0.56657869850E+03  0.49993080132E+03 0.  0.
        2    1    3    3  502    0 -0.21650504164E+03 -0.10520392539E+03 -0.20967029817E+03  0.31922395416E+03  0.25500000920E-02 0. -1.
       -2    1    3    3    0  502  0.21650504164E+03  0.10520392539E+03 -0.56939183083E+02  0.24735474434E+03  0.25500000920E-02 0.  1.
</event>
<event>
 5   0  0.2863538E-03  0.5000427E+03  0.7818609E-02  0.1013768E+00
        1   -1    0    0  501    0  0.00000000000E+00  0.00000000000E+00  0.13720010024E+03  0.13720010033E+03  0.50400001928E-02 0. -1.
       -1   -1    0    0    0  501  0.00000000000E+00  0.00000000000E+00 -0.45561684618E+03  0.45561684621E+03  0.50400001928E-02 0.  1.
    10030    2    1    2    0    0  0.00000000000E+00  0.00000000000E+00 -0.31841674595E+03  0.59281694654E+03  0.50004270618E+03 0.  0.
        1    1    3    3  502    0 -0.17113344207E+03  0.13167939284E+03 -0.97909984865E+01  0.21615268023E+03  0.50400001928E-02 0. -1.
       -1    1    3    3    0  502  0.17113344207E+03 -0.13167939284E+03 -0.30862574746E+03  0.37666426631E+03  0.50400001928E-02 0.  1.
</event>
<event>
 5   0  0.4989875E-03  0.4997797E+03  0.7818609E-02  0.1013836E+00
        2   -1    0    0  501    0  0.00000000000E+00  0.00000000000E+00  0.13934765658E+04  0.13934765658E+04  0.25500000920E-02 0.  1.
       -2   -1    0    0    0  501  0.00000000000E+00  0.00000000000E+00 -0.44812336199E+02  0.44812336271E+02  0.25500000920E-02 0. -1.
    10030    2    1    2    0    0  0.00000000000E+00  0.00000000000E+00  0.13486642296E+04  0.14382889021E+04  0.49977971310E+03 0.  0.
        2    1    3    3  502    0 -0.16751223259E+03  0.12818752438E+03  0.28873782869E+03  0.35757785613E+03  0.25500000920E-02 0. -1.
       -2    1    3    3    0  502  0.16751223259E+03 -0.12818752438E+03  0.10599264009E+04  0.10807110460E+04  0.25500000920E-02 0.  1.
</event>
<event>
 5   0  0.5095783E-03  0.4999599E+03  0.7818609E-02  0.1013789E+00
       -2   -1    0    0    0  501  0.00000000000E+00  0.00000000000E+00  0.22578526667E+03  0.22578526669E+03  0.25500000920E-02 0.  1.
        2   -1    0    0  501    0  0.00000000000E+00  0.00000000000E+00 -0.27676726844E+03  0.27676726846E+03  0.25500000920E-02 0. -1.
    10030    2    1    2    0    0  0.00000000000E+00  0.00000000000E+00 -0.50982001773E+02  0.50255253514E+03  0.49995988447E+03 0.  0.
        4    1    3    3  502    0 -0.14397537336E+03 -0.12502883085E+03  0.13698644841E+03  0.23479356173E+03  0.12699999809E+01 0.  1.
       -4    1    3    3    0  502  0.14397537336E+03  0.12502883085E+03 -0.18796845018E+03  0.26775897342E+03  0.12699999809E+01 0. -1.
</event>
<event>
 5   0  0.3013734E-03  0.5004093E+03  0.7818609E-02  0.1013672E+00
       -1   -1    0    0    0  501  0.00000000000E+00  0.00000000000E+00  0.95016119563E+02  0.95016119697E+02  0.50400001928E-02 0. -1.
        1   -1    0    0  501    0  0.00000000000E+00  0.00000000000E+00 -0.65886059670E+03  0.65886059672E+03  0.50400001928E-02 0.  1.
    10030    2    1    2    0    0  0.00000000000E+00  0.00000000000E+00 -0.56384447714E+03  0.75387671642E+03  0.50040934160E+03 0.  0.
        2    1    3    3  502    0 -0.60220994484E+01  0.21882848289E+03 -0.99389400332E+02  0.24041718638E+03  0.25500000920E-02 0. -1.
       -2    1    3    3    0  502  0.60220994484E+01 -0.21882848289E+03 -0.46445507681E+03  0.51345953003E+03  0.25500000920E-02 0.  1.
</event>
<event>
 5   0  0.2005125E-03  0.5002235E+03  0.7818609E-02  0.1013721E+00
        3   -1    0    0  501    0  0.00000000000E+00  0.00000000000E+00  0.28228600232E+03  0.28228602039E+03  0.10100000352E+00 0. -1.
       -3   -1    0    0    0  501  0.00000000000E+00  0.00000000000E+00 -0.22160456641E+03  0.22160458942E+03  0.10100000352E+00 0.  1.
    10030    2    1    2    0    0  0.00000000000E+00  0.00000000000E+00  0.60681435911E+02  0.50389060981E+03  0.50022346005E+03 0.  0.
        1    1    3    3  502    0 -0.55555319213E+02  0.24245754270E+03  0.56682452496E+02  0.25511752968E+03  0.50400001928E-02 0. -1.
       -1    1    3    3    0  502  0.55555319213E+02 -0.24245754270E+03  0.39989834145E+01  0.24877308013E+03  0.50400001928E-02 0.  1.
</event>
<event>
 5   0  0.3055293E-03  0.5000411E+03  0.7818609E-02  0.1013768E+00
       -1   -1    0    0    0  501  0.00000000000E+00  0.00000000000E+00  0.90759833761E+02  0.90759833901E+02  0.50400001928E-02 0.  1.
        1   -1    0    0  501    0  0.00000000000E+00  0.00000000000E+00 -0.68874372271E+03  0.68874372273E+03  0.50400001928E-02 0. -1.
    10030    2    1    2    0    0  0.00000000000E+00  0.00000000000E+00 -0.59798388895E+03  0.77950355663E+03  0.50004106167E+03 0.  0.
        3    1    3    3  502    0  0.21573754773E+03  0.97019897323E+02 -0.42520056784E+03  0.48657073799E+03  0.10100000352E+00 0.  1.
       -3    1    3    3    0  502 -0.21573754773E+03 -0.97019897323E+02 -0.17278332111E+03  0.29293281863E+03  0.10100000352E+00 0. -1.
</event>
<event>
 5   0  0.3013734E-03  0.5002099E+03  0.7818609E-02  0.1013724E+00
       -1   -1    0    0    0  501  0.00000000000E+00  0.00000000000E+00  0.41541488983E+03  0.41541488986E+03  0.50400001928E-02 0. -1.
        1   -1    0    0  501    0  0.00000000000E+00  0.00000000000E+00 -0.15057836516E+03  0.15057836524E+03  0.50400001928E-02 0.  1.
    10030    2    1    2    0    0  0.00000000000E+00  0.00000000000E+00  0.26483652467E+03  0.56599325510E+03  0.50020993594E+03 0.  0.
        2    1    3    3  502    0 -0.10788486981E+03 -0.72871905244E+02 -0.10921449877E+03  0.16993312348E+03  0.25500000920E-02 0.  1.
       -2    1    3    3    0  502  0.10788486981E+03  0.72871905244E+02  0.37405102345E+03  0.39606013161E+03  0.25500000920E-02 0. -1.
</event>
<event>
 5   0  0.3057783E-03  0.4996214E+03  0.7818609E-02  0.1013878E+00
       -1   -1    0    0    0  501  0.00000000000E+00  0.00000000000E+00  0.43945182457E+02  0.43945182746E+02  0.50400001928E-02 0. -1.
        1   -1    0    0  501    0  0.00000000000E+00  0.00000000000E+00 -0.14200734049E+04  0.14200734049E+04  0.50400001928E-02 0.  1.
    10030    2    1    2    0    0  0.00000000000E+00  0.00000000000E+00 -0.13761282224E+04  0.14640185876E+04  0.49962139705E+03 0.  0.
        5    1    3    3  502    0 -0.12344268072E+03 -0.19485908670E+03 -0.96874433663E+03  0.99583926356E+03  0.46999998093E+01 0.  1.
       -5    1    3    3    0  502  0.12344268072E+03  0.19485908670E+03 -0.40738388581E+03  0.46817932409E+03  0.46999998093E+01 0. -1.
</event>
<event>
 5   0  0.4989875E-03  0.4998150E+03  0.7818609E-02  0.1013827E+00
       -2   -1    0    0    0  501  0.00000000000E+00  0.00000000000E+00  0.54384217404E+02  0.54384217463E+02  0.25500000920E-02 0.  1.
        2   -1    0    0  501    0  0.00000000000E+00  0.00000000000E+00 -0.11483800440E+04  0.11483800440E+04  0.25500000920E-02 0. -1.
    10030    2    1    2    0    0  0.00000000000E+00  0.00000000000E+00 -0.10939958266E+04  0.12027642615E+04  0.49981496581E+03 0.  0.
        2    1    3    3  502    0 -0.27995782305E+02  0.17206619127E+03 -0.11609962145E+03  0.20945085369E+03  0.25500000920E-02 0.  1.
       -2    1    3    3    0  502  0.27995782305E+02 -0.17206619127E+03 -0.97789620514E+03  0.99331340776E+03  0.25500000920E-02 0. -1.
</event>
<event>
 5   0  0.5118882E-03  0.5000595E+03  0.7818609E-02  0.1013763E+00
       -2   -1    0    0    0  501  0.00000000000E+00  0.00000000000E+00  0.51555588917E+02  0.51555588981E+02  0.25500000920E-02 0.  1.
        2   -1    0    0  501    0  0.00000000000E+00  0.00000000000E+00 -0.12125724407E+04  0.12125724407E+04  0.25500000920E-02 0. -1.
    10030    2    1    2    0    0  0.00000000000E+00  0.00000000000E+00 -0.11610168518E+04  0.12641280297E+04  0.50005954176E+03 0.  0.
        3    1    3    3  502    0  0.56387830529E+02  0.48472759667E+02 -0.11839735986E+04  0.11863063214E+04  0.10100000352E+00 0. -1.
       -3    1    3    3    0  502 -0.56387830529E+02 -0.48472759667E+02  0.22956746767E+02  0.77821708312E+02  0.10100000352E+00 0.  1.
</event>
<event>
 5   0  0.4989875E-03  0.5000854E+03  0.7818609E-02  0.1013757E+00
       -2   -1    0    0    0  501  0.00000000000E+00  0.00000000000E+00  0.42639176322E+02  0.42639176398E+02  0.25500000920E-02 0.  1.
        2   -1    0    0  501    0  0.00000000000E+00  0.00000000000E+00 -0.14662890812E+04  0.14662890812E+04  0.25500000920E-02 0. -1.
    10030    2    1    2    0    0  0.00000000000E+00  0.00000000000E+00 -0.14236499049E+04  0.15089282576E+04  0.50008542762E+03 0.  0.
        2    1    3    3  502    0 -0.22372587385E+03 -0.99373405360E+02 -0.86547305153E+03  0.89942867602E+03  0.25500000920E-02 0.  1.
       -2    1    3    3    0  502  0.22372587385E+03  0.99373405360E+02 -0.55817685334E+03  0.60949958157E+03  0.25500000920E-02 0. -1.
</event>
<event>
 5   0  0.3055293E-03  0.4997782E+03  0.7818609E-02  0.1013837E+00
        1   -1    0    0  501    0  0.00000000000E+00  0.00000000000E+00  0.15760477846E+03  0.15760477854E+03  0.50400001928E-02 0. -1.
       -1   -1    0    0    0  501  0.00000000000E+00  0.00000000000E+00 -0.39620979662E+03  0.39620979665E+03  0.50400001928E-02 0.  1.
    10030    2    1    2    0    0  0.00000000000E+00  0.00000000000E+00 -0.23860501816E+03  0.55381457519E+03  0.49977817981E+03 0.  0.
        3    1    3    3  502    0 -0.20520772304E+03  0.14251290785E+03 -0.12477718108E+03  0.27926599080E+03  0.10100000352E+00 0.  1.
       -3    1    3    3    0  502  0.20520772304E+03 -0.14251290785E+03 -0.11382783708E+03  0.27454858440E+03  0.10100000352E+00 0. -1.
</event>
<event>
 5   0  0.3057783E-03  0.5000123E+03  0.7818609E-02  0.1013776E+00
       -1   -1    0    0    0  501  0.00000000000E+00  0.00000000000E+00  0.13210938122E+03  0.13210938131E+03  0.50400001928E-02 0. -1.
        1   -1    0    0  501    0  0.00000000000E+00  0.00000000000E+00 -0.47311617688E+03  0.47311617690E+03  0.50400001928E-02 0.  1.
    10030    2    1    2    0    0  0.00000000000E+00  0.00000000000E+00 -0.34100679566E+03  0.60522555822E+03  0.50001234148E+03 0.  0.
        5    1    3    3  502    0 -0.25394017588E+02 -0.20432953119E+03 -0.34204866696E+03  0.39926782241E+03  0.46999998093E+01 0.  1.
       -5    1    3    3    0  502  0.25394017588E+02  0.20432953119E+03  0.10418713007E+01  0.20595773581E+03  0.46999998093E+01 0. -1.
</event>
<event>
 5   0  0.4889251E-03  0.5001976E+03  0.7818609E-02  0.1013727E+00
        2   -1    0    0  501    0  0.00000000000E+00  0.00000000000E+00  0.25192508980E+03  0.25192508981E+03  0.25500000920E-02 0. -1.
       -2   -1    0    0    0  501  0.00000000000E+00  0.00000000000E+00 -0.24828575786E+03  0.24828575788E+03  0.25500000920E-02 0.  1.
    10030    2    1    2    0    0  0.00000000000E+00  0.00000000000E+00  0.36393319387E+01  0.50021084769E+03  0.50019760836E+03 0.  0.
        5    1    3    3  502    0 -0.11195209007E+02  0.28825857136E+02 -0.24632206471E+03  0.24830004491E+03  0.46999998093E+01 0.  1.
       -5    1    3    3    0  502  0.11195209007E+02 -0.28825857136E+02  0.24996139664E+03  0.25191080278E+03  0.46999998093E+01 0. -1.
</event>
<event>
 5   0  0.3057783E-03  0.5000471E+03  0.7818609E-02  0.1013767E+00
       -1   -1    0    0    0  501  0.00000000000E+00  0.00000000000E+00  0.40588942994E+03  0.40588942997E+03  0.50400001928E-02 0.  1.
        1   -1    0    0  501    0  0.00000000000E+00  0.00000000000E+00 -0.15401186336E+03  0.15401186345E+03  0.50400001928E-02 0. -1.
    10030    2    1    2    0    0  0.00000000000E+00  0.00000000000E+00  0.25187756657E+03  0.55990129341E+03  0.50004714760E+03 0.  0.
        5    1    3    3  502    0 -0.14013590654E+03 -0.81462808823E+02 -0.87143516330E+02  0.18409330232E+03  0.46999998093E+01 0. -1.
       -5    1    3    3    0  502  0.14013590654E+03  0.81462808823E+02  0.33902108290E+03  0.37580799110E+03  0.46999998093E+01 0.  1.
</event>
<event>
 5   0  0.3013734E-03  0.4997381E+03  0.7818609E-02  0.1013847E+00
        1   -1    0    0  501    0  0.00000000000E+00  0.00000000000E+00  0.21412267603E+03  0.21412267609E+03  0.50400001928E-02 0.  1.
       -1   -1    0    0    0  501  0.00000000000E+00  0.00000000000E+00 -0.29158301351E+03  0.29158301355E+03  0.50400001928E-02 0. -1.
    10030    2    1    2    0    0  0.00000000000E+00  0.00000000000E+00 -0.77460337479E+02  0.50570568965E+03  0.49973807205E+03 0.  0.
        2    1    3    3  502    0  0.20341718020E+03  0.90763716051E+02 -0.15329845453E+03  0.27040158565E+03  0.25500000920E-02 0. -1.
       -2    1    3    3    0  502 -0.20341718020E+03 -0.90763716051E+02  0.75838117056E+02  0.23530410400E+03  0.25500000920E-02 0.  1.
</event>
<event>
 5   0  0.4889251E-03  0.5001887E+03  0.7818609E-02  0.1013730E+00
       -2   -1    0    0    0  501  0.00000000000E+00  0.00000000000E+00  0.53526354036E+02  0.53526354096E+02  0.25500000920E-02 0. -1.
        2   -1    0    0  501    0  0.00000000000E+00  0.00000000000E+00 -0.11685307555E+04  0.11685307555E+04  0.25500000920E-02 0.  1.
    10030    2    1    2    0    0  0.00000000000E+00  0.00000000000E+00 -0.11150044014E+04  0.12220571096E+04  0.50018872821E+03 0.  0.
        5    1    3    3  502    0 -0.18767173800E+03  0.63532570527E+02 -0.93018335280E+03  0.95106268384E+03  0.46999998093E+01 0.  1.
       -5    1    3    3    0  502  0.18767173800E+03 -0.63532570527E+02 -0.18482104863E+03  0.27099442573E+03  0.46999998093E+01 0. -1.
</event>
<event>
 5   0  0.2863538E-03  0.4998381E+03  0.7818609E-02  0.1013821E+00
        1   -1    0    0  501    0  0.00000000000E+00  0.00000000000E+00  0.79815020231E+03  0.79815020232E+03  0.50400001928E-02 0.  1.
       -1   -1    0    0    0  501  0.00000000000E+00  0.00000000000E+00 -0.78255355932E+02  0.78255356094E+02  0.50400001928E-02 0. -1.
    10030    2    1    2    0    0  0.00000000000E+00  0.00000000000E+00  0.71989484638E+03  0.87640555842E+03  0.49983808677E+03 0.  0.
        1    1    3    3  502    0 -0.16392556067E+03  0.83806361674E+02  0.65628626424E+03  0.68162068363E+03  0.50400001928E-02 0.  1.
       -1    1    3    3    0  502  0.16392556067E+03 -0.83806361674E+02  0.63608582135E+02  0.19478487479E+03  0.50400001928E-02 0. -1.
</event>
<event>
 5   0  0.5118882E-03  0.4998260E+03  0.7818609E-02  0.1013824E+00
        2   -1    0    0  501    0  0.00000000000E+00  0.00000000000E+00  0.59057762513E+03  0.59057762513E+03  0.25500000920E-02 0.  1.
       -2   -1    0    0    0  501  0.00000000000E+00  0.00000000000E+00 -0.10575494157E+03  0.10575494160E+03  0.25500000920E-02 0. -1.
    10030    2    1    2    0    0  0.00000000000E+00  0.00000000000E+00  0.48482268356E+03  0.69633256673E+03  0.49982597871E+03 0.  0.
        3    1    3    3  502    0  0.19961835155E+03 -0.58260281307E+02  0.49296701630E+02  0.21370990067E+03  0.10100000352E+00 0. -1.
       -3    1    3    3    0  502 -0.19961835155E+03  0.58260281307E+02  0.43552598193E+03  0.48262266606E+03  0.10100000352E+00 0.  1.
</event>
<event>
 5   0  0.4978779E-03  0.4999352E+03  0.7818609E-02  0.1013796E+00
       -2   -1    0    0    0  501  0.00000000000E+00  0.00000000000E+00  0.14806831033E+03  0.14806831035E+03  0.25500000920E-02 0. -1.
        2   -1    0    0  501    0  0.00000000000E+00  0.00000000000E+00 -0.42199313545E+03  0.42199313545E+03  0.25500000920E-02 0.  1.
    10030    2    1    2    0    0  0.00000000000E+00  0.00000000000E+00 -0.27392482512E+03  0.57006144581E+03  0.49993523799E+03 0.  0.
        1    1    3    3  502    0  0.19102049740E+03 -0.13817628931E+03 -0.42228686002E+02  0.23950945555E+03  0.50400001928E-02 0. -1.
       -1    1    3    3    0  502 -0.19102049740E+03  0.13817628931E+03 -0.23169613911E+03  0.33055199025E+03  0.50400001928E-02 0.  1.
</event>
<event>
 5   0  0.5118882E-03  0.5001948E+03  0.7818609E-02  0.1013728E+00
       -2   -1    0    0    0  501  0.00000000000E+00  0.00000000000E+00  0.58868591215E+02  0.58868591270E+02  0.25500000920E-02 0. -1.
        2   -1    0    0  501    0  0.00000000000E+00  0.00000000000E+00 -0.10625142291E+04  0.10625142291E+04  0.25500000920E-02 0.  1.
    10030    2    1    2    0    0  0.00000000000E+00  0.00000000000E+00 -0.10036456379E+04  0.11213828204E+04  0.50019482544E+03 0.  0.
        3    1    3    3  502    0  0.70141272680E+02 -0.15127650689E+03 -0.91970769092E+03  0.93470135691E+03  0.10100000352E+00 0.  1.
       -3    1    3    3    0  502 -0.70141272680E+02  0.15127650689E+03 -0.83937947012E+02  0.18668146351E+03  0.10100000352E+00 0. -1.
</event>
<event>
 5   0  0.2005125E-03  0.5000236E+03  0.7818609E-02  0.1013773E+00
        4   -1    0    0  501    0  0.00000000000E+00  0.00000000000E+00  0.35791356983E+03  0.35791582302E+03  0.12699999809E+01 0. -1.
       -4   -1    0    0    0  501  0.00000000000E+00  0.00000000000E+00 -0.17463451839E+03  0.17463913626E+03  0.12699999809E+01 0.  1.
    10030    2    1    2    0    0  0.00000000000E+00  0.00000000000E+00  0.18327905144E+03  0.53255495928E+03  0.50002357340E+03 0.  0.
        1    1    3    3  502    0  0.12946568559E+03  0.11167587069E+03 -0.10263691003E+03  0.19941714863E+03  0.50400001928E-02 0.  1.
       -1    1    3    3    0  502 -0.12946568559E+03 -0.11167587069E+03  0.28591596147E+03  0.33313781066E+03  0.50400001928E-02 0. -1.
</event>
<event>
 5   0  0.5095783E-03  0.5001412E+03  0.7818609E-02  0.1013742E+00
        2   -1    0    0  501    0  0.00000000000E+00  0.00000000000E+00  0.10695881139E+04  0.10695881139E+04  0.25500000920E-02 0.  1.
       -2   -1    0    0    0  501  0.00000000000E+00  0.00000000000E+00 -0.58466727113E+02  0.58466727168E+02  0.25500000920E-02 0. -1.
    10030    2    1    2    0    0  0.00000000000E+00  0.00000000000E+00  0.10111213868E+04  0.11280548411E+04  0.50014124569E+03 0.  0.
        4    1    3    3  502    0 -0.10040407813E+03 -0.96180827099E+02  0.97436256114E+03  0.98423358196E+03  0.12699999809E+01 0.  1.
       -4    1    3    3    0  502  0.10040407813E+03  0.96180827099E+02  0.36758825636E+02  0.14382125910E+03  0.12699999809E+01 0. -1.
</event>
<event>
 5   0  0.3057783E-03  0.5001131E+03  0.7818609E-02  0.1013749E+00
        1   -1    0    0  501    0  0.00000000000E+00  0.00000000000E+00  0.60157378973E+03  0.60157378975E+03  0.50400001928E-02 0.  1.
       -1   -1    0    0    0  501  0.00000000000E+00  0.00000000000E+00 -0.10394117070E+03  0.10394117082E+03  0.50400001928E-02 0. -1.
    10030    2    1    2    0    0  0.00000000000E+00  0.00000000000E+00  0.49763261903E+03  0.70551496057E+03  0.50011312327E+03 0.  0.
        5    1    3    3  502    0  0.17374537604E+03  0.10794196420E+03  0.45162172160E+03  0.49580559976E+03  0.46999998093E+01 0.  1.
       -5    1    3    3    0  502 -0.17374537604E+03 -0.10794196420E+03  0.46010897430E+02  0.20970936081E+03  0.46999998093E+01 0. -1.
</event>
<event>
 5   0  0.2005125E-03  0.4999746E+03  0.7818609E-02  0.1013786E+00
       -4   -1    0    0    0  501  0.00000000000E+00  0.00000000000E+00  0.46462928164E+03  0.46463101732E+03  0.12699999809E+01 0.  1.
        4   -1    0    0  501    0  0.00000000000E+00  0.00000000000E+00 -0.13449720152E+03  0.13450319742E+03  0.12699999809E+01 0. -1.
    10030    2    1    2    0    0  0.00000000000E+00  0.00000000000E+00  0.33013208012E+03  0.59913421474E+03  0.49997461631E+03 0.  0.
        4    1    3    3  502    0 -0.12315236251E+03  0.49899310426E+02  0.41880528210E+03  0.43938129545E+03  0.12699999809E+01 0.  1.
       -4    1    3    3    0  502  0.12315236251E+03 -0.49899310426E+02 -0.88673201985E+02  0.15975291929E+03  0.12699999809E+01 0. -1.
</event>
<event>
 5   0  0.2005125E-03  0.5006120E+03  0.7818609E-02  0.1013619E+00
       -3   -1    0    0    0  501  0.00000000000E+00  0.00000000000E+00  0.89495100582E+02  0.89495157574E+02  0.10100000352E+00 0. -1.
        3   -1    0    0  501    0  0.00000000000E+00  0.00000000000E+00 -0.70007269780E+03  0.70007270509E+03  0.10100000352E+00 0.  1.
    10030    2    1    2    0    0  0.00000000000E+00  0.00000000000E+00 -0.61057759722E+03  0.78956786266E+03  0.50061203294E+03 0.  0.
        4    1    3    3  502    0 -0.32418449213E+02 -0.69583471144E+02 -0.68104339181E+03  0.68535722783E+03  0.12699999809E+01 0.  1.
       -4    1    3    3    0  502  0.32418449213E+02  0.69583471144E+02  0.70465794589E+02  0.10421063484E+03  0.12699999809E+01 0. -1.
</event>
<event>
 5   0  0.2005125E-03  0.4999705E+03  0.7818609E-02  0.1013787E+00
       -3   -1    0    0    0  501  0.00000000000E+00  0.00000000000E+00  0.66586694414E+03  0.66586695180E+03  0.10100000352E+00 0.  1.
        3   -1    0    0  501    0  0.00000000000E+00  0.00000000000E+00 -0.93851501375E+02  0.93851555721E+02  0.10100000352E+00 0. -1.
    10030    2    1    2    0    0  0.00000000000E+00  0.00000000000E+00  0.57201544276E+03  0.75971850752E+03  0.49997054304E+03 0.  0.
        4    1    3    3  502    0  0.18681121141E+03 -0.33506071527E+02  0.38787069614E+02  0.19371921744E+03  0.12699999809E+01 0.  1.
       -4    1    3    3    0  502 -0.18681121141E+03  0.33506071527E+02  0.53322837315E+03  0.56599929008E+03  0.12699999809E+01 0. -1.
</event>
<event>
 5   0  0.3057783E-03  0.4999912E+03  0.7818609E-02  0.1013781E+00
       -1   -1    0    0    0  501  0.00000000000E+00  0.00000000000E+00  0.78434415928E+02  0.78434416090E+02  0.50400001928E-02 0. -1.
        1   -1    0    0  501    0  0.00000000000E+00  0.00000000000E+00 -0.79681592181E+03  0.79681592183E+03  0.50400001928E-02 0.  1.
    10030    2    1    2    0    0  0.00000000000E+00  0.00000000000E+00 -0.71838150588E+03  0.87525033792E+03  0.49999116595E+03 0.  0.
        5    1    3    3  502    0  0.23057591596E+03 -0.53926113299E+02 -0.21912171972E+03  0.32266034272E+03  0.46999998093E+01 0. -1.
       -5    1    3    3    0  502 -0.23057591596E+03  0.53926113299E+02 -0.49925978616E+03  0.55258999519E+03  0.46999998093E+01 0.  1.
</event>
<event>
 5   0  0.2005125E-03  0.5019983E+03  0.7818609E-02  0.1013259E+00
        4   -1    0    0  501    0  0.00000000000E+00  0.00000000000E+00  0.28426591712E+03  0.28426875406E+03  0.12699999809E+01 0. -1.
       -4   -1    0    0    0  501  0.00000000000E+00  0.00000000000E+00 -0.22161970511E+03  0.22162334397E+03  0.12699999809E+01 0.  1.
    10030    2    1    2    0    0  0.00000000000E+00  0.00000000000E+00  0.62646212010E+02  0.50589209803E+03  0.50199827387E+03 0.  0.
        5    1    3    3  502    0 -0.16899079204E+03  0.14452867103E+03 -0.85906553679E+02  0.23842913099E+03  0.46999998093E+01 0.  1.
       -5    1    3    3    0  502  0.16899079204E+03 -0.14452867103E+03  0.14855276569E+03  0.26746296704E+03  0.46999998093E+01 0. -1.
</event>
<event>
 5   0  0.3055293E-03  0.5000648E+03  0.7818609E-02  0.1013762E+00
        1   -1    0    0  501    0  0.00000000000E+00  0.00000000000E+00  0.43148420504E+03  0.43148420507E+03  0.50400001928E-02 0. -1.
       -1   -1    0    0    0  501  0.00000000000E+00  0.00000000000E+00 -0.14488642875E+03  0.14488642884E+03  0.50400001928E-02 0.  1.
    10030    2    1    2    0    0  0.00000000000E+00  0.00000000000E+00  0.28659777629E+03  0.57637063390E+03  0.50006481805E+03 0.  0.
        3    1    3    3  502    0 -0.30515334842E+02  0.18801226045E+03 -0.43393952191E+02  0.19535311881E+03  0.10100000352E+00 0.  1.
       -3    1    3    3    0  502  0.30515334842E+02 -0.18801226045E+03  0.32999172848E+03  0.38101751509E+03  0.10100000352E+00 0. -1.
</event>
<event>
 5   0  0.3057783E-03  0.5000679E+03  0.7818609E-02  0.1013761E+00
       -1   -1    0    0    0  501  0.00000000000E+00  0.00000000000E+00  0.92620812694E+02  0.92620812831E+02  0.50400001928E-02 0. -1.
        1   -1    0    0  501    0  0.00000000000E+00  0.00000000000E+00 -0.67497752882E+03  0.67497752884E+03  0.50400001928E-02 0.  1.
    10030    2    1    2    0    0  0.00000000000E+00  0.00000000000E+00 -0.58235671612E+03  0.76759834167E+03  0.50006786471E+03 0.  0.
        5    1    3    3  502    0 -0.18193328683E+03  0.18757541905E+02 -0.29584137810E+02  0.18533450150E+03  0.46999998093E+01 0. -1.
       -5    1    3    3    0  502  0.18193328683E+03 -0.18757541905E+02 -0.55277257831E+03  0.58226384017E+03  0.46999998093E+01 0.  1.
</event>
<event>
 5   0  0.4889251E-03  0.5015891E+03  0.7818609E-02  0.1013365E+00
       -2   -1    0    0    0  501  0.00000000000E+00  0.00000000000E+00  0.10975887407E+03  0.10975887410E+03  0.25500000920E-02 0.  1.
        2   -1    0    0  501    0  0.00000000000E+00  0.00000000000E+00 -0.57305532337E+03  0.57305532338E+03  0.25500000920E-02 0. -1.
    10030    2    1    2    0    0  0.00000000000E+00  0.00000000000E+00 -0.46329644930E+03  0.68281419748E+03  0.50158910309E+03 0.  0.
        5    1    3    3  502    0  0.20465527725E+03 -0.67596084701E+02 -0.40610108856E+03  0.45977515950E+03  0.46999998093E+01 0. -1.
       -5    1    3    3    0  502 -0.20465527725E+03  0.67596084701E+02 -0.57195360749E+02  0.22303903798E+03  0.46999998093E+01 0.  1.
</event>
<event>
 5   0  0.2863538E-03  0.4998848E+03  0.7818609E-02  0.1013809E+00
       -1   -1    0    0    0  501  0.00000000000E+00  0.00000000000E+00  0.39585592299E+03  0.39585592302E+03  0.50400001928E-02 0.  1.
        1   -1    0    0  501    0  0.00000000000E+00  0.00000000000E+00 -0.15781296881E+03  0.15781296889E+03  0.50400001928E-02 0. -1.
    10030    2    1    2    0    0  0.00000000000E+00  0.00000000000E+00  0.23804295418E+03  0.55366889191E+03  0.49988478056E+03 0.  0.
        1    1    3    3  502    0  0.23708518858E+02 -0.20248162689E+02  0.39369363976E+03  0.39492627663E+03  0.50400001928E-02 0.  1.
       -1    1    3    3    0  502 -0.23708518858E+02  0.20248162689E+02 -0.15565068559E+03  0.15874261528E+03  0.50400001928E-02 0. -1.
</event>
<event>
 5   0  0.3057783E-03  0.5002797E+03  0.7818609E-02  0.1013706E+00
        1   -1    0    0  501    0  0.00000000000E+00  0.00000000000E+00  0.89815081182E+02  0.89815081323E+02  0.50400001928E-02 0. -1.
       -1   -1    0    0    0  501  0.00000000000E+00  0.00000000000E+00 -0.69665297861E+03  0.69665297863E+03  0.50400001928E-02 0.  1.
    10030    2    1    2    0    0  0.00000000000E+00  0.00000000000E+00 -0.60683789743E+03  0.78646805995E+03  0.50027969734E+03 0.  0.
        5    1    3    3  502    0  0.86330713323E+02 -0.18711860846E+03 -0.80644099440E+02  0.22134119921E+03  0.46999998093E+01 0. -1.
       -5    1    3    3    0  502 -0.86330713323E+02  0.18711860846E+03 -0.52619379799E+03  0.56512686074E+03  0.46999998093E+01 0.  1.
</event>
<event>
 5   0  0.3211775E-03  0.5000360E+03  0.7818609E-02  0.1013770E+00
       -1   -1    0    0    0  501  0.00000000000E+00  0.00000000000E+00  0.16996999479E+03  0.16996999487E+03  0.50400001928E-02 0. -1.
        1   -1    0    0  501    0  0.00000000000E+00  0.00000000000E+00 -0.36776492929E+03  0.36776492932E+03  0.50400001928E-02 0.  1.
    10030    2    1    2    0    0  0.00000000000E+00  0.00000000000E+00 -0.19779493449E+03  0.53773492419E+03  0.50003601129E+03 0.  0.
        4    1    3    3  502    0  0.59660555894E+02 -0.20043920912E+03  0.48443581984E+02  0.21467103209E+03  0.12699999809E+01 0. -1.
       -4    1    3    3    0  502 -0.59660555894E+02  0.20043920912E+03 -0.24623851648E+03  0.32306389210E+03  0.12699999809E+01 0.  1.
</event>
<event>
 5   0  0.3013734E-03  0.4998008E+03  0.7818609E-02  0.1013831E+00
        1   -1    0    0  501    0  0.00000000000E+00  0.00000000000E+00  0.72369693751E+03  0.72369693753E+03  0.50400001928E-02 0.  1.
       -1   -1    0    0    0  501  0.00000000000E+00  0.00000000000E+00 -0.86293330887E+02  0.86293331035E+02  0.50400001928E-02 0. -1.
    10030    2    1    2    0    0  0.00000000000E+00  0.00000000000E+00  0.63740360662E+03  0.80999026856E+03  0.49980083776E+03 0.  0.
        2    1    3    3  502    0 -0.22928288262E+03  0.18171862825E+02  0.47707074373E+03  0.52962000660E+03  0.25500000920E-02 0. -1.
       -2    1    3    3    0  502  0.22928288262E+03 -0.18171862825E+02  0.16033286289E+03  0.28037026196E+03  0.25500000920E-02 0.  1.
</event>
<event>
 5   0  0.4989875E-03  0.4999481E+03  0.7818609E-02  0.1013792E+00
       -2   -1    0    0    0  501  0.00000000000E+00  0.00000000000E+00  0.59819031322E+02  0.59819031377E+02  0.25500000920E-02 0. -1.
        2   -1    0    0  501    0  0.00000000000E+00  0.00000000000E+00 -0.10446010526E+04  0.10446010526E+04  0.25500000920E-02 0.  1.
    10030    2    1    2    0    0  0.00000000000E+00  0.00000000000E+00 -0.98478202125E+03  0.11044200840E+04  0.49994808976E+03 0.  0.
        2    1    3    3  502    0 -0.15108667779E+02  0.18335361723E+03 -0.11854097779E+03  0.21885790874E+03  0.25500000920E-02 0. -1.
       -2    1    3    3    0  502  0.15108667779E+02 -0.18335361723E+03 -0.86624104346E+03  0.88556217522E+03  0.25500000920E-02 0.  1.
</event>
<event>
 5   0  0.5118882E-03  0.5004888E+03  0.7818609E-02  0.1013651E+00
        2   -1    0    0  501    0  0.00000000000E+00  0.00000000000E+00  0.53233328488E+03  0.53233328489E+03  0.25500000920E-02 0.  1.
       -2   -1    0    0    0  501  0.00000000000E+00  0.00000000000E+00 -0.11763732613E+03  0.11763732616E+03  0.25500000920E-02 0. -1.
    10030    2    1    2    0    0  0.00000000000E+00  0.00000000000E+00  0.41469595875E+03  0.64997061105E+03  0.50048881808E+03 0.  0.
        3    1    3    3  502    0 -0.67766689326E+01 -0.12422426662E+03  0.48932622634E+03  0.50489380828E+03  0.10100000352E+00 0.  1.
       -3    1    3    3    0  502  0.67766689326E+01  0.12422426662E+03 -0.74630267594E+02  0.14507680276E+03  0.10100000352E+00 0. -1.
</event>
<event>
 5   0  0.5095783E-03  0.4996673E+03  0.7818609E-02  0.1013866E+00
        2   -1    0    0  501    0  0.00000000000E+00  0.00000000000E+00  0.86038732803E+03  0.86038732803E+03  0.25500000920E-02 0.  1.
       -2   -1    0    0    0  501  0.00000000000E+00  0.00000000000E+00 -0.72545065659E+02  0.72545065704E+02  0.25500000920E-02 0. -1.
    10030    2    1    2    0    0  0.00000000000E+00  0.00000000000E+00  0.78784226237E+03  0.93293239373E+03  0.49966731022E+03 0.  0.
        4    1    3    3  502    0 -0.15774541327E+03  0.13551379049E+02  0.75475129490E+03  0.77117986575E+03  0.12699999809E+01 0.  1.
       -4    1    3    3    0  502  0.15774541327E+03 -0.13551379049E+02  0.33090967468E+02  0.16175252799E+03  0.12699999809E+01 0. -1.
</event>
<event>
 5   0  0.3055293E-03  0.5005387E+03  0.7818609E-02  0.1013638E+00
        1   -1    0    0  501    0  0.00000000000E+00  0.00000000000E+00  0.13679463973E+03  0.13679463983E+03  0.50400001928E-02 0. -1.
       -1   -1    0    0    0  501  0.00000000000E+00  0.00000000000E+00 -0.45787426101E+03  0.45787426104E+03  0.50400001928E-02 0.  1.
    10030    2    1    2    0    0  0.00000000000E+00  0.00000000000E+00 -0.32107962128E+03  0.59466890087E+03  0.50053868827E+03 0.  0.
        3    1    3    3  502    0 -0.24256004098E+03 -0.61402366555E+02 -0.15412976636E+03  0.29387347478E+03  0.10100000352E+00 0.  1.
       -3    1    3    3    0  502  0.24256004098E+03  0.61402366555E+02 -0.16694985492E+03  0.30079542609E+03  0.10100000352E+00 0. -1.
</event>
<event>
 5   0  0.4978779E-03  0.4999012E+03  0.7818609E-02  0.1013805E+00
       -2   -1    0    0    0  501  0.00000000000E+00  0.00000000000E+00  0.54244873309E+02  0.54244873369E+02  0.25500000920E-02 0. -1.
        2   -1    0    0  501    0  0.00000000000E+00  0.00000000000E+00 -0.11517273802E+04  0.11517273802E+04  0.25500000920E-02 0.  1.
    10030    2    1    2    0    0  0.00000000000E+00  0.00000000000E+00 -0.10974825069E+04  0.12059722536E+04  0.49990121369E+03 0.  0.
        1    1    3    3  502    0 -0.97104687312E+02 -0.62242483301E+02 -0.13793414158E+02  0.11616240926E+03  0.50400001928E-02 0. -1.
       -1    1    3    3    0  502  0.97104687312E+02  0.62242483301E+02 -0.10836890927E+04  0.10898098443E+04  0.50400001928E-02 0.  1.
</event>
<event>
 5   0  0.4889251E-03  0.4999866E+03  0.7818609E-02  0.1013782E+00
        2   -1    0    0  501    0  0.00000000000E+00  0.00000000000E+00  0.71886851285E+03  0.71886851286E+03  0.25500000920E-02 0. -1.
       -2   -1    0    0    0  501  0.00000000000E+00  0.00000000000E+00 -0.86937522992E+02  0.86937523030E+02  0.25500000920E-02 0.  1.
    10030    2    1    2    0    0  0.00000000000E+00  0.00000000000E+00  0.63193098986E+03  0.80580603589E+03  0.49998659135E+03 0.  0.
        5    1    3    3  502    0  0.22890873323E+03 -0.60889239916E+02  0.18735731930E+03  0.30204563030E+03  0.46999998093E+01 0.  1.
       -5    1    3    3    0  502 -0.22890873323E+03  0.60889239916E+02  0.44457367056E+03  0.50376040559E+03  0.46999998093E+01 0. -1.
</event>
<event>
 5   0  0.3211775E-03  0.5018601E+03  0.7818609E-02  0.1013295E+00
        1   -1    0    0  501    0  0.00000000000E+00  0.00000000000E+00  0.52230077773E+03  0.52230077775E+03  0.50400001928E-02 0.  1.
       -1   -1    0    0    0  501  0.00000000000E+00  0.00000000000E+00 -0.12055484848E+03  0.12055484858E+03  0.50400001928E-02 0. -1.
    10030    2    1    2    0    0  0.00000000000E+00  0.00000000000E+00  0.40174592925E+03  0.64285562633E+03  0.50186010465E+03 0.  0.
        4    1    3    3  502    0  0.17492443125E+03 -0.38681676025E+02 -0.24185431278E+02  0.18077991231E+03  0.12699999809E+01 0. -1.
       -4    1    3    3    0  502 -0.17492443125E+03  0.38681676025E+02  0.42593136053E+03  0.46207571402E+03  0.12699999809E+01 0.  1.
</event>
<event>
 5   0  0.3013734E-03  0.5002086E+03  0.7818609E-02  0.1013724E+00
        1   -1    0    0  501    0  0.00000000000E+00  0.00000000000E+00  0.91099459707E+03  0.91099459709E+03  0.50400001928E-02 0. -1.
       -1   -1    0    0    0  501  0.00000000000E+00  0.00000000000E+00 -0.68663597084E+02  0.68663597269E+02  0.50400001928E-02 0.  1.
    10030    2    1    2    0    0  0.00000000000E+00  0.00000000000E+00  0.84233099999E+03  0.97965819436E+03  0.50020862070E+03 0.  0.
        2    1    3    3  502    0 -0.21103502391E+03  0.88164540149E+02  0.22294642756E+03  0.31939611304E+03  0.25500000920E-02 0.  1.
       -2    1    3    3    0  502  0.21103502391E+03 -0.88164540149E+02  0.61938457243E+03  0.66026208132E+03  0.25500000920E-02 0. -1.
</event>
<event>
 5   0  0.3013734E-03  0.4999295E+03  0.7818609E-02  0.1013797E+00
       -1   -1    0    0    0  501  0.00000000000E+00  0.00000000000E+00  0.53392737737E+02  0.53392737975E+02  0.50400001928E-02 0. -1.
        1   -1    0    0  501    0  0.00000000000E+00  0.00000000000E+00 -0.11702411398E+04  0.11702411398E+04  0.50400001928E-02 0.  1.
    10030    2    1    2    0    0  0.00000000000E+00  0.00000000000E+00 -0.11168484020E+04  0.12236338777E+04  0.49992950870E+03 0.  0.
        2    1    3    3  502    0 -0.57220916864E+02 -0.15924264177E+02 -0.11527183195E+04  0.11542475210E+04  0.25500000920E-02 0.  1.
       -2    1    3    3    0  502  0.57220916864E+02  0.15924264177E+02  0.35869917505E+02  0.69386356761E+02  0.25500000920E-02 0. -1.
</event>
<event>
 5   0  0.3055293E-03  0.5003333E+03  0.7818609E-02  0.1013692E+00
       -1   -1    0    0    0  501  0.00000000000E+00  0.00000000000E+00  0.75954575381E+02  0.75954575548E+02  0.50400001928E-02 0. -1.
        1   -1    0    0  501    0  0.00000000000E+00  0.00000000000E+00 -0.82395761261E+03  0.82395761263E+03  0.50400001928E-02 0.  1.
    10030    2    1    2    0    0  0.00000000000E+00  0.00000000000E+00 -0.74800303723E+03  0.89991218818E+03  0.50033329164E+03 0.  0.
        3    1    3    3  502    0 -0.11809713099E+03 -0.63770997404E+02 -0.75371886056E+03  0.76557547207E+03  0.10100000352E+00 0.  1.
       -3    1    3    3    0  502  0.11809713099E+03  0.63770997404E+02  0.57158233315E+01  0.13433671611E+03  0.10100000352E+00 0. -1.
</event>
<event>
 5   0  0.3013734E-03  0.4997568E+03  0.7818609E-02  0.1013842E+00
       -1   -1    0    0    0  501  0.00000000000E+00  0.00000000000E+00  0.86363187072E+02  0.86363187219E+02  0.50400001928E-02 0.  1.
        1   -1    0    0  501    0  0.00000000000E+00  0.00000000000E+00 -0.72298421971E+03  0.72298421973E+03  0.50400001928E-02 0. -1.
    10030    2    1    2    0    0  0.00000000000E+00  0.00000000000E+00 -0.63662103264E+03  0.80934740695E+03  0.49975682680E+03 0.  0.
        2    1    3    3  502    0  0.11812105065E+03 -0.63463716859E+02  0.23162245664E+02  0.13607613896E+03  0.25500000920E-02 0.  1.
       -2    1    3    3    0  502 -0.11812105065E+03  0.63463716859E+02 -0.65978327830E+03  0.67327126799E+03  0.25500000920E-02 0. -1.
</event>
<event>
 5   0  0.4989875E-03  0.4999581E+03  0.7818609E-02  0.1013790E+00
       -2   -1    0    0    0  501  0.00000000000E+00  0.00000000000E+00  0.50269521494E+02  0.50269521559E+02  0.25500000920E-02 0. -1.
        2   -1    0    0  501    0  0.00000000000E+00  0.00000000000E+00 -0.12430898514E+04  0.12430898514E+04  0.25500000920E-02 0.  1.
    10030    2    1    2    0    0  0.00000000000E+00  0.00000000000E+00 -0.11928203299E+04  0.12933593730E+04  0.49995812643E+03 0.  0.
        2    1    3    3  502    0  0.19717405493E+03 -0.14693387803E+03 -0.71274633770E+03  0.75397248912E+03  0.25500000920E-02 0.  1.
       -2    1    3    3    0  502 -0.19717405493E+03  0.14693387803E+03 -0.48007399220E+03  0.53938688383E+03  0.25500000920E-02 0. -1.
</event>
<event>
 5   0  0.4989875E-03  0.5002906E+03  0.7818609E-02  0.1013703E+00
        2   -1    0    0  501    0  0.00000000000E+00  0.00000000000E+00  0.85941599267E+03  0.85941599267E+03  0.25500000920E-02 0.  1.
       -2   -1    0    0    0  501  0.00000000000E+00  0.00000000000E+00 -0.72808359745E+02  0.72808359790E+02  0.25500000920E-02 0. -1.
    10030    2    1    2    0    0  0.00000000000E+00  0.00000000000E+00  0.78660763292E+03  0.93222435246E+03  0.50029059071E+03 0.  0.
        2    1    3    3  502    0  0.24064202480E+03  0.27536222400E+02  0.27684955204E+03  0.36784847711E+03  0.25500000920E-02 0.  1.
       -2    1    3    3    0  502 -0.24064202480E+03 -0.27536222400E+02  0.50975808088E+03  0.56437587535E+03  0.25500000920E-02 0. -1.
</event>
<event>
 5   0  0.5118882E-03  0.5002022E+03  0.7818609E-02  0.1013726E+00
        2   -1    0    0  501    0  0.00000000000E+00  0.00000000000E+00  0.13208778786E+04  0.13208778786E+04  0.25500000920E-02 0.  1.
       -2   -1    0    0    0  501  0.00000000000E+00  0.00000000000E+00 -0.47355295450E+02  0.47355295519E+02  0.25500000920E-02 0. -1.
    10030    2    1    2    0    0  0.00000000000E+00  0.00000000000E+00  0.12735225831E+04  0.13682331741E+04  0.50020220808E+03 0.  0.
        3    1    3    3  502    0 -0.22486111866E+03  0.56207506107E+02  0.89377957180E+03  0.92334378192E+03  0.10100000352E+00 0.  1.
       -3    1    3    3    0  502  0.22486111866E+03 -0.56207506107E+02  0.37974301131E+03  0.44488939217E+03  0.10100000352E+00 0. -1.
</event>
<event>
 5   0  0.2005125E-03  0.5005073E+03  0.7818609E-02  0.1013647E+00
        3   -1    0    0  501    0  0.00000000000E+00  0.00000000000E+00  0.11380555950E+03  0.11380560432E+03  0.10100000352E+00 0.  1.
       -3   -1    0    0    0  501  0.00000000000E+00  0.00000000000E+00 -0.55029703638E+03  0.55029704565E+03  0.10100000352E+00 0. -1.
    10030    2    1    2    0    0  0.00000000000E+00  0.00000000000E+00 -0.43649147688E+03  0.66410264997E+03  0.50050726299E+03 0.  0.
        4    1    3    3  502    0 -0.65055854392E+02 -0.22860324694E+03 -0.11433005838E+03  0.26375117792E+03  0.12699999809E+01 0. -1.
       -4    1    3    3    0  502  0.65055854392E+02  0.22860324694E+03 -0.32216141850E+03  0.40035147205E+03  0.12699999809E+01 0.  1.
</event>
<event>
 5   0  0.3211775E-03  0.5001596E+03  0.7818609E-02  0.1013737E+00
        1   -1    0    0  501    0  0.00000000000E+00  0.00000000000E+00  0.37078938958E+03  0.37078938962E+03  0.50400001928E-02 0.  1.
       -1   -1    0    0    0  501  0.00000000000E+00  0.00000000000E+00 -0.16866689769E+03  0.16866689777E+03  0.50400001928E-02 0. -1.
    10030    2    1    2    0    0  0.00000000000E+00  0.00000000000E+00  0.20212249189E+03  0.53945628739E+03  0.50015955882E+03 0.  0.
        4    1    3    3  502    0  0.19669495812E+03 -0.21388091110E+02 -0.63899525256E+02  0.20792094463E+03  0.12699999809E+01 0. -1.
       -4    1    3    3    0  502 -0.19669495812E+03  0.21388091110E+02  0.26602201715E+03  0.33153534276E+03  0.12699999809E+01 0.  1.
</event>
<event>
 5   0  0.3013734E-03  0.4998404E+03  0.7818609E-02  0.1013821E+00
        1   -1    0    0  501    0  0.00000000000E+00  0.00000000000E+00  0.86648288807E+03  0.86648288809E+03  0.50400001928E-02 0.  1.
       -1   -1    0    0    0  501  0.00000000000E+00  0.00000000000E+00 -0.72084633079E+02  0.72084633255E+02  0.50400001928E-02 0. -1.
    10030    2    1    2    0    0  0.00000000000E+00  0.00000000000E+00  0.79439825500E+03  0.93856752134E+03  0.49984037910E+03 0.  0.
        2    1    3    3  502    0 -0.14807036052E+03  0.11451062922E+03  0.70814756735E+03  0.73246876590E+03  0.25500000920E-02 0. -1.
       -2    1    3    3    0  502  0.14807036052E+03 -0.11451062922E+03  0.86250687643E+02  0.20609875544E+03  0.25500000920E-02 0.  1.
</event>
<event>
 5   0  0.2005125E-03  0.5000956E+03  0.7818609E-02  0.1013754E+00
       -3   -1    0    0    0  501  0.00000000000E+00  0.00000000000E+00  0.36252666949E+02  0.36252807642E+02  0.10100000352E+00 0. -1.
        3   -1    0    0  501    0  0.00000000000E+00  0.00000000000E+00 -0.17246671211E+04  0.17246671241E+04  0.10100000352E+00 0.  1.
    10030    2    1    2    0    0  0.00000000000E+00  0.00000000000E+00 -0.16884144542E+04  0.17609199317E+04  0.50009562773E+03 0.  0.
        3    1    3    3  502    0  0.84282949734E+02 -0.23402312274E+03 -0.75419603150E+03  0.79415496077E+03  0.10100000352E+00 0. -1.
       -3    1    3    3    0  502 -0.84282949734E+02  0.23402312274E+03 -0.93421842270E+03  0.96676497097E+03  0.10100000352E+00 0.  1.
</event>
<event>
 5   0  0.3013734E-03  0.5000189E+03  0.7818609E-02  0.1013774E+00
       -1   -1    0    0    0  501  0.00000000000E+00  0.00000000000E+00  0.63044971230E+02  0.63044971432E+02  0.50400001928E-02 0.  1.
        1   -1    0    0  501    0  0.00000000000E+00  0.00000000000E+00 -0.99143058283E+03  0.99143058284E+03  0.50400001928E-02 0. -1.
    10030    2    1    2    0    0  0.00000000000E+00  0.00000000000E+00 -0.92838561160E+03  0.10544755543E+04  0.50001885038E+03 0.  0.
        2    1    3    3  502    0 -0.14764289528E+03 -0.16151227790E+03 -0.71918383276E+03  0.75173800339E+03  0.25500000920E-02 0. -1.
       -2    1    3    3    0  502  0.14764289528E+03  0.16151227790E+03 -0.20920177884E+03  0.30273755088E+03  0.25500000920E-02 0.  1.
</event>
<event>
 5   0  0.5118882E-03  0.5001649E+03  0.7818609E-02  0.1013736E+00
       -2   -1    0    0    0  501  0.00000000000E+00  0.00000000000E+00  0.47011037542E+03  0.47011037543E+03  0.25500000920E-02 0. -1.
        2   -1    0    0  501    0  0.00000000000E+00  0.00000000000E+00 -0.13303518344E+03  0.13303518347E+03  0.25500000920E-02 0.  1.
    10030    2    1    2    0    0  0.00000000000E+00  0.00000000000E+00  0.33707519198E+03  0.60314555890E+03  0.50016485299E+03 0.  0.
        3    1    3    3  502    0 -0.16860520181E+03  0.15377794192E+03  0.45171444498E+02  0.23262811330E+03  0.10100000352E+00 0.  1.
       -3    1    3    3    0  502  0.16860520181E+03 -0.15377794192E+03  0.29190374748E+03  0.37051744560E+03  0.10100000352E+00 0. -1.
</event>
<event>
 5   0  0.4989875E-03  0.5001167E+03  0.7818609E-02  0.1013748E+00
       -2   -1    0    0    0  501  0.00000000000E+00  0.00000000000E+00  0.15030024960E+03  0.15030024962E+03  0.25500000920E-02 0.  1.
        2   -1    0    0  501    0  0.00000000000E+00  0.00000000000E+00 -0.41602845961E+03  0.41602845962E+03  0.25500000920E-02 0. -1.
    10030    2    1    2    0    0  0.00000000000E+00  0.00000000000E+00 -0.26572821001E+03  0.56632870924E+03  0.50011671169E+03 0.  0.
        2    1    3    3  502    0  0.14520654575E+03  0.23189846689E+01  0.97651921539E+02  0.17500347541E+03  0.25500000920E-02 0.  1.
       -2    1    3    3    0  502 -0.14520654575E+03 -0.23189846689E+01 -0.36338013155E+03  0.39132523383E+03  0.25500000920E-02 0. -1.
</event>
<event>
 5   0  0.4989875E-03  0.4997670E+03  0.7818609E-02  0.1013840E+00
       -2   -1    0    0    0  501  0.00000000000E+00  0.00000000000E+00  0.63079258348E+02  0.63079258399E+02  0.25500000920E-02 0. -1.
        2   -1    0    0  501    0  0.00000000000E+00  0.00000000000E+00 -0.98989376922E+03  0.98989376922E+03  0.25500000920E-02 0.  1.
    10030    2    1    2    0    0  0.00000000000E+00  0.00000000000E+00 -0.92681451087E+03  0.10529730276E+04  0.49976700505E+03 0.  0.
        2    1    3    3  502    0 -0.17700557798E+03 -0.65696525174E+02 -0.80829246969E+03  0.83005043499E+03  0.25500000920E-02 0.  1.
       -2    1    3    3    0  502  0.17700557798E+03  0.65696525174E+02 -0.11852204118E+03  0.22292259263E+03  0.25500000920E-02 0. -1.
</event>
<event>
 5   0  0.3013734E-03  0.5003092E+03  0.7818609E-02  0.1013698E+00
        1   -1    0    0  501    0  0.00000000000E+00  0.00000000000E+00  0.43886495986E+03  0.43886495989E+03  0.50400001928E-02 0.  1.
       -1   -1    0    0    0  501  0.00000000000E+00  0.00000000000E+00 -0.14258900934E+03  0.14258900943E+03  0.50400001928E-02 0. -1.
    10030    2    1    2    0    0  0.00000000000E+00  0.00000000000E+00  0.29627595052E+03  0.58145396931E+03  0.50030918398E+03 0.  0.
        2    1    3    3  502    0 -0.19257332860E+03 -0.13079264301E+03  0.41709623361E+02  0.23649713537E+03  0.25500000920E-02 0. -1.
       -2    1    3    3    0  502  0.19257332860E+03  0.13079264301E+03  0.25456632716E+03  0.34495683394E+03  0.25500000920E-02 0.  1.
</event>
<event>
 5   0  0.3057783E-03  0.5000262E+03  0.7818609E-02  0.1013772E+00
        1   -1    0    0  501    0  0.00000000000E+00  0.00000000000E+00  0.40623540889E+03  0.40623540892E+03  0.50400001928E-02 0.  1.
       -1   -1    0    0    0  501  0.00000000000E+00  0.00000000000E+00 -0.15386777812E+03  0.15386777820E+03  0.50400001928E-02 0. -1.
    10030    2    1    2    0    0  0.00000000000E+00  0.00000000000E+00  0.25236763077E+03  0.56010318713E+03  0.50002615848E+03 0.  0.
        5    1    3    3  502    0  0.47219782963E+01 -0.24889065519E+03  0.10074894983E+03  0.26859131819E+03  0.46999998093E+01 0. -1.
       -5    1    3    3    0  502 -0.47219782963E+01  0.24889065519E+03  0.15161868094E+03  0.29151186893E+03  0.46999998093E+01 0.  1.
</event>
<event>
 5   0  0.2005125E-03  0.5001882E+03  0.7818609E-02  0.1013730E+00
        3   -1    0    0  501    0  0.00000000000E+00  0.00000000000E+00  0.99444883845E+03  0.99444884358E+03  0.10100000352E+00 0. -1.
       -3   -1    0    0    0  501  0.00000000000E+00  0.00000000000E+00 -0.62896156176E+02  0.62896237270E+02  0.10100000352E+00 0.  1.
    10030    2    1    2    0    0  0.00000000000E+00  0.00000000000E+00  0.93155268227E+03  0.10573450808E+04  0.50018818473E+03 0.  0.
        5    1    3    3  502    0 -0.17132175625E+03  0.18172199341E+03  0.43980570461E+03  0.50579163186E+03  0.46999998093E+01 0. -1.
       -5    1    3    3    0  502  0.17132175625E+03 -0.18172199341E+03  0.49174697766E+03  0.55155344899E+03  0.46999998093E+01 0.  1.
</event>
<event>
 5   0  0.4978779E-03  0.4998699E+03  0.7818609E-02  0.1013813E+00
       -2   -1    0    0    0  501  0.00000000000E+00  0.00000000000E+00  0.19351210728E+03  0.19351210730E+03  0.25500000920E-02 0.  1.
        2   -1    0    0  501    0  0.00000000000E+00  0.00000000000E+00 -0.32280916697E+03  0.32280916698E+03  0.25500000920E-02 0. -1.
    10030    2    1    2    0    0  0.00000000000E+00  0.00000000000E+00 -0.12929705969E+03  0.51632127428E+03  0.49986991171E+03 0.  0.
        1    1    3    3  502    0 -0.16812861512E+03  0.41398341318E+02 -0.25082037627E+03  0.30478174988E+03  0.50400001928E-02 0. -1.
       -1    1    3    3    0  502  0.16812861512E+03 -0.41398341318E+02  0.12152331657E+03  0.21153952440E+03  0.50400001928E-02 0.  1.
</event>
<event>
 5   0  0.5118882E-03  0.4998862E+03  0.7818609E-02  0.1013809E+00
        2   -1    0    0  501    0  0.00000000000E+00  0.00000000000E+00  0.70239728439E+03  0.70239728439E+03  0.25500000920E-02 0.  1.
       -2   -1    0    0    0  501  0.00000000000E+00  0.00000000000E+00 -0.88940490340E+02  0.88940490376E+02  0.25500000920E-02 0. -1.
    10030    2    1    2    0    0  0.00000000000E+00  0.00000000000E+00  0.61345679405E+03  0.79133777477E+03  0.49988622267E+03 0.  0.
        3    1    3    3  502    0  0.15701160592E+03  0.11434119342E+02 -0.59330350070E+00  0.15742854153E+03  0.10100000352E+00 0. -1.
       -3    1    3    3    0  502 -0.15701160592E+03 -0.11434119342E+02  0.61405009755E+03  0.63390923323E+03  0.10100000352E+00 0.  1.
</event>
<event>
 5   0  0.2005125E-03  0.4997441E+03  0.7818609E-02  0.1013846E+00
       -4   -1    0    0    0  501  0.00000000000E+00  0.00000000000E+00  0.34460732072E+03  0.34460966091E+03  0.12699999809E+01 0. -1.
        4   -1    0    0  501    0  0.00000000000E+00  0.00000000000E+00 -0.18117505748E+03  0.18117950864E+03  0.12699999809E+01 0.  1.
    10030    2    1    2    0    0  0.00000000000E+00  0.00000000000E+00  0.16343226324E+03  0.52578916955E+03  0.49974408065E+03 0.  0.
        1    1    3    3  502    0 -0.11717010428E+03 -0.21852437638E+03  0.11421786042E+03  0.27299717229E+03  0.50400001928E-02 0.  1.
       -1    1    3    3    0  502  0.11717010428E+03  0.21852437638E+03  0.49214402822E+02  0.25279199727E+03  0.50400001928E-02 0. -1.
</event>
<event>
 5   0  0.5118882E-03  0.5003607E+03  0.7818609E-02  0.1013685E+00
        2   -1    0    0  501    0  0.00000000000E+00  0.00000000000E+00  0.14581404370E+04  0.14581404370E+04  0.25500000920E-02 0. -1.
       -2   -1    0    0    0  501  0.00000000000E+00  0.00000000000E+00 -0.42924681722E+02  0.42924681797E+02  0.25500000920E-02 0.  1.
    10030    2    1    2    0    0  0.00000000000E+00  0.00000000000E+00  0.14152157552E+04  0.15010651188E+04  0.50036072676E+03 0.  0.
        3    1    3    3  502    0 -0.55651288996E+02  0.24269235634E+03  0.78069619827E+03  0.81944079102E+03  0.10100000352E+00 0.  1.
       -3    1    3    3    0  502  0.55651288996E+02 -0.24269235634E+03  0.63451955698E+03  0.68162432775E+03  0.10100000352E+00 0. -1.
</event>
<event>
 5   0  0.4989875E-03  0.5000204E+03  0.7818609E-02  0.1013774E+00
        2   -1    0    0  501    0  0.00000000000E+00  0.00000000000E+00  0.55131372631E+03  0.55131372631E+03  0.25500000920E-02 0. -1.
       -2   -1    0    0    0  501  0.00000000000E+00  0.00000000000E+00 -0.11337483426E+03  0.11337483428E+03  0.25500000920E-02 0.  1.
    10030    2    1    2    0    0  0.00000000000E+00  0.00000000000E+00  0.43793889205E+03  0.66468856060E+03  0.50002040900E+03 0.  0.
        2    1    3    3  502    0 -0.11204597048E+03 -0.12784385652E+03 -0.24723938079E+02  0.17178365543E+03  0.25500000920E-02 0.  1.
       -2    1    3    3    0  502  0.11204597048E+03  0.12784385652E+03  0.46266283013E+03  0.49290490517E+03  0.25500000920E-02 0. -1.
</event>
<event>
 5   0  0.4889251E-03  0.5001136E+03  0.7818609E-02  0.1013749E+00
       -2   -1    0    0    0  501  0.00000000000E+00  0.00000000000E+00  0.10722027675E+03  0.10722027678E+03  0.25500000920E-02 0. -1.
        2   -1    0    0  501    0  0.00000000000E+00  0.00000000000E+00 -0.58317705541E+03  0.58317705542E+03  0.25500000920E-02 0.  1.
    10030    2    1    2    0    0  0.00000000000E+00  0.00000000000E+00 -0.47595677867E+03  0.69039733219E+03  0.50011360824E+03 0.  0.
        5    1    3    3  502    0  0.40288924180E+01  0.75148617909E+02  0.91152045562E+02  0.11829764223E+03  0.46999998093E+01 0. -1.
       -5    1    3    3    0  502 -0.40288924180E+01 -0.75148617909E+02 -0.56710882423E+03  0.57209968997E+03  0.46999998093E+01 0.  1.
</event>
<event>
 5   0  0.3055293E-03  0.5012522E+03  0.7818609E-02  0.1013453E+00
        1   -1    0    0  501    0  0.00000000000E+00  0.00000000000E+00  0.10445794409E+04  0.10445794409E+04  0.50400001928E-02 0. -1.
       -1   -1    0    0    0  501  0.00000000000E+00  0.00000000000E+00 -0.60132762518E+02  0.60132762729E+02  0.50400001928E-02 0.  1.
    10030    2    1    2    0    0  0.00000000000E+00  0.00000000000E+00  0.98444667836E+03  0.11047122036E+04  0.50125222223E+03 0.  0.
        3    1    3    3  502    0 -0.14986983075E+02 -0.13478588484E+03  0.95672781681E+03  0.96629186588E+03  0.10100000352E+00 0. -1.
       -3    1    3    3    0  502  0.14986983075E+02  0.13478588484E+03  0.27718861555E+02  0.13842033774E+03  0.10100000352E+00 0.  1.
</event>
<event>
 5   0  0.3057783E-03  0.4999903E+03  0.7818609E-02  0.1013781E+00
        1   -1    0    0  501    0  0.00000000000E+00  0.00000000000E+00  0.11317745103E+03  0.11317745114E+03  0.50400001928E-02 0.  1.
       -1   -1    0    0    0  501  0.00000000000E+00  0.00000000000E+00 -0.55220875224E+03  0.55220875226E+03  0.50400001928E-02 0. -1.
    10030    2    1    2    0    0  0.00000000000E+00  0.00000000000E+00 -0.43903130121E+03  0.66538620340E+03  0.49999031614E+03 0.  0.
        5    1    3    3  502    0  0.10583660381E+03  0.34348774983E+02  0.78340243706E+02  0.13616353709E+03  0.46999998093E+01 0.  1.
       -5    1    3    3    0  502 -0.10583660381E+03 -0.34348774983E+02 -0.51737154492E+03  0.52922266631E+03  0.46999998093E+01 0. -1.
</event>
<event>
 5   0  0.4978779E-03  0.5000630E+03  0.7818609E-02  0.1013762E+00
       -2   -1    0    0    0  501  0.00000000000E+00  0.00000000000E+00  0.45664318609E+02  0.45664318680E+02  0.25500000920E-02 0.  1.
        2   -1    0    0  501    0  0.00000000000E+00  0.00000000000E+00 -0.13690282335E+04  0.13690282335E+04  0.25500000920E-02 0. -1.
    10030    2    1    2    0    0  0.00000000000E+00  0.00000000000E+00 -0.13233639149E+04  0.14146925522E+04  0.50006296201E+03 0.  0.
        1    1    3    3  502    0  0.23014407255E+03  0.27433079608E+02 -0.39634267456E+03  0.45913656323E+03  0.50400001928E-02 0.  1.
       -1    1    3    3    0  502 -0.23014407255E+03 -0.27433079608E+02 -0.92702124036E+03  0.95555598898E+03  0.50400001928E-02 0. -1.
</event>
<event>
 5   0  0.3013734E-03  0.4999035E+03  0.7818609E-02  0.1013804E+00
        1   -1    0    0  501    0  0.00000000000E+00  0.00000000000E+00  0.53278742213E+03  0.53278742216E+03  0.50400001928E-02 0.  1.
       -1   -1    0    0    0  501  0.00000000000E+00  0.00000000000E+00 -0.11726230730E+03  0.11726230741E+03  0.50400001928E-02 0. -1.
    10030    2    1    2    0    0  0.00000000000E+00  0.00000000000E+00  0.41552511483E+03  0.65004972957E+03  0.49990352055E+03 0.  0.
        2    1    3    3  502    0 -0.76911187362E+02  0.81568465388E+02  0.49825960022E+03  0.51071653048E+03  0.25500000920E-02 0.  1.
       -2    1    3    3    0  502  0.76911187362E+02 -0.81568465388E+02 -0.82734485395E+02  0.13933319908E+03  0.25500000920E-02 0. -1.
</event>
<event>
 5   0  0.4989875E-03  0.5001004E+03  0.7818609E-02  0.1013753E+00
       -2   -1    0    0    0  501  0.00000000000E+00  0.00000000000E+00  0.20488977082E+03  0.20488977084E+03  0.25500000920E-02 0.  1.
        2   -1    0    0  501    0  0.00000000000E+00  0.00000000000E+00 -0.30516463286E+03  0.30516463287E+03  0.25500000920E-02 0. -1.
    10030    2    1    2    0    0  0.00000000000E+00  0.00000000000E+00 -0.10027486204E+03  0.51005440371E+03  0.50010043670E+03 0.  0.
        2    1    3    3  502    0 -0.46335049940E+02  0.91522508691E+02  0.18244048671E+03  0.20930321939E+03  0.25500000920E-02 0.  1.
       -2    1    3    3    0  502  0.46335049940E+02 -0.91522508691E+02 -0.28271534874E+03  0.30075118432E+03  0.25500000920E-02 0. -1.
</event>
<event>
 5   0  0.2863538E-03  0.5000558E+03  0.7818609E-02  0.1013764E+00
       -1   -1    0    0    0  501  0.00000000000E+00  0.00000000000E+00  0.76554082272E+02  0.76554082438E+02  0.50400001928E-02 0. -1.
        1   -1    0    0  501    0  0.00000000000E+00  0.00000000000E+00 -0.81659861249E+03  0.81659861251E+03  0.50400001928E-02 0.  1.
    10030    2    1    2    0    0  0.00000000000E+00  0.00000000000E+00 -0.74004453022E+03  0.89315269495E+03  0.50005582666E+03 0.  0.
        1    1    3    3  502    0 -0.14795289454E+02 -0.81285116339E+02  0.51467661367E+02  0.97340078694E+02  0.50400001928E-02 0. -1.
       -1    1    3    3    0  502  0.14795289454E+02  0.81285116339E+02 -0.79151219159E+03  0.79581261625E+03  0.50400001928E-02 0.  1.
</event>
<event>
 5   0  0.5095783E-03  0.5002055E+03  0.7818609E-02  0.1013725E+00
        2   -1    0    0  501    0  0.00000000000E+00  0.00000000000E+00  0.19023879496E+04  0.19023879496E+04  0.25500000920E-02 0.  1.
       -2   -1    0    0    0  501  0.00000000000E+00  0.00000000000E+00 -0.32880459500E+02  0.32880459599E+02  0.25500000920E-02 0. -1.
    10030    2    1    2    0    0  0.00000000000E+00  0.00000000000E+00  0.18695074901E+04  0.19352684092E+04  0.50020551787E+03 0.  0.
        4    1    3    3  502    0  0.22772050402E+03 -0.81602174629E+02  0.68901519781E+03  0.73024591650E+03  0.12699999809E+01 0.  1.
       -4    1    3    3    0  502 -0.22772050402E+03  0.81602174629E+02  0.11804922923E+04  0.12050224927E+04  0.12699999809E+01 0. -1.
</event>
<event>
 5   0  0.3211775E-03  0.5000430E+03  0.7818609E-02  0.1013768E+00
       -1   -1    0    0    0  501  0.00000000000E+00  0.00000000000E+00  0.59029154441E+02  0.59029154656E+02  0.50400001928E-02 0. -1.
        1   -1    0    0  501    0  0.00000000000E+00  0.00000000000E+00 -0.10589811562E+04  0.10589811562E+04  0.50400001928E-02 0.  1.
    10030    2    1    2    0    0  0.00000000000E+00  0.00000000000E+00 -0.99995200177E+03  0.11180103109E+04  0.50004304754E+03 0.  0.
        4    1    3    3  502    0 -0.80526103450E+02  0.23657714100E+03 -0.51670030449E+03  0.57396342613E+03  0.12699999809E+01 0. -1.
       -4    1    3    3    0  502  0.80526103450E+02 -0.23657714100E+03 -0.48325169728E+03  0.54404688475E+03  0.12699999809E+01 0.  1.
</event>
<event>
 5   0  0.2005125E-03  0.5002416E+03  0.7818609E-02  0.1013716E+00
        4   -1    0    0  501    0  0.00000000000E+00  0.00000000000E+00  0.20248608918E+03  0.20249007188E+03  0.12699999809E+01 0. -1.
       -4   -1    0    0    0  501  0.00000000000E+00  0.00000000000E+00 -0.30895320012E+03  0.30895581037E+03  0.12699999809E+01 0.  1.
    10030    2    1    2    0    0  0.00000000000E+00  0.00000000000E+00 -0.10646711094E+03  0.51144588225E+03  0.50024158640E+03 0.  0.
        2    1    3    3  502    0  0.14149044494E+03 -0.15424429769E+03 -0.19322949987E+03  0.28486573856E+03  0.25500000920E-02 0.  1.
       -2    1    3    3    0  502 -0.14149044494E+03  0.15424429769E+03  0.86762388928E+02  0.22658014370E+03  0.25500000920E-02 0. -1.
</event>
<event>
 5   0  0.3013734E-03  0.4996437E+03  0.7818609E-02  0.1013872E+00
       -1   -1    0    0    0  501  0.00000000000E+00  0.00000000000E+00  0.20854405957E+03  0.20854405963E+03  0.50400001928E-02 0.  1.
        1   -1    0    0  501    0  0.00000000000E+00  0.00000000000E+00 -0.29926984893E+03  0.29926984897E+03  0.50400001928E-02 0. -1.
    10030    2    1    2    0    0  0.00000000000E+00  0.00000000000E+00 -0.90725789357E+02  0.50781390860E+03  0.49964366995E+03 0.  0.
        2    1    3    3  502    0 -0.20683722691E+03  0.13223085552E+03  0.17010314020E+01  0.24549853584E+03  0.25500000920E-02 0.  1.
       -2    1    3    3    0  502  0.20683722691E+03 -0.13223085552E+03 -0.92426820759E+02  0.26231537276E+03  0.25500000920E-02 0. -1.
</event>
<event>
 5   0  0.3055293E-03  0.5011800E+03  0.7818609E-02  0.1013471E+00
        1   -1    0    0  501    0  0.00000000000E+00  0.00000000000E+00  0.59914612707E+03  0.59914612709E+03  0.50400001928E-02 0.  1.
       -1   -1    0    0    0  501  0.00000000000E+00  0.00000000000E+00 -0.10480808412E+03  0.10480808424E+03  0.50400001928E-02 0. -1.
    10030    2    1    2    0    0  0.00000000000E+00  0.00000000000E+00  0.49433804295E+03  0.70395421133E+03  0.50118003846E+03 0.  0.
        3    1    3    3  502    0 -0.21253599341E+02  0.61692047409E+02  0.58700437738E+03  0.59061982142E+03  0.10100000352E+00 0.  1.
       -3    1    3    3    0  502  0.21253599341E+02 -0.61692047409E+02 -0.92666334429E+02  0.11333438991E+03  0.10100000352E+00 0. -1.
</event>
<event>
 5   0  0.4978779E-03  0.5000453E+03  0.7818609E-02  0.1013767E+00
       -2   -1    0    0    0  501  0.00000000000E+00  0.00000000000E+00  0.16552389828E+03  0.16552389830E+03  0.25500000920E-02 0. -1.
        2   -1    0    0  501    0  0.00000000000E+00  0.00000000000E+00 -0.37765743255E+03  0.37765743256E+03  0.25500000920E-02 0.  1.
    10030    2    1    2    0    0  0.00000000000E+00  0.00000000000E+00 -0.21213353428E+03  0.54318133086E+03  0.50004531977E+03 0.  0.
        1    1    3    3  502    0  0.18140806638E+03  0.13661672058E+03 -0.21967523208E+03  0.31595921019E+03  0.50400001928E-02 0.  1.
       -1    1    3    3    0  502 -0.18140806638E+03 -0.13661672058E+03  0.75416977991E+01  0.22722212067E+03  0.50400001928E-02 0. -1.
</event>
<event>
 5   0  0.3055293E-03  0.4999916E+03  0.7818609E-02  0.1013781E+00
       -1   -1    0    0    0  501  0.00000000000E+00  0.00000000000E+00  0.36655944737E+03  0.36655944741E+03  0.50400001928E-02 0.  1.
        1   -1    0    0  501    0  0.00000000000E+00  0.00000000000E+00 -0.17049868172E+03  0.17049868179E+03  0.50400001928E-02 0. -1.
    10030    2    1    2    0    0  0.00000000000E+00  0.00000000000E+00  0.19606076565E+03  0.53705812920E+03  0.49999161024E+03 0.  0.
        3    1    3    3  502    0  0.28652503119E+02 -0.24771431341E+03  0.11708061313E+03  0.27548362415E+03  0.10100000352E+00 0. -1.
       -3    1    3    3    0  502 -0.28652503119E+02  0.24771431341E+03  0.78980152523E+02  0.26157450505E+03  0.10100000352E+00 0.  1.
</event>
<event>
 5   0  0.4978779E-03  0.5001664E+03  0.7818609E-02  0.1013735E+00
        2   -1    0    0  501    0  0.00000000000E+00  0.00000000000E+00  0.84150140620E+03  0.84150140620E+03  0.25500000920E-02 0.  1.
       -2   -1    0    0    0  501  0.00000000000E+00  0.00000000000E+00 -0.74321451677E+02  0.74321451721E+02  0.25500000920E-02 0. -1.
    10030    2    1    2    0    0  0.00000000000E+00  0.00000000000E+00  0.76717995452E+03  0.91582285792E+03  0.50016639679E+03 0.  0.
        1    1    3    3  502    0  0.20637050575E+03  0.10085563250E+03  0.56467717594E+03  0.60960721559E+03  0.50400001928E-02 0.  1.
       -1    1    3    3    0  502 -0.20637050575E+03 -0.10085563250E+03  0.20250277858E+03  0.30621564233E+03  0.50400001928E-02 0. -1.
</event>
<event>
 5   0  0.3055293E-03  0.5000587E+03  0.7818609E-02  0.1013764E+00
       -1   -1    0    0    0  501  0.00000000000E+00  0.00000000000E+00  0.73911761744E+02  0.73911761916E+02  0.50400001928E-02 0. -1.
        1   -1    0    0  501    0  0.00000000000E+00  0.00000000000E+00 -0.84580139730E+03  0.84580139731E+03  0.50400001928E-02 0.  1.
    10030    2    1    2    0    0  0.00000000000E+00  0.00000000000E+00 -0.77188963556E+03  0.91971315923E+03  0.50005868234E+03 0.  0.
        3    1    3    3  502    0  0.14590849271E+03  0.30738972482E+02 -0.16815284977E+02  0.15005644499E+03  0.10100000352E+00 0. -1.
       -3    1    3    3    0  502 -0.14590849271E+03 -0.30738972482E+02 -0.75507435058E+03  0.76965671424E+03  0.10100000352E+00 0.  1.
</event>
<event>
 5   0  0.3057783E-03  0.5001378E+03  0.7818609E-02  0.1013743E+00
       -1   -1    0    0    0  501  0.00000000000E+00  0.00000000000E+00  0.19643655203E+03  0.19643655209E+03  0.50400001928E-02 0. -1.
        1   -1    0    0  501    0  0.00000000000E+00  0.00000000000E+00 -0.31834423496E+03  0.31834423500E+03  0.50400001928E-02 0.  1.
    10030    2    1    2    0    0  0.00000000000E+00  0.00000000000E+00 -0.12190768294E+03  0.51478078710E+03  0.50013775663E+03 0.  0.
        5    1    3    3  502    0  0.46418350971E+02 -0.62099494942E+02 -0.30561333620E+03  0.31532937041E+03  0.46999998093E+01 0.  1.
       -5    1    3    3    0  502 -0.46418350971E+02  0.62099494942E+02  0.18370565327E+03  0.19945141669E+03  0.46999998093E+01 0. -1.
</event>
<event>
 5   0  0.5095783E-03  0.5000491E+03  0.7818609E-02  0.1013766E+00
       -2   -1    0    0    0  501  0.00000000000E+00  0.00000000000E+00  0.84174509501E+02  0.84174509540E+02  0.25500000920E-02 0.  1.
        2   -1    0    0  501    0  0.00000000000E+00  0.00000000000E+00 -0.74265103332E+03  0.74265103333E+03  0.25500000920E-02 0. -1.
    10030    2    1    2    0    0  0.00000000000E+00  0.00000000000E+00 -0.65847652382E+03  0.82682554287E+03  0.50004914350E+03 0.  0.
        4    1    3    3  502    0  0.18900403892E+03  0.16359359636E+03 -0.32092430853E+03  0.40679161275E+03  0.12699999809E+01 0. -1.
       -4    1    3    3    0  502 -0.18900403892E+03 -0.16359359636E+03 -0.33755221529E+03  0.42003393011E+03  0.12699999809E+01 0.  1.
</event>
<event>
 5   0  0.4989875E-03  0.5000271E+03  0.7818609E-02  0.1013772E+00
        2   -1    0    0  501    0  0.00000000000E+00  0.00000000000E+00  0.78628132134E+02  0.78628132176E+02  0.25500000920E-02 0. -1.
       -2   -1    0    0    0  501  0.00000000000E+00  0.00000000000E+00 -0.79496713627E+03  0.79496713628E+03  0.25500000920E-02 0.  1.
    10030    2    1    2    0    0  0.00000000000E+00  0.00000000000E+00 -0.71633900414E+03  0.87359526845E+03  0.50002712348E+03 0.  0.
        2    1    3    3  502    0 -0.88146490274E+02  0.64354382027E+02 -0.75115146438E+03  0.75903874254E+03  0.25500000920E-02 0.  1.
       -2    1    3    3    0  502  0.88146490274E+02 -0.64354382027E+02  0.34812460243E+02  0.11455652591E+03  0.25500000920E-02 0. -1.
</event>
<event>
 5   0  0.3211775E-03  0.5001396E+03  0.7818609E-02  0.1013742E+00
       -1   -1    0    0    0  501  0.00000000000E+00  0.00000000000E+00  0.56925898467E+02  0.56925898690E+02  0.50400001928E-02 0. -1.
        1   -1    0    0  501    0  0.00000000000E+00  0.00000000000E+00 -0.10985315211E+04  0.10985315211E+04  0.50400001928E-02 0.  1.
    10030    2    1    2    0    0  0.00000000000E+00  0.00000000000E+00 -0.10416056227E+04  0.11554574198E+04  0.50013955640E+03 0.  0.
        4    1    3    3  502    0  0.29171680077E+02  0.78488655671E+02  0.23567720855E+02  0.86997162907E+02  0.12699999809E+01 0. -1.
       -4    1    3    3    0  502 -0.29171680077E+02 -0.78488655671E+02 -0.10651733435E+04  0.10684602569E+04  0.12699999809E+01 0.  1.
</event>
<event>
 5   0  0.2005125E-03  0.5004057E+03  0.7818609E-02  0.1013673E+00
        3   -1    0    0  501    0  0.00000000000E+00  0.00000000000E+00  0.54213107772E+03  0.54213108713E+03  0.10100000352E+00 0.  1.
       -3   -1    0    0    0  501  0.00000000000E+00  0.00000000000E+00 -0.11547291616E+03  0.11547296034E+03  0.10100000352E+00 0. -1.
    10030    2    1    2    0    0  0.00000000000E+00  0.00000000000E+00  0.42665816155E+03  0.65760404746E+03  0.50040573180E+03 0.  0.
        4    1    3    3  502    0  0.10882159858E+03 -0.21159129871E+03  0.31501039336E+03  0.39477357919E+03  0.12699999809E+01 0. -1.
       -4    1    3    3    0  502 -0.10882159858E+03  0.21159129871E+03  0.11164776820E+03  0.26283046827E+03  0.12699999809E+01 0.  1.
</event>
<event>
 5   0  0.4889251E-03  0.4999201E+03  0.7818609E-02  0.1013800E+00
        2   -1    0    0  501    0  0.00000000000E+00  0.00000000000E+00  0.30440872145E+03  0.30440872146E+03  0.25500000920E-02 0. -1.
       -2   -1    0    0    0  501  0.00000000000E+00  0.00000000000E+00 -0.20525044514E+03  0.20525044516E+03  0.25500000920E-02 0.  1.
    10030    2    1    2    0    0  0.00000000000E+00  0.00000000000E+00  0.99158276302E+02  0.50965916662E+03  0.49992009597E+03 0.  0.
        5    1    3    3  502    0  0.16829831466E+03  0.14364266424E+03  0.16803390133E+03  0.27787590702E+03  0.46999998093E+01 0. -1.
       -5    1    3    3    0  502 -0.16829831466E+03 -0.14364266424E+03 -0.68875625023E+02  0.23178325960E+03  0.46999998093E+01 0.  1.
</event>
<event>
 5   0  0.3211775E-03  0.4996624E+03  0.7818609E-02  0.1013867E+00
        1   -1    0    0  501    0  0.00000000000E+00  0.00000000000E+00  0.63320908845E+02  0.63320909045E+02  0.50400001928E-02 0. -1.
       -1   -1    0    0    0  501  0.00000000000E+00  0.00000000000E+00 -0.98570317860E+03  0.98570317861E+03  0.50400001928E-02 0.  1.
    10030    2    1    2    0    0  0.00000000000E+00  0.00000000000E+00 -0.92238226975E+03  0.10490240877E+04  0.49966237093E+03 0.  0.
        4    1    3    3  502    0 -0.78347050541E+01  0.13007743792E+03 -0.90869013190E+03  0.91798741341E+03  0.12699999809E+01 0.  1.
       -4    1    3    3    0  502  0.78347050541E+01 -0.13007743792E+03 -0.13692137850E+02  0.13103667425E+03  0.12699999809E+01 0. -1.
</event>
<event>
 5   0  0.5095783E-03  0.4999125E+03  0.7818609E-02  0.1013802E+00
        2   -1    0    0  501    0  0.00000000000E+00  0.00000000000E+00  0.61049000888E+03  0.61049000889E+03  0.25500000920E-02 0. -1.
       -2   -1    0    0    0  501  0.00000000000E+00  0.00000000000E+00 -0.10234093356E+03  0.10234093359E+03  0.25500000920E-02 0.  1.
    10030    2    1    2    0    0  0.00000000000E+00  0.00000000000E+00  0.50814907533E+03  0.71283094248E+03  0.49991246214E+03 0.  0.
        4    1    3    3  502    0 -0.69487772387E+02 -0.63846703092E+02  0.58410930769E+03  0.59168424707E+03  0.12699999809E+01 0. -1.
       -4    1    3    3    0  502  0.69487772387E+02  0.63846703092E+02 -0.75960232362E+02  0.12114669541E+03  0.12699999809E+01 0.  1.
</event>
<event>
 5   0  0.3013734E-03  0.4999760E+03  0.7818609E-02  0.1013785E+00
        1   -1    0    0  501    0  0.00000000000E+00  0.00000000000E+00  0.32797270130E+03  0.32797270133E+03  0.50400001928E-02 0. -1.
       -1   -1    0    0    0  501  0.00000000000E+00  0.00000000000E+00 -0.19054634659E+03  0.19054634666E+03  0.50400001928E-02 0.  1.
    10030    2    1    2    0    0  0.00000000000E+00  0.00000000000E+00  0.13742635470E+03  0.51851904800E+03  0.49997599959E+03 0.  0.
        2    1    3    3  502    0 -0.19319898596E+03  0.82009262363E+02 -0.72127147049E+02  0.22193172967E+03  0.25500000920E-02 0.  1.
       -2    1    3    3    0  502  0.19319898596E+03 -0.82009262363E+02  0.20955350175E+03  0.29658731832E+03  0.25500000920E-02 0. -1.
</event>
<event>
 5   0  0.3013734E-03  0.5001111E+03  0.7818609E-02  0.1013750E+00
       -1   -1    0    0    0  501  0.00000000000E+00  0.00000000000E+00  0.73549676205E+02  0.73549676378E+02  0.50400001928E-02 0.  1.
        1   -1    0    0  501    0  0.00000000000E+00  0.00000000000E+00 -0.85014336717E+03  0.85014336718E+03  0.50400001928E-02 0. -1.
    10030    2    1    2    0    0  0.00000000000E+00  0.00000000000E+00 -0.77659369096E+03  0.92369304356E+03  0.50011106554E+03 0.  0.
        2    1    3    3  502    0  0.24129388747E+03 -0.65184557150E+02 -0.40211869753E+03  0.47346722541E+03  0.25500000920E-02 0. -1.
       -2    1    3    3    0  502 -0.24129388747E+03  0.65184557150E+02 -0.37447499343E+03  0.45022581815E+03  0.25500000920E-02 0.  1.
</event>
<event>
 5   0  0.4989875E-03  0.4999098E+03  0.7818609E-02  0.1013802E+00
       -2   -1    0    0    0  501  0.00000000000E+00  0.00000000000E+00  0.29943665846E+03  0.29943665847E+03  0.25500000920E-02 0.  1.
        2   -1    0    0  501    0  0.00000000000E+00  0.00000000000E+00 -0.20864995060E+03  0.20864995062E+03  0.25500000920E-02 0. -1.
    10030    2    1    2    0    0  0.00000000000E+00  0.00000000000E+00  0.90786707856E+02  0.50808660909E+03  0.49990976787E+03 0.  0.
        2    1    3    3  502    0  0.17510534090E+03 -0.79148249523E+00 -0.13589155849E+03  0.22165067681E+03  0.25500000920E-02 0. -1.
       -2    1    3    3    0  502 -0.17510534090E+03  0.79148249523E+00  0.22667826635E+03  0.28643593227E+03  0.25500000920E-02 0.  1.
</event>
<event>
 5   0  0.3057783E-03  0.4998090E+03  0.7818609E-02  0.1013829E+00
        1   -1    0    0  501    0  0.00000000000E+00  0.00000000000E+00  0.29236306767E+03  0.29236306771E+03  0.50400001928E-02 0. -1.
       -1   -1    0    0    0  501  0.00000000000E+00  0.00000000000E+00 -0.21361198020E+03  0.21361198026E+03  0.50400001928E-02 0.  1.
    10030    2    1    2    0    0  0.00000000000E+00  0.00000000000E+00  0.78751087471E+02  0.50597504797E+03  0.49980897890E+03 0.  0.
        5    1    3    3  502    0 -0.75350338906E+02 -0.69221650639E+01 -0.20168941851E+03  0.21546763441E+03  0.46999998093E+01 0.  1.
       -5    1    3    3    0  502  0.75350338906E+02  0.69221650639E+01  0.28044050598E+03  0.29050741356E+03  0.46999998093E+01 0. -1.
</event>
<event>
 5   0  0.3211775E-03  0.5005362E+03  0.7818609E-02  0.1013639E+00
        1   -1    0    0  501    0  0.00000000000E+00  0.00000000000E+00  0.50212540742E+03  0.50212540745E+03  0.50400001928E-02 0.  1.
       -1   -1    0    0    0  501  0.00000000000E+00  0.00000000000E+00 -0.12473800313E+03  0.12473800323E+03  0.50400001928E-02 0. -1.
    10030    2    1    2    0    0  0.00000000000E+00  0.00000000000E+00  0.37738740429E+03  0.62686341068E+03  0.50053619523E+03 0.  0.
        4    1    3    3  502    0  0.36252094066E+01 -0.12670970127E+03 -0.81554400745E+02  0.15073560867E+03  0.12699999809E+01 0. -1.
       -4    1    3    3    0  502 -0.36252094066E+01  0.12670970127E+03  0.45894180503E+03  0.47612780201E+03  0.12699999809E+01 0.  1.
</event>
<event>
 5   0  0.3057783E-03  0.4998438E+03  0.7818609E-02  0.1013820E+00
       -1   -1    0    0    0  501  0.00000000000E+00  0.00000000000E+00  0.14140058963E+03  0.14140058972E+03  0.50400001928E-02 0. -1.
        1   -1    0    0  501    0  0.00000000000E+00  0.00000000000E+00 -0.44173058973E+03  0.44173058976E+03  0.50400001928E-02 0.  1.
    10030    2    1    2    0    0  0.00000000000E+00  0.00000000000E+00 -0.30033000009E+03  0.58313117948E+03  0.49984383914E+03 0.  0.
        5    1    3    3  502    0 -0.20466824215E+03 -0.11686116212E+03 -0.53305080879E+02  0.24167983409E+03  0.46999998093E+01 0.  1.
       -5    1    3    3    0  502  0.20466824215E+03  0.11686116212E+03 -0.24702491921E+03  0.34145134539E+03  0.46999998093E+01 0. -1.
</event>
<event>
 5   0  0.4989875E-03  0.4999966E+03  0.7818609E-02  0.1013780E+00
       -2   -1    0    0    0  501  0.00000000000E+00  0.00000000000E+00  0.13690299872E+04  0.13690299872E+04  0.25500000920E-02 0. -1.
        2   -1    0    0  501    0  0.00000000000E+00  0.00000000000E+00 -0.45652133814E+02  0.45652133885E+02  0.25500000920E-02 0.  1.
    10030    2    1    2    0    0  0.00000000000E+00  0.00000000000E+00  0.13233778534E+04  0.14146821211E+04  0.49999656089E+03 0.  0.
        2    1    3    3  502    0  0.17348233318E+03 -0.51010981960E+02  0.17325419539E+03  0.25043014282E+03  0.25500000920E-02 0.  1.
       -2    1    3    3    0  502 -0.17348233318E+03  0.51010981960E+02  0.11501236580E+04  0.11642519783E+04  0.25500000920E-02 0. -1.
</event>
<event>
 5   0  0.4989875E-03  0.5008786E+03  0.7818609E-02  0.1013550E+00
        2   -1    0    0  501    0  0.00000000000E+00  0.00000000000E+00  0.12169738054E+04  0.12169738054E+04  0.25500000920E-02 0.  1.
       -2   -1    0    0    0  501  0.00000000000E+00  0.00000000000E+00 -0.51537555703E+02  0.51537555766E+02  0.25500000920E-02 0. -1.
    10030    2    1    2    0    0  0.00000000000E+00  0.00000000000E+00  0.11654362497E+04  0.12685113611E+04  0.50087864927E+03 0.  0.
        2    1    3    3  502    0  0.24787520181E+02 -0.20305687699E+03  0.21682200545E+03  0.29809109095E+03  0.25500000920E-02 0. -1.
       -2    1    3    3    0  502 -0.24787520181E+02  0.20305687699E+03  0.94861424421E+03  0.97042027018E+03  0.25500000920E-02 0.  1.
</event>
<event>
 5   0  0.3211775E-03  0.4999275E+03  0.7818609E-02  0.1013798E+00
       -1   -1    0    0    0  501  0.00000000000E+00  0.00000000000E+00  0.72170804662E+03  0.72170804664E+03  0.50400001928E-02 0. -1.
        1   -1    0    0  501    0  0.00000000000E+00  0.00000000000E+00 -0.86575007534E+02  0.86575007680E+02  0.50400001928E-02 0.  1.
    10030    2    1    2    0    0  0.00000000000E+00  0.00000000000E+00  0.63513303909E+03  0.80828305432E+03  0.49992751330E+03 0.  0.
        4    1    3    3  502    0 -0.82184196822E+02  0.44829071347E+02  0.69228904429E+03  0.69859116913E+03  0.12699999809E+01 0. -1.
       -4    1    3    3    0  502  0.82184196822E+02 -0.44829071347E+02 -0.57156005203E+02  0.10969188519E+03  0.12699999809E+01 0.  1.
</event>
<event>
 5   0  0.5118882E-03  0.5004667E+03  0.7818609E-02  0.1013657E+00
       -2   -1    0    0    0  501  0.00000000000E+00  0.00000000000E+00  0.49088261896E+02  0.49088261962E+02  0.25500000920E-02 0. -1.
        2   -1    0    0  501    0  0.00000000000E+00  0.00000000000E+00 -0.12755946659E+04  0.12755946659E+04  0.25500000920E-02 0.  1.
    10030    2    1    2    0    0  0.00000000000E+00  0.00000000000E+00 -0.12265064040E+04  0.13246829279E+04  0.50046668252E+03 0.  0.
        3    1    3    3  502    0 -0.23918835393E+03 -0.59462536392E+02 -0.72770971224E+03  0.76831523308E+03  0.10100000352E+00 0.  1.
       -3    1    3    3    0  502  0.23918835393E+03  0.59462536392E+02 -0.49879669176E+03  0.55636769479E+03  0.10100000352E+00 0. -1.
</event>
<event>
 5   0  0.5118882E-03  0.4993800E+03  0.7818609E-02  0.1013941E+00
        2   -1    0    0  501    0  0.00000000000E+00  0.00000000000E+00  0.44020021450E+03  0.44020021451E+03  0.25500000920E-02 0.  1.
       -2   -1    0    0    0  501  0.00000000000E+00  0.00000000000E+00 -0.14162893537E+03  0.14162893539E+03  0.25500000920E-02 0. -1.
    10030    2    1    2    0    0  0.00000000000E+00  0.00000000000E+00  0.29857127914E+03  0.58182914990E+03  0.49937996651E+03 0.  0.
        3    1    3    3  502    0  0.94807733813E+02 -0.22724586806E+03  0.10102326891E+03  0.26614827071E+03  0.10100000352E+00 0. -1.
       -3    1    3    3    0  502 -0.94807733813E+02  0.22724586806E+03  0.19754801022E+03  0.31568087919E+03  0.10100000352E+00 0.  1.
</event>
<event>
 5   0  0.5095783E-03  0.5000032E+03  0.7818609E-02  0.1013778E+00
        2   -1    0    0  501    0  0.00000000000E+00  0.00000000000E+00  0.15038088849E+04  0.15038088849E+04  0.25500000920E-02 0.  1.
       -2   -1    0    0    0  501  0.00000000000E+00  0.00000000000E+00 -0.41561671153E+02  0.41561671231E+02  0.25500000920E-02 0. -1.
    10030    2    1    2    0    0  0.00000000000E+00  0.00000000000E+00  0.14622472137E+04  0.15453705561E+04  0.50000324163E+03 0.  0.
        4    1    3    3  502    0 -0.18797373945E+03  0.16429652698E+03  0.77162526423E+03  0.81100840736E+03  0.12699999809E+01 0. -1.
       -4    1    3    3    0  502  0.18797373945E+03 -0.16429652698E+03  0.69062194948E+03  0.73436214875E+03  0.12699999809E+01 0.  1.
</event>
<event>
 5   0  0.3211775E-03  0.5001879E+03  0.7818609E-02  0.1013730E+00
        1   -1    0    0  501    0  0.00000000000E+00  0.00000000000E+00  0.37578031733E+03  0.37578031736E+03  0.50400001928E-02 0.  1.
       -1   -1    0    0    0  501  0.00000000000E+00  0.00000000000E+00 -0.16644557738E+03  0.16644557745E+03  0.50400001928E-02 0. -1.
    10030    2    1    2    0    0  0.00000000000E+00  0.00000000000E+00  0.20933473995E+03  0.54222589482E+03  0.50018785237E+03 0.  0.
        4    1    3    3  502    0  0.21475541495E+03  0.10380238505E+03  0.18615504417E+03  0.30257253141E+03  0.12699999809E+01 0.  1.
       -4    1    3    3    0  502 -0.21475541495E+03 -0.10380238505E+03  0.23179695780E+02  0.23965336341E+03  0.12699999809E+01 0. -1.
</event>
<event>
 5   0  0.3211775E-03  0.4999017E+03  0.7818609E-02  0.1013805E+00
       -1   -1    0    0    0  501  0.00000000000E+00  0.00000000000E+00  0.17843459040E+03  0.17843459047E+03  0.50400001928E-02 0. -1.
        1   -1    0    0  501    0  0.00000000000E+00  0.00000000000E+00 -0.35013071420E+03  0.35013071423E+03  0.50400001928E-02 0.  1.
    10030    2    1    2    0    0  0.00000000000E+00  0.00000000000E+00 -0.17169612380E+03  0.52856530470E+03  0.49990171274E+03 0.  0.
        4    1    3    3  502    0 -0.16548503794E+03 -0.18596828754E+03 -0.10959269040E+03  0.27199572136E+03  0.12699999809E+01 0.  1.
       -4    1    3    3    0  502  0.16548503794E+03  0.18596828754E+03 -0.62103433403E+02  0.25656958333E+03  0.12699999809E+01 0. -1.
</event>
<event>
 5   0  0.4889251E-03  0.5007817E+03  0.7818609E-02  0.1013575E+00
        2   -1    0    0  501    0  0.00000000000E+00  0.00000000000E+00  0.42485395270E+03  0.42485395270E+03  0.25500000920E-02 0. -1.
       -2   -1    0    0    0  501  0.00000000000E+00  0.00000000000E+00 -0.14756974475E+03  0.14756974477E+03  0.25500000920E-02 0.  1.
    10030    2    1    2    0    0  0.00000000000E+00  0.00000000000E+00  0.27728420794E+03  0.57242369748E+03  0.50078174633E+03 0.  0.
        5    1    3    3  502    0 -0.99900045667E+02  0.22044693619E+03  0.21180357158E+03  0.32165154086E+03  0.46999998093E+01 0. -1.
       -5    1    3    3    0  502  0.99900045667E+02 -0.22044693619E+03  0.65480636361E+02  0.25077215662E+03  0.46999998093E+01 0.  1.
</event>
<event>
 5   0  0.3211775E-03  0.4999553E+03  0.7818609E-02  0.1013791E+00
        1   -1    0    0  501    0  0.00000000000E+00  0.00000000000E+00  0.43182085210E+03  0.43182085213E+03  0.50400001928E-02 0. -1.
       -1   -1    0    0    0  501  0.00000000000E+00  0.00000000000E+00 -0.14471005839E+03  0.14471005848E+03  0.50400001928E-02 0.  1.
    10030    2    1    2    0    0  0.00000000000E+00  0.00000000000E+00  0.28711079371E+03  0.57653091061E+03  0.49995528103E+03 0.  0.
        4    1    3    3  502    0  0.18745021346E+03 -0.14211640095E+02  0.33355714393E+03  0.38288579813E+03  0.12699999809E+01 0. -1.
       -4    1    3    3    0  502 -0.18745021346E+03  0.14211640095E+02 -0.46446350224E+02  0.19364511248E+03  0.12699999809E+01 0.  1.
</event>
<event>
 5   0  0.5118882E-03  0.4999184E+03  0.7818609E-02  0.1013800E+00
       -2   -1    0    0    0  501  0.00000000000E+00  0.00000000000E+00  0.39697130426E+02  0.39697130508E+02  0.25500000920E-02 0.  1.
        2   -1    0    0  501    0  0.00000000000E+00  0.00000000000E+00 -0.15739069942E+04  0.15739069942E+04  0.25500000920E-02 0. -1.
    10030    2    1    2    0    0  0.00000000000E+00  0.00000000000E+00 -0.15342098638E+04  0.16136041247E+04  0.49991835851E+03 0.  0.
        3    1    3    3  502    0  0.81380283713E+02 -0.11413392159E+03 -0.99109705908E+02  0.17167424571E+03  0.10100000352E+00 0.  1.
       -3    1    3    3    0  502 -0.81380283713E+02  0.11413392159E+03 -0.14351001579E+04  0.14419298790E+04  0.10100000352E+00 0. -1.
</event>
<event>
 5   0  0.4889251E-03  0.5003655E+03  0.7818609E-02  0.1013684E+00
        2   -1    0    0  501    0  0.00000000000E+00  0.00000000000E+00  0.34729611846E+03  0.34729611847E+03  0.25500000920E-02 0. -1.
       -2   -1    0    0    0  501  0.00000000000E+00  0.00000000000E+00 -0.18022491119E+03  0.18022491121E+03  0.25500000920E-02 0.  1.
    10030    2    1    2    0    0  0.00000000000E+00  0.00000000000E+00  0.16707120727E+03  0.52752102968E+03  0.50036551485E+03 0.  0.
        5    1    3    3  502    0 -0.12743877200E+03  0.94803332615E+02 -0.12018991643E+03  0.19923859690E+03  0.46999998093E+01 0.  1.
       -5    1    3    3    0  502  0.12743877200E+03 -0.94803332615E+02  0.28726112370E+03  0.32828243278E+03  0.46999998093E+01 0. -1.
</event>
<event>
 5   0  0.3211775E-03  0.4996658E+03  0.7818609E-02  0.1013866E+00
        1   -1    0    0  501    0  0.00000000000E+00  0.00000000000E+00  0.72235052276E+03  0.72235052278E+03  0.50400001928E-02 0.  1.
       -1   -1    0    0    0  501  0.00000000000E+00  0.00000000000E+00 -0.86407477643E+02  0.86407477790E+02  0.50400001928E-02 0. -1.
    10030    2    1    2    0    0  0.00000000000E+00  0.00000000000E+00  0.63594304512E+03  0.80875800057E+03  0.49966583518E+03 0.  0.
        4    1    3    3  502    0  0.94422000591E+02 -0.65929457738E+01  0.69219990955E+03  0.69864247567E+03  0.12699999809E+01 0.  1.
       -4    1    3    3    0  502 -0.94422000591E+02  0.65929457738E+01 -0.56256864427E+02  0.11011552490E+03  0.12699999809E+01 0. -1.
</event>
<event>
 5   0  0.3055293E-03  0.5000093E+03  0.7818609E-02  0.1013776E+00
       -1   -1    0    0    0  501  0.00000000000E+00  0.00000000000E+00  0.62851490074E+03  0.62851490076E+03  0.50400001928E-02 0. -1.
        1   -1    0    0  501    0  0.00000000000E+00  0.00000000000E+00 -0.99444453899E+02  0.99444454027E+02  0.50400001928E-02 0.  1.
    10030    2    1    2    0    0  0.00000000000E+00  0.00000000000E+00  0.52907044684E+03  0.72795935478E+03  0.50000928441E+03 0.  0.
        3    1    3    3  502    0  0.14666185408E+03  0.17628647592E+03  0.40950935992E+03  0.46934480620E+03  0.10100000352E+00 0. -1.
       -3    1    3    3    0  502 -0.14666185408E+03 -0.17628647592E+03  0.11956108691E+03  0.25861454859E+03  0.10100000352E+00 0.  1.
</event>
<event>
 5   0  0.3211775E-03  0.4998573E+03  0.7818609E-02  0.1013816E+00
       -1   -1    0    0    0  501  0.00000000000E+00  0.00000000000E+00  0.34658583886E+03  0.34658583890E+03  0.50400001928E-02 0.  1.
        1   -1    0    0  501    0  0.00000000000E+00  0.00000000000E+00 -0.18022755384E+03  0.18022755391E+03  0.50400001928E-02 0. -1.
    10030    2    1    2    0    0  0.00000000000E+00  0.00000000000E+00  0.16635828503E+03  0.52681339281E+03  0.49985725146E+03 0.  0.
        4    1    3    3  502    0 -0.15886579608E+03 -0.19231390052E+03  0.99497250299E+02  0.26855966416E+03  0.12699999809E+01 0. -1.
       -4    1    3    3    0  502  0.15886579608E+03  0.19231390052E+03  0.66861034729E+02  0.25825372865E+03  0.12699999809E+01 0.  1.
</event>
<event>
 5   0  0.4889251E-03  0.5003285E+03  0.7818609E-02  0.1013693E+00
        2   -1    0    0  501    0  0.00000000000E+00  0.00000000000E+00  0.52159378198E+03  0.52159378198E+03  0.25500000920E-02 0. -1.
       -2   -1    0    0    0  501  0.00000000000E+00  0.00000000000E+00 -0.11998254188E+03  0.11998254191E+03  0.25500000920E-02 0.  1.
    10030    2    1    2    0    0  0.00000000000E+00  0.00000000000E+00  0.40161124010E+03  0.64157632389E+03  0.50032848330E+03 0.  0.
        5    1    3    3  502    0  0.10147024162E+03 -0.22743197115E+03  0.23056368258E+03  0.33941598837E+03  0.46999998093E+01 0.  1.
       -5    1    3    3    0  502 -0.10147024162E+03  0.22743197115E+03  0.17104755751E+03  0.30216033552E+03  0.46999998093E+01 0. -1.
</event>
<event>
 5   0  0.3211775E-03  0.4999015E+03  0.7818609E-02  0.1013805E+00
        1   -1    0    0  501    0  0.00000000000E+00  0.00000000000E+00  0.78372732709E+02  0.78372732871E+02  0.50400001928E-02 0.  1.
       -1   -1    0    0    0  501  0.00000000000E+00  0.00000000000E+00 -0.79715709842E+03  0.79715709843E+03  0.50400001928E-02 0. -1.
    10030    2    1    2    0    0  0.00000000000E+00  0.00000000000E+00 -0.71878436571E+03  0.87552983131E+03  0.49990151142E+03 0.  0.
        4    1    3    3  502    0 -0.55406976700E+02 -0.18540839415E+03 -0.82318186646E+02  0.21029527442E+03  0.12699999809E+01 0.  1.
       -4    1    3    3    0  502  0.55406976700E+02  0.18540839415E+03 -0.63646617906E+03  0.66523455689E+03  0.12699999809E+01 0. -1.
</event>
<event>
 5   0  0.2005125E-03  0.5000829E+03  0.7818609E-02  0.1013757E+00
        3   -1    0    0  501    0  0.00000000000E+00  0.00000000000E+00  0.23797663538E+03  0.23797665682E+03  0.10100000352E+00 0.  1.
       -3   -1    0    0    0  501  0.00000000000E+00  0.00000000000E+00 -0.26271785395E+03  0.26271787337E+03  0.10100000352E+00 0. -1.
    10030    2    1    2    0    0  0.00000000000E+00  0.00000000000E+00 -0.24741218566E+02  0.50069453018E+03  0.50008287779E+03 0.  0.
        2    1    3    3  502    0  0.10421056380E+03 -0.79240554487E+02 -0.22566124467E+03  0.26088676555E+03  0.25500000920E-02 0. -1.
       -2    1    3    3    0  502 -0.10421056380E+03  0.79240554487E+02  0.20092002611E+03  0.23980776464E+03  0.25500000920E-02 0.  1.
</event>
<event>
 5   0  0.3013734E-03  0.4992681E+03  0.7818609E-02  0.1013970E+00
        1   -1    0    0  501    0  0.00000000000E+00  0.00000000000E+00  0.11105268025E+04  0.11105268025E+04  0.50400001928E-02 0.  1.
       -1   -1    0    0    0  501  0.00000000000E+00  0.00000000000E+00 -0.56114955733E+02  0.56114955959E+02  0.50400001928E-02 0. -1.
    10030    2    1    2    0    0  0.00000000000E+00  0.00000000000E+00  0.10544118468E+04  0.11666417585E+04  0.49926811435E+03 0.  0.
        2    1    3    3  502    0 -0.11016364172E+03  0.41464054103E+02  0.10416092354E+04  0.10482390448E+04  0.25500000920E-02 0.  1.
       -2    1    3    3    0  502  0.11016364172E+03 -0.41464054103E+02  0.12802611346E+02  0.11840271366E+03  0.25500000920E-02 0. -1.
</event>
<event>
 5   0  0.3057783E-03  0.4999826E+03  0.7818609E-02  0.1013783E+00
        1   -1    0    0  501    0  0.00000000000E+00  0.00000000000E+00  0.40117649862E+03  0.40117649865E+03  0.50400001928E-02 0.  1.
       -1   -1    0    0    0  501  0.00000000000E+00  0.00000000000E+00 -0.15578094392E+03  0.15578094400E+03  0.50400001928E-02 0. -1.
    10030    2    1    2    0    0  0.00000000000E+00  0.00000000000E+00  0.24539555470E+03  0.55695744266E+03  0.49998261436E+03 0.  0.
        5    1    3    3  502    0 -0.96851556565E+02 -0.28301414787E+02  0.37743139871E+03  0.39071440313E+03  0.46999998093E+01 0.  1.
       -5    1    3    3    0  502  0.96851556565E+02  0.28301414787E+02 -0.13203584401E+03  0.16624303952E+03  0.46999998093E+01 0. -1.
</event>
<event>
 5   0  0.4989875E-03  0.5000158E+03  0.7818609E-02  0.1013775E+00
       -2   -1    0    0    0  501  0.00000000000E+00  0.00000000000E+00  0.32928256851E+03  0.32928256852E+03  0.25500000920E-02 0.  1.
        2   -1    0    0  501    0  0.00000000000E+00  0.00000000000E+00 -0.18981861380E+03  0.18981861381E+03  0.25500000920E-02 0. -1.
    10030    2    1    2    0    0  0.00000000000E+00  0.00000000000E+00  0.13946395471E+03  0.51910118233E+03  0.50001584258E+03 0.  0.
        2    1    3    3  502    0  0.53702223203E+02 -0.15267365040E+03 -0.12809526292E+03  0.20640147454E+03  0.25500000920E-02 0. -1.
       -2    1    3    3    0  502 -0.53702223203E+02  0.15267365040E+03  0.26755921763E+03  0.31269970779E+03  0.25500000920E-02 0.  1.
</event>
<event>
 5   0  0.5095783E-03  0.4996249E+03  0.7818609E-02  0.1013877E+00
        2   -1    0    0  501    0  0.00000000000E+00  0.00000000000E+00  0.12607656264E+04  0.12607656264E+04  0.25500000920E-02 0. -1.
       -2   -1    0    0    0  501  0.00000000000E+00  0.00000000000E+00 -0.49498704980E+02  0.49498705046E+02  0.25500000920E-02 0.  1.
    10030    2    1    2    0    0  0.00000000000E+00  0.00000000000E+00  0.12112669214E+04  0.13102643314E+04  0.49962492265E+03 0.  0.
        4    1    3    3  502    0  0.21893937556E+02 -0.20563504237E+03  0.97315301893E+03  0.99488367476E+03  0.12699999809E+01 0. -1.
       -4    1    3    3    0  502 -0.21893937556E+02  0.20563504237E+03  0.23811390248E+03  0.31538065668E+03  0.12699999809E+01 0.  1.
</event>
<event>
 5   0  0.5118882E-03  0.4998338E+03  0.7818609E-02  0.1013822E+00
        2   -1    0    0  501    0  0.00000000000E+00  0.00000000000E+00  0.76315870005E+03  0.76315870005E+03  0.25500000920E-02 0. -1.
       -2   -1    0    0    0  501  0.00000000000E+00  0.00000000000E+00 -0.81842035437E+02  0.81842035476E+02  0.25500000920E-02 0.  1.
    10030    2    1    2    0    0  0.00000000000E+00  0.00000000000E+00  0.68131666461E+03  0.84500073553E+03  0.49983381795E+03 0.  0.
        3    1    3    3  502    0  0.21507184226E+03  0.84233312790E+02  0.50199249533E+03  0.55258268512E+03  0.10100000352E+00 0. -1.
       -3    1    3    3    0  502 -0.21507184226E+03 -0.84233312790E+02  0.17932416928E+03  0.29241805041E+03  0.10100000352E+00 0.  1.
</event>
<event>
 5   0  0.3211775E-03  0.5000179E+03  0.7818609E-02  0.1013774E+00
        1   -1    0    0  501    0  0.00000000000E+00  0.00000000000E+00  0.11333916994E+04  0.11333916994E+04  0.50400001928E-02 0. -1.
       -1   -1    0    0    0  501  0.00000000000E+00  0.00000000000E+00 -0.55148158889E+02  0.55148159119E+02  0.50400001928E-02 0.  1.
    10030    2    1    2    0    0  0.00000000000E+00  0.00000000000E+00  0.10782435405E+04  0.11885398586E+04  0.50001786235E+03 0.  0.
        4    1    3    3  502    0 -0.36135763326E+02 -0.15043868446E+03  0.72326580164E+02  0.17079326179E+03  0.12699999809E+01 0.  1.
       -4    1    3    3    0  502  0.36135763326E+02  0.15043868446E+03  0.10059169604E+04  0.10177465968E+04  0.12699999809E+01 0. -1.
</event>
<event>
 5   0  0.3055293E-03  0.5000715E+03  0.7818609E-02  0.1013760E+00
       -1   -1    0    0    0  501  0.00000000000E+00  0.00000000000E+00  0.12077218122E+03  0.12077218133E+03  0.50400001928E-02 0. -1.
        1   -1    0    0  501    0  0.00000000000E+00  0.00000000000E+00 -0.51765137129E+03  0.51765137131E+03  0.50400001928E-02 0.  1.
    10030    2    1    2    0    0  0.00000000000E+00  0.00000000000E+00 -0.39687919006E+03  0.63842355264E+03  0.50007153594E+03 0.  0.
        3    1    3    3  502    0 -0.24945133981E+03 -0.16318542708E+02 -0.20490023590E+03  0.32322806598E+03  0.10100000352E+00 0. -1.
       -3    1    3    3    0  502  0.24945133981E+03  0.16318542708E+02 -0.19197895417E+03  0.31519548666E+03  0.10100000352E+00 0.  1.
</event>
<event>
 5   0  0.3057783E-03  0.5000314E+03  0.7818609E-02  0.1013771E+00
        1   -1    0    0  501    0  0.00000000000E+00  0.00000000000E+00  0.15440361409E+03  0.15440361417E+03  0.50400001928E-02 0. -1.
       -1   -1    0    0    0  501  0.00000000000E+00  0.00000000000E+00 -0.40483407883E+03  0.40483407887E+03  0.50400001928E-02 0.  1.
    10030    2    1    2    0    0  0.00000000000E+00  0.00000000000E+00 -0.25043046474E+03  0.55923769304E+03  0.50003137866E+03 0.  0.
        5    1    3    3  502    0  0.14956557945E+03  0.52993816030E+02 -0.34123700676E+03  0.37635487492E+03  0.46999998093E+01 0.  1.
       -5    1    3    3    0  502 -0.14956557945E+03 -0.52993816030E+02  0.90806542018E+02  0.18288281812E+03  0.46999998093E+01 0. -1.
</event>
<event>
 5   0  0.3057783E-03  0.4999056E+03  0.7818609E-02  0.1013804E+00
       -1   -1    0    0    0  501  0.00000000000E+00  0.00000000000E+00  0.18643492043E+03  0.18643492050E+03  0.50400001928E-02 0. -1.
        1   -1    0    0  501    0  0.00000000000E+00  0.00000000000E+00 -0.33511101780E+03  0.33511101784E+03  0.50400001928E-02 0.  1.
    10030    2    1    2    0    0  0.00000000000E+00  0.00000000000E+00 -0.14867609737E+03  0.52154593833E+03  0.49990557495E+03 0.  0.
        5    1    3    3  502    0 -0.14954060397E+03  0.35201031869E+02  0.13130581499E+03  0.20215046854E+03  0.46999998093E+01 0. -1.
       -5    1    3    3    0  502  0.14954060397E+03 -0.35201031869E+02 -0.27998191236E+03  0.31939546980E+03  0.46999998093E+01 0.  1.
</event>
<event>
 5   0  0.4989875E-03  0.5000227E+03  0.7818609E-02  0.1013773E+00
        2   -1    0    0  501    0  0.00000000000E+00  0.00000000000E+00  0.52259049359E+03  0.52259049359E+03  0.25500000920E-02 0. -1.
       -2   -1    0    0    0  501  0.00000000000E+00  0.00000000000E+00 -0.11960736283E+03  0.11960736286E+03  0.25500000920E-02 0.  1.
    10030    2    1    2    0    0  0.00000000000E+00  0.00000000000E+00  0.40298313076E+03  0.64219785645E+03  0.50002268265E+03 0.  0.
        2    1    3    3  502    0  0.19416718136E+01  0.10898296787E+03 -0.87483257182E+02  0.13976543803E+03  0.25500000920E-02 0.  1.
       -2    1    3    3    0  502 -0.19416718136E+01 -0.10898296787E+03  0.49046638794E+03  0.50243241842E+03  0.25500000920E-02 0. -1.
</event>
<event>
 5   0  0.4989875E-03  0.4998356E+03  0.7818609E-02  0.1013822E+00
        2   -1    0    0  501    0  0.00000000000E+00  0.00000000000E+00  0.93665958134E+03  0.93665958134E+03  0.25500000920E-02 0.  1.
       -2   -1    0    0    0  501  0.00000000000E+00  0.00000000000E+00 -0.66682606688E+02  0.66682606737E+02  0.25500000920E-02 0. -1.
    10030    2    1    2    0    0  0.00000000000E+00  0.00000000000E+00  0.86997697465E+03  0.10033421881E+04  0.49983558292E+03 0.  0.
        2    1    3    3  502    0  0.14826903748E+03  0.10842436187E+03  0.94808134150E+02  0.20670784221E+03  0.25500000920E-02 0. -1.
       -2    1    3    3    0  502 -0.14826903748E+03 -0.10842436187E+03  0.77516884050E+03  0.79663434586E+03  0.25500000920E-02 0.  1.
</event>
<event>
 5   0  0.2863538E-03  0.4998651E+03  0.7818609E-02  0.1013814E+00
       -1   -1    0    0    0  501  0.00000000000E+00  0.00000000000E+00  0.13815286257E+03  0.13815286267E+03  0.50400001928E-02 0.  1.
        1   -1    0    0  501    0  0.00000000000E+00  0.00000000000E+00 -0.45215334909E+03  0.45215334912E+03  0.50400001928E-02 0. -1.
    10030    2    1    2    0    0  0.00000000000E+00  0.00000000000E+00 -0.31400048652E+03  0.59030621179E+03  0.49986509994E+03 0.  0.
        1    1    3    3  502    0  0.22797824513E+03  0.53578718741E+02 -0.53903406901E+02  0.24031299727E+03  0.50400001928E-02 0.  1.
       -1    1    3    3    0  502 -0.22797824513E+03 -0.53578718741E+02 -0.26009707962E+03  0.34999321452E+03  0.50400001928E-02 0. -1.
</event>
<event>
 5   0  0.2863538E-03  0.5001768E+03  0.7818609E-02  0.1013733E+00
        1   -1    0    0  501    0  0.00000000000E+00  0.00000000000E+00  0.29103865670E+03  0.29103865675E+03  0.50400001928E-02 0. -1.
       -1   -1    0    0    0  501  0.00000000000E+00  0.00000000000E+00 -0.21489998578E+03  0.21489998584E+03  0.50400001928E-02 0.  1.
    10030    2    1    2    0    0  0.00000000000E+00  0.00000000000E+00  0.76138670923E+02  0.50593864259E+03  0.50017678160E+03 0.  0.
        1    1    3    3  502    0  0.13340957128E+03  0.13561029496E+03 -0.12614594145E+03  0.22825657576E+03  0.50400001928E-02 0.  1.
       -1    1    3    3    0  502 -0.13340957128E+03 -0.13561029496E+03  0.20228461237E+03  0.27768206683E+03  0.50400001928E-02 0. -1.
</event>
<event>
 5   0  0.5118882E-03  0.4997739E+03  0.7818609E-02  0.1013838E+00
        2   -1    0    0  501    0  0.00000000000E+00  0.00000000000E+00  0.55486286957E+03  0.55486286958E+03  0.25500000920E-02 0.  1.
       -2   -1    0    0    0  501  0.00000000000E+00  0.00000000000E+00 -0.11253859498E+03  0.11253859501E+03  0.25500000920E-02 0. -1.
    10030    2    1    2    0    0  0.00000000000E+00  0.00000000000E+00  0.44232427459E+03  0.66740146459E+03  0.49977389992E+03 0.  0.
        3    1    3    3  502    0 -0.86844739289E+01  0.95775065498E+02 -0.86837200844E+02  0.12957234624E+03  0.10100000352E+00 0. -1.
       -3    1    3    3    0  502  0.86844739289E+01 -0.95775065498E+02  0.52916147543E+03  0.53782911835E+03  0.10100000352E+00 0.  1.
</event>
<event>
 5   0  0.4889251E-03  0.5000433E+03  0.7818609E-02  0.1013768E+00
       -2   -1    0    0    0  501  0.00000000000E+00  0.00000000000E+00  0.11188139668E+03  0.11188139671E+03  0.25500000920E-02 0.  1.
        2   -1    0    0  501    0  0.00000000000E+00  0.00000000000E+00 -0.55872410710E+03  0.55872410711E+03  0.25500000920E-02 0. -1.
    10030    2    1    2    0    0  0.00000000000E+00  0.00000000000E+00 -0.44684271042E+03  0.67060550382E+03  0.50004333202E+03 0.  0.
        5    1    3    3  502    0  0.34426998242E+02  0.24653224202E+03 -0.19268192649E+03  0.31482023340E+03  0.46999998093E+01 0. -1.
       -5    1    3    3    0  502 -0.34426998242E+02 -0.24653224202E+03 -0.25416078393E+03  0.35578527042E+03  0.46999998093E+01 0.  1.
</event>
<event>
 5   0  0.3013734E-03  0.5003121E+03  0.7818609E-02  0.1013697E+00
        1   -1    0    0  501    0  0.00000000000E+00  0.00000000000E+00  0.65065192104E+03  0.65065192106E+03  0.50400001928E-02 0.  1.
       -1   -1    0    0    0  501  0.00000000000E+00  0.00000000000E+00 -0.96177449527E+02  0.96177449659E+02  0.50400001928E-02 0. -1.
    10030    2    1    2    0    0  0.00000000000E+00  0.00000000000E+00  0.55447447151E+03  0.74682937072E+03  0.50031207202E+03 0.  0.
        2    1    3    3  502    0 -0.11993632705E+03 -0.13013799942E+03  0.13326548550E+02  0.17747737417E+03  0.25500000920E-02 0. -1.
       -2    1    3    3    0  502  0.11993632705E+03  0.13013799942E+03  0.54114792296E+03  0.56935199655E+03  0.25500000920E-02 0.  1.
</event>
<event>
 5   0  0.3013734E-03  0.4998513E+03  0.7818609E-02  0.1013818E+00
       -1   -1    0    0    0  501  0.00000000000E+00  0.00000000000E+00  0.10549778905E+03  0.10549778917E+03  0.50400001928E-02 0. -1.
        1   -1    0    0  501    0  0.00000000000E+00  0.00000000000E+00 -0.59207718156E+03  0.59207718158E+03  0.50400001928E-02 0.  1.
    10030    2    1    2    0    0  0.00000000000E+00  0.00000000000E+00 -0.48657939250E+03  0.69757497075E+03  0.49985131250E+03 0.  0.
        2    1    3    3  502    0  0.20848594054E+03 -0.10218266060E+03 -0.37237115656E+03  0.43882566217E+03  0.25500000920E-02 0.  1.
       -2    1    3    3    0  502 -0.20848594054E+03  0.10218266060E+03 -0.11420823594E+03  0.25874930858E+03  0.25500000920E-02 0. -1.
</event>
<event>
 5   0  0.3055293E-03  0.5001079E+03  0.7818609E-02  0.1013751E+00
        1   -1    0    0  501    0  0.00000000000E+00  0.00000000000E+00  0.57308939904E+03  0.57308939907E+03  0.50400001928E-02 0.  1.
       -1   -1    0    0    0  501  0.00000000000E+00  0.00000000000E+00 -0.10910510587E+03  0.10910510599E+03  0.50400001928E-02 0. -1.
    10030    2    1    2    0    0  0.00000000000E+00  0.00000000000E+00  0.46398429317E+03  0.68219450505E+03  0.50010790677E+03 0.  0.
        3    1    3    3  502    0 -0.90438443255E+02  0.50493872995E+02 -0.78465198957E+02  0.12994437609E+03  0.10100000352E+00 0. -1.
       -3    1    3    3    0  502  0.90438443255E+02 -0.50493872995E+02  0.54244949213E+03  0.55225012897E+03  0.10100000352E+00 0.  1.
</event>
<event>
 5   0  0.5118882E-03  0.5000043E+03  0.7818609E-02  0.1013778E+00
       -2   -1    0    0    0  501  0.00000000000E+00  0.00000000000E+00  0.25430910767E+02  0.25430910895E+02  0.25500000920E-02 0. -1.
        2   -1    0    0  501    0  0.00000000000E+00  0.00000000000E+00 -0.24576810738E+04  0.24576810738E+04  0.25500000920E-02 0.  1.
    10030    2    1    2    0    0  0.00000000000E+00  0.00000000000E+00 -0.24322501631E+04  0.24831119847E+04  0.50000427295E+03 0.  0.
        3    1    3    3  502    0  0.42504062819E+02 -0.22154383800E+03 -0.68095615825E+03  0.71734898562E+03  0.10100000352E+00 0. -1.
       -3    1    3    3    0  502 -0.42504062819E+02  0.22154383800E+03 -0.17512940048E+04  0.17657629991E+04  0.10100000352E+00 0.  1.
</event>
<event>
 5   0  0.3057783E-03  0.4999497E+03  0.7818609E-02  0.1013792E+00
        1   -1    0    0  501    0  0.00000000000E+00  0.00000000000E+00  0.12247568113E+04  0.12247568113E+04  0.50400001928E-02 0. -1.
       -1   -1    0    0    0  501  0.00000000000E+00  0.00000000000E+00 -0.51020265637E+02  0.51020265886E+02  0.50400001928E-02 0.  1.
    10030    2    1    2    0    0  0.00000000000E+00  0.00000000000E+00  0.11737365457E+04  0.12757770772E+04  0.49994966955E+03 0.  0.
        5    1    3    3  502    0 -0.31934032379E+02 -0.17540685531E+03  0.10338213112E+04  0.10490929133E+04  0.46999998093E+01 0. -1.
       -5    1    3    3    0  502  0.31934032379E+02  0.17540685531E+03  0.13991523447E+03  0.22668416387E+03  0.46999998093E+01 0.  1.
</event>
<event>
 5   0  0.3013734E-03  0.5011373E+03  0.7818609E-02  0.1013482E+00
        1   -1    0    0  501    0  0.00000000000E+00  0.00000000000E+00  0.12920063530E+04  0.12920063530E+04  0.50400001928E-02 0.  1.
       -1   -1    0    0    0  501  0.00000000000E+00  0.00000000000E+00 -0.48594692631E+02  0.48594692892E+02  0.50400001928E-02 0. -1.
    10030    2    1    2    0    0  0.00000000000E+00  0.00000000000E+00  0.12434116604E+04  0.13406010459E+04  0.50113731365E+03 0.  0.
        2    1    3    3  502    0  0.10631381740E+03  0.22004055492E+03  0.47362466524E+03  0.53295477961E+03  0.25500000920E-02 0.  1.
       -2    1    3    3    0  502 -0.10631381740E+03 -0.22004055492E+03  0.76978699513E+03  0.80764626630E+03  0.25500000920E-02 0. -1.
</event>
<event>
 5   0  0.5118882E-03  0.5000833E+03  0.7818609E-02  0.1013757E+00
        2   -1    0    0  501    0  0.00000000000E+00  0.00000000000E+00  0.12889514381E+04  0.12889514381E+04  0.25500000920E-02 0. -1.
       -2   -1    0    0    0  501  0.00000000000E+00  0.00000000000E+00 -0.48505184017E+02  0.48505184084E+02  0.25500000920E-02 0.  1.
    10030    2    1    2    0    0  0.00000000000E+00  0.00000000000E+00  0.12404462541E+04  0.13374566222E+04  0.50008330003E+03 0.  0.
        3    1    3    3  502    0  0.21527455620E+03 -0.11020097163E+03  0.45036962737E+03  0.51119487494E+03  0.10100000352E+00 0.  1.
       -3    1    3    3    0  502 -0.21527455620E+03  0.11020097163E+03  0.79007662673E+03  0.82626174727E+03  0.10100000352E+00 0. -1.
</event>
<event>
 5   0  0.4889251E-03  0.4995127E+03  0.7818609E-02  0.1013906E+00
        2   -1    0    0  501    0  0.00000000000E+00  0.00000000000E+00  0.30204595131E+03  0.30204595132E+03  0.25500000920E-02 0.  1.
       -2   -1    0    0    0  501  0.00000000000E+00  0.00000000000E+00 -0.20651900697E+03  0.20651900699E+03  0.25500000920E-02 0. -1.
    10030    2    1    2    0    0  0.00000000000E+00  0.00000000000E+00  0.95526944336E+02  0.50856495831E+03  0.49951268225E+03 0.  0.
        5    1    3    3  502    0 -0.20533691765E+03  0.98824663530E+02  0.15172454952E+03  0.27381014005E+03  0.46999998093E+01 0.  1.
       -5    1    3    3    0  502  0.20533691765E+03 -0.98824663530E+02 -0.56197605181E+02  0.23475481826E+03  0.46999998093E+01 0. -1.
</event>
<event>
 5   0  0.4889251E-03  0.5000490E+03  0.7818609E-02  0.1013766E+00
        2   -1    0    0  501    0  0.00000000000E+00  0.00000000000E+00  0.25200775101E+04  0.25200775101E+04  0.25500000920E-02 0.  1.
       -2   -1    0    0    0  501  0.00000000000E+00  0.00000000000E+00 -0.24805687477E+02  0.24805687608E+02  0.25500000920E-02 0. -1.
    10030    2    1    2    0    0  0.00000000000E+00  0.00000000000E+00  0.24952718226E+04  0.25448831977E+04  0.50004901881E+03 0.  0.
        5    1    3    3  502    0 -0.25380137535E+02  0.15108446923E+03  0.24233492498E+03  0.28673851169E+03  0.46999998093E+01 0. -1.
       -5    1    3    3    0  502  0.25380137535E+02 -0.15108446923E+03  0.22529368977E+04  0.22581446860E+04  0.46999998093E+01 0.  1.
</event>
<event>
 5   0  0.4889251E-03  0.4993062E+03  0.7818609E-02  0.1013960E+00
        2   -1    0    0  501    0  0.00000000000E+00  0.00000000000E+00  0.57029334167E+03  0.57029334167E+03  0.25500000920E-02 0. -1.
       -2   -1    0    0    0  501  0.00000000000E+00  0.00000000000E+00 -0.10928878312E+03  0.10928878315E+03  0.25500000920E-02 0.  1.
    10030    2    1    2    0    0  0.00000000000E+00  0.00000000000E+00  0.46100455855E+03  0.67958212482E+03  0.49930617998E+03 0.  0.
        5    1    3    3  502    0 -0.64212535424E+01  0.59489150776E+01 -0.10901959838E+03  0.10947138858E+03  0.46999998093E+01 0.  1.
       -5    1    3    3    0  502  0.64212535424E+01 -0.59489150776E+01  0.57002415693E+03  0.57011073624E+03  0.46999998093E+01 0. -1.
</event>
<event>
 5   0  0.4989875E-03  0.4996160E+03  0.7818609E-02  0.1013879E+00
        2   -1    0    0  501    0  0.00000000000E+00  0.00000000000E+00  0.24058129362E+03  0.24058129363E+03  0.25500000920E-02 0. -1.
       -2   -1    0    0    0  501  0.00000000000E+00  0.00000000000E+00 -0.25938856541E+03  0.25938856542E+03  0.25500000920E-02 0.  1.
    10030    2    1    2    0    0  0.00000000000E+00  0.00000000000E+00 -0.18807271789E+02  0.49996985905E+03  0.49961599903E+03 0.  0.
        2    1    3    3  502    0  0.93936288952E+02 -0.15227222452E+03  0.16505623888E+03  0.24342230536E+03  0.25500000920E-02 0. -1.
       -2    1    3    3    0  502 -0.93936288952E+02  0.15227222452E+03 -0.18386351067E+03  0.25654755370E+03  0.25500000920E-02 0.  1.
</event>
<event>
 5   0  0.5095783E-03  0.5001297E+03  0.7818609E-02  0.1013745E+00
        2   -1    0    0  501    0  0.00000000000E+00  0.00000000000E+00  0.10170188249E+04  0.10170188249E+04  0.25500000920E-02 0. -1.
       -2   -1    0    0    0  501  0.00000000000E+00  0.00000000000E+00 -0.61486000342E+02  0.61486000395E+02  0.25500000920E-02 0.  1.
    10030    2    1    2    0    0  0.00000000000E+00  0.00000000000E+00  0.95553282458E+03  0.10785048253E+04  0.50012966258E+03 0.  0.
        4    1    3    3  502    0  0.13220971639E+03 -0.17983561862E+03  0.23464589072E+03  0.32385269146E+03  0.12699999809E+01 0.  1.
       -4    1    3    3    0  502 -0.13220971639E+03  0.17983561862E+03  0.72088693386E+03  0.75465213386E+03  0.12699999809E+01 0. -1.
</event>
<event>
 5   0  0.4889251E-03  0.5000481E+03  0.7818609E-02  0.1013766E+00
        2   -1    0    0  501    0  0.00000000000E+00  0.00000000000E+00  0.13165734966E+03  0.13165734969E+03  0.25500000920E-02 0. -1.
       -2   -1    0    0    0  501  0.00000000000E+00  0.00000000000E+00 -0.47480851182E+03  0.47480851183E+03  0.25500000920E-02 0.  1.
    10030    2    1    2    0    0  0.00000000000E+00  0.00000000000E+00 -0.34315116216E+03  0.60646586152E+03  0.50004811878E+03 0.  0.
        5    1    3    3  502    0  0.12044779506E+03  0.21855696580E+03 -0.15378719233E+03  0.29316788562E+03  0.46999998093E+01 0. -1.
       -5    1    3    3    0  502 -0.12044779506E+03 -0.21855696580E+03 -0.18936396982E+03  0.31329797590E+03  0.46999998093E+01 0.  1.
</event>
<event>
 5   0  0.4889251E-03  0.4990027E+03  0.7818609E-02  0.1014040E+00
       -2   -1    0    0    0  501  0.00000000000E+00  0.00000000000E+00  0.21095982449E+03  0.21095982450E+03  0.25500000920E-02 0. -1.
        2   -1    0    0  501    0  0.00000000000E+00  0.00000000000E+00 -0.29508428047E+03  0.29508428048E+03  0.25500000920E-02 0.  1.
    10030    2    1    2    0    0  0.00000000000E+00  0.00000000000E+00 -0.84124455978E+02  0.50604410498E+03  0.49900271752E+03 0.  0.
        5    1    3    3  502    0  0.57347861004E+02 -0.95486543001E+02 -0.26842119242E+03  0.29065182537E+03  0.46999998093E+01 0.  1.
       -5    1    3    3    0  502 -0.57347861004E+02  0.95486543001E+02  0.18429673644E+03  0.21539227961E+03  0.46999998093E+01 0. -1.
</event>
<event>
 5   0  0.4978779E-03  0.5002755E+03  0.7818609E-02  0.1013707E+00
       -2   -1    0    0    0  501  0.00000000000E+00  0.00000000000E+00  0.50003014835E+03  0.50003014835E+03  0.25500000920E-02 0.  1.
        2   -1    0    0  501    0  0.00000000000E+00  0.00000000000E+00 -0.12513023420E+03  0.12513023422E+03  0.25500000920E-02 0. -1.
    10030    2    1    2    0    0  0.00000000000E+00  0.00000000000E+00  0.37489991415E+03  0.62516038258E+03  0.50027548242E+03 0.  0.
        1    1    3    3  502    0  0.11577602063E+03 -0.78574311975E+02  0.44655173724E+03  0.46795989520E+03  0.50400001928E-02 0.  1.
       -1    1    3    3    0  502 -0.11577602063E+03  0.78574311975E+02 -0.71651823090E+02  0.15720048738E+03  0.50400001928E-02 0. -1.
</event>
<event>
 5   0  0.3057783E-03  0.5001803E+03  0.7818609E-02  0.1013732E+00
        1   -1    0    0  501    0  0.00000000000E+00  0.00000000000E+00  0.62341653763E+03  0.62341653765E+03  0.50400001928E-02 0.  1.
       -1   -1    0    0    0  501  0.00000000000E+00  0.00000000000E+00 -0.10032630064E+03  0.10032630077E+03  0.50400001928E-02 0. -1.
    10030    2    1    2    0    0  0.00000000000E+00  0.00000000000E+00  0.52309023698E+03  0.72374283842E+03  0.50018026764E+03 0.  0.
        5    1    3    3  502    0 -0.64631281734E+02  0.15248004389E+02 -0.87270097927E+02  0.10976276330E+03  0.46999998093E+01 0. -1.
       -5    1    3    3    0  502  0.64631281734E+02 -0.15248004389E+02  0.61036033491E+03  0.61398007512E+03  0.46999998093E+01 0.  1.
</event>
<event>
 5   0  0.4978779E-03  0.5007599E+03  0.7818609E-02  0.1013581E+00
       -2   -1    0    0    0  501  0.00000000000E+00  0.00000000000E+00  0.46985385707E+02  0.46985385776E+02  0.25500000920E-02 0.  1.
        2   -1    0    0  501    0  0.00000000000E+00  0.00000000000E+00 -0.13342469958E+04  0.13342469958E+04  0.25500000920E-02 0. -1.
    10030    2    1    2    0    0  0.00000000000E+00  0.00000000000E+00 -0.12872616101E+04  0.13812323816E+04  0.50075986171E+03 0.  0.
        1    1    3    3  502    0  0.68427542021E+02 -0.18554600865E+03 -0.22007232978E+03  0.29587409517E+03  0.50400001928E-02 0.  1.
       -1    1    3    3    0  502 -0.68427542021E+02  0.18554600865E+03 -0.10671892803E+04  0.10853582864E+04  0.50400001928E-02 0. -1.
</event>
<event>
 5   0  0.3013734E-03  0.4999541E+03  0.7818609E-02  0.1013791E+00
        1   -1    0    0  501    0  0.00000000000E+00  0.00000000000E+00  0.27379135390E+03  0.27379135394E+03  0.50400001928E-02 0. -1.
       -1   -1    0    0    0  501  0.00000000000E+00  0.00000000000E+00 -0.22823409788E+03  0.22823409793E+03  0.50400001928E-02 0.  1.
    10030    2    1    2    0    0  0.00000000000E+00  0.00000000000E+00  0.45557256019E+02  0.50202545188E+03  0.49995408865E+03 0.  0.
        2    1    3    3  502    0 -0.21508343500E+03  0.11478372524E+03  0.78255468099E+02  0.25604707748E+03  0.25500000920E-02 0. -1.
       -2    1    3    3    0  502  0.21508343500E+03 -0.11478372524E+03 -0.32698212080E+02  0.24597837440E+03  0.25500000920E-02 0.  1.
</event>
<event>
 5   0  0.5118882E-03  0.4999530E+03  0.7818609E-02  0.1013791E+00
        2   -1    0    0  501    0  0.00000000000E+00  0.00000000000E+00  0.78497988203E+03  0.78497988203E+03  0.25500000920E-02 0.  1.
       -2   -1    0    0    0  501  0.00000000000E+00  0.00000000000E+00 -0.79604917789E+02  0.79604917830E+02  0.25500000920E-02 0. -1.
    10030    2    1    2    0    0  0.00000000000E+00  0.00000000000E+00  0.70537496424E+03  0.86458479986E+03  0.49995303377E+03 0.  0.
        3    1    3    3  502    0  0.11157764948E+03  0.13984437595E+03  0.50760631059E+02  0.18596417186E+03  0.10100000352E+00 0. -1.
       -3    1    3    3    0  502 -0.11157764948E+03 -0.13984437595E+03  0.65461433318E+03  0.67862062801E+03  0.10100000352E+00 0.  1.
</event>
<event>
 5   0  0.3211775E-03  0.4997591E+03  0.7818609E-02  0.1013842E+00
       -1   -1    0    0    0  501  0.00000000000E+00  0.00000000000E+00  0.11977560850E+03  0.11977560861E+03  0.50400001928E-02 0.  1.
        1   -1    0    0  501    0  0.00000000000E+00  0.00000000000E+00 -0.52130630364E+03  0.52130630367E+03  0.50400001928E-02 0. -1.
    10030    2    1    2    0    0  0.00000000000E+00  0.00000000000E+00 -0.40153069515E+03  0.64108191227E+03  0.49975906105E+03 0.  0.
        4    1    3    3  502    0  0.21701828599E+03 -0.48835001924E+00 -0.41881566114E+02  0.22102681606E+03  0.12699999809E+01 0.  1.
       -4    1    3    3    0  502 -0.21701828599E+03  0.48835001924E+00 -0.35964912903E+03  0.42005509621E+03  0.12699999809E+01 0. -1.
</event>
<event>
 5   0  0.2863538E-03  0.4999647E+03  0.7818609E-02  0.1013788E+00
        1   -1    0    0  501    0  0.00000000000E+00  0.00000000000E+00  0.15240949878E+03  0.15240949887E+03  0.50400001928E-02 0. -1.
       -1   -1    0    0    0  501  0.00000000000E+00  0.00000000000E+00 -0.41002145898E+03  0.41002145901E+03  0.50400001928E-02 0.  1.
    10030    2    1    2    0    0  0.00000000000E+00  0.00000000000E+00 -0.25761196020E+03  0.56243095788E+03  0.49996465910E+03 0.  0.
        1    1    3    3  502    0  0.12581711669E+03 -0.99190580072E+02 -0.34467296921E+03  0.38008969173E+03  0.50400001928E-02 0.  1.
       -1    1    3    3    0  502 -0.12581711669E+03  0.99190580072E+02  0.87061009010E+02  0.18234126616E+03  0.50400001928E-02 0. -1.
</event>
<event>
 5   0  0.3057783E-03  0.5000065E+03  0.7818609E-02  0.1013777E+00
        1   -1    0    0  501    0  0.00000000000E+00  0.00000000000E+00  0.10334822451E+04  0.10334822451E+04  0.50400001928E-02 0.  1.
       -1   -1    0    0    0  501  0.00000000000E+00  0.00000000000E+00 -0.60476726682E+02  0.60476726892E+02  0.50400001928E-02 0. -1.
    10030    2    1    2    0    0  0.00000000000E+00  0.00000000000E+00  0.97300551845E+03  0.10939589720E+04  0.50000649352E+03 0.  0.
        5    1    3    3  502    0  0.15432593680E+03  0.11770358349E+03  0.14189171758E+03  0.24047032634E+03  0.46999998093E+01 0. -1.
       -5    1    3    3    0  502 -0.15432593680E+03 -0.11770358349E+03  0.83111380087E+03  0.85348864570E+03  0.46999998093E+01 0.  1.
</event>
<event>
 5   0  0.5095783E-03  0.4998393E+03  0.7818609E-02  0.1013821E+00
       -2   -1    0    0    0  501  0.00000000000E+00  0.00000000000E+00  0.16821347796E+03  0.16821347798E+03  0.25500000920E-02 0. -1.
        2   -1    0    0  501    0  0.00000000000E+00  0.00000000000E+00 -0.37131288439E+03  0.37131288440E+03  0.25500000920E-02 0.  1.
    10030    2    1    2    0    0  0.00000000000E+00  0.00000000000E+00 -0.20309940642E+03  0.53952636238E+03  0.49983930099E+03 0.  0.
        4    1    3    3  502    0  0.26572844394E+02  0.10107175373E+03 -0.34659149839E+03  0.36200676115E+03  0.12699999809E+01 0.  1.
       -4    1    3    3    0  502 -0.26572844394E+02 -0.10107175373E+03  0.14349209197E+03  0.17751960123E+03  0.12699999809E+01 0. -1.
</event>
<event>
 5   0  0.3013734E-03  0.4998927E+03  0.7818609E-02  0.1013807E+00
       -1   -1    0    0    0  501  0.00000000000E+00  0.00000000000E+00  0.25920886067E+03  0.25920886072E+03  0.50400001928E-02 0. -1.
        1   -1    0    0  501    0  0.00000000000E+00  0.00000000000E+00 -0.24101478387E+03  0.24101478392E+03  0.50400001928E-02 0.  1.
    10030    2    1    2    0    0  0.00000000000E+00  0.00000000000E+00  0.18194076799E+02  0.50022364464E+03  0.49989265871E+03 0.  0.
        2    1    3    3  502    0  0.22298298237E+03 -0.97895204853E+02 -0.47227760004E+02  0.24806318324E+03  0.25500000920E-02 0.  1.
       -2    1    3    3    0  502 -0.22298298237E+03  0.97895204853E+02  0.65421836803E+02  0.25216046140E+03  0.25500000920E-02 0. -1.
</event>
<event>
 5   0  0.4989875E-03  0.5000689E+03  0.7818609E-02  0.1013761E+00
        2   -1    0    0  501    0  0.00000000000E+00  0.00000000000E+00  0.74085414782E+03  0.74085414782E+03  0.25500000920E-02 0.  1.
       -2   -1    0    0    0  501  0.00000000000E+00  0.00000000000E+00 -0.84385341520E+02  0.84385341559E+02  0.25500000920E-02 0. -1.
    10030    2    1    2    0    0  0.00000000000E+00  0.00000000000E+00  0.65646880630E+03  0.82523948938E+03  0.50006891644E+03 0.  0.
        2    1    3    3  502    0 -0.51462073985E+02  0.14753520630E+03  0.61086537738E+01  0.15637230514E+03  0.25500000920E-02 0. -1.
       -2    1    3    3    0  502  0.51462073985E+02 -0.14753520630E+03  0.65036015252E+03  0.66886718424E+03  0.25500000920E-02 0.  1.
</event>
<event>
 5   0  0.2005125E-03  0.4997299E+03  0.7818609E-02  0.1013849E+00
        3   -1    0    0  501    0  0.00000000000E+00  0.00000000000E+00  0.63962086258E+03  0.63962087056E+03  0.10100000352E+00 0. -1.
       -3   -1    0    0    0  501  0.00000000000E+00  0.00000000000E+00 -0.97608575086E+02  0.97608627341E+02  0.10100000352E+00 0.  1.
    10030    2    1    2    0    0  0.00000000000E+00  0.00000000000E+00  0.54201228750E+03  0.73722949790E+03  0.49972993984E+03 0.  0.
        1    1    3    3  502    0  0.53259940961E+02  0.15332764032E+03  0.55125239696E+03  0.57465223551E+03  0.50400001928E-02 0. -1.
       -1    1    3    3    0  502 -0.53259940961E+02 -0.15332764032E+03 -0.92401094635E+01  0.16257726239E+03  0.50400001928E-02 0.  1.
</event>
<event>
 5   0  0.2005125E-03  0.5000362E+03  0.7818609E-02  0.1013769E+00
       -3   -1    0    0    0  501  0.00000000000E+00  0.00000000000E+00  0.10528484639E+03  0.10528489483E+03  0.10100000352E+00 0. -1.
        3   -1    0    0  501    0  0.00000000000E+00  0.00000000000E+00 -0.59371339882E+03  0.59371340741E+03  0.10100000352E+00 0.  1.
    10030    2    1    2    0    0  0.00000000000E+00  0.00000000000E+00 -0.48842855243E+03  0.69899830224E+03  0.50003617440E+03 0.  0.
        5    1    3    3  502    0 -0.19940071769E+02 -0.49513623180E+02 -0.58559210897E+03  0.58803861559E+03  0.46999998093E+01 0.  1.
       -5    1    3    3    0  502  0.19940071769E+02  0.49513623180E+02  0.97163556542E+02  0.11095968665E+03  0.46999998093E+01 0. -1.
</event>
<event>
 5   0  0.4978779E-03  0.4991899E+03  0.7818609E-02  0.1013991E+00
        2   -1    0    0  501    0  0.00000000000E+00  0.00000000000E+00  0.77665473242E+03  0.77665473242E+03  0.25500000920E-02 0. -1.
       -2   -1    0    0    0  501  0.00000000000E+00  0.00000000000E+00 -0.80212798550E+02  0.80212798591E+02  0.25500000920E-02 0.  1.
    10030    2    1    2    0    0  0.00000000000E+00  0.00000000000E+00  0.69644193387E+03  0.85686753101E+03  0.49918994226E+03 0.  0.
        1    1    3    3  502    0 -0.33496703109E+02  0.23412783463E+03  0.48511005230E+03  0.53969401973E+03  0.50400001928E-02 0.  1.
       -1    1    3    3    0  502  0.33496703109E+02 -0.23412783463E+03  0.21133188157E+03  0.31717351128E+03  0.50400001928E-02 0. -1.
</event>
<event>
 5   0  0.4889251E-03  0.4992572E+03  0.7818609E-02  0.1013973E+00
        2   -1    0    0  501    0  0.00000000000E+00  0.00000000000E+00  0.10101283319E+04  0.10101283319E+04  0.25500000920E-02 0. -1.
       -2   -1    0    0    0  501  0.00000000000E+00  0.00000000000E+00 -0.61689637130E+02  0.61689637182E+02  0.25500000920E-02 0.  1.
    10030    2    1    2    0    0  0.00000000000E+00  0.00000000000E+00  0.94843869480E+03  0.10718179691E+04  0.49925724945E+03 0.  0.
        5    1    3    3  502    0  0.62709765824E+02 -0.23546770664E+03  0.35831455768E+03  0.43334624475E+03  0.46999998093E+01 0.  1.
       -5    1    3    3    0  502 -0.62709765824E+02  0.23546770664E+03  0.59012413712E+03  0.63847172436E+03  0.46999998093E+01 0. -1.
</event>
<event>
 5   0  0.3013734E-03  0.5000573E+03  0.7818609E-02  0.1013764E+00
       -1   -1    0    0    0  501  0.00000000000E+00  0.00000000000E+00  0.67228102096E+02  0.67228102285E+02  0.50400001928E-02 0.  1.
        1   -1    0    0  501    0  0.00000000000E+00  0.00000000000E+00 -0.92988370134E+03  0.92988370136E+03  0.50400001928E-02 0. -1.
    10030    2    1    2    0    0  0.00000000000E+00  0.00000000000E+00 -0.86265559925E+03  0.99711180364E+03  0.50005726277E+03 0.  0.
        2    1    3    3  502    0 -0.23884916980E+03 -0.73540444613E+02 -0.44640767762E+03  0.51160232364E+03  0.25500000920E-02 0. -1.
       -2    1    3    3    0  502  0.23884916980E+03  0.73540444613E+02 -0.41624792163E+03  0.48550948000E+03  0.25500000920E-02 0.  1.
</event>
<event>
 5   0  0.3211775E-03  0.4990582E+03  0.7818609E-02  0.1014025E+00
       -1   -1    0    0    0  501  0.00000000000E+00  0.00000000000E+00  0.66016485877E+02  0.66016486070E+02  0.50400001928E-02 0. -1.
        1   -1    0    0  501    0  0.00000000000E+00  0.00000000000E+00 -0.94316991936E+03  0.94316991937E+03  0.50400001928E-02 0.  1.
    10030    2    1    2    0    0  0.00000000000E+00  0.00000000000E+00 -0.87715343348E+03  0.10091864054E+04  0.49905816801E+03 0.  0.
        4    1    3    3  502    0 -0.23123468500E+03  0.31524568419E+02 -0.25998390016E+03  0.34936588157E+03  0.12699999809E+01 0. -1.
       -4    1    3    3    0  502  0.23123468500E+03 -0.31524568419E+02 -0.61716953332E+03  0.65982052387E+03  0.12699999809E+01 0.  1.
</event>
<event>
 5   0  0.5095783E-03  0.4998262E+03  0.7818609E-02  0.1013824E+00
       -2   -1    0    0    0  501  0.00000000000E+00  0.00000000000E+00  0.10625846128E+03  0.10625846131E+03  0.25500000920E-02 0.  1.
        2   -1    0    0  501    0  0.00000000000E+00  0.00000000000E+00 -0.58777968079E+03  0.58777968079E+03  0.25500000920E-02 0. -1.
    10030    2    1    2    0    0  0.00000000000E+00  0.00000000000E+00 -0.48152121951E+03  0.69403814210E+03  0.49982622765E+03 0.  0.
        4    1    3    3  502    0 -0.22705413392E+03  0.55974572383E+02 -0.11837650096E+03  0.26210940724E+03  0.12699999809E+01 0.  1.
       -4    1    3    3    0  502  0.22705413392E+03 -0.55974572383E+02 -0.36314471855E+03  0.43192873486E+03  0.12699999809E+01 0. -1.
</event>
<event>
 5   0  0.5118882E-03  0.5000095E+03  0.7818609E-02  0.1013776E+00
        2   -1    0    0  501    0  0.00000000000E+00  0.00000000000E+00  0.90143078721E+03  0.90143078721E+03  0.25500000920E-02 0.  1.
       -2   -1    0    0    0  501  0.00000000000E+00  0.00000000000E+00 -0.69336857918E+02  0.69336857965E+02  0.25500000920E-02 0. -1.
    10030    2    1    2    0    0  0.00000000000E+00  0.00000000000E+00  0.83209392929E+03  0.97076764518E+03  0.50000951367E+03 0.  0.
        3    1    3    3  502    0 -0.10702911483E+03  0.22155501715E+03  0.50201196886E+03  0.55906876511E+03  0.10100000352E+00 0.  1.
       -3    1    3    3    0  502  0.10702911483E+03 -0.22155501715E+03  0.33008196043E+03  0.41169888006E+03  0.10100000352E+00 0. -1.
</event>
<event>
 5   0  0.2863538E-03  0.4997944E+03  0.7818609E-02  0.1013833E+00
        1   -1    0    0  501    0  0.00000000000E+00  0.00000000000E+00  0.18811784182E+03  0.18811784189E+03  0.50400001928E-02 0. -1.
       -1   -1    0    0    0  501  0.00000000000E+00  0.00000000000E+00 -0.33196543508E+03  0.33196543512E+03  0.50400001928E-02 0.  1.
    10030    2    1    2    0    0  0.00000000000E+00  0.00000000000E+00 -0.14384759326E+03  0.52008327701E+03  0.49979444269E+03 0.  0.
        1    1    3    3  502    0 -0.20955577564E+03  0.13113802478E+03 -0.10998475777E+03  0.27056875580E+03  0.50400001928E-02 0.  1.
       -1    1    3    3    0  502  0.20955577564E+03 -0.13113802478E+03 -0.33862835484E+02  0.24951452122E+03  0.50400001928E-02 0. -1.
</event>
<event>
 5   0  0.2863538E-03  0.5002209E+03  0.7818609E-02  0.1013721E+00
        1   -1    0    0  501    0  0.00000000000E+00  0.00000000000E+00  0.29665586104E+03  0.29665586108E+03  0.50400001928E-02 0. -1.
       -1   -1    0    0    0  501  0.00000000000E+00  0.00000000000E+00 -0.21086801865E+03  0.21086801871E+03  0.50400001928E-02 0.  1.
    10030    2    1    2    0    0  0.00000000000E+00  0.00000000000E+00  0.85787842395E+02  0.50752387979E+03  0.50022088586E+03 0.  0.
        1    1    3    3  502    0 -0.12263479953E+03 -0.16950237075E+03  0.18195286965E+03  0.27726737014E+03  0.50400001928E-02 0. -1.
       -1    1    3    3    0  502  0.12263479953E+03  0.16950237075E+03 -0.96165027255E+02  0.23025650965E+03  0.50400001928E-02 0.  1.
</event>
<event>
 5   0  0.3013734E-03  0.4992635E+03  0.7818609E-02  0.1013971E+00
        1   -1    0    0  501    0  0.00000000000E+00  0.00000000000E+00  0.49329848789E+03  0.49329848791E+03  0.50400001928E-02 0.  1.
       -1   -1    0    0    0  501  0.00000000000E+00  0.00000000000E+00 -0.12632515954E+03  0.12632515964E+03  0.50400001928E-02 0. -1.
    10030    2    1    2    0    0  0.00000000000E+00  0.00000000000E+00  0.36697332835E+03  0.61962364756E+03  0.49926349846E+03 0.  0.
        2    1    3    3  502    0  0.39614271302E+02  0.12309534006E+03 -0.81517830355E+02  0.15286238880E+03  0.25500000920E-02 0. -1.
       -2    1    3    3    0  502 -0.39614271302E+02 -0.12309534006E+03  0.44849115870E+03  0.46676125876E+03  0.25500000920E-02 0.  1.
</event>
<event>
 5   0  0.3013734E-03  0.4999414E+03  0.7818609E-02  0.1013794E+00
       -1   -1    0    0    0  501  0.00000000000E+00  0.00000000000E+00  0.13694997062E+03  0.13694997072E+03  0.50400001928E-02 0.  1.
        1   -1    0    0  501    0  0.00000000000E+00  0.00000000000E+00 -0.45626402999E+03  0.45626403002E+03  0.50400001928E-02 0. -1.
    10030    2    1    2    0    0  0.00000000000E+00  0.00000000000E+00 -0.31931405937E+03  0.59321400074E+03  0.49994137873E+03 0.  0.
        2    1    3    3  502    0 -0.92991065261E+01 -0.80376827144E+02 -0.44029567531E+03  0.44766861563E+03  0.25500000920E-02 0. -1.
       -2    1    3    3    0  502  0.92991065261E+01  0.80376827144E+02  0.12098161594E+03  0.14554538510E+03  0.25500000920E-02 0.  1.
</event>
<event>
 5   0  0.4889251E-03  0.4998763E+03  0.7818609E-02  0.1013811E+00
        2   -1    0    0  501    0  0.00000000000E+00  0.00000000000E+00  0.22401917340E+04  0.22401917340E+04  0.25500000920E-02 0. -1.
       -2   -1    0    0    0  501  0.00000000000E+00  0.00000000000E+00 -0.27885595827E+02  0.27885595943E+02  0.25500000920E-02 0.  1.
    10030    2    1    2    0    0  0.00000000000E+00  0.00000000000E+00  0.22123061382E+04  0.22680773300E+04  0.49987631031E+03 0.  0.
        5    1    3    3  502    0  0.13343103623E+03 -0.32642071429E+02  0.20533214272E+04  0.20579164997E+04  0.46999998093E+01 0. -1.
       -5    1    3    3    0  502 -0.13343103623E+03  0.32642071429E+02  0.15898471098E+03  0.21016083028E+03  0.46999998093E+01 0.  1.
</event>
<event>
 5   0  0.3057783E-03  0.4999743E+03  0.7818609E-02  0.1013786E+00
        1   -1    0    0  501    0  0.00000000000E+00  0.00000000000E+00  0.61559769220E+03  0.61559769222E+03  0.50400001928E-02 0. -1.
       -1   -1    0    0    0  501  0.00000000000E+00  0.00000000000E+00 -0.10151689366E+03  0.10151689379E+03  0.50400001928E-02 0.  1.
    10030    2    1    2    0    0  0.00000000000E+00  0.00000000000E+00  0.51408079853E+03  0.71711458601E+03  0.49997426138E+03 0.  0.
        5    1    3    3  502    0  0.20818764460E+03 -0.87415661810E+02  0.10330959624E+03  0.24835167800E+03  0.46999998093E+01 0. -1.
       -5    1    3    3    0  502 -0.20818764460E+03  0.87415661810E+02  0.41077120229E+03  0.46876290801E+03  0.46999998093E+01 0.  1.
</event>
<event>
 5   0  0.3055293E-03  0.5001232E+03  0.7818609E-02  0.1013747E+00
       -1   -1    0    0    0  501  0.00000000000E+00  0.00000000000E+00  0.45671827375E+02  0.45671827653E+02  0.50400001928E-02 0. -1.
        1   -1    0    0  501    0  0.00000000000E+00  0.00000000000E+00 -0.13691329990E+04  0.13691329990E+04  0.50400001928E-02 0.  1.
    10030    2    1    2    0    0  0.00000000000E+00  0.00000000000E+00 -0.13234611716E+04  0.14148048266E+04  0.50012320956E+03 0.  0.
        3    1    3    3  502    0  0.11806595417E+03  0.54901537226E+02 -0.57792222222E+02  0.14245595626E+03  0.10100000352E+00 0. -1.
       -3    1    3    3    0  502 -0.11806595417E+03 -0.54901537226E+02 -0.12656689494E+04  0.12723488704E+04  0.10100000352E+00 0.  1.
</event>
<event>
 5   0  0.3055293E-03  0.4999678E+03  0.7818609E-02  0.1013787E+00
        1   -1    0    0  501    0  0.00000000000E+00  0.00000000000E+00  0.12640658274E+04  0.12640658274E+04  0.50400001928E-02 0.  1.
       -1   -1    0    0    0  501  0.00000000000E+00  0.00000000000E+00 -0.49437251967E+02  0.49437252224E+02  0.50400001928E-02 0. -1.
    10030    2    1    2    0    0  0.00000000000E+00  0.00000000000E+00  0.12146285754E+04  0.13135030796E+04  0.49996776290E+03 0.  0.
        3    1    3    3  502    0  0.23166173368E+03  0.47947691961E+02  0.81954374584E+03  0.85300533502E+03  0.10100000352E+00 0. -1.
       -3    1    3    3    0  502 -0.23166173368E+03 -0.47947691961E+02  0.39508482954E+03  0.46049774457E+03  0.10100000352E+00 0.  1.
</event>
<event>
 5   0  0.3211775E-03  0.4998139E+03  0.7818609E-02  0.1013827E+00
        1   -1    0    0  501    0  0.00000000000E+00  0.00000000000E+00  0.16157361102E+04  0.16157361102E+04  0.50400001928E-02 0. -1.
       -1   -1    0    0    0  501  0.00000000000E+00  0.00000000000E+00 -0.38653273651E+02  0.38653273979E+02  0.50400001928E-02 0.  1.
    10030    2    1    2    0    0  0.00000000000E+00  0.00000000000E+00  0.15770828365E+04  0.16543893842E+04  0.49981392654E+03 0.  0.
        4    1    3    3  502    0 -0.13699242735E+03 -0.48108261213E+02  0.14617893310E+04  0.14689829785E+04  0.12699999809E+01 0. -1.
       -4    1    3    3    0  502  0.13699242735E+03  0.48108261213E+02  0.11529350551E+03  0.18540640567E+03  0.12699999809E+01 0.  1.
</event>
<event>
 5   0  0.4989875E-03  0.4995309E+03  0.7818609E-02  0.1013901E+00
       -2   -1    0    0    0  501  0.00000000000E+00  0.00000000000E+00  0.83201416255E+02  0.83201416294E+02  0.25500000920E-02 0. -1.
        2   -1    0    0  501    0  0.00000000000E+00  0.00000000000E+00 -0.74978014803E+03  0.74978014803E+03  0.25500000920E-02 0.  1.
    10030    2    1    2    0    0  0.00000000000E+00  0.00000000000E+00 -0.66657873177E+03  0.83298156432E+03  0.49953086076E+03 0.  0.
        2    1    3    3  502    0  0.20502768564E+03  0.14230832025E+03 -0.31705683218E+03  0.40350098479E+03  0.25500000920E-02 0.  1.
       -2    1    3    3    0  502 -0.20502768564E+03 -0.14230832025E+03 -0.34952189960E+03  0.42948057953E+03  0.25500000920E-02 0. -1.
</event>
<event>
 5   0  0.4978779E-03  0.5000758E+03  0.7818609E-02  0.1013759E+00
        2   -1    0    0  501    0  0.00000000000E+00  0.00000000000E+00  0.33586657757E+03  0.33586657758E+03  0.25500000920E-02 0.  1.
       -2   -1    0    0    0  501  0.00000000000E+00  0.00000000000E+00 -0.18614222350E+03  0.18614222352E+03  0.25500000920E-02 0. -1.
    10030    2    1    2    0    0  0.00000000000E+00  0.00000000000E+00  0.14972435407E+03  0.52200880110E+03  0.50007580048E+03 0.  0.
        1    1    3    3  502    0  0.97383564755E+02  0.16387680691E+03 -0.94036024180E+02  0.21256043940E+03  0.50400001928E-02 0. -1.
       -1    1    3    3    0  502 -0.97383564755E+02 -0.16387680691E+03  0.24376037825E+03  0.30944836170E+03  0.50400001928E-02 0.  1.
</event>
<event>
 5   0  0.3057783E-03  0.4999726E+03  0.7818609E-02  0.1013786E+00
        1   -1    0    0  501    0  0.00000000000E+00  0.00000000000E+00  0.26174457380E+03  0.26174457385E+03  0.50400001928E-02 0. -1.
       -1   -1    0    0    0  501  0.00000000000E+00  0.00000000000E+00 -0.23875622361E+03  0.23875622366E+03  0.50400001928E-02 0.  1.
    10030    2    1    2    0    0  0.00000000000E+00  0.00000000000E+00  0.22988350195E+02  0.50050079751E+03  0.49997258331E+03 0.  0.
        5    1    3    3  502    0 -0.16198216280E+02  0.38704009005E+02  0.25814984856E+03  0.26157946561E+03  0.46999998093E+01 0. -1.
       -5    1    3    3    0  502  0.16198216280E+02 -0.38704009005E+02 -0.23516149836E+03  0.23892133189E+03  0.46999998093E+01 0.  1.
</event>
<event>
 5   0  0.3013734E-03  0.4994040E+03  0.7818609E-02  0.1013935E+00
       -1   -1    0    0    0  501  0.00000000000E+00  0.00000000000E+00  0.20762050469E+03  0.20762050476E+03  0.50400001928E-02 0.  1.
        1   -1    0    0  501    0  0.00000000000E+00  0.00000000000E+00 -0.30031275266E+03  0.30031275270E+03  0.50400001928E-02 0. -1.
    10030    2    1    2    0    0  0.00000000000E+00  0.00000000000E+00 -0.92692247967E+02  0.50793325746E+03  0.49940398597E+03 0.  0.
        2    1    3    3  502    0  0.22588425171E+03  0.10257287265E+03 -0.17467603264E+02  0.24869661547E+03  0.25500000920E-02 0.  1.
       -2    1    3    3    0  502 -0.22588425171E+03 -0.10257287265E+03 -0.75224644703E+02  0.25923664199E+03  0.25500000920E-02 0. -1.
</event>
<event>
 5   0  0.3055293E-03  0.4998514E+03  0.7818609E-02  0.1013818E+00
       -1   -1    0    0    0  501  0.00000000000E+00  0.00000000000E+00  0.12170151228E+03  0.12170151239E+03  0.50400001928E-02 0.  1.
        1   -1    0    0  501    0  0.00000000000E+00  0.00000000000E+00 -0.51324630138E+03  0.51324630141E+03  0.50400001928E-02 0. -1.
    10030    2    1    2    0    0  0.00000000000E+00  0.00000000000E+00 -0.39154478910E+03  0.63494781380E+03  0.49985138229E+03 0.  0.
        3    1    3    3  502    0  0.21659286736E+03  0.10555291655E+03 -0.28011846324E+03  0.36948647070E+03  0.10100000352E+00 0. -1.
       -3    1    3    3    0  502 -0.21659286736E+03 -0.10555291655E+03 -0.11142632585E+03  0.26546134309E+03  0.10100000352E+00 0.  1.
</event>
<event>
 5   0  0.4989875E-03  0.5000536E+03  0.7818609E-02  0.1013765E+00
        2   -1    0    0  501    0  0.00000000000E+00  0.00000000000E+00  0.78477441383E+03  0.78477441383E+03  0.25500000920E-02 0.  1.
       -2   -1    0    0    0  501  0.00000000000E+00  0.00000000000E+00 -0.79657792687E+02  0.79657792728E+02  0.25500000920E-02 0. -1.
    10030    2    1    2    0    0  0.00000000000E+00  0.00000000000E+00  0.70511662114E+03  0.86443220656E+03  0.50005358746E+03 0.  0.
        2    1    3    3  502    0 -0.25953912147E+02  0.95331738220E+01  0.78212346209E+03  0.78261203473E+03  0.25500000920E-02 0.  1.
       -2    1    3    3    0  502  0.25953912147E+02 -0.95331738220E+01 -0.77006840945E+02  0.81820171826E+02  0.25500000920E-02 0. -1.
</event>
<event>
 5   0  0.5118882E-03  0.5000278E+03  0.7818609E-02  0.1013772E+00
       -2   -1    0    0    0  501  0.00000000000E+00  0.00000000000E+00  0.77031783473E+02  0.77031783515E+02  0.25500000920E-02 0.  1.
        2   -1    0    0  501    0  0.00000000000E+00  0.00000000000E+00 -0.81144366314E+03  0.81144366314E+03  0.25500000920E-02 0. -1.
    10030    2    1    2    0    0  0.00000000000E+00  0.00000000000E+00 -0.73441187967E+03  0.88847544666E+03  0.50002780955E+03 0.  0.
        3    1    3    3  502    0  0.73575008716E+01  0.16352991441E+03 -0.31428959265E+02  0.16668519852E+03  0.10100000352E+00 0.  1.
       -3    1    3    3    0  502 -0.73575008716E+01 -0.16352991441E+03 -0.70298292040E+03  0.72179024813E+03  0.10100000352E+00 0. -1.
</event>
<event>
 5   0  0.2863538E-03  0.4999747E+03  0.7818609E-02  0.1013786E+00
       -1   -1    0    0    0  501  0.00000000000E+00  0.00000000000E+00  0.12980046764E+03  0.12980046774E+03  0.50400001928E-02 0. -1.
        1   -1    0    0  501    0  0.00000000000E+00  0.00000000000E+00 -0.48145964559E+03  0.48145964561E+03  0.50400001928E-02 0.  1.
    10030    2    1    2    0    0  0.00000000000E+00  0.00000000000E+00 -0.35165917795E+03  0.61126011335E+03  0.49997474811E+03 0.  0.
        1    1    3    3  502    0  0.22162207997E+03 -0.48511612545E+02 -0.47464511874E+02  0.23178136853E+03  0.50400001928E-02 0.  1.
       -1    1    3    3    0  502 -0.22162207997E+03  0.48511612545E+02 -0.30419466607E+03  0.37947874483E+03  0.50400001928E-02 0. -1.
</event>
<event>
 5   0  0.4989875E-03  0.4997268E+03  0.7818609E-02  0.1013850E+00
       -2   -1    0    0    0  501  0.00000000000E+00  0.00000000000E+00  0.18157290804E+03  0.18157290806E+03  0.25500000920E-02 0.  1.
        2   -1    0    0  501    0  0.00000000000E+00  0.00000000000E+00 -0.34383824174E+03  0.34383824175E+03  0.25500000920E-02 0. -1.
    10030    2    1    2    0    0  0.00000000000E+00  0.00000000000E+00 -0.16226533370E+03  0.52541114981E+03  0.49972676316E+03 0.  0.
        2    1    3    3  502    0  0.13982381958E+03  0.46601037297E+02  0.13100303824E+03  0.19719065199E+03  0.25500000920E-02 0.  1.
       -2    1    3    3    0  502 -0.13982381958E+03 -0.46601037297E+02 -0.29326837194E+03  0.32822049782E+03  0.25500000920E-02 0. -1.
</event>
<event>
 5   0  0.3013734E-03  0.5001085E+03  0.7818609E-02  0.1013751E+00
        1   -1    0    0  501    0  0.00000000000E+00  0.00000000000E+00  0.24984298918E+03  0.24984298923E+03  0.50400001928E-02 0.  1.
       -1   -1    0    0    0  501  0.00000000000E+00  0.00000000000E+00 -0.25026569577E+03  0.25026569582E+03  0.50400001928E-02 0. -1.
    10030    2    1    2    0    0  0.00000000000E+00  0.00000000000E+00 -0.42270658479E+00  0.50010868505E+03  0.50010850641E+03 0.  0.
        2    1    3    3  502    0  0.22741517105E+03  0.10148750374E+03 -0.22789140257E+02  0.25007342594E+03  0.25500000920E-02 0. -1.
       -2    1    3    3    0  502 -0.22741517105E+03 -0.10148750374E+03  0.22366433672E+02  0.25003525912E+03  0.25500000920E-02 0.  1.
</event>
<event>
 5   0  0.2005125E-03  0.4993702E+03  0.7818609E-02  0.1013943E+00
        3   -1    0    0  501    0  0.00000000000E+00  0.00000000000E+00  0.32912394325E+03  0.32912395874E+03  0.10100000352E+00 0. -1.
       -3   -1    0    0    0  501  0.00000000000E+00  0.00000000000E+00 -0.18941993655E+03  0.18941996348E+03  0.10100000352E+00 0.  1.
    10030    2    1    2    0    0  0.00000000000E+00  0.00000000000E+00  0.13970400669E+03  0.51854392222E+03  0.49937019313E+03 0.  0.
        2    1    3    3  502    0 -0.23984525819E+03 -0.33120033853E+01  0.14183860329E+03  0.27866629978E+03  0.25500000920E-02 0. -1.
       -2    1    3    3    0  502  0.23984525819E+03  0.33120033853E+01 -0.21345965959E+01  0.23987762245E+03  0.25500000920E-02 0.  1.
</event>
<event>
 5   0  0.3055293E-03  0.4998755E+03  0.7818609E-02  0.1013811E+00
        1   -1    0    0  501    0  0.00000000000E+00  0.00000000000E+00  0.10411191870E+04  0.10411191870E+04  0.50400001928E-02 0.  1.
       -1   -1    0    0    0  501  0.00000000000E+00  0.00000000000E+00 -0.60001652995E+02  0.60001653206E+02  0.50400001928E-02 0. -1.
    10030    2    1    2    0    0  0.00000000000E+00  0.00000000000E+00  0.98111753400E+03  0.11011208402E+04  0.49987547372E+03 0.  0.
        3    1    3    3  502    0  0.18621655140E+03  0.10767077625E+03  0.21019572156E+03  0.30075214320E+03  0.10100000352E+00 0. -1.
       -3    1    3    3    0  502 -0.18621655140E+03 -0.10767077625E+03  0.77092181244E+03  0.80036869702E+03  0.10100000352E+00 0.  1.
</event>
<event>
 5   0  0.4889251E-03  0.5002566E+03  0.7818609E-02  0.1013712E+00
       -2   -1    0    0    0  501  0.00000000000E+00  0.00000000000E+00  0.20546902394E+03  0.20546902395E+03  0.25500000920E-02 0. -1.
        2   -1    0    0  501    0  0.00000000000E+00  0.00000000000E+00 -0.30449442145E+03  0.30449442146E+03  0.25500000920E-02 0.  1.
    10030    2    1    2    0    0  0.00000000000E+00  0.00000000000E+00 -0.99025397510E+02  0.50996344541E+03  0.50025662045E+03 0.  0.
        5    1    3    3  502    0 -0.57370749873E+01 -0.12091767662E+03  0.17356693768E+03  0.21166381458E+03  0.46999998093E+01 0. -1.
       -5    1    3    3    0  502  0.57370749873E+01  0.12091767662E+03 -0.27259233519E+03  0.29829963083E+03  0.46999998093E+01 0.  1.
</event>
<event>
 5   0  0.4989875E-03  0.5003117E+03  0.7818609E-02  0.1013698E+00
        2   -1    0    0  501    0  0.00000000000E+00  0.00000000000E+00  0.16175807497E+03  0.16175807499E+03  0.25500000920E-02 0. -1.
       -2   -1    0    0    0  501  0.00000000000E+00  0.00000000000E+00 -0.38686139459E+03  0.38686139460E+03  0.25500000920E-02 0.  1.
    10030    2    1    2    0    0  0.00000000000E+00  0.00000000000E+00 -0.22510331962E+03  0.54861946959E+03  0.50031172073E+03 0.  0.
        2    1    3    3  502    0 -0.20074067173E+03  0.54974669217E+01 -0.27612196971E+03  0.34142404953E+03  0.25500000920E-02 0.  1.
       -2    1    3    3    0  502  0.20074067173E+03 -0.54974669217E+01  0.51018650090E+02  0.20719542006E+03  0.25500000920E-02 0. -1.
</event>
<event>
 5   0  0.3057783E-03  0.5000432E+03  0.7818609E-02  0.1013768E+00
        1   -1    0    0  501    0  0.00000000000E+00  0.00000000000E+00  0.17780327829E+03  0.17780327836E+03  0.50400001928E-02 0. -1.
       -1   -1    0    0    0  501  0.00000000000E+00  0.00000000000E+00 -0.35157284230E+03  0.35157284233E+03  0.50400001928E-02 0.  1.
    10030    2    1    2    0    0  0.00000000000E+00  0.00000000000E+00 -0.17376956401E+03  0.52937612070E+03  0.50004321392E+03 0.  0.
        5    1    3    3  502    0 -0.11538547006E+03 -0.15700940294E+02  0.14728845638E+03  0.18781987543E+03  0.46999998093E+01 0. -1.
       -5    1    3    3    0  502  0.11538547006E+03  0.15700940294E+02 -0.32105802039E+03  0.34155624526E+03  0.46999998093E+01 0.  1.
</event>
<event>
 5   0  0.2005125E-03  0.5000573E+03  0.7818609E-02  0.1013764E+00
       -3   -1    0    0    0  501  0.00000000000E+00  0.00000000000E+00  0.62859330226E+03  0.62859331037E+03  0.10100000352E+00 0.  1.
        3   -1    0    0  501    0  0.00000000000E+00  0.00000000000E+00 -0.99451119397E+02  0.99451170684E+02  0.10100000352E+00 0. -1.
    10030    2    1    2    0    0  0.00000000000E+00  0.00000000000E+00  0.52914218286E+03  0.72804448106E+03  0.50005731343E+03 0.  0.
        5    1    3    3  502    0 -0.98008196699E+02  0.29730816500E+01 -0.70220693163E+02  0.12069582255E+03  0.46999998093E+01 0. -1.
       -5    1    3    3    0  502  0.98008196699E+02 -0.29730816500E+01  0.59936287603E+03  0.60734865851E+03  0.46999998093E+01 0.  1.
</event>
<event>
 5   0  0.3057783E-03  0.4995219E+03  0.7818609E-02  0.1013904E+00
        1   -1    0    0  501    0  0.00000000000E+00  0.00000000000E+00  0.10833133056E+04  0.10833133056E+04  0.50400001928E-02 0.  1.
       -1   -1    0    0    0  501  0.00000000000E+00  0.00000000000E+00 -0.57583086973E+02  0.57583087194E+02  0.50400001928E-02 0. -1.
    10030    2    1    2    0    0  0.00000000000E+00  0.00000000000E+00  0.10257302186E+04  0.11408963928E+04  0.49952186910E+03 0.  0.
        5    1    3    3  502    0 -0.12563744509E+03 -0.64377736317E+02  0.98332650057E+03  0.99341952733E+03  0.46999998093E+01 0.  1.
       -5    1    3    3    0  502  0.12563744509E+03  0.64377736317E+02  0.42403718026E+02  0.14747686545E+03  0.46999998093E+01 0. -1.
</event>
<event>
 5   0  0.3013734E-03  0.4998187E+03  0.7818609E-02  0.1013826E+00
        1   -1    0    0  501    0  0.00000000000E+00  0.00000000000E+00  0.39625523761E+03  0.39625523764E+03  0.50400001928E-02 0. -1.
       -1   -1    0    0    0  501  0.00000000000E+00  0.00000000000E+00 -0.15761225872E+03  0.15761225880E+03  0.50400001928E-02 0.  1.
    10030    2    1    2    0    0  0.00000000000E+00  0.00000000000E+00  0.23864297889E+03  0.55386749644E+03  0.49981869937E+03 0.  0.
        2    1    3    3  502    0 -0.88529120450E+02  0.17070657685E+03 -0.57552358267E+02  0.20072472318E+03  0.25500000920E-02 0.  1.
       -2    1    3    3    0  502  0.88529120450E+02 -0.17070657685E+03  0.29619533716E+03  0.35314277326E+03  0.25500000920E-02 0. -1.
</event>
<event>
 5   0  0.2863538E-03  0.4998205E+03  0.7818609E-02  0.1013826E+00
        1   -1    0    0  501    0  0.00000000000E+00  0.00000000000E+00  0.38150993386E+03  0.38150993389E+03  0.50400001928E-02 0.  1.
       -1   -1    0    0    0  501  0.00000000000E+00  0.00000000000E+00 -0.16370511964E+03  0.16370511972E+03  0.50400001928E-02 0. -1.
    10030    2    1    2    0    0  0.00000000000E+00  0.00000000000E+00  0.21780481422E+03  0.54521505361E+03  0.49982048536E+03 0.  0.
        1    1    3    3  502    0 -0.17825246436E+03  0.17140913203E+03  0.14823402347E+03  0.28831988716E+03  0.50400001928E-02 0. -1.
       -1    1    3    3    0  502  0.17825246436E+03 -0.17140913203E+03  0.69570790751E+02  0.25689516645E+03  0.50400001928E-02 0.  1.
</event>
<event>
 5   0  0.4989875E-03  0.4991524E+03  0.7818609E-02  0.1014000E+00
        2   -1    0    0  501    0  0.00000000000E+00  0.00000000000E+00  0.15618903598E+04  0.15618903598E+04  0.25500000920E-02 0.  1.
       -2   -1    0    0    0  501  0.00000000000E+00  0.00000000000E+00 -0.39880055376E+02  0.39880055458E+02  0.25500000920E-02 0. -1.
    10030    2    1    2    0    0  0.00000000000E+00  0.00000000000E+00  0.15220103044E+04  0.16017704152E+04  0.49915237796E+03 0.  0.
        2    1    3    3  502    0  0.14338389343E+03 -0.11552525247E+03  0.13016327093E+04  0.13145922314E+04  0.25500000920E-02 0.  1.
       -2    1    3    3    0  502 -0.14338389343E+03  0.11552525247E+03  0.22037759504E+03  0.28717818380E+03  0.25500000920E-02 0. -1.
</event>
<event>
 5   0  0.2863538E-03  0.4999663E+03  0.7818609E-02  0.1013788E+00
       -1   -1    0    0    0  501  0.00000000000E+00  0.00000000000E+00  0.91414442500E+03  0.91414442501E+03  0.50400001928E-02 0.  1.
        1   -1    0    0  501    0  0.00000000000E+00  0.00000000000E+00 -0.68360738142E+02  0.68360738328E+02  0.50400001928E-02 0. -1.
    10030    2    1    2    0    0  0.00000000000E+00  0.00000000000E+00  0.84578368685E+03  0.98250516334E+03  0.49996634990E+03 0.  0.
        1    1    3    3  502    0  0.18905714969E+03 -0.13775935349E+02  0.74315103697E+03  0.76694579080E+03  0.50400001928E-02 0.  1.
       -1    1    3    3    0  502 -0.18905714969E+03  0.13775935349E+02  0.10263264988E+03  0.21555937254E+03  0.50400001928E-02 0. -1.
</event>
<event>
 5   0  0.2005125E-03  0.4999551E+03  0.7818609E-02  0.1013791E+00
        3   -1    0    0  501    0  0.00000000000E+00  0.00000000000E+00  0.14047058972E+03  0.14047062603E+03  0.10100000352E+00 0. -1.
       -3   -1    0    0    0  501  0.00000000000E+00  0.00000000000E+00 -0.44485292479E+03  0.44485293625E+03  0.10100000352E+00 0.  1.
    10030    2    1    2    0    0  0.00000000000E+00  0.00000000000E+00 -0.30438233507E+03  0.58532356229E+03  0.49995506465E+03 0.  0.
        1    1    3    3  502    0 -0.21264712823E+03  0.11794603670E+03 -0.22004126998E+03  0.32794546686E+03  0.50400001928E-02 0.  1.
       -1    1    3    3    0  502  0.21264712823E+03 -0.11794603670E+03 -0.84341065089E+02  0.25737809542E+03  0.50400001928E-02 0. -1.
</event>
<event>
 5   0  0.2005125E-03  0.4999907E+03  0.7818609E-02  0.1013781E+00
       -3   -1    0    0    0  501  0.00000000000E+00  0.00000000000E+00  0.17128202179E+03  0.17128205156E+03  0.10100000352E+00 0.  1.
        3   -1    0    0  501    0  0.00000000000E+00  0.00000000000E+00 -0.36488161570E+03  0.36488162967E+03  0.10100000352E+00 0. -1.
    10030    2    1    2    0    0  0.00000000000E+00  0.00000000000E+00 -0.19359959391E+03  0.53616368124E+03  0.49999069023E+03 0.  0.
        5    1    3    3  502    0  0.63470912113E+02 -0.29250495002E+02  0.16054442536E+03  0.17515921516E+03  0.46999998093E+01 0.  1.
       -5    1    3    3    0  502 -0.63470912113E+02  0.29250495002E+02 -0.35414401927E+03  0.36100446608E+03  0.46999998093E+01 0. -1.
</event>
<event>
 5   0  0.2005125E-03  0.5006686E+03  0.7818609E-02  0.1013605E+00
        4   -1    0    0  501    0  0.00000000000E+00  0.00000000000E+00  0.50207677623E+03  0.50207838245E+03  0.12699999809E+01 0.  1.
       -4   -1    0    0    0  501  0.00000000000E+00  0.00000000000E+00 -0.12481106557E+03  0.12481752677E+03  0.12699999809E+01 0. -1.
    10030    2    1    2    0    0  0.00000000000E+00  0.00000000000E+00  0.37726571066E+03  0.62689590922E+03  0.50066861751E+03 0.  0.
        2    1    3    3  502    0  0.39940478703E+02 -0.58434872597E+02  0.48929071060E+03  0.49438373321E+03  0.25500000920E-02 0.  1.
       -2    1    3    3    0  502 -0.39940478703E+02  0.58434872597E+02 -0.11202499994E+03  0.13251217601E+03  0.25500000920E-02 0. -1.
</event>
<event>
 5   0  0.3055293E-03  0.4993438E+03  0.7818609E-02  0.1013950E+00
        1   -1    0    0  501    0  0.00000000000E+00  0.00000000000E+00  0.39784515780E+03  0.39784515783E+03  0.50400001928E-02 0.  1.
       -1   -1    0    0    0  501  0.00000000000E+00  0.00000000000E+00 -0.15668424165E+03  0.15668424173E+03  0.50400001928E-02 0. -1.
    10030    2    1    2    0    0  0.00000000000E+00  0.00000000000E+00  0.24116091615E+03  0.55452939956E+03  0.49934383695E+03 0.  0.
        3    1    3    3  502    0  0.35204893186E+02 -0.21079341620E+03  0.26393087991E+03  0.33960678496E+03  0.10100000352E+00 0.  1.
       -3    1    3    3    0  502 -0.35204893186E+02  0.21079341620E+03 -0.22769963757E+02  0.21492261461E+03  0.10100000352E+00 0. -1.
</event>
<event>
 5   0  0.3057783E-03  0.4999973E+03  0.7818609E-02  0.1013780E+00
        1   -1    0    0  501    0  0.00000000000E+00  0.00000000000E+00  0.54113915663E+03  0.54113915665E+03  0.50400001928E-02 0.  1.
       -1   -1    0    0    0  501  0.00000000000E+00  0.00000000000E+00 -0.11549582375E+03  0.11549582386E+03  0.50400001928E-02 0. -1.
    10030    2    1    2    0    0  0.00000000000E+00  0.00000000000E+00  0.42564333288E+03  0.65663498052E+03  0.49999725081E+03 0.  0.
        5    1    3    3  502    0  0.19753684527E+03 -0.23731845720E+02  0.41152713095E+03  0.45712216665E+03  0.46999998093E+01 0.  1.
       -5    1    3    3    0  502 -0.19753684527E+03  0.23731845720E+02  0.14116201927E+02  0.19951281386E+03  0.46999998093E+01 0. -1.
</event>
<event>
 5   0  0.3057783E-03  0.4997642E+03  0.7818609E-02  0.1013840E+00
        1   -1    0    0  501    0  0.00000000000E+00  0.00000000000E+00  0.24214411302E+04  0.24214411302E+04  0.50400001928E-02 0. -1.
       -1   -1    0    0    0  501  0.00000000000E+00  0.00000000000E+00 -0.25786740201E+02  0.25786740693E+02  0.50400001928E-02 0.  1.
    10030    2    1    2    0    0  0.00000000000E+00  0.00000000000E+00  0.23956543900E+04  0.24472278709E+04  0.49976424019E+03 0.  0.
        5    1    3    3  502    0  0.20586716933E+02 -0.39289188901E+02 -0.61350922827E+01  0.45024244959E+02  0.46999998093E+01 0.  1.
       -5    1    3    3    0  502 -0.20586716933E+02  0.39289188901E+02  0.24017894823E+04  0.24022036259E+04  0.46999998093E+01 0. -1.
</event>
<event>
 5   0  0.4989875E-03  0.5000536E+03  0.7818609E-02  0.1013765E+00
        2   -1    0    0  501    0  0.00000000000E+00  0.00000000000E+00  0.18065877925E+04  0.18065877925E+04  0.25500000920E-02 0. -1.
       -2   -1    0    0    0  501  0.00000000000E+00  0.00000000000E+00 -0.34603027650E+02  0.34603027744E+02  0.25500000920E-02 0.  1.
    10030    2    1    2    0    0  0.00000000000E+00  0.00000000000E+00  0.17719847649E+04  0.18411908203E+04  0.50005362683E+03 0.  0.
        2    1    3    3  502    0 -0.15383941108E+03 -0.19418629817E+03  0.76175467385E+03  0.80102750636E+03  0.25500000920E-02 0.  1.
       -2    1    3    3    0  502  0.15383941108E+03  0.19418629817E+03  0.10102300910E+04  0.10401633139E+04  0.25500000920E-02 0. -1.
</event>
<event>
 5   0  0.3057783E-03  0.5002711E+03  0.7818609E-02  0.1013708E+00
        1   -1    0    0  501    0  0.00000000000E+00  0.00000000000E+00  0.38930198033E+03  0.38930198036E+03  0.50400001928E-02 0. -1.
       -1   -1    0    0    0  501  0.00000000000E+00  0.00000000000E+00 -0.16071786760E+03  0.16071786768E+03  0.50400001928E-02 0.  1.
    10030    2    1    2    0    0  0.00000000000E+00  0.00000000000E+00  0.22858411273E+03  0.55001984804E+03  0.50027106317E+03 0.  0.
        5    1    3    3  502    0  0.48463743916E+02 -0.22249421218E+03  0.60041029341E+00  0.22776053087E+03  0.46999998093E+01 0.  1.
       -5    1    3    3    0  502 -0.48463743916E+02  0.22249421218E+03  0.22798370243E+03  0.32225931717E+03  0.46999998093E+01 0. -1.
</event>
<event>
 5   0  0.2863538E-03  0.4990310E+03  0.7818609E-02  0.1014032E+00
       -1   -1    0    0    0  501  0.00000000000E+00  0.00000000000E+00  0.11416823802E+04  0.11416823802E+04  0.50400001928E-02 0. -1.
        1   -1    0    0  501    0  0.00000000000E+00  0.00000000000E+00 -0.54531782906E+02  0.54531783139E+02  0.50400001928E-02 0.  1.
    10030    2    1    2    0    0  0.00000000000E+00  0.00000000000E+00  0.10871505973E+04  0.11962141634E+04  0.49903096437E+03 0.  0.
        1    1    3    3  502    0 -0.24204649120E+03 -0.60552538396E+02  0.54886084181E+03  0.60291072101E+03  0.50400001928E-02 0.  1.
       -1    1    3    3    0  502  0.24204649120E+03  0.60552538396E+02  0.53828975549E+03  0.59330344234E+03  0.50400001928E-02 0. -1.
</event>
<event>
 5   0  0.4989875E-03  0.4996231E+03  0.7818609E-02  0.1013877E+00
       -2   -1    0    0    0  501  0.00000000000E+00  0.00000000000E+00  0.11848812545E+03  0.11848812548E+03  0.25500000920E-02 0.  1.
        2   -1    0    0  501    0  0.00000000000E+00  0.00000000000E+00 -0.52668414876E+03  0.52668414876E+03  0.25500000920E-02 0. -1.
    10030    2    1    2    0    0  0.00000000000E+00  0.00000000000E+00 -0.40819602330E+03  0.64517227424E+03  0.49962312798E+03 0.  0.
        2    1    3    3  502    0  0.15987760831E+03  0.88345423419E+02 -0.42415333122E+03  0.46181361162E+03  0.25500000920E-02 0. -1.
       -2    1    3    3    0  502 -0.15987760831E+03 -0.88345423419E+02  0.15957307922E+02  0.18335866263E+03  0.25500000920E-02 0.  1.
</event>
<event>
 5   0  0.2005125E-03  0.5003760E+03  0.7818609E-02  0.1013681E+00
        4   -1    0    0  501    0  0.00000000000E+00  0.00000000000E+00  0.20197130983E+03  0.20197530268E+03  0.12699999809E+01 0. -1.
       -4   -1    0    0    0  501  0.00000000000E+00  0.00000000000E+00 -0.30990709120E+03  0.30990969342E+03  0.12699999809E+01 0.  1.
    10030    2    1    2    0    0  0.00000000000E+00  0.00000000000E+00 -0.10793578138E+03  0.51188499610E+03  0.50037597498E+03 0.  0.
        3    1    3    3  502    0 -0.22481382460E+03  0.58657212195E+01 -0.16611768756E+03  0.27959034092E+03  0.10100000352E+00 0. -1.
       -3    1    3    3    0  502  0.22481382460E+03 -0.58657212195E+01  0.58181906185E+02  0.23229465518E+03  0.10100000352E+00 0.  1.
</event>
<event>
 5   0  0.3013734E-03  0.5001643E+03  0.7818609E-02  0.1013736E+00
        1   -1    0    0  501    0  0.00000000000E+00  0.00000000000E+00  0.96944487255E+03  0.96944487256E+03  0.50400001928E-02 0.  1.
       -1   -1    0    0    0  501  0.00000000000E+00  0.00000000000E+00 -0.64512274179E+02  0.64512274376E+02  0.50400001928E-02 0. -1.
    10030    2    1    2    0    0  0.00000000000E+00  0.00000000000E+00  0.90493259837E+03  0.10339571469E+04  0.50016434710E+03 0.  0.
        2    1    3    3  502    0 -0.34884054294E+02 -0.14462479494E+03  0.36916802494E+02  0.15328430731E+03  0.25500000920E-02 0. -1.
       -2    1    3    3    0  502  0.34884054294E+02  0.14462479494E+03  0.86801579588E+03  0.88067283962E+03  0.25500000920E-02 0.  1.
</event>
<event>
 5   0  0.3013734E-03  0.5003433E+03  0.7818609E-02  0.1013689E+00
        1   -1    0    0  501    0  0.00000000000E+00  0.00000000000E+00  0.76744831946E+03  0.76744831947E+03  0.50400001928E-02 0.  1.
       -1   -1    0    0    0  501  0.00000000000E+00  0.00000000000E+00 -0.81550575654E+02  0.81550575810E+02  0.50400001928E-02 0. -1.
    10030    2    1    2    0    0  0.00000000000E+00  0.00000000000E+00  0.68589774380E+03  0.84899889528E+03  0.50034329139E+03 0.  0.
        2    1    3    3  502    0 -0.48799000148E+02 -0.68846189462E+01 -0.73232399881E+02  0.88270747093E+02  0.25500000920E-02 0. -1.
       -2    1    3    3    0  502  0.48799000148E+02  0.68846189462E+01  0.75913014368E+03  0.76072814819E+03  0.25500000920E-02 0.  1.
</event>
<event>
 5   0  0.3211775E-03  0.5000940E+03  0.7818609E-02  0.1013754E+00
       -1   -1    0    0    0  501  0.00000000000E+00  0.00000000000E+00  0.17747813776E+03  0.17747813783E+03  0.50400001928E-02 0.  1.
        1   -1    0    0  501    0  0.00000000000E+00  0.00000000000E+00 -0.35228846849E+03  0.35228846853E+03  0.50400001928E-02 0. -1.
    10030    2    1    2    0    0  0.00000000000E+00  0.00000000000E+00 -0.17481033074E+03  0.52976660636E+03  0.50009399665E+03 0.  0.
        4    1    3    3  502    0 -0.10696363777E+02 -0.21648238341E+03  0.44663053594E+02  0.22130394435E+03  0.12699999809E+01 0.  1.
       -4    1    3    3    0  502  0.10696363777E+02  0.21648238341E+03 -0.21947338433E+03  0.30846266201E+03  0.12699999809E+01 0. -1.
</event>
<event>
 5   0  0.3057783E-03  0.4999959E+03  0.7818609E-02  0.1013780E+00
        1   -1    0    0  501    0  0.00000000000E+00  0.00000000000E+00  0.33531009919E+03  0.33531009923E+03  0.50400001928E-02 0.  1.
       -1   -1    0    0    0  501  0.00000000000E+00  0.00000000000E+00 -0.18639153939E+03  0.18639153946E+03  0.50400001928E-02 0. -1.
    10030    2    1    2    0    0  0.00000000000E+00  0.00000000000E+00  0.14891855980E+03  0.52170163869E+03  0.49999586234E+03 0.  0.
        5    1    3    3  502    0 -0.11673889040E+03 -0.18686403488E+03  0.19761167896E+03  0.29600439477E+03  0.46999998093E+01 0.  1.
       -5    1    3    3    0  502  0.11673889040E+03  0.18686403488E+03 -0.48693119158E+02  0.22569724392E+03  0.46999998093E+01 0. -1.
</event>
<event>
 5   0  0.3055293E-03  0.5001073E+03  0.7818609E-02  0.1013751E+00
       -1   -1    0    0    0  501  0.00000000000E+00  0.00000000000E+00  0.69571826834E+02  0.69571827016E+02  0.50400001928E-02 0.  1.
        1   -1    0    0  501    0  0.00000000000E+00  0.00000000000E+00 -0.89873778336E+03  0.89873778337E+03  0.50400001928E-02 0. -1.
    10030    2    1    2    0    0  0.00000000000E+00  0.00000000000E+00 -0.82916595652E+03  0.96830961039E+03  0.50010730660E+03 0.  0.
        3    1    3    3  502    0 -0.20381999682E+03  0.33029463980E+02 -0.14149393870E+03  0.25030797327E+03  0.10100000352E+00 0.  1.
       -3    1    3    3    0  502  0.20381999682E+03 -0.33029463980E+02 -0.68767201782E+03  0.71800163711E+03  0.10100000352E+00 0. -1.
</event>
<event>
 5   0  0.4889251E-03  0.4999899E+03  0.7818609E-02  0.1013782E+00
        2   -1    0    0  501    0  0.00000000000E+00  0.00000000000E+00  0.13971394888E+04  0.13971394888E+04  0.25500000920E-02 0.  1.
       -2   -1    0    0    0  501  0.00000000000E+00  0.00000000000E+00 -0.44732447896E+02  0.44732447968E+02  0.25500000920E-02 0. -1.
    10030    2    1    2    0    0  0.00000000000E+00  0.00000000000E+00  0.13524070409E+04  0.14418719368E+04  0.49998987765E+03 0.  0.
        5    1    3    3  502    0 -0.16788058966E+03  0.10785830724E+03  0.24211634108E+03  0.31378291770E+03  0.46999998093E+01 0. -1.
       -5    1    3    3    0  502  0.16788058966E+03 -0.10785830724E+03  0.11102906998E+04  0.11280890190E+04  0.46999998093E+01 0.  1.
</event>
<event>
 5   0  0.3057783E-03  0.4992302E+03  0.7818609E-02  0.1013980E+00
        1   -1    0    0  501    0  0.00000000000E+00  0.00000000000E+00  0.10191918149E+04  0.10191918149E+04  0.50400001928E-02 0. -1.
       -1   -1    0    0    0  501  0.00000000000E+00  0.00000000000E+00 -0.61134412123E+02  0.61134412331E+02  0.50400001928E-02 0.  1.
    10030    2    1    2    0    0  0.00000000000E+00  0.00000000000E+00  0.95805740278E+03  0.10803262272E+04  0.49923017763E+03 0.  0.
        5    1    3    3  502    0 -0.19381206455E+03  0.15660259454E+03  0.50948739091E+03  0.56717455909E+03  0.46999998093E+01 0.  1.
       -5    1    3    3    0  502  0.19381206455E+03 -0.15660259454E+03  0.44857001187E+03  0.51315166816E+03  0.46999998093E+01 0. -1.
</event>
<event>
 5   0  0.4978779E-03  0.4998947E+03  0.7818609E-02  0.1013806E+00
        2   -1    0    0  501    0  0.00000000000E+00  0.00000000000E+00  0.63496773202E+03  0.63496773203E+03  0.25500000920E-02 0. -1.
       -2   -1    0    0    0  501  0.00000000000E+00  0.00000000000E+00 -0.98388760866E+02  0.98388760899E+02  0.25500000920E-02 0.  1.
    10030    2    1    2    0    0  0.00000000000E+00  0.00000000000E+00  0.53657897115E+03  0.73335649293E+03  0.49989474235E+03 0.  0.
        1    1    3    3  502    0  0.95297391764E+02  0.18310012934E+03  0.61515177385E+02  0.21538655324E+03  0.50400001928E-02 0.  1.
       -1    1    3    3    0  502 -0.95297391764E+02 -0.18310012934E+03  0.47506379377E+03  0.51796993969E+03  0.50400001928E-02 0. -1.
</event>
<event>
 5   0  0.3055293E-03  0.4999586E+03  0.7818609E-02  0.1013790E+00
       -1   -1    0    0    0  501  0.00000000000E+00  0.00000000000E+00  0.45811165545E+02  0.45811165822E+02  0.50400001928E-02 0. -1.
        1   -1    0    0  501    0  0.00000000000E+00  0.00000000000E+00 -0.13640702486E+04  0.13640702486E+04  0.50400001928E-02 0.  1.
    10030    2    1    2    0    0  0.00000000000E+00  0.00000000000E+00 -0.13182590830E+04  0.14098814144E+04  0.49995859098E+03 0.  0.
        3    1    3    3  502    0  0.66141604415E+02 -0.12752315748E+03 -0.12360429805E+04  0.12443629404E+04  0.10100000352E+00 0.  1.
       -3    1    3    3    0  502 -0.66141604415E+02  0.12752315748E+03 -0.82216102515E+02  0.16551847402E+03  0.10100000352E+00 0. -1.
</event>
<event>
 5   0  0.3013734E-03  0.4998814E+03  0.7818609E-02  0.1013810E+00
       -1   -1    0    0    0  501  0.00000000000E+00  0.00000000000E+00  0.13901321265E+03  0.13901321274E+03  0.50400001928E-02 0. -1.
        1   -1    0    0  501    0  0.00000000000E+00  0.00000000000E+00 -0.44938428236E+03  0.44938428239E+03  0.50400001928E-02 0.  1.
    10030    2    1    2    0    0  0.00000000000E+00  0.00000000000E+00 -0.31037106971E+03  0.58839749514E+03  0.49988139730E+03 0.  0.
        2    1    3    3  502    0 -0.98132690755E+02  0.17827328357E+03  0.15628024838E+02  0.20409709404E+03  0.25500000920E-02 0. -1.
       -2    1    3    3    0  502  0.98132690755E+02 -0.17827328357E+03 -0.32599909455E+03  0.38430040110E+03  0.25500000920E-02 0.  1.
</event>
<event>
 5   0  0.2005125E-03  0.4997312E+03  0.7818609E-02  0.1013849E+00
       -3   -1    0    0    0  501  0.00000000000E+00  0.00000000000E+00  0.72746155358E+03  0.72746156059E+03  0.10100000352E+00 0.  1.
        3   -1    0    0  501    0  0.00000000000E+00  0.00000000000E+00 -0.85822816661E+02  0.85822876092E+02  0.10100000352E+00 0. -1.
    10030    2    1    2    0    0  0.00000000000E+00  0.00000000000E+00  0.64163873692E+03  0.81328443668E+03  0.49973123400E+03 0.  0.
        2    1    3    3  502    0 -0.21312563545E+03 -0.11248034008E+03  0.21337772152E+03  0.32187639777E+03  0.25500000920E-02 0. -1.
       -2    1    3    3    0  502  0.21312563545E+03  0.11248034008E+03  0.42826101539E+03  0.49140803891E+03  0.25500000920E-02 0.  1.
</event>
<event>
 5   0  0.4978779E-03  0.5036695E+03  0.7818609E-02  0.1012826E+00
       -2   -1    0    0    0  501  0.00000000000E+00  0.00000000000E+00  0.51235066434E+02  0.51235066498E+02  0.25500000920E-02 0. -1.
        2   -1    0    0  501    0  0.00000000000E+00  0.00000000000E+00 -0.12378385375E+04  0.12378385375E+04  0.25500000920E-02 0.  1.
    10030    2    1    2    0    0  0.00000000000E+00  0.00000000000E+00 -0.11866034710E+04  0.12890736040E+04  0.50366949379E+03 0.  0.
        1    1    3    3  502    0  0.22408032796E+03 -0.16417994114E+02 -0.88443089786E+03  0.91252372957E+03  0.50400001928E-02 0.  1.
       -1    1    3    3    0  502 -0.22408032796E+03  0.16417994114E+02 -0.30217257317E+03  0.37654987440E+03  0.50400001928E-02 0. -1.
</event>
<event>
 5   0  0.5118882E-03  0.5004003E+03  0.7818609E-02  0.1013674E+00
        2   -1    0    0  501    0  0.00000000000E+00  0.00000000000E+00  0.13843914883E+04  0.13843914883E+04  0.25500000920E-02 0.  1.
       -2   -1    0    0    0  501  0.00000000000E+00  0.00000000000E+00 -0.45218509556E+02  0.45218509628E+02  0.25500000920E-02 0. -1.
    10030    2    1    2    0    0  0.00000000000E+00  0.00000000000E+00  0.13391729787E+04  0.14296099979E+04  0.50040031893E+03 0.  0.
        3    1    3    3  502    0  0.24926971201E+03 -0.11385761086E+01  0.73108848665E+03  0.77241638459E+03  0.10100000352E+00 0.  1.
       -3    1    3    3    0  502 -0.24926971201E+03  0.11385761086E+01  0.60808449210E+03  0.65719361334E+03  0.10100000352E+00 0. -1.
</event>
<event>
 5   0  0.4978779E-03  0.4999515E+03  0.7818609E-02  0.1013792E+00
        2   -1    0    0  501    0  0.00000000000E+00  0.00000000000E+00  0.21349692344E+03  0.21349692346E+03  0.25500000920E-02 0. -1.
       -2   -1    0    0    0  501  0.00000000000E+00  0.00000000000E+00 -0.29268745210E+03  0.29268745211E+03  0.25500000920E-02 0.  1.
    10030    2    1    2    0    0  0.00000000000E+00  0.00000000000E+00 -0.79190528658E+02  0.50618437557E+03  0.49995147988E+03 0.  0.
        1    1    3    3  502    0  0.10497249305E+03  0.10148804021E+03  0.16583532296E+03  0.22095339094E+03  0.50400001928E-02 0. -1.
       -1    1    3    3    0  502 -0.10497249305E+03 -0.10148804021E+03 -0.24502585162E+03  0.28523098462E+03  0.50400001928E-02 0.  1.
</event>
<event>
 5   0  0.5118882E-03  0.4999631E+03  0.7818609E-02  0.1013789E+00
        2   -1    0    0  501    0  0.00000000000E+00  0.00000000000E+00  0.99258158345E+03  0.99258158345E+03  0.25500000920E-02 0. -1.
       -2   -1    0    0    0  501  0.00000000000E+00  0.00000000000E+00 -0.62957828185E+02  0.62957828236E+02  0.25500000920E-02 0.  1.
    10030    2    1    2    0    0  0.00000000000E+00  0.00000000000E+00  0.92962375526E+03  0.10555394117E+04  0.49996312192E+03 0.  0.
        3    1    3    3  502    0 -0.54905821360E+02  0.10082686951E+01 -0.50065831763E+02  0.74311934008E+02  0.10100000352E+00 0.  1.
       -3    1    3    3    0  502  0.54905821360E+02 -0.10082686951E+01  0.97968958703E+03  0.98122747768E+03  0.10100000352E+00 0. -1.
</event>
<event>
 5   0  0.4989875E-03  0.5002655E+03  0.7818609E-02  0.1013710E+00
        2   -1    0    0  501    0  0.00000000000E+00  0.00000000000E+00  0.18856989220E+04  0.18856989220E+04  0.25500000920E-02 0.  1.
       -2   -1    0    0    0  501  0.00000000000E+00  0.00000000000E+00 -0.33179412981E+02  0.33179413079E+02  0.25500000920E-02 0. -1.
    10030    2    1    2    0    0  0.00000000000E+00  0.00000000000E+00  0.18525195090E+04  0.19188783351E+04  0.50026546308E+03 0.  0.
        2    1    3    3  502    0 -0.13180592650E+03  0.20703784887E+02  0.11470861044E+03  0.17595315935E+03  0.25500000920E-02 0. -1.
       -2    1    3    3    0  502  0.13180592650E+03 -0.20703784887E+02  0.17378108986E+04  0.17429251757E+04  0.25500000920E-02 0.  1.
</event>
<event>
 5   0  0.4978779E-03  0.5000325E+03  0.7818609E-02  0.1013770E+00
       -2   -1    0    0    0  501  0.00000000000E+00  0.00000000000E+00  0.20929955903E+03  0.20929955904E+03  0.25500000920E-02 0.  1.
        2   -1    0    0  501    0  0.00000000000E+00  0.00000000000E+00 -0.29865393816E+03  0.29865393818E+03  0.25500000920E-02 0. -1.
    10030    2    1    2    0    0  0.00000000000E+00  0.00000000000E+00 -0.89354379135E+02  0.50795349722E+03  0.50003254921E+03 0.  0.
        1    1    3    3  502    0 -0.10532770600E+03 -0.58376379305E+02  0.17789725355E+03  0.21482355588E+03  0.50400001928E-02 0.  1.
       -1    1    3    3    0  502  0.10532770600E+03  0.58376379305E+02 -0.26725163269E+03  0.29312994134E+03  0.50400001928E-02 0. -1.
</event>
<event>
 5   0  0.3057783E-03  0.5012643E+03  0.7818609E-02  0.1013449E+00
       -1   -1    0    0    0  501  0.00000000000E+00  0.00000000000E+00  0.27092676332E+03  0.27092676336E+03  0.50400001928E-02 0.  1.
        1   -1    0    0  501    0  0.00000000000E+00  0.00000000000E+00 -0.23185773129E+03  0.23185773135E+03  0.50400001928E-02 0. -1.
    10030    2    1    2    0    0  0.00000000000E+00  0.00000000000E+00  0.39069032024E+02  0.50278449471E+03  0.50126426050E+03 0.  0.
        5    1    3    3  502    0  0.13768214078E+03 -0.20808207151E+03  0.42839748169E+02  0.25320318797E+03  0.46999998093E+01 0. -1.
       -5    1    3    3    0  502 -0.13768214078E+03  0.20808207151E+03 -0.37707161445E+01  0.24958130674E+03  0.46999998093E+01 0.  1.
</event>
<event>
 5   0  0.3055293E-03  0.5009296E+03  0.7818609E-02  0.1013537E+00
        1   -1    0    0  501    0  0.00000000000E+00  0.00000000000E+00  0.54649007235E+02  0.54649007468E+02  0.50400001928E-02 0.  1.
       -1   -1    0    0    0  501  0.00000000000E+00  0.00000000000E+00 -0.11479186053E+04  0.11479186053E+04  0.50400001928E-02 0. -1.
    10030    2    1    2    0    0  0.00000000000E+00  0.00000000000E+00 -0.10932695981E+04  0.12025676128E+04  0.50092958512E+03 0.  0.
        3    1    3    3  502    0  0.19203571623E+03 -0.15815336510E+03 -0.61631216424E+03  0.66462839030E+03  0.10100000352E+00 0.  1.
       -3    1    3    3    0  502 -0.19203571623E+03  0.15815336510E+03 -0.47695743383E+03  0.53793922248E+03  0.10100000352E+00 0. -1.
</event>
<event>
 5   0  0.4989875E-03  0.5000105E+03  0.7818609E-02  0.1013776E+00
        2   -1    0    0  501    0  0.00000000000E+00  0.00000000000E+00  0.75351702921E+03  0.75351702922E+03  0.25500000920E-02 0. -1.
       -2   -1    0    0    0  501  0.00000000000E+00  0.00000000000E+00 -0.82947870723E+02  0.82947870762E+02  0.25500000920E-02 0.  1.
    10030    2    1    2    0    0  0.00000000000E+00  0.00000000000E+00  0.67056915849E+03  0.83646489998E+03  0.50001053247E+03 0.  0.
        2    1    3    3  502    0 -0.89044072336E+02 -0.10767050272E+03 -0.11536962744E+02  0.14019588257E+03  0.25500000920E-02 0.  1.
       -2    1    3    3    0  502  0.89044072336E+02  0.10767050272E+03  0.68210612124E+03  0.69626901741E+03  0.25500000920E-02 0. -1.
</event>
<event>
 5   0  0.3055293E-03  0.4996738E+03  0.7818609E-02  0.1013864E+00
       -1   -1    0    0    0  501  0.00000000000E+00  0.00000000000E+00  0.70788706609E+02  0.70788706788E+02  0.50400001928E-02 0.  1.
        1   -1    0    0  501    0  0.00000000000E+00  0.00000000000E+00 -0.88175772227E+03  0.88175772228E+03  0.50400001928E-02 0. -1.
    10030    2    1    2    0    0  0.00000000000E+00  0.00000000000E+00 -0.81096901566E+03  0.95254642907E+03  0.49967384880E+03 0.  0.
        3    1    3    3  502    0  0.16700564880E+03  0.84401808443E+02 -0.89907081159E+02  0.20760020579E+03  0.10100000352E+00 0.  1.
       -3    1    3    3    0  502 -0.16700564880E+03 -0.84401808443E+02 -0.72106193450E+03  0.74494622328E+03  0.10100000352E+00 0. -1.
</event>
<event>
 5   0  0.3055293E-03  0.4999470E+03  0.7818609E-02  0.1013793E+00
       -1   -1    0    0    0  501  0.00000000000E+00  0.00000000000E+00  0.77548764816E+02  0.77548764979E+02  0.50400001928E-02 0.  1.
        1   -1    0    0  501    0  0.00000000000E+00  0.00000000000E+00 -0.80577351307E+03  0.80577351308E+03  0.50400001928E-02 0. -1.
    10030    2    1    2    0    0  0.00000000000E+00  0.00000000000E+00 -0.72822474825E+03  0.88332227806E+03  0.49994696014E+03 0.  0.
        3    1    3    3  502    0 -0.23329960499E+03  0.73921791679E+02 -0.45409242030E+03  0.51584210118E+03  0.10100000352E+00 0. -1.
       -3    1    3    3    0  502  0.23329960499E+03 -0.73921791679E+02 -0.27413232795E+03  0.36748017688E+03  0.10100000352E+00 0.  1.
</event>
<event>
 5   0  0.2005125E-03  0.5001139E+03  0.7818609E-02  0.1013749E+00
        4   -1    0    0  501    0  0.00000000000E+00  0.00000000000E+00  0.41957381687E+03  0.41957573893E+03  0.12699999809E+01 0. -1.
       -4   -1    0    0    0  501  0.00000000000E+00  0.00000000000E+00 -0.14902355974E+03  0.14902897120E+03  0.12699999809E+01 0.  1.
    10030    2    1    2    0    0  0.00000000000E+00  0.00000000000E+00  0.27055025713E+03  0.56860471014E+03  0.50011386179E+03 0.  0.
        2    1    3    3  502    0  0.98414691626E+01  0.80594355822E+02  0.40417333200E+03  0.41224796787E+03  0.25500000920E-02 0. -1.
       -2    1    3    3    0  502 -0.98414691626E+01 -0.80594355822E+02 -0.13362307488E+03  0.15635674227E+03  0.25500000920E-02 0.  1.
</event>
<event>
 5   0  0.5118882E-03  0.5000495E+03  0.7818609E-02  0.1013766E+00
       -2   -1    0    0    0  501  0.00000000000E+00  0.00000000000E+00  0.43380003423E+02  0.43380003497E+02  0.25500000920E-02 0. -1.
        2   -1    0    0  501    0  0.00000000000E+00  0.00000000000E+00 -0.14410410378E+04  0.14410410378E+04  0.25500000920E-02 0.  1.
    10030    2    1    2    0    0  0.00000000000E+00  0.00000000000E+00 -0.13976610344E+04  0.14844210413E+04  0.50004945839E+03 0.  0.
        3    1    3    3  502    0 -0.52400831861E+02  0.99918816922E+02 -0.36486635067E+02  0.11857867386E+03  0.10100000352E+00 0. -1.
       -3    1    3    3    0  502  0.52400831861E+02 -0.99918816922E+02 -0.13611743993E+04  0.13658423675E+04  0.10100000352E+00 0.  1.
</event>
<event>
 5   0  0.3057783E-03  0.5002618E+03  0.7818609E-02  0.1013711E+00
        1   -1    0    0  501    0  0.00000000000E+00  0.00000000000E+00  0.92542633724E+03  0.92542633726E+03  0.50400001928E-02 0. -1.
       -1   -1    0    0    0  501  0.00000000000E+00  0.00000000000E+00 -0.67607190737E+02  0.67607190925E+02  0.50400001928E-02 0.  1.
    10030    2    1    2    0    0  0.00000000000E+00  0.00000000000E+00  0.85781914651E+03  0.99303352818E+03  0.50026183142E+03 0.  0.
        5    1    3    3  502    0 -0.19886434694E+03  0.85529277902E+01  0.12836824437E+03  0.23689803127E+03  0.46999998093E+01 0.  1.
       -5    1    3    3    0  502  0.19886434694E+03 -0.85529277902E+01  0.72945090214E+03  0.75613549691E+03  0.46999998093E+01 0. -1.
</event>
<event>
 5   0  0.4989875E-03  0.4999734E+03  0.7818609E-02  0.1013786E+00
       -2   -1    0    0    0  501  0.00000000000E+00  0.00000000000E+00  0.22297923909E+03  0.22297923910E+03  0.25500000920E-02 0. -1.
        2   -1    0    0  501    0  0.00000000000E+00  0.00000000000E+00 -0.28026534792E+03  0.28026534793E+03  0.25500000920E-02 0.  1.
    10030    2    1    2    0    0  0.00000000000E+00  0.00000000000E+00 -0.57286108830E+02  0.50324458703E+03  0.49997341541E+03 0.  0.
        2    1    3    3  502    0  0.87239159072E+02 -0.16738953165E+03  0.13632996155E+03  0.23284283241E+03  0.25500000920E-02 0. -1.
       -2    1    3    3    0  502 -0.87239159072E+02  0.16738953165E+03 -0.19361607038E+03  0.27040175462E+03  0.25500000920E-02 0.  1.
</event>
<event>
 5   0  0.2863538E-03  0.4998157E+03  0.7818609E-02  0.1013827E+00
       -1   -1    0    0    0  501  0.00000000000E+00  0.00000000000E+00  0.10316269615E+03  0.10316269628E+03  0.50400001928E-02 0.  1.
        1   -1    0    0  501    0  0.00000000000E+00  0.00000000000E+00 -0.60539267911E+03  0.60539267913E+03  0.50400001928E-02 0. -1.
    10030    2    1    2    0    0  0.00000000000E+00  0.00000000000E+00 -0.50222998296E+03  0.70855537541E+03  0.49981573028E+03 0.  0.
        1    1    3    3  502    0 -0.23531587625E+02 -0.22856138404E+03 -0.11178321545E+03  0.25551815820E+03  0.50400001928E-02 0. -1.
       -1    1    3    3    0  502  0.23531587625E+02  0.22856138404E+03 -0.39044676751E+03  0.45303721721E+03  0.50400001928E-02 0.  1.
</event>
<event>
 5   0  0.2005125E-03  0.4996516E+03  0.7818609E-02  0.1013870E+00
       -3   -1    0    0    0  501  0.00000000000E+00  0.00000000000E+00  0.10856984127E+03  0.10856988825E+03  0.10100000352E+00 0.  1.
        3   -1    0    0  501    0  0.00000000000E+00  0.00000000000E+00 -0.57486409771E+03  0.57486410658E+03  0.10100000352E+00 0. -1.
    10030    2    1    2    0    0  0.00000000000E+00  0.00000000000E+00 -0.46629425644E+03  0.68343399482E+03  0.49965157029E+03 0.  0.
        2    1    3    3  502    0 -0.60767911746E+02 -0.14532743497E+03  0.32083661784E+02  0.16075498068E+03  0.25500000920E-02 0.  1.
       -2    1    3    3    0  502  0.60767911746E+02  0.14532743497E+03 -0.49837791822E+03  0.52267901415E+03  0.25500000920E-02 0. -1.
</event>
<event>
 5   0  0.5118882E-03  0.4999647E+03  0.7818609E-02  0.1013788E+00
       -2   -1    0    0    0  501  0.00000000000E+00  0.00000000000E+00  0.78522933659E+02  0.78522933700E+02  0.25500000920E-02 0. -1.
        2   -1    0    0  501    0  0.00000000000E+00  0.00000000000E+00 -0.79583343545E+03  0.79583343545E+03  0.25500000920E-02 0.  1.
    10030    2    1    2    0    0  0.00000000000E+00  0.00000000000E+00 -0.71731050179E+03  0.87435636915E+03  0.49996470305E+03 0.  0.
        3    1    3    3  502    0  0.20270443339E+03  0.14541784327E+03 -0.38662183840E+03  0.46012160630E+03  0.10100000352E+00 0.  1.
       -3    1    3    3    0  502 -0.20270443339E+03 -0.14541784327E+03 -0.33068866339E+03  0.41423476285E+03  0.10100000352E+00 0. -1.
</event>
<event>
 5   0  0.3013734E-03  0.5000465E+03  0.7818609E-02  0.1013767E+00
       -1   -1    0    0    0  501  0.00000000000E+00  0.00000000000E+00  0.84158667926E+02  0.84158668077E+02  0.50400001928E-02 0.  1.
        1   -1    0    0  501    0  0.00000000000E+00  0.00000000000E+00 -0.74278288827E+03  0.74278288829E+03  0.50400001928E-02 0. -1.
    10030    2    1    2    0    0  0.00000000000E+00  0.00000000000E+00 -0.65862422035E+03  0.82694155637E+03  0.50004647186E+03 0.  0.
        2    1    3    3  502    0  0.17545894741E+03  0.12345294714E+03 -0.54164186101E+03  0.58258250745E+03  0.25500000920E-02 0. -1.
       -2    1    3    3    0  502 -0.17545894741E+03 -0.12345294714E+03 -0.11698235934E+03  0.24435904892E+03  0.25500000920E-02 0.  1.
</event>
<event>
 5   0  0.3055293E-03  0.5003791E+03  0.7818609E-02  0.1013680E+00
        1   -1    0    0  501    0  0.00000000000E+00  0.00000000000E+00  0.40472555920E+03  0.40472555923E+03  0.50400001928E-02 0. -1.
       -1   -1    0    0    0  501  0.00000000000E+00  0.00000000000E+00 -0.15465988730E+03  0.15465988739E+03  0.50400001928E-02 0.  1.
    10030    2    1    2    0    0  0.00000000000E+00  0.00000000000E+00  0.25006567189E+03  0.55938544661E+03  0.50037909391E+03 0.  0.
        3    1    3    3  502    0  0.13793185456E+03 -0.61036976648E+02 -0.98115660069E+02  0.17993721675E+03  0.10100000352E+00 0.  1.
       -3    1    3    3    0  502 -0.13793185456E+03  0.61036976648E+02  0.34818133196E+03  0.37944822986E+03  0.10100000352E+00 0. -1.
</event>
<event>
 5   0  0.3057783E-03  0.5000450E+03  0.7818609E-02  0.1013767E+00
       -1   -1    0    0    0  501  0.00000000000E+00  0.00000000000E+00  0.17242480795E+03  0.17242480802E+03  0.50400001928E-02 0. -1.
        1   -1    0    0  501    0  0.00000000000E+00  0.00000000000E+00 -0.36254212474E+03  0.36254212478E+03  0.50400001928E-02 0.  1.
    10030    2    1    2    0    0  0.00000000000E+00  0.00000000000E+00 -0.19011731679E+03  0.53496693280E+03  0.50004502302E+03 0.  0.
        5    1    3    3  502    0 -0.46766575078E+02 -0.25058386973E+02  0.16628434684E+03  0.17460701391E+03  0.46999998093E+01 0. -1.
       -5    1    3    3    0  502  0.46766575078E+02  0.25058386973E+02 -0.35640166364E+03  0.36035991889E+03  0.46999998093E+01 0.  1.
</event>
<event>
 5   0  0.3013734E-03  0.4999719E+03  0.7818609E-02  0.1013786E+00
       -1   -1    0    0    0  501  0.00000000000E+00  0.00000000000E+00  0.96168704618E+02  0.96168704750E+02  0.50400001928E-02 0.  1.
        1   -1    0    0  501    0  0.00000000000E+00  0.00000000000E+00 -0.64982646368E+03  0.64982646370E+03  0.50400001928E-02 0. -1.
    10030    2    1    2    0    0  0.00000000000E+00  0.00000000000E+00 -0.55365775907E+03  0.74599516845E+03  0.49997187639E+03 0.  0.
        2    1    3    3  502    0  0.23554715562E+01  0.23674816930E+03 -0.39654611020E+03  0.46184852650E+03  0.25500000920E-02 0. -1.
       -2    1    3    3    0  502 -0.23554715562E+01 -0.23674816930E+03 -0.15711164887E+03  0.28414664195E+03  0.25500000920E-02 0.  1.
</event>
<event>
 5   0  0.2005125E-03  0.4999704E+03  0.7818609E-02  0.1013787E+00
       -3   -1    0    0    0  501  0.00000000000E+00  0.00000000000E+00  0.24533583612E+03  0.24533585691E+03  0.10100000352E+00 0. -1.
        3   -1    0    0  501    0  0.00000000000E+00  0.00000000000E+00 -0.25472258494E+03  0.25472260497E+03  0.10100000352E+00 0.  1.
    10030    2    1    2    0    0  0.00000000000E+00  0.00000000000E+00 -0.93867488219E+01  0.50005846188E+03  0.49997035336E+03 0.  0.
        1    1    3    3  502    0  0.41347544826E+02  0.20856678470E+03 -0.13618085427E+03  0.25249742224E+03  0.50400001928E-02 0.  1.
       -1    1    3    3    0  502 -0.41347544826E+02 -0.20856678470E+03  0.12679410545E+03  0.24756103964E+03  0.50400001928E-02 0. -1.
</event>
<event>
 5   0  0.5095783E-03  0.5001565E+03  0.7818609E-02  0.1013738E+00
        2   -1    0    0  501    0  0.00000000000E+00  0.00000000000E+00  0.55281445711E+02  0.55281445770E+02  0.25500000920E-02 0. -1.
       -2   -1    0    0    0  501  0.00000000000E+00  0.00000000000E+00 -0.11312860320E+04  0.11312860320E+04  0.25500000920E-02 0.  1.
    10030    2    1    2    0    0  0.00000000000E+00  0.00000000000E+00 -0.10760045863E+04  0.11865674778E+04  0.50015648510E+03 0.  0.
        4    1    3    3  502    0 -0.12180091014E+03  0.10615892527E+03 -0.99082692423E+03  0.10039147303E+04  0.12699999809E+01 0.  1.
       -4    1    3    3    0  502  0.12180091014E+03 -0.10615892527E+03 -0.85177662036E+02  0.18265274740E+03  0.12699999809E+01 0. -1.
</event>
<event>
 5   0  0.3211775E-03  0.5017413E+03  0.7818609E-02  0.1013325E+00
       -1   -1    0    0    0  501  0.00000000000E+00  0.00000000000E+00  0.20721237301E+03  0.20721237307E+03  0.50400001928E-02 0. -1.
        1   -1    0    0  501    0  0.00000000000E+00  0.00000000000E+00 -0.30372741583E+03  0.30372741588E+03  0.50400001928E-02 0.  1.
    10030    2    1    2    0    0  0.00000000000E+00  0.00000000000E+00 -0.96515042821E+02  0.51093978895E+03  0.50174128238E+03 0.  0.
        4    1    3    3  502    0  0.48820961168E+02  0.17333844098E+03  0.12960061027E+03  0.22187300974E+03  0.12699999809E+01 0. -1.
       -4    1    3    3    0  502 -0.48820961168E+02 -0.17333844098E+03 -0.22611565309E+03  0.28906677921E+03  0.12699999809E+01 0.  1.
</event>
<event>
 5   0  0.3055293E-03  0.5001891E+03  0.7818609E-02  0.1013730E+00
       -1   -1    0    0    0  501  0.00000000000E+00  0.00000000000E+00  0.22024342663E+03  0.22024342669E+03  0.50400001928E-02 0. -1.
        1   -1    0    0  501    0  0.00000000000E+00  0.00000000000E+00 -0.28399157987E+03  0.28399157991E+03  0.50400001928E-02 0.  1.
    10030    2    1    2    0    0  0.00000000000E+00  0.00000000000E+00 -0.63748153237E+02  0.50423500660E+03  0.50018907909E+03 0.  0.
        3    1    3    3  502    0  0.20691898750E+02  0.17583390359E+03  0.14619433621E+03  0.22960511856E+03  0.10100000352E+00 0. -1.
       -3    1    3    3    0  502 -0.20691898750E+02 -0.17583390359E+03 -0.20994248945E+03  0.27462988804E+03  0.10100000352E+00 0.  1.
</event>
<event>
 5   0  0.2005125E-03  0.5003456E+03  0.7818609E-02  0.1013689E+00
       -4   -1    0    0    0  501  0.00000000000E+00  0.00000000000E+00  0.96301826465E+02  0.96310200293E+02  0.12699999809E+01 0.  1.
        4   -1    0    0  501    0  0.00000000000E+00  0.00000000000E+00 -0.64986135133E+03  0.64986259228E+03  0.12699999809E+01 0. -1.
    10030    2    1    2    0    0  0.00000000000E+00  0.00000000000E+00 -0.55355952486E+03  0.74617279258E+03  0.50034556940E+03 0.  0.
        4    1    3    3  502    0 -0.20722962896E+03  0.13723712470E+03 -0.31913577746E+03  0.40450884399E+03  0.12699999809E+01 0. -1.
       -4    1    3    3    0  502  0.20722962896E+03 -0.13723712470E+03 -0.23442374740E+03  0.34166394858E+03  0.12699999809E+01 0.  1.
</event>
<event>
 5   0  0.4978779E-03  0.4991315E+03  0.7818609E-02  0.1014006E+00
       -2   -1    0    0    0  501  0.00000000000E+00  0.00000000000E+00  0.32422045023E+03  0.32422045024E+03  0.25500000920E-02 0.  1.
        2   -1    0    0  501    0  0.00000000000E+00  0.00000000000E+00 -0.19210096385E+03  0.19210096387E+03  0.25500000920E-02 0. -1.
    10030    2    1    2    0    0  0.00000000000E+00  0.00000000000E+00  0.13211948638E+03  0.51632141411E+03  0.49913148968E+03 0.  0.
        1    1    3    3  502    0 -0.12563969880E+01 -0.16088647652E+03 -0.13129069989E+03  0.20766146673E+03  0.50400001928E-02 0. -1.
       -1    1    3    3    0  502  0.12563969880E+01  0.16088647652E+03  0.26341018627E+03  0.30865994738E+03  0.50400001928E-02 0.  1.
</event>
<event>
 5   0  0.5118882E-03  0.5000160E+03  0.7818609E-02  0.1013775E+00
       -2   -1    0    0    0  501  0.00000000000E+00  0.00000000000E+00  0.77047014227E+02  0.77047014269E+02  0.25500000920E-02 0. -1.
        2   -1    0    0  501    0  0.00000000000E+00  0.00000000000E+00 -0.81124482768E+03  0.81124482769E+03  0.25500000920E-02 0.  1.
    10030    2    1    2    0    0  0.00000000000E+00  0.00000000000E+00 -0.73419781345E+03  0.88829184195E+03  0.50001596695E+03 0.  0.
        3    1    3    3  502    0  0.53908146571E+02  0.19239869060E+03 -0.63405503632E+03  0.66479255689E+03  0.10100000352E+00 0.  1.
       -3    1    3    3    0  502 -0.53908146571E+02 -0.19239869060E+03 -0.10014277713E+03  0.22349928507E+03  0.10100000352E+00 0. -1.
</event>
<event>
 5   0  0.5118882E-03  0.5002829E+03  0.7818609E-02  0.1013705E+00
        2   -1    0    0  501    0  0.00000000000E+00  0.00000000000E+00  0.16018101849E+03  0.16018101851E+03  0.25500000920E-02 0. -1.
       -2   -1    0    0    0  501  0.00000000000E+00  0.00000000000E+00 -0.39062526132E+03  0.39062526133E+03  0.25500000920E-02 0.  1.
    10030    2    1    2    0    0  0.00000000000E+00  0.00000000000E+00 -0.23044424283E+03  0.55080627983E+03  0.50028292880E+03 0.  0.
        3    1    3    3  502    0 -0.13295183394E+02 -0.23045789608E+03 -0.91428303996E+01  0.23102208837E+03  0.10100000352E+00 0. -1.
       -3    1    3    3    0  502  0.13295183394E+02  0.23045789608E+03 -0.22130141243E+03  0.31978419146E+03  0.10100000352E+00 0.  1.
</event>
<event>
 5   0  0.3211775E-03  0.4995197E+03  0.7818609E-02  0.1013904E+00
        1   -1    0    0  501    0  0.00000000000E+00  0.00000000000E+00  0.12027156603E+03  0.12027156614E+03  0.50400001928E-02 0.  1.
       -1   -1    0    0    0  501  0.00000000000E+00  0.00000000000E+00 -0.51865948195E+03  0.51865948197E+03  0.50400001928E-02 0. -1.
    10030    2    1    2    0    0  0.00000000000E+00  0.00000000000E+00 -0.39838791592E+03  0.63893104811E+03  0.49951972203E+03 0.  0.
        4    1    3    3  502    0  0.16636197456E+03  0.72681248131E+02  0.20197155643E+02  0.18267021762E+03  0.12699999809E+01 0.  1.
       -4    1    3    3    0  502 -0.16636197456E+03 -0.72681248131E+02 -0.41858507156E+03  0.45626083049E+03  0.12699999809E+01 0. -1.
</event>
<event>
 5   0  0.4978779E-03  0.5004991E+03  0.7818609E-02  0.1013649E+00
        2   -1    0    0  501    0  0.00000000000E+00  0.00000000000E+00  0.81701218973E+03  0.81701218974E+03  0.25500000920E-02 0. -1.
       -2   -1    0    0    0  501  0.00000000000E+00  0.00000000000E+00 -0.76651052901E+02  0.76651052943E+02  0.25500000920E-02 0.  1.
    10030    2    1    2    0    0  0.00000000000E+00  0.00000000000E+00  0.74036113683E+03  0.89366324268E+03  0.50049912926E+03 0.  0.
        1    1    3    3  502    0 -0.12545106127E+03 -0.15544389457E+03  0.63934250356E+03  0.66982058047E+03  0.50400001928E-02 0. -1.
       -1    1    3    3    0  502  0.12545106127E+03  0.15544389457E+03  0.10101863327E+03  0.22384266221E+03  0.50400001928E-02 0.  1.
</event>
<event>
 5   0  0.3013734E-03  0.4999920E+03  0.7818609E-02  0.1013781E+00
        1   -1    0    0  501    0  0.00000000000E+00  0.00000000000E+00  0.14555749386E+03  0.14555749394E+03  0.50400001928E-02 0.  1.
       -1   -1    0    0    0  501  0.00000000000E+00  0.00000000000E+00 -0.42936989475E+03  0.42936989478E+03  0.50400001928E-02 0. -1.
    10030    2    1    2    0    0  0.00000000000E+00  0.00000000000E+00 -0.28381240089E+03  0.57492738872E+03  0.49999202334E+03 0.  0.
        2    1    3    3  502    0 -0.78545088320E+02  0.18927297878E+03  0.22748300987E+02  0.20618214423E+03  0.25500000920E-02 0.  1.
       -2    1    3    3    0  502  0.78545088320E+02 -0.18927297878E+03 -0.30656070188E+03  0.36874524449E+03  0.25500000920E-02 0. -1.
</event>
<event>
 5   0  0.2863538E-03  0.5001972E+03  0.7818609E-02  0.1013727E+00
       -1   -1    0    0    0  501  0.00000000000E+00  0.00000000000E+00  0.18125614285E+03  0.18125614292E+03  0.50400001928E-02 0.  1.
        1   -1    0    0  501    0  0.00000000000E+00  0.00000000000E+00 -0.34508789888E+03  0.34508789891E+03  0.50400001928E-02 0. -1.
    10030    2    1    2    0    0  0.00000000000E+00  0.00000000000E+00 -0.16383175603E+03  0.52634404183E+03  0.50019716721E+03 0.  0.
        1    1    3    3  502    0 -0.76314780692E+02  0.34342626541E+01  0.16867885807E+03  0.18517099421E+03  0.50400001928E-02 0.  1.
       -1    1    3    3    0  502  0.76314780692E+02 -0.34342626541E+01 -0.33251061410E+03  0.34117304762E+03  0.50400001928E-02 0. -1.
</event>
<event>
 5   0  0.3057783E-03  0.4998976E+03  0.7818609E-02  0.1013806E+00
       -1   -1    0    0    0  501  0.00000000000E+00  0.00000000000E+00  0.50541025608E+03  0.50541025611E+03  0.50400001928E-02 0.  1.
        1   -1    0    0  501    0  0.00000000000E+00  0.00000000000E+00 -0.12361126509E+03  0.12361126520E+03  0.50400001928E-02 0. -1.
    10030    2    1    2    0    0  0.00000000000E+00  0.00000000000E+00  0.38179899099E+03  0.62902152130E+03  0.49989759426E+03 0.  0.
        5    1    3    3  502    0 -0.94059276917E+02  0.90917128446E+02 -0.77030645647E+02  0.15188443694E+03  0.46999998093E+01 0. -1.
       -5    1    3    3    0  502  0.94059276917E+02 -0.90917128446E+02  0.45882963663E+03  0.47713708436E+03  0.46999998093E+01 0.  1.
</event>
<event>
 5   0  0.4989875E-03  0.5006086E+03  0.7818609E-02  0.1013620E+00
        2   -1    0    0  501    0  0.00000000000E+00  0.00000000000E+00  0.18463887974E+03  0.18463887976E+03  0.25500000920E-02 0.  1.
       -2   -1    0    0    0  501  0.00000000000E+00  0.00000000000E+00 -0.33932312661E+03  0.33932312662E+03  0.25500000920E-02 0. -1.
    10030    2    1    2    0    0  0.00000000000E+00  0.00000000000E+00 -0.15468424687E+03  0.52396200638E+03  0.50060859751E+03 0.  0.
        2    1    3    3  502    0  0.17213659504E+03  0.16566715686E+03 -0.15549561373E+03  0.28505350394E+03  0.25500000920E-02 0. -1.
       -2    1    3    3    0  502 -0.17213659504E+03 -0.16566715686E+03  0.81136685841E+00  0.23890850244E+03  0.25500000920E-02 0.  1.
</event>
<event>
 5   0  0.4978779E-03  0.4997361E+03  0.7818609E-02  0.1013848E+00
       -2   -1    0    0    0  501  0.00000000000E+00  0.00000000000E+00  0.19956676397E+03  0.19956676398E+03  0.25500000920E-02 0.  1.
        2   -1    0    0  501    0  0.00000000000E+00  0.00000000000E+00 -0.31284787913E+03  0.31284787914E+03  0.25500000920E-02 0. -1.
    10030    2    1    2    0    0  0.00000000000E+00  0.00000000000E+00 -0.11328111516E+03  0.51241464313E+03  0.49973608579E+03 0.  0.
        1    1    3    3  502    0 -0.77317660341E+02 -0.22354840008E+03 -0.13919486242E+03  0.27445786112E+03  0.50400001928E-02 0. -1.
       -1    1    3    3    0  502  0.77317660341E+02  0.22354840008E+03  0.25913747257E+02  0.23795678201E+03  0.50400001928E-02 0.  1.
</event>
<event>
 5   0  0.4889251E-03  0.4999938E+03  0.7818609E-02  0.1013781E+00
        2   -1    0    0  501    0  0.00000000000E+00  0.00000000000E+00  0.98041334579E+03  0.98041334579E+03  0.25500000920E-02 0. -1.
       -2   -1    0    0    0  501  0.00000000000E+00  0.00000000000E+00 -0.63747051628E+02  0.63747051679E+02  0.25500000920E-02 0.  1.
    10030    2    1    2    0    0  0.00000000000E+00  0.00000000000E+00  0.91666629416E+03  0.10441603975E+04  0.49999384076E+03 0.  0.
        5    1    3    3  502    0  0.18948775539E+03  0.86124335511E+02  0.16931504542E+03  0.26835179376E+03  0.46999998093E+01 0.  1.
       -5    1    3    3    0  502 -0.18948775539E+03 -0.86124335511E+02  0.74735124874E+03  0.77580860371E+03  0.46999998093E+01 0. -1.
</event>
<event>
 5   0  0.3057783E-03  0.4999772E+03  0.7818609E-02  0.1013785E+00
       -1   -1    0    0    0  501  0.00000000000E+00  0.00000000000E+00  0.56943204885E+02  0.56943205108E+02  0.50400001928E-02 0.  1.
        1   -1    0    0  501    0  0.00000000000E+00  0.00000000000E+00 -0.10974848412E+04  0.10974848412E+04  0.50400001928E-02 0. -1.
    10030    2    1    2    0    0  0.00000000000E+00  0.00000000000E+00 -0.10405416363E+04  0.11544280463E+04  0.49997721670E+03 0.  0.
        5    1    3    3  502    0  0.92023547630E+02  0.20025067838E+03 -0.24801356650E+03  0.33181544068E+03  0.46999998093E+01 0.  1.
       -5    1    3    3    0  502 -0.92023547630E+02 -0.20025067838E+03 -0.79252806977E+03  0.82261260559E+03  0.46999998093E+01 0. -1.
</event>
<event>
 5   0  0.2005125E-03  0.4990524E+03  0.7818609E-02  0.1014027E+00
        4   -1    0    0  501    0  0.00000000000E+00  0.00000000000E+00  0.12056366323E+03  0.12057035204E+03  0.12699999809E+01 0. -1.
       -4   -1    0    0    0  501  0.00000000000E+00  0.00000000000E+00 -0.51641354489E+03  0.51641510652E+03  0.12699999809E+01 0.  1.
    10030    2    1    2    0    0  0.00000000000E+00  0.00000000000E+00 -0.39584988166E+03  0.63698545857E+03  0.49905244776E+03 0.  0.
        4    1    3    3  502    0 -0.23331128059E+02 -0.21975626774E+03 -0.34581311091E+03  0.41039673405E+03  0.12699999809E+01 0.  1.
       -4    1    3    3    0  502  0.23331128059E+02  0.21975626774E+03 -0.50036770750E+02  0.22658872451E+03  0.12699999809E+01 0. -1.
</event>
<event>
 5   0  0.5095783E-03  0.5000239E+03  0.7818609E-02  0.1013773E+00
        2   -1    0    0  501    0  0.00000000000E+00  0.00000000000E+00  0.55912976701E+03  0.55912976702E+03  0.25500000920E-02 0. -1.
       -2   -1    0    0    0  501  0.00000000000E+00  0.00000000000E+00 -0.11179154553E+03  0.11179154556E+03  0.25500000920E-02 0.  1.
    10030    2    1    2    0    0  0.00000000000E+00  0.00000000000E+00  0.44733822148E+03  0.67092131257E+03  0.50002392269E+03 0.  0.
        4    1    3    3  502    0  0.52206091218E+02  0.21791808400E+03  0.37242266742E+03  0.43464240866E+03  0.12699999809E+01 0. -1.
       -4    1    3    3    0  502 -0.52206091218E+02 -0.21791808400E+03  0.74915554059E+02  0.23627890391E+03  0.12699999809E+01 0.  1.
</event>
<event>
 5   0  0.4978779E-03  0.4999715E+03  0.7818609E-02  0.1013786E+00
        2   -1    0    0  501    0  0.00000000000E+00  0.00000000000E+00  0.92519678494E+03  0.92519678495E+03  0.25500000920E-02 0. -1.
       -2   -1    0    0    0  501  0.00000000000E+00  0.00000000000E+00 -0.67545508677E+02  0.67545508725E+02  0.25500000920E-02 0.  1.
    10030    2    1    2    0    0  0.00000000000E+00  0.00000000000E+00  0.85765127626E+03  0.99274229367E+03  0.49997154915E+03 0.  0.
        1    1    3    3  502    0  0.11045425770E+03 -0.21909917950E+03  0.52380891323E+03  0.57842922740E+03  0.50400001928E-02 0. -1.
       -1    1    3    3    0  502 -0.11045425770E+03  0.21909917950E+03  0.33384236304E+03  0.41431306628E+03  0.50400001928E-02 0.  1.
</event>
<event>
 5   0  0.3211775E-03  0.5003467E+03  0.7818609E-02  0.1013688E+00
       -1   -1    0    0    0  501  0.00000000000E+00  0.00000000000E+00  0.33885473855E+03  0.33885473858E+03  0.50400001928E-02 0. -1.
        1   -1    0    0  501    0  0.00000000000E+00  0.00000000000E+00 -0.18470071207E+03  0.18470071214E+03  0.50400001928E-02 0.  1.
    10030    2    1    2    0    0  0.00000000000E+00  0.00000000000E+00  0.15415402647E+03  0.52355545073E+03  0.50034672589E+03 0.  0.
        4    1    3    3  502    0 -0.12690097238E+02 -0.17654940251E+03 -0.10791244800E+03  0.20731000802E+03  0.12699999809E+01 0.  1.
       -4    1    3    3    0  502  0.12690097238E+02  0.17654940251E+03  0.26206647447E+03  0.31624544271E+03  0.12699999809E+01 0. -1.
</event>
<event>
 5   0  0.3057783E-03  0.5000571E+03  0.7818609E-02  0.1013764E+00
       -1   -1    0    0    0  501  0.00000000000E+00  0.00000000000E+00  0.16609895551E+03  0.16609895559E+03  0.50400001928E-02 0. -1.
        1   -1    0    0  501    0  0.00000000000E+00  0.00000000000E+00 -0.37636765765E+03  0.37636765768E+03  0.50400001928E-02 0.  1.
    10030    2    1    2    0    0  0.00000000000E+00  0.00000000000E+00 -0.21026870214E+03  0.54246661327E+03  0.50005709616E+03 0.  0.
        5    1    3    3  502    0  0.15944346865E+02  0.10807306719E+03  0.13878660475E+03  0.17668565790E+03  0.46999998093E+01 0. -1.
       -5    1    3    3    0  502 -0.15944346865E+02 -0.10807306719E+03 -0.34905530689E+03  0.36578095538E+03  0.46999998093E+01 0.  1.
</event>
<event>
 5   0  0.4889251E-03  0.5001027E+03  0.7818609E-02  0.1013752E+00
        2   -1    0    0  501    0  0.00000000000E+00  0.00000000000E+00  0.35516050992E+03  0.35516050993E+03  0.25500000920E-02 0.  1.
       -2   -1    0    0    0  501  0.00000000000E+00  0.00000000000E+00 -0.17604904950E+03  0.17604904951E+03  0.25500000920E-02 0. -1.
    10030    2    1    2    0    0  0.00000000000E+00  0.00000000000E+00  0.17911146042E+03  0.53120955944E+03  0.50010267025E+03 0.  0.
        5    1    3    3  502    0  0.12112129049E+03 -0.48514923426E+02 -0.13696847881E+03  0.18922610547E+03  0.46999998093E+01 0. -1.
       -5    1    3    3    0  502 -0.12112129049E+03  0.48514923426E+02  0.31607993923E+03  0.34198345397E+03  0.46999998093E+01 0.  1.
</event>
<event>
 5   0  0.4889251E-03  0.5001087E+03  0.7818609E-02  0.1013751E+00
       -2   -1    0    0    0  501  0.00000000000E+00  0.00000000000E+00  0.87415327381E+02  0.87415327419E+02  0.25500000920E-02 0.  1.
        2   -1    0    0  501    0  0.00000000000E+00  0.00000000000E+00 -0.71528835731E+03  0.71528835731E+03  0.25500000920E-02 0. -1.
    10030    2    1    2    0    0  0.00000000000E+00  0.00000000000E+00 -0.62787302993E+03  0.80270368473E+03  0.50010865197E+03 0.  0.
        5    1    3    3  502    0  0.99380169223E+02 -0.24721781325E+02 -0.68000773847E+03  0.68769193603E+03  0.46999998093E+01 0. -1.
       -5    1    3    3    0  502 -0.99380169223E+02  0.24721781325E+02  0.52134708540E+02  0.11501174870E+03  0.46999998093E+01 0.  1.
</event>
<event>
 5   0  0.4889251E-03  0.4998900E+03  0.7818609E-02  0.1013808E+00
        2   -1    0    0  501    0  0.00000000000E+00  0.00000000000E+00  0.14749371280E+04  0.14749371280E+04  0.25500000920E-02 0.  1.
       -2   -1    0    0    0  501  0.00000000000E+00  0.00000000000E+00 -0.42356049182E+02  0.42356049259E+02  0.25500000920E-02 0. -1.
    10030    2    1    2    0    0  0.00000000000E+00  0.00000000000E+00  0.14325810788E+04  0.15172931773E+04  0.49989002628E+03 0.  0.
        5    1    3    3  502    0 -0.10672728548E+03  0.72182338980E+02  0.13662135860E+04  0.13722837375E+04  0.46999998093E+01 0.  1.
       -5    1    3    3    0  502  0.10672728548E+03 -0.72182338980E+02  0.66367492798E+02  0.14500943978E+03  0.46999998093E+01 0. -1.
</event>
<event>
 5   0  0.5095783E-03  0.4998881E+03  0.7818609E-02  0.1013808E+00
        2   -1    0    0  501    0  0.00000000000E+00  0.00000000000E+00  0.13307269568E+04  0.13307269568E+04  0.25500000920E-02 0.  1.
       -2   -1    0    0    0  501  0.00000000000E+00  0.00000000000E+00 -0.46945789764E+02  0.46945789833E+02  0.25500000920E-02 0. -1.
    10030    2    1    2    0    0  0.00000000000E+00  0.00000000000E+00  0.12837811670E+04  0.13776727466E+04  0.49988809946E+03 0.  0.
        4    1    3    3  502    0 -0.31924209467E+02  0.19933651623E+02 -0.39082597889E+02  0.54273087021E+02  0.12699999809E+01 0. -1.
       -4    1    3    3    0  502  0.31924209467E+02 -0.19933651623E+02  0.13228637649E+04  0.13233996596E+04  0.12699999809E+01 0.  1.
</event>
<event>
 5   0  0.5095783E-03  0.4998512E+03  0.7818609E-02  0.1013818E+00
        2   -1    0    0  501    0  0.00000000000E+00  0.00000000000E+00  0.10670577046E+04  0.10670577046E+04  0.25500000920E-02 0. -1.
       -2   -1    0    0    0  501  0.00000000000E+00  0.00000000000E+00 -0.58537420925E+02  0.58537420981E+02  0.25500000920E-02 0.  1.
    10030    2    1    2    0    0  0.00000000000E+00  0.00000000000E+00  0.10085202836E+04  0.11255951255E+04  0.49985120200E+03 0.  0.
        4    1    3    3  502    0 -0.34787557364E+02  0.24387336579E+03  0.59918081081E+03  0.64784539022E+03  0.12699999809E+01 0. -1.
       -4    1    3    3    0  502  0.34787557364E+02 -0.24387336579E+03  0.40933947282E+03  0.47774973532E+03  0.12699999809E+01 0.  1.
</event>
<event>
 5   0  0.3057783E-03  0.5000721E+03  0.7818609E-02  0.1013760E+00
       -1   -1    0    0    0  501  0.00000000000E+00  0.00000000000E+00  0.10417045846E+03  0.10417045859E+03  0.50400001928E-02 0.  1.
        1   -1    0    0  501    0  0.00000000000E+00  0.00000000000E+00 -0.60015110434E+03  0.60015110436E+03  0.50400001928E-02 0. -1.
    10030    2    1    2    0    0  0.00000000000E+00  0.00000000000E+00 -0.49598064587E+03  0.70432156295E+03  0.50007205776E+03 0.  0.
        5    1    3    3  502    0  0.12454166035E+03 -0.19433126363E+03 -0.38323476087E+03  0.44739941565E+03  0.46999998093E+01 0. -1.
       -5    1    3    3    0  502 -0.12454166035E+03  0.19433126363E+03 -0.11274588501E+03  0.25692214730E+03  0.46999998093E+01 0.  1.
</event>
<event>
 5   0  0.5118882E-03  0.4997486E+03  0.7818609E-02  0.1013845E+00
        2   -1    0    0  501    0  0.00000000000E+00  0.00000000000E+00  0.41069358365E+03  0.41069358365E+03  0.25500000920E-02 0. -1.
       -2   -1    0    0    0  501  0.00000000000E+00  0.00000000000E+00 -0.15202855954E+03  0.15202855956E+03  0.25500000920E-02 0.  1.
    10030    2    1    2    0    0  0.00000000000E+00  0.00000000000E+00  0.25866502411E+03  0.56272214321E+03  0.49974855254E+03 0.  0.
        3    1    3    3  502    0  0.16620628550E+03  0.79619722759E+02  0.31933595474E+03  0.36869945997E+03  0.10100000352E+00 0. -1.
       -3    1    3    3    0  502 -0.16620628550E+03 -0.79619722759E+02 -0.60670930629E+02  0.19402268325E+03  0.10100000352E+00 0.  1.
</event>
<event>
 5   0  0.4989875E-03  0.5006470E+03  0.7818609E-02  0.1013610E+00
        2   -1    0    0  501    0  0.00000000000E+00  0.00000000000E+00  0.49078871670E+03  0.49078871671E+03  0.25500000920E-02 0. -1.
       -2   -1    0    0    0  501  0.00000000000E+00  0.00000000000E+00 -0.12767583629E+03  0.12767583632E+03  0.25500000920E-02 0.  1.
    10030    2    1    2    0    0  0.00000000000E+00  0.00000000000E+00  0.36311288041E+03  0.61846455302E+03  0.50064702079E+03 0.  0.
        2    1    3    3  502    0 -0.84722623784E+02  0.65886912513E+02 -0.97810909054E+02  0.14521013104E+03  0.25500000920E-02 0.  1.
       -2    1    3    3    0  502  0.84722623784E+02 -0.65886912513E+02  0.46092378946E+03  0.47325442198E+03  0.25500000920E-02 0. -1.
</event>
<event>
 5   0  0.2863538E-03  0.5013732E+03  0.7818609E-02  0.1013421E+00
       -1   -1    0    0    0  501  0.00000000000E+00  0.00000000000E+00  0.11470809321E+03  0.11470809332E+03  0.50400001928E-02 0.  1.
        1   -1    0    0  501    0  0.00000000000E+00  0.00000000000E+00 -0.54785821262E+03  0.54785821264E+03  0.50400001928E-02 0. -1.
    10030    2    1    2    0    0  0.00000000000E+00  0.00000000000E+00 -0.43315011940E+03  0.66256630596E+03  0.50137319818E+03 0.  0.
        1    1    3    3  502    0  0.11822282645E+03 -0.69839843748E+02  0.60592817460E+02  0.15008574223E+03  0.50400001928E-02 0.  1.
       -1    1    3    3    0  502 -0.11822282645E+03  0.69839843748E+02 -0.49374293687E+03  0.51248056373E+03  0.50400001928E-02 0. -1.
</event>
<event>
 5   0  0.4889251E-03  0.4999330E+03  0.7818609E-02  0.1013796E+00
        2   -1    0    0  501    0  0.00000000000E+00  0.00000000000E+00  0.86131316892E+02  0.86131316930E+02  0.25500000920E-02 0.  1.
       -2   -1    0    0    0  501  0.00000000000E+00  0.00000000000E+00 -0.72544174864E+03  0.72544174864E+03  0.25500000920E-02 0. -1.
    10030    2    1    2    0    0  0.00000000000E+00  0.00000000000E+00 -0.63931043174E+03  0.81157306557E+03  0.49993300813E+03 0.  0.
        5    1    3    3  502    0 -0.55835385715E+02 -0.10165172180E+03  0.39730143777E+02  0.12268348367E+03  0.46999998093E+01 0.  1.
       -5    1    3    3    0  502  0.55835385715E+02  0.10165172180E+03 -0.67904057552E+03  0.68888958190E+03  0.46999998093E+01 0. -1.
</event>
<event>
 5   0  0.4989875E-03  0.4999896E+03  0.7818609E-02  0.1013782E+00
       -2   -1    0    0    0  501  0.00000000000E+00  0.00000000000E+00  0.10370133671E+03  0.10370133674E+03  0.25500000920E-02 0.  1.
        2   -1    0    0  501    0  0.00000000000E+00  0.00000000000E+00 -0.60266716123E+03  0.60266716124E+03  0.25500000920E-02 0. -1.
    10030    2    1    2    0    0  0.00000000000E+00  0.00000000000E+00 -0.49896582452E+03  0.70636849798E+03  0.49998956079E+03 0.  0.
        2    1    3    3  502    0 -0.22597659006E+03 -0.98001375549E+02 -0.18908485045E+03  0.31052015964E+03  0.25500000920E-02 0. -1.
       -2    1    3    3    0  502  0.22597659006E+03  0.98001375549E+02 -0.30988097407E+03  0.39584833834E+03  0.25500000920E-02 0.  1.
</event>
<event>
 5   0  0.2863538E-03  0.4998811E+03  0.7818609E-02  0.1013810E+00
        1   -1    0    0  501    0  0.00000000000E+00  0.00000000000E+00  0.42992710630E+03  0.42992710633E+03  0.50400001928E-02 0. -1.
       -1   -1    0    0    0  501  0.00000000000E+00  0.00000000000E+00 -0.14530432569E+03  0.14530432578E+03  0.50400001928E-02 0.  1.
    10030    2    1    2    0    0  0.00000000000E+00  0.00000000000E+00  0.28462278061E+03  0.57523143210E+03  0.49988105909E+03 0.  0.
        1    1    3    3  502    0  0.11310085463E+03 -0.21681091939E+03  0.20178889229E+03  0.31704500495E+03  0.50400001928E-02 0.  1.
       -1    1    3    3    0  502 -0.11310085463E+03  0.21681091939E+03  0.82833888322E+02  0.25818642715E+03  0.50400001928E-02 0. -1.
</event>
<event>
 5   0  0.4889251E-03  0.4999390E+03  0.7818609E-02  0.1013795E+00
       -2   -1    0    0    0  501  0.00000000000E+00  0.00000000000E+00  0.38451835654E+02  0.38451835739E+02  0.25500000920E-02 0. -1.
        2   -1    0    0  501    0  0.00000000000E+00  0.00000000000E+00 -0.16250134732E+04  0.16250134733E+04  0.25500000920E-02 0.  1.
    10030    2    1    2    0    0  0.00000000000E+00  0.00000000000E+00 -0.15865616376E+04  0.16634653090E+04  0.49993900060E+03 0.  0.
        5    1    3    3  502    0  0.23595513707E+03  0.73269555621E+02 -0.91863826592E+03  0.95129470098E+03  0.46999998093E+01 0.  1.
       -5    1    3    3    0  502 -0.23595513707E+03 -0.73269555621E+02 -0.66792337167E+03  0.71217060801E+03  0.46999998093E+01 0. -1.
</event>
<event>
 5   0  0.2005125E-03  0.4998207E+03  0.7818609E-02  0.1013826E+00
        4   -1    0    0  501    0  0.00000000000E+00  0.00000000000E+00  0.67770769144E+03  0.67770888141E+03  0.12699999809E+01 0. -1.
       -4   -1    0    0    0  501  0.00000000000E+00  0.00000000000E+00 -0.92150856849E+02  0.92159607844E+02  0.12699999809E+01 0.  1.
    10030    2    1    2    0    0  0.00000000000E+00  0.00000000000E+00  0.58555683459E+03  0.76986848925E+03  0.49982065204E+03 0.  0.
        2    1    3    3  502    0  0.46221722306E+02 -0.18247661019E+03  0.54597225878E+03  0.57751179057E+03  0.25500000920E-02 0. -1.
       -2    1    3    3    0  502 -0.46221722306E+02  0.18247661019E+03  0.39584575813E+02  0.19235669869E+03  0.25500000920E-02 0.  1.
</event>
<event>
 5   0  0.5118882E-03  0.4998548E+03  0.7818609E-02  0.1013817E+00
        2   -1    0    0  501    0  0.00000000000E+00  0.00000000000E+00  0.15930971140E+04  0.15930971140E+04  0.25500000920E-02 0. -1.
       -2   -1    0    0    0  501  0.00000000000E+00  0.00000000000E+00 -0.39208969618E+02  0.39208969701E+02  0.25500000920E-02 0.  1.
    10030    2    1    2    0    0  0.00000000000E+00  0.00000000000E+00  0.15538881444E+04  0.16323060837E+04  0.49985476455E+03 0.  0.
        3    1    3    3  502    0  0.13560610235E+03  0.18471031165E+03  0.45109458334E+03  0.50595775272E+03  0.10100000352E+00 0.  1.
       -3    1    3    3    0  502 -0.13560610235E+03 -0.18471031165E+03  0.11027935611E+04  0.11263483310E+04  0.10100000352E+00 0. -1.
</event>
<event>
 5   0  0.2005125E-03  0.4999655E+03  0.7818609E-02  0.1013788E+00
       -4   -1    0    0    0  501  0.00000000000E+00  0.00000000000E+00  0.21794069176E+03  0.21794439204E+03  0.12699999809E+01 0. -1.
        4   -1    0    0  501    0  0.00000000000E+00  0.00000000000E+00 -0.28672812718E+03  0.28673093976E+03  0.12699999809E+01 0.  1.
    10030    2    1    2    0    0  0.00000000000E+00  0.00000000000E+00 -0.68787435418E+02  0.50467533180E+03  0.49996547806E+03 0.  0.
        3    1    3    3  502    0 -0.89003602875E+02 -0.68855808735E+02  0.19093232218E+03  0.22162564286E+03  0.10100000352E+00 0. -1.
       -3    1    3    3    0  502  0.89003602875E+02  0.68855808735E+02 -0.25971975760E+03  0.28304968894E+03  0.10100000352E+00 0.  1.
</event>
<event>
 5   0  0.3057783E-03  0.5006298E+03  0.7818609E-02  0.1013615E+00
        1   -1    0    0  501    0  0.00000000000E+00  0.00000000000E+00  0.28542939015E+03  0.28542939019E+03  0.50400001928E-02 0.  1.
       -1   -1    0    0    0  501  0.00000000000E+00  0.00000000000E+00 -0.21952027338E+03  0.21952027344E+03  0.50400001928E-02 0. -1.
    10030    2    1    2    0    0  0.00000000000E+00  0.00000000000E+00  0.65909116766E+02  0.50494966363E+03  0.50062975454E+03 0.  0.
        5    1    3    3  502    0  0.12882994232E+03 -0.96217352270E+02 -0.16048279050E+03  0.22722620659E+03  0.46999998093E+01 0. -1.
       -5    1    3    3    0  502 -0.12882994232E+03  0.96217352270E+02  0.22639190727E+03  0.27772345704E+03  0.46999998093E+01 0.  1.
</event>
<event>
 5   0  0.4989875E-03  0.5008982E+03  0.7818609E-02  0.1013545E+00
       -2   -1    0    0    0  501  0.00000000000E+00  0.00000000000E+00  0.11428465083E+03  0.11428465086E+03  0.25500000920E-02 0. -1.
        2   -1    0    0  501    0  0.00000000000E+00  0.00000000000E+00 -0.54884663308E+03  0.54884663308E+03  0.25500000920E-02 0.  1.
    10030    2    1    2    0    0  0.00000000000E+00  0.00000000000E+00 -0.43456198225E+03  0.66313128394E+03  0.50089817661E+03 0.  0.
        2    1    3    3  502    0 -0.13125251291E+03 -0.21242065482E+03 -0.19164445288E+03  0.31476555253E+03  0.25500000920E-02 0. -1.
       -2    1    3    3    0  502  0.13125251291E+03  0.21242065482E+03 -0.24291752937E+03  0.34836573141E+03  0.25500000920E-02 0.  1.
</event>
<event>
 5   0  0.4978779E-03  0.5002721E+03  0.7818609E-02  0.1013708E+00
       -2   -1    0    0    0  501  0.00000000000E+00  0.00000000000E+00  0.85195879522E+02  0.85195879561E+02  0.25500000920E-02 0. -1.
        2   -1    0    0  501    0  0.00000000000E+00  0.00000000000E+00 -0.73440217553E+03  0.73440217553E+03  0.25500000920E-02 0.  1.
    10030    2    1    2    0    0  0.00000000000E+00  0.00000000000E+00 -0.64920629601E+03  0.81959805510E+03  0.50027208311E+03 0.  0.
        1    1    3    3  502    0  0.32577003607E+02 -0.24117390647E+03 -0.41931252850E+03  0.48481863713E+03  0.50400001928E-02 0.  1.
       -1    1    3    3    0  502 -0.32577003607E+02  0.24117390647E+03 -0.22989376751E+03  0.33477941797E+03  0.50400001928E-02 0. -1.
</event>
<event>
 5   0  0.3013734E-03  0.5001054E+03  0.7818609E-02  0.1013751E+00
        1   -1    0    0  501    0  0.00000000000E+00  0.00000000000E+00  0.12127858862E+03  0.12127858873E+03  0.50400001928E-02 0.  1.
       -1   -1    0    0    0  501  0.00000000000E+00  0.00000000000E+00 -0.51555961438E+03  0.51555961441E+03  0.50400001928E-02 0. -1.
    10030    2    1    2    0    0  0.00000000000E+00  0.00000000000E+00 -0.39428102576E+03  0.63683820313E+03  0.50010535860E+03 0.  0.
        2    1    3    3  502    0 -0.24997363134E+03  0.62456183110E+01 -0.19805728241E+03  0.31898669445E+03  0.25500000920E-02 0.  1.
       -2    1    3    3    0  502  0.24997363134E+03 -0.62456183110E+01 -0.19622374335E+03  0.31785150869E+03  0.25500000920E-02 0. -1.
</event>
<event>
 5   0  0.2863538E-03  0.5001394E+03  0.7818609E-02  0.1013743E+00
        1   -1    0    0  501    0  0.00000000000E+00  0.00000000000E+00  0.51629455469E+03  0.51629455471E+03  0.50400001928E-02 0. -1.
       -1   -1    0    0    0  501  0.00000000000E+00  0.00000000000E+00 -0.12112242686E+03  0.12112242697E+03  0.50400001928E-02 0.  1.
    10030    2    1    2    0    0  0.00000000000E+00  0.00000000000E+00  0.39517212782E+03  0.63741698168E+03  0.50013937850E+03 0.  0.
        1    1    3    3  502    0 -0.17533683074E+02  0.16820706377E+03  0.43235944108E+03  0.46425826074E+03  0.50400001928E-02 0. -1.
       -1    1    3    3    0  502  0.17533683074E+02 -0.16820706377E+03 -0.37187313263E+02  0.17315872094E+03  0.50400001928E-02 0.  1.
</event>
<event>
 5   0  0.4989875E-03  0.4999828E+03  0.7818609E-02  0.1013783E+00
       -2   -1    0    0    0  501  0.00000000000E+00  0.00000000000E+00  0.68785136337E+03  0.68785136337E+03  0.25500000920E-02 0. -1.
        2   -1    0    0  501    0  0.00000000000E+00  0.00000000000E+00 -0.90856401091E+02  0.90856401127E+02  0.25500000920E-02 0.  1.
    10030    2    1    2    0    0  0.00000000000E+00  0.00000000000E+00  0.59699496228E+03  0.77870776450E+03  0.49998279721E+03 0.  0.
        2    1    3    3  502    0  0.24213177887E+03  0.46467756027E+02  0.36287671895E+03  0.43871011369E+03  0.25500000920E-02 0. -1.
       -2    1    3    3    0  502 -0.24213177887E+03 -0.46467756027E+02  0.23411824333E+03  0.33999765081E+03  0.25500000920E-02 0.  1.
</event>
<event>
 5   0  0.2863538E-03  0.5002055E+03  0.7818609E-02  0.1013725E+00
       -1   -1    0    0    0  501  0.00000000000E+00  0.00000000000E+00  0.16822562266E+03  0.16822562273E+03  0.50400001928E-02 0.  1.
        1   -1    0    0  501    0  0.00000000000E+00  0.00000000000E+00 -0.37183027293E+03  0.37183027297E+03  0.50400001928E-02 0. -1.
    10030    2    1    2    0    0  0.00000000000E+00  0.00000000000E+00 -0.20360465027E+03  0.54005589570E+03  0.50020547465E+03 0.  0.
        1    1    3    3  502    0  0.53816382835E+02  0.24247123634E+03 -0.70087349329E+02  0.25807119187E+03  0.50400001928E-02 0. -1.
       -1    1    3    3    0  502 -0.53816382835E+02 -0.24247123634E+03 -0.13351730094E+03  0.28198470382E+03  0.50400001928E-02 0.  1.
</event>
<event>
 5   0  0.2863538E-03  0.4997474E+03  0.7818609E-02  0.1013845E+00
        1   -1    0    0  501    0  0.00000000000E+00  0.00000000000E+00  0.59458875055E+03  0.59458875057E+03  0.50400001928E-02 0.  1.
       -1   -1    0    0    0  501  0.00000000000E+00  0.00000000000E+00 -0.10500847466E+03  0.10500847478E+03  0.50400001928E-02 0. -1.
    10030    2    1    2    0    0  0.00000000000E+00  0.00000000000E+00  0.48958027589E+03  0.69959722535E+03  0.49974736735E+03 0.  0.
        1    1    3    3  502    0  0.17090860121E+02 -0.20029385016E+03  0.45255713315E+03  0.49519459074E+03  0.50400001928E-02 0.  1.
       -1    1    3    3    0  502 -0.17090860121E+02  0.20029385016E+03  0.37023142745E+02  0.20440263461E+03  0.50400001928E-02 0. -1.
</event>
<event>
 5   0  0.3013734E-03  0.5002889E+03  0.7818609E-02  0.1013704E+00
       -1   -1    0    0    0  501  0.00000000000E+00  0.00000000000E+00  0.87569506464E+02  0.87569506609E+02  0.50400001928E-02 0. -1.
        1   -1    0    0  501    0  0.00000000000E+00  0.00000000000E+00 -0.71454379614E+03  0.71454379616E+03  0.50400001928E-02 0.  1.
    10030    2    1    2    0    0  0.00000000000E+00  0.00000000000E+00 -0.62697428967E+03  0.80211330277E+03  0.50028890709E+03 0.  0.
        2    1    3    3  502    0  0.17552770799E+03  0.31410956997E+02 -0.59475381600E+03  0.62090959579E+03  0.25500000920E-02 0.  1.
       -2    1    3    3    0  502 -0.17552770799E+03 -0.31410956997E+02 -0.32220473671E+02  0.18120370697E+03  0.25500000920E-02 0. -1.
</event>
<event>
 5   0  0.5095783E-03  0.4996956E+03  0.7818609E-02  0.1013858E+00
        2   -1    0    0  501    0  0.00000000000E+00  0.00000000000E+00  0.17316117864E+04  0.17316117864E+04  0.25500000920E-02 0. -1.
       -2   -1    0    0    0  501  0.00000000000E+00  0.00000000000E+00 -0.36049604944E+02  0.36049605035E+02  0.25500000920E-02 0.  1.
    10030    2    1    2    0    0  0.00000000000E+00  0.00000000000E+00  0.16955621814E+04  0.17676613914E+04  0.49969559092E+03 0.  0.
        4    1    3    3  502    0  0.82454816029E+02  0.75048002374E+01  0.16816595854E+04  0.16836970312E+04  0.12699999809E+01 0. -1.
       -4    1    3    3    0  502 -0.82454816029E+02 -0.75048002374E+01  0.13902596024E+02  0.83964360232E+02  0.12699999809E+01 0.  1.
</event>
<event>
 5   0  0.2005125E-03  0.4997257E+03  0.7818609E-02  0.1013851E+00
       -4   -1    0    0    0  501  0.00000000000E+00  0.00000000000E+00  0.10674379483E+03  0.10675134957E+03  0.12699999809E+01 0. -1.
        4   -1    0    0  501    0  0.00000000000E+00  0.00000000000E+00 -0.58484293352E+03  0.58484431244E+03  0.12699999809E+01 0.  1.
    10030    2    1    2    0    0  0.00000000000E+00  0.00000000000E+00 -0.47809913869E+03  0.69159566201E+03  0.49972569805E+03 0.  0.
        2    1    3    3  502    0 -0.17058552607E+03  0.65475347900E+02 -0.31884958651E+01  0.18274739232E+03  0.25500000920E-02 0. -1.
       -2    1    3    3    0  502  0.17058552607E+03 -0.65475347900E+02 -0.47491064283E+03  0.50884826969E+03  0.25500000920E-02 0.  1.
</event>
<event>
 5   0  0.5095783E-03  0.4997993E+03  0.7818609E-02  0.1013831E+00
       -2   -1    0    0    0  501  0.00000000000E+00  0.00000000000E+00  0.14005183685E+03  0.14005183687E+03  0.25500000920E-02 0.  1.
        2   -1    0    0  501    0  0.00000000000E+00  0.00000000000E+00 -0.44590516648E+03  0.44590516648E+03  0.25500000920E-02 0. -1.
    10030    2    1    2    0    0  0.00000000000E+00  0.00000000000E+00 -0.30585332963E+03  0.58595700336E+03  0.49979931026E+03 0.  0.
        4    1    3    3  502    0  0.24963770242E+03  0.11314041597E+02 -0.15422939859E+03  0.29365849264E+03  0.12699999809E+01 0.  1.
       -4    1    3    3    0  502 -0.24963770242E+03 -0.11314041597E+02 -0.15162393104E+03  0.29229851072E+03  0.12699999809E+01 0. -1.
</event>
<event>
 5   0  0.4978779E-03  0.4998440E+03  0.7818609E-02  0.1013820E+00
       -2   -1    0    0    0  501  0.00000000000E+00  0.00000000000E+00  0.15616573408E+03  0.15616573411E+03  0.25500000920E-02 0.  1.
        2   -1    0    0  501    0  0.00000000000E+00  0.00000000000E+00 -0.39996608750E+03  0.39996608751E+03  0.25500000920E-02 0. -1.
    10030    2    1    2    0    0  0.00000000000E+00  0.00000000000E+00 -0.24380035342E+03  0.55613182161E+03  0.49984396634E+03 0.  0.
        1    1    3    3  502    0  0.16259037172E+03 -0.14295266214E+03 -0.26082025744E+03  0.33896651649E+03  0.50400001928E-02 0.  1.
       -1    1    3    3    0  502 -0.16259037172E+03  0.14295266214E+03  0.17019904020E+02  0.21716530512E+03  0.50400001928E-02 0. -1.
</event>
<event>
 5   0  0.2005125E-03  0.4998690E+03  0.7818609E-02  0.1013813E+00
        4   -1    0    0  501    0  0.00000000000E+00  0.00000000000E+00  0.45409304001E+03  0.45409481596E+03  0.12699999809E+01 0.  1.
       -4   -1    0    0    0  501  0.00000000000E+00  0.00000000000E+00 -0.13755988657E+03  0.13756574898E+03  0.12699999809E+01 0. -1.
    10030    2    1    2    0    0  0.00000000000E+00  0.00000000000E+00  0.31653315344E+03  0.59166056494E+03  0.49986896971E+03 0.  0.
        2    1    3    3  502    0 -0.37239902213E+02  0.24263572864E+03  0.10264422144E+03  0.26607281584E+03  0.25500000920E-02 0.  1.
       -2    1    3    3    0  502  0.37239902213E+02 -0.24263572864E+03  0.21388893200E+03  0.32558774911E+03  0.25500000920E-02 0. -1.
</event>
<event>
 5   0  0.5118882E-03  0.5000370E+03  0.7818609E-02  0.1013769E+00
       -2   -1    0    0    0  501  0.00000000000E+00  0.00000000000E+00  0.26170072016E+03  0.26170072017E+03  0.25500000920E-02 0.  1.
        2   -1    0    0  501    0  0.00000000000E+00  0.00000000000E+00 -0.23885779217E+03  0.23885779218E+03  0.25500000920E-02 0. -1.
    10030    2    1    2    0    0  0.00000000000E+00  0.00000000000E+00  0.22842927987E+02  0.50055851235E+03  0.50003702356E+03 0.  0.
        3    1    3    3  502    0 -0.12480546081E+02 -0.12021917958E+03  0.23051230029E+03  0.26027744035E+03  0.10100000352E+00 0.  1.
       -3    1    3    3    0  502  0.12480546081E+02  0.12021917958E+03 -0.20766937231E+03  0.24028107200E+03  0.10100000352E+00 0. -1.
</event>
<event>
 5   0  0.5095783E-03  0.5010383E+03  0.7818609E-02  0.1013508E+00
        2   -1    0    0  501    0  0.00000000000E+00  0.00000000000E+00  0.14842579162E+04  0.14842579162E+04  0.25500000920E-02 0.  1.
       -2   -1    0    0    0  501  0.00000000000E+00  0.00000000000E+00 -0.42283654354E+02  0.42283654431E+02  0.25500000920E-02 0. -1.
    10030    2    1    2    0    0  0.00000000000E+00  0.00000000000E+00  0.14419742618E+04  0.15265415706E+04  0.50103831694E+03 0.  0.
        4    1    3    3  502    0 -0.28683524098E+02  0.24690500739E+03  0.62592987076E+03  0.67347950469E+03  0.12699999809E+01 0. -1.
       -4    1    3    3    0  502  0.28683524098E+02 -0.24690500739E+03  0.81604439105E+03  0.85306206591E+03  0.12699999809E+01 0.  1.
</event>
<event>
 5   0  0.3055293E-03  0.5000132E+03  0.7818609E-02  0.1013775E+00
       -1   -1    0    0    0  501  0.00000000000E+00  0.00000000000E+00  0.12468930767E+04  0.12468930768E+04  0.50400001928E-02 0.  1.
        1   -1    0    0  501    0  0.00000000000E+00  0.00000000000E+00 -0.50127233737E+02  0.50127233991E+02  0.50400001928E-02 0. -1.
    10030    2    1    2    0    0  0.00000000000E+00  0.00000000000E+00  0.11967658430E+04  0.12970203107E+04  0.50001320332E+03 0.  0.
        3    1    3    3  502    0 -0.18542261556E+02  0.16181435743E+03  0.10637821109E+03  0.19453543567E+03  0.10100000352E+00 0. -1.
       -3    1    3    3    0  502  0.18542261556E+02 -0.16181435743E+03  0.10903876319E+04  0.11024848751E+04  0.10100000352E+00 0.  1.
</event>
<event>
 5   0  0.3013734E-03  0.4990779E+03  0.7818609E-02  0.1014020E+00
        1   -1    0    0  501    0  0.00000000000E+00  0.00000000000E+00  0.62142459338E+03  0.62142459340E+03  0.50400001928E-02 0. -1.
       -1   -1    0    0    0  501  0.00000000000E+00  0.00000000000E+00 -0.10020473498E+03  0.10020473511E+03  0.50400001928E-02 0.  1.
    10030    2    1    2    0    0  0.00000000000E+00  0.00000000000E+00  0.52121985840E+03  0.72162932850E+03  0.49907789669E+03 0.  0.
        2    1    3    3  502    0 -0.12190389763E+02 -0.86806803743E+02 -0.77209887622E+02  0.11681349893E+03  0.25500000920E-02 0.  1.
       -2    1    3    3    0  502  0.12190389763E+02  0.86806803743E+02  0.59842974602E+03  0.60481582958E+03  0.25500000920E-02 0. -1.
</event>
<event>
 5   0  0.3055293E-03  0.5001184E+03  0.7818609E-02  0.1013748E+00
        1   -1    0    0  501    0  0.00000000000E+00  0.00000000000E+00  0.78895189574E+03  0.78895189576E+03  0.50400001928E-02 0.  1.
       -1   -1    0    0    0  501  0.00000000000E+00  0.00000000000E+00 -0.79256551347E+02  0.79256551507E+02  0.50400001928E-02 0. -1.
    10030    2    1    2    0    0  0.00000000000E+00  0.00000000000E+00  0.70969534440E+03  0.86820844727E+03  0.50011841203E+03 0.  0.
        3    1    3    3  502    0  0.11389270255E+03 -0.51521587594E+02  0.73081848800E+03  0.74143219129E+03  0.10100000352E+00 0.  1.
       -3    1    3    3    0  502 -0.11389270255E+03  0.51521587594E+02 -0.21123143601E+02  0.12677625598E+03  0.10100000352E+00 0. -1.
</event>
<event>
 5   0  0.5095783E-03  0.4998613E+03  0.7818609E-02  0.1013815E+00
        2   -1    0    0  501    0  0.00000000000E+00  0.00000000000E+00  0.91070699586E+02  0.91070699621E+02  0.25500000920E-02 0. -1.
       -2   -1    0    0    0  501  0.00000000000E+00  0.00000000000E+00 -0.68589926014E+03  0.68589926015E+03  0.25500000920E-02 0.  1.
    10030    2    1    2    0    0  0.00000000000E+00  0.00000000000E+00 -0.59482856056E+03  0.77696995977E+03  0.49986128269E+03 0.  0.
        4    1    3    3  502    0  0.23428789621E+03 -0.71763951571E+02 -0.37392392008E+03  0.44705882606E+03  0.12699999809E+01 0.  1.
       -4    1    3    3    0  502 -0.23428789621E+03  0.71763951571E+02 -0.22090464048E+03  0.32991113370E+03  0.12699999809E+01 0. -1.
</event>
<event>
 5   0  0.2863538E-03  0.5000989E+03  0.7818609E-02  0.1013753E+00
        1   -1    0    0  501    0  0.00000000000E+00  0.00000000000E+00  0.24059332741E+03  0.24059332746E+03  0.50400001928E-02 0.  1.
       -1   -1    0    0    0  501  0.00000000000E+00  0.00000000000E+00 -0.25987720365E+03  0.25987720370E+03  0.50400001928E-02 0. -1.
    10030    2    1    2    0    0  0.00000000000E+00  0.00000000000E+00 -0.19283876243E+02  0.50047053116E+03  0.50009887490E+03 0.  0.
        1    1    3    3  502    0  0.16967651061E+03  0.77807231371E+02  0.15685669706E+03  0.24381982476E+03  0.50400001928E-02 0.  1.
       -1    1    3    3    0  502 -0.16967651061E+03 -0.77807231371E+02 -0.17614057330E+03  0.25665070640E+03  0.50400001928E-02 0. -1.
</event>
<event>
 5   0  0.3057783E-03  0.5000120E+03  0.7818609E-02  0.1013776E+00
        1   -1    0    0  501    0  0.00000000000E+00  0.00000000000E+00  0.11125698872E+04  0.11125698872E+04  0.50400001928E-02 0. -1.
       -1   -1    0    0    0  501  0.00000000000E+00  0.00000000000E+00 -0.56178949974E+02  0.56178950200E+02  0.50400001928E-02 0.  1.
    10030    2    1    2    0    0  0.00000000000E+00  0.00000000000E+00  0.10563909372E+04  0.11687488374E+04  0.50001203255E+03 0.  0.
        5    1    3    3  502    0 -0.93922106118E+02 -0.19742972483E+03  0.81141254920E+03  0.84036436934E+03  0.46999998093E+01 0. -1.
       -5    1    3    3    0  502  0.93922106118E+02  0.19742972483E+03  0.24497838800E+03  0.32838446804E+03  0.46999998093E+01 0.  1.
</event>
<event>
 5   0  0.2863538E-03  0.5000178E+03  0.7818609E-02  0.1013774E+00
        1   -1    0    0  501    0  0.00000000000E+00  0.00000000000E+00  0.16267997530E+04  0.16267997530E+04  0.50400001928E-02 0.  1.
       -1   -1    0    0    0  501  0.00000000000E+00  0.00000000000E+00 -0.38421718329E+02  0.38421718659E+02  0.50400001928E-02 0. -1.
    10030    2    1    2    0    0  0.00000000000E+00  0.00000000000E+00  0.15883780347E+04  0.16652214717E+04  0.50001776836E+03 0.  0.
        1    1    3    3  502    0  0.44990214825E+02 -0.14777928200E+03  0.14488465233E+04  0.14570583666E+04  0.50400001928E-02 0.  1.
       -1    1    3    3    0  502 -0.44990214825E+02  0.14777928200E+03  0.13953151140E+03  0.20816310508E+03  0.50400001928E-02 0. -1.
</event>
<event>
 5   0  0.3013734E-03  0.4995648E+03  0.7818609E-02  0.1013893E+00
        1   -1    0    0  501    0  0.00000000000E+00  0.00000000000E+00  0.37601610683E+03  0.37601610687E+03  0.50400001928E-02 0.  1.
       -1   -1    0    0    0  501  0.00000000000E+00  0.00000000000E+00 -0.16592704266E+03  0.16592704274E+03  0.50400001928E-02 0. -1.
    10030    2    1    2    0    0  0.00000000000E+00  0.00000000000E+00  0.21008906417E+03  0.54194314961E+03  0.49956477310E+03 0.  0.
        2    1    3    3  502    0 -0.17098267792E+03  0.28905974988E+02  0.30007465426E+03  0.34657672985E+03  0.25500000920E-02 0.  1.
       -2    1    3    3    0  502  0.17098267792E+03 -0.28905974988E+02 -0.89985590089E+02  0.19536641976E+03  0.25500000920E-02 0. -1.
</event>
<event>
 5   0  0.4889251E-03  0.5001005E+03  0.7818609E-02  0.1013753E+00
       -2   -1    0    0    0  501  0.00000000000E+00  0.00000000000E+00  0.28810224394E+02  0.28810224507E+02  0.25500000920E-02 0.  1.
        2   -1    0    0  501    0  0.00000000000E+00  0.00000000000E+00 -0.21702409931E+04  0.21702409931E+04  0.25500000920E-02 0. -1.
    10030    2    1    2    0    0  0.00000000000E+00  0.00000000000E+00 -0.21414307687E+04  0.21990512176E+04  0.50010051040E+03 0.  0.
        5    1    3    3  502    0  0.20111348117E+02  0.13169621479E+03 -0.14047052482E+03  0.19365540956E+03  0.46999998093E+01 0.  1.
       -5    1    3    3    0  502 -0.20111348117E+02 -0.13169621479E+03 -0.20009602439E+04  0.20053958080E+04  0.46999998093E+01 0. -1.
</event>
<event>
 5   0  0.5095783E-03  0.4999798E+03  0.7818609E-02  0.1013784E+00
        2   -1    0    0  501    0  0.00000000000E+00  0.00000000000E+00  0.75144964927E+03  0.75144964927E+03  0.25500000920E-02 0.  1.
       -2   -1    0    0    0  501  0.00000000000E+00  0.00000000000E+00 -0.83165848435E+02  0.83165848474E+02  0.25500000920E-02 0. -1.
    10030    2    1    2    0    0  0.00000000000E+00  0.00000000000E+00  0.66828380083E+03  0.83461549775E+03  0.49997979021E+03 0.  0.
        4    1    3    3  502    0  0.18639622103E+03  0.16510495060E+03  0.29718516934E+03  0.38771617674E+03  0.12699999809E+01 0. -1.
       -4    1    3    3    0  502 -0.18639622103E+03 -0.16510495060E+03  0.37109863149E+03  0.44689932101E+03  0.12699999809E+01 0.  1.
</event>
<event>
 5   0  0.3055293E-03  0.4999420E+03  0.7818609E-02  0.1013794E+00
       -1   -1    0    0    0  501  0.00000000000E+00  0.00000000000E+00  0.39343182987E+02  0.39343183310E+02  0.50400001928E-02 0. -1.
        1   -1    0    0  501    0  0.00000000000E+00  0.00000000000E+00 -0.15882168563E+04  0.15882168563E+04  0.50400001928E-02 0.  1.
    10030    2    1    2    0    0  0.00000000000E+00  0.00000000000E+00 -0.15488736733E+04  0.16275600396E+04  0.49994202331E+03 0.  0.
        3    1    3    3  502    0 -0.37566667201E+02  0.11401016757E+03 -0.14882444789E+04  0.14930777649E+04  0.10100000352E+00 0.  1.
       -3    1    3    3    0  502  0.37566667201E+02 -0.11401016757E+03 -0.60629194349E+02  0.13448227468E+03  0.10100000352E+00 0. -1.
</event>
<event>
 5   0  0.2005125E-03  0.5006555E+03  0.7818609E-02  0.1013608E+00
       -4   -1    0    0    0  501  0.00000000000E+00  0.00000000000E+00  0.86119808439E+03  0.86119902081E+03  0.12699999809E+01 0.  1.
        4   -1    0    0  501    0  0.00000000000E+00  0.00000000000E+00 -0.72757218364E+02  0.72768301643E+02  0.12699999809E+01 0. -1.
    10030    2    1    2    0    0  0.00000000000E+00  0.00000000000E+00  0.78844086602E+03  0.93396732246E+03  0.50065553048E+03 0.  0.
        5    1    3    3  502    0  0.24083701771E+03  0.51593539248E+02  0.31126304963E+03  0.39695231257E+03  0.46999998093E+01 0. -1.
       -5    1    3    3    0  502 -0.24083701771E+03 -0.51593539248E+02  0.47717781640E+03  0.53701500989E+03  0.46999998093E+01 0.  1.
</event>
<event>
 5   0  0.5095783E-03  0.4999787E+03  0.7818609E-02  0.1013784E+00
        2   -1    0    0  501    0  0.00000000000E+00  0.00000000000E+00  0.24569420490E+03  0.24569420492E+03  0.25500000920E-02 0. -1.
       -2   -1    0    0    0  501  0.00000000000E+00  0.00000000000E+00 -0.25435955837E+03  0.25435955838E+03  0.25500000920E-02 0.  1.
    10030    2    1    2    0    0  0.00000000000E+00  0.00000000000E+00 -0.86653534652E+01  0.50005376330E+03  0.49997867738E+03 0.  0.
        4    1    3    3  502    0  0.62526867130E+02  0.52893524938E+01 -0.24635139302E+03  0.25422078614E+03  0.12699999809E+01 0.  1.
       -4    1    3    3    0  502 -0.62526867130E+02 -0.52893524938E+01  0.23768603955E+03  0.24583297716E+03  0.12699999809E+01 0. -1.
</event>
<event>
 5   0  0.2863538E-03  0.4982094E+03  0.7818609E-02  0.1014247E+00
       -1   -1    0    0    0  501  0.00000000000E+00  0.00000000000E+00  0.36725367395E+03  0.36725367399E+03  0.50400001928E-02 0. -1.
        1   -1    0    0  501    0  0.00000000000E+00  0.00000000000E+00 -0.16896536277E+03  0.16896536284E+03  0.50400001928E-02 0.  1.
    10030    2    1    2    0    0  0.00000000000E+00  0.00000000000E+00  0.19828831118E+03  0.53621903683E+03  0.49820939484E+03 0.  0.
        1    1    3    3  502    0  0.14907275871E+03  0.66648607161E+02 -0.10332596374E+03  0.19323814073E+03  0.50400001928E-02 0.  1.
       -1    1    3    3    0  502 -0.14907275871E+03 -0.66648607161E+02  0.30161427492E+03  0.34298089610E+03  0.50400001928E-02 0. -1.
</event>
<event>
 5   0  0.4978779E-03  0.5000324E+03  0.7818609E-02  0.1013770E+00
        2   -1    0    0  501    0  0.00000000000E+00  0.00000000000E+00  0.78893461729E+03  0.78893461730E+03  0.25500000920E-02 0.  1.
       -2   -1    0    0    0  501  0.00000000000E+00  0.00000000000E+00 -0.79231023037E+02  0.79231023078E+02  0.25500000920E-02 0. -1.
    10030    2    1    2    0    0  0.00000000000E+00  0.00000000000E+00  0.70970359426E+03  0.86816564038E+03  0.50003238638E+03 0.  0.
        1    1    3    3  502    0  0.41491179496E+02 -0.22710954966E+03  0.52145491969E+03  0.57027668619E+03  0.50400001928E-02 0.  1.
       -1    1    3    3    0  502 -0.41491179496E+02  0.22710954966E+03  0.18824867457E+03  0.29788895419E+03  0.50400001928E-02 0. -1.
</event>
<event>
 5   0  0.3211775E-03  0.5000021E+03  0.7818609E-02  0.1013778E+00
        1   -1    0    0  501    0  0.00000000000E+00  0.00000000000E+00  0.49554439614E+02  0.49554439871E+02  0.50400001928E-02 0. -1.
       -1   -1    0    0    0  501  0.00000000000E+00  0.00000000000E+00 -0.12612500069E+04  0.12612500069E+04  0.50400001928E-02 0.  1.
    10030    2    1    2    0    0  0.00000000000E+00  0.00000000000E+00 -0.12116955673E+04  0.13108044468E+04  0.50000214992E+03 0.  0.
        4    1    3    3  502    0  0.54734088328E+02  0.23778524822E+03 -0.46318661983E+03  0.52352755647E+03  0.12699999809E+01 0. -1.
       -4    1    3    3    0  502 -0.54734088328E+02 -0.23778524822E+03 -0.74850894746E+03  0.78727689031E+03  0.12699999809E+01 0.  1.
</event>
<event>
 5   0  0.2863538E-03  0.4998201E+03  0.7818609E-02  0.1013826E+00
        1   -1    0    0  501    0  0.00000000000E+00  0.00000000000E+00  0.13607797064E+04  0.13607797064E+04  0.50400001928E-02 0.  1.
       -1   -1    0    0    0  501  0.00000000000E+00  0.00000000000E+00 -0.45896502529E+02  0.45896502806E+02  0.50400001928E-02 0. -1.
    10030    2    1    2    0    0  0.00000000000E+00  0.00000000000E+00  0.13148832039E+04  0.14066762092E+04  0.49982008539E+03 0.  0.
        1    1    3    3  502    0 -0.28173247884E+02 -0.70511016109E+02  0.13275294294E+04  0.13296991845E+04  0.50400001928E-02 0.  1.
       -1    1    3    3    0  502  0.28173247884E+02  0.70511016109E+02 -0.12646225533E+02  0.76977024720E+02  0.50400001928E-02 0. -1.
</event>
<event>
 5   0  0.4889251E-03  0.4997675E+03  0.7818609E-02  0.1013840E+00
       -2   -1    0    0    0  501  0.00000000000E+00  0.00000000000E+00  0.21663565898E+03  0.21663565899E+03  0.25500000920E-02 0.  1.
        2   -1    0    0  501    0  0.00000000000E+00  0.00000000000E+00 -0.28823456000E+03  0.28823456001E+03  0.25500000920E-02 0. -1.
    10030    2    1    2    0    0  0.00000000000E+00  0.00000000000E+00 -0.71598901023E+02  0.50487021901E+03  0.49976748135E+03 0.  0.
        5    1    3    3  502    0  0.22901571889E+03 -0.86884861977E+02  0.13923165632E+02  0.24538362471E+03  0.46999998093E+01 0. -1.
       -5    1    3    3    0  502 -0.22901571889E+03  0.86884861977E+02 -0.85522066655E+02  0.25948659430E+03  0.46999998093E+01 0.  1.
</event>
<event>
 5   0  0.3057783E-03  0.4999857E+03  0.7818609E-02  0.1013783E+00
       -1   -1    0    0    0  501  0.00000000000E+00  0.00000000000E+00  0.54392801570E+03  0.54392801572E+03  0.50400001928E-02 0. -1.
        1   -1    0    0  501    0  0.00000000000E+00  0.00000000000E+00 -0.11489835864E+03  0.11489835875E+03  0.50400001928E-02 0.  1.
    10030    2    1    2    0    0  0.00000000000E+00  0.00000000000E+00  0.42902965705E+03  0.65882637447E+03  0.49998574487E+03 0.  0.
        5    1    3    3  502    0  0.11344133662E+03 -0.21330160312E+03  0.13006089589E+03  0.27441653992E+03  0.46999998093E+01 0.  1.
       -5    1    3    3    0  502 -0.11344133662E+03  0.21330160312E+03  0.29896876117E+03  0.38440983455E+03  0.46999998093E+01 0. -1.
</event>
<event>
 5   0  0.5118882E-03  0.5000962E+03  0.7818609E-02  0.1013754E+00
       -2   -1    0    0    0  501  0.00000000000E+00  0.00000000000E+00  0.23578695240E+03  0.23578695242E+03  0.25500000920E-02 0. -1.
        2   -1    0    0  501    0  0.00000000000E+00  0.00000000000E+00 -0.26517178084E+03  0.26517178085E+03  0.25500000920E-02 0.  1.
    10030    2    1    2    0    0  0.00000000000E+00  0.00000000000E+00 -0.29384828436E+02  0.50095873327E+03  0.50009617504E+03 0.  0.
        3    1    3    3  502    0  0.40337849942E+02 -0.22130681258E+02  0.23151011412E+03  0.23603781970E+03  0.10100000352E+00 0. -1.
       -3    1    3    3    0  502 -0.40337849942E+02  0.22130681258E+02 -0.26089494255E+03  0.26492091356E+03  0.10100000352E+00 0.  1.
</event>
<event>
 5   0  0.5095783E-03  0.4995591E+03  0.7818609E-02  0.1013894E+00
       -2   -1    0    0    0  501  0.00000000000E+00  0.00000000000E+00  0.28245553253E+02  0.28245553368E+02  0.25500000920E-02 0. -1.
        2   -1    0    0  501    0  0.00000000000E+00  0.00000000000E+00 -0.22088368980E+04  0.22088368980E+04  0.25500000920E-02 0.  1.
    10030    2    1    2    0    0  0.00000000000E+00  0.00000000000E+00 -0.21805913447E+04  0.22370824513E+04  0.49955908703E+03 0.  0.
        4    1    3    3  502    0 -0.95349719846E+02  0.63349520034E+02 -0.20844316623E+04  0.20875731600E+04  0.12699999809E+01 0.  1.
       -4    1    3    3    0  502  0.95349719846E+02 -0.63349520034E+02 -0.96159682388E+02  0.14950929128E+03  0.12699999809E+01 0. -1.
</event>
<event>
 5   0  0.5118882E-03  0.5002241E+03  0.7818609E-02  0.1013720E+00
        2   -1    0    0  501    0  0.00000000000E+00  0.00000000000E+00  0.10786659165E+04  0.10786659165E+04  0.25500000920E-02 0.  1.
       -2   -1    0    0    0  501  0.00000000000E+00  0.00000000000E+00 -0.57993890919E+02  0.57993890975E+02  0.25500000920E-02 0. -1.
    10030    2    1    2    0    0  0.00000000000E+00  0.00000000000E+00  0.10206720256E+04  0.11366598074E+04  0.50022408391E+03 0.  0.
        3    1    3    3  502    0 -0.14879186846E+03  0.10322347860E+03  0.11832672732E+03  0.21632228561E+03  0.10100000352E+00 0. -1.
       -3    1    3    3    0  502  0.14879186846E+03 -0.10322347860E+03  0.90234529823E+03  0.92033752184E+03  0.10100000352E+00 0.  1.
</event>
<event>
 5   0  0.4978779E-03  0.5000731E+03  0.7818609E-02  0.1013760E+00
       -2   -1    0    0    0  501  0.00000000000E+00  0.00000000000E+00  0.57274763413E+02  0.57274763470E+02  0.25500000920E-02 0. -1.
        2   -1    0    0  501    0  0.00000000000E+00  0.00000000000E+00 -0.10915501230E+04  0.10915501230E+04  0.25500000920E-02 0.  1.
    10030    2    1    2    0    0  0.00000000000E+00  0.00000000000E+00 -0.10342753596E+04  0.11488248864E+04  0.50007309498E+03 0.  0.
        1    1    3    3  502    0 -0.21674112543E+03 -0.52604317409E+02 -0.25748687504E+03  0.34065146485E+03  0.50400001928E-02 0. -1.
       -1    1    3    3    0  502  0.21674112543E+03  0.52604317409E+02 -0.77678848452E+03  0.80817342159E+03  0.50400001928E-02 0.  1.
</event>
<event>
 5   0  0.2005125E-03  0.4995989E+03  0.7818609E-02  0.1013884E+00
       -4   -1    0    0    0  501  0.00000000000E+00  0.00000000000E+00  0.41151674453E+03  0.41151870423E+03  0.12699999809E+01 0.  1.
        4   -1    0    0  501    0  0.00000000000E+00  0.00000000000E+00 -0.15162861260E+03  0.15163393109E+03  0.12699999809E+01 0. -1.
    10030    2    1    2    0    0  0.00000000000E+00  0.00000000000E+00  0.25988813193E+03  0.56315263532E+03  0.49959888866E+03 0.  0.
        5    1    3    3  502    0  0.19483439540E+03  0.12307098416E+03  0.23847721675E+03  0.33166305444E+03  0.46999998093E+01 0.  1.
       -5    1    3    3    0  502 -0.19483439540E+03 -0.12307098416E+03  0.21410915182E+02  0.23148958089E+03  0.46999998093E+01 0. -1.
</event>
<event>
 5   0  0.3211775E-03  0.4998928E+03  0.7818609E-02  0.1013807E+00
       -1   -1    0    0    0  501  0.00000000000E+00  0.00000000000E+00  0.80451461453E+02  0.80451461611E+02  0.50400001928E-02 0.  1.
        1   -1    0    0  501    0  0.00000000000E+00  0.00000000000E+00 -0.77653292764E+03  0.77653292765E+03  0.50400001928E-02 0. -1.
    10030    2    1    2    0    0  0.00000000000E+00  0.00000000000E+00 -0.69608146618E+03  0.85698438926E+03  0.49989282439E+03 0.  0.
        4    1    3    3  502    0  0.16964589488E+03 -0.18180702349E+03 -0.30473642872E+03  0.39331848078E+03  0.12699999809E+01 0.  1.
       -4    1    3    3    0  502 -0.16964589488E+03  0.18180702349E+03 -0.39134503746E+03  0.46366590848E+03  0.12699999809E+01 0. -1.
</event>
<event>
 5   0  0.4889251E-03  0.4995618E+03  0.7818609E-02  0.1013893E+00
       -2   -1    0    0    0  501  0.00000000000E+00  0.00000000000E+00  0.67895129846E+02  0.67895129894E+02  0.25500000920E-02 0. -1.
        2   -1    0    0  501    0  0.00000000000E+00  0.00000000000E+00 -0.91892443492E+03  0.91892443493E+03  0.25500000920E-02 0.  1.
    10030    2    1    2    0    0  0.00000000000E+00  0.00000000000E+00 -0.85102930508E+03  0.98681956482E+03  0.49956178338E+03 0.  0.
        5    1    3    3  502    0  0.14093503954E+03  0.20401033850E+03 -0.48429645423E+03  0.54410297662E+03  0.46999998093E+01 0. -1.
       -5    1    3    3    0  502 -0.14093503954E+03 -0.20401033850E+03 -0.36673285084E+03  0.44271658820E+03  0.46999998093E+01 0.  1.
</event>
<event>
 5   0  0.2863538E-03  0.5004202E+03  0.7818609E-02  0.1013669E+00
        1   -1    0    0  501    0  0.00000000000E+00  0.00000000000E+00  0.88792988071E+03  0.88792988072E+03  0.50400001928E-02 0.  1.
       -1   -1    0    0    0  501  0.00000000000E+00  0.00000000000E+00 -0.70506796809E+02  0.70506796990E+02  0.50400001928E-02 0. -1.
    10030    2    1    2    0    0  0.00000000000E+00  0.00000000000E+00  0.81742308390E+03  0.95843667771E+03  0.50042019053E+03 0.  0.
        1    1    3    3  502    0  0.17700799478E+03  0.16623318656E+03  0.29316240172E+03  0.38066979961E+03  0.50400001928E-02 0. -1.
       -1    1    3    3    0  502 -0.17700799478E+03 -0.16623318656E+03  0.52426068218E+03  0.57776687810E+03  0.50400001928E-02 0.  1.
</event>
<event>
 5   0  0.2005125E-03  0.4999420E+03  0.7818609E-02  0.1013794E+00
       -3   -1    0    0    0  501  0.00000000000E+00  0.00000000000E+00  0.39930245138E+03  0.39930246416E+03  0.10100000352E+00 0.  1.
        3   -1    0    0  501    0  0.00000000000E+00  0.00000000000E+00 -0.15648659371E+03  0.15648662631E+03  0.10100000352E+00 0. -1.
    10030    2    1    2    0    0  0.00000000000E+00  0.00000000000E+00  0.24281585767E+03  0.55578909046E+03  0.49994196897E+03 0.  0.
        3    1    3    3  502    0  0.32675751834E+02 -0.43061325563E+02 -0.14991127094E+03  0.15935928549E+03  0.10100000352E+00 0. -1.
       -3    1    3    3    0  502 -0.32675751834E+02  0.43061325563E+02  0.39272712861E+03  0.39642980497E+03  0.10100000352E+00 0.  1.
</event>
<event>
 5   0  0.3211775E-03  0.4994366E+03  0.7818609E-02  0.1013926E+00
       -1   -1    0    0    0  501  0.00000000000E+00  0.00000000000E+00  0.18212698972E+03  0.18212698979E+03  0.50400001928E-02 0.  1.
        1   -1    0    0  501    0  0.00000000000E+00  0.00000000000E+00 -0.34239419740E+03  0.34239419744E+03  0.50400001928E-02 0. -1.
    10030    2    1    2    0    0  0.00000000000E+00  0.00000000000E+00 -0.16026720768E+03  0.52452118723E+03  0.49943658056E+03 0.  0.
        4    1    3    3  502    0 -0.18792079691E+03  0.11911518618E+03  0.38940691447E+02  0.22587749742E+03  0.12699999809E+01 0.  1.
       -4    1    3    3    0  502  0.18792079691E+03 -0.11911518618E+03 -0.19920789912E+03  0.29864368981E+03  0.12699999809E+01 0. -1.
</event>
<event>
 5   0  0.3057783E-03  0.4999613E+03  0.7818609E-02  0.1013789E+00
       -1   -1    0    0    0  501  0.00000000000E+00  0.00000000000E+00  0.92882062164E+02  0.92882062301E+02  0.50400001928E-02 0.  1.
        1   -1    0    0  501    0  0.00000000000E+00  0.00000000000E+00 -0.67279205148E+03  0.67279205150E+03  0.50400001928E-02 0. -1.
    10030    2    1    2    0    0  0.00000000000E+00  0.00000000000E+00 -0.57990998931E+03  0.76567411380E+03  0.49996125133E+03 0.  0.
        5    1    3    3  502    0 -0.15212764761E+03  0.19777464457E+03 -0.26773067065E+03  0.36600469014E+03  0.46999998093E+01 0. -1.
       -5    1    3    3    0  502  0.15212764761E+03 -0.19777464457E+03 -0.31217931867E+03  0.39966942365E+03  0.46999998093E+01 0.  1.
</event>
<event>
 5   0  0.5095783E-03  0.5000212E+03  0.7818609E-02  0.1013773E+00
        2   -1    0    0  501    0  0.00000000000E+00  0.00000000000E+00  0.21720719563E+03  0.21720719564E+03  0.25500000920E-02 0. -1.
       -2   -1    0    0    0  501  0.00000000000E+00  0.00000000000E+00 -0.28776808870E+03  0.28776808871E+03  0.25500000920E-02 0.  1.
    10030    2    1    2    0    0  0.00000000000E+00  0.00000000000E+00 -0.70560893077E+02  0.50497528435E+03  0.50002119773E+03 0.  0.
        4    1    3    3  502    0 -0.22655274888E+03 -0.10564511064E+03 -0.39401218938E+02  0.25306344339E+03  0.12699999809E+01 0.  1.
       -4    1    3    3    0  502  0.22655274888E+03  0.10564511064E+03 -0.31159674139E+02  0.25191184096E+03  0.12699999809E+01 0. -1.
</event>
<event>
 5   0  0.2863538E-03  0.4997887E+03  0.7818609E-02  0.1013834E+00
        1   -1    0    0  501    0  0.00000000000E+00  0.00000000000E+00  0.87122753791E+03  0.87122753792E+03  0.50400001928E-02 0.  1.
       -1   -1    0    0    0  501  0.00000000000E+00  0.00000000000E+00 -0.71677245779E+02  0.71677245956E+02  0.50400001928E-02 0. -1.
    10030    2    1    2    0    0  0.00000000000E+00  0.00000000000E+00  0.79955029213E+03  0.94290478388E+03  0.49978871718E+03 0.  0.
        1    1    3    3  502    0  0.21909140839E+03 -0.41795624973E+01  0.62639326957E+03  0.66361663794E+03  0.50400001928E-02 0.  1.
       -1    1    3    3    0  502 -0.21909140839E+03  0.41795624973E+01  0.17315702256E+03  0.27928814593E+03  0.50400001928E-02 0. -1.
</event>
<event>
 5   0  0.4989875E-03  0.4999148E+03  0.7818609E-02  0.1013801E+00
       -2   -1    0    0    0  501  0.00000000000E+00  0.00000000000E+00  0.23216202266E+03  0.23216202267E+03  0.25500000920E-02 0.  1.
        2   -1    0    0  501    0  0.00000000000E+00  0.00000000000E+00 -0.26911684892E+03  0.26911684893E+03  0.25500000920E-02 0. -1.
    10030    2    1    2    0    0  0.00000000000E+00  0.00000000000E+00 -0.36954826264E+02  0.50127887161E+03  0.49991484068E+03 0.  0.
        2    1    3    3  502    0  0.23698710124E+03  0.78348363902E+02 -0.51234295198E+01  0.24965496554E+03  0.25500000920E-02 0. -1.
       -2    1    3    3    0  502 -0.23698710124E+03 -0.78348363902E+02 -0.31831396744E+02  0.25162390607E+03  0.25500000920E-02 0.  1.
</event>
<event>
 5   0  0.4889251E-03  0.4995731E+03  0.7818609E-02  0.1013890E+00
        2   -1    0    0  501    0  0.00000000000E+00  0.00000000000E+00  0.23490646627E+03  0.23490646628E+03  0.25500000920E-02 0.  1.
       -2   -1    0    0    0  501  0.00000000000E+00  0.00000000000E+00 -0.26560925233E+03  0.26560925234E+03  0.25500000920E-02 0. -1.
    10030    2    1    2    0    0  0.00000000000E+00  0.00000000000E+00 -0.30702786065E+02  0.50051571863E+03  0.49957314131E+03 0.  0.
        5    1    3    3  502    0  0.26121940448E+02 -0.13250332316E+03 -0.22582334864E+03  0.26316869345E+03  0.46999998093E+01 0. -1.
       -5    1    3    3    0  502 -0.26121940448E+02  0.13250332316E+03  0.19512056258E+03  0.23734702518E+03  0.46999998093E+01 0.  1.
</event>
<event>
 5   0  0.3055293E-03  0.4999403E+03  0.7818609E-02  0.1013794E+00
       -1   -1    0    0    0  501  0.00000000000E+00  0.00000000000E+00  0.11692976852E+03  0.11692976863E+03  0.50400001928E-02 0. -1.
        1   -1    0    0  501    0  0.00000000000E+00  0.00000000000E+00 -0.53438132087E+03  0.53438132089E+03  0.50400001928E-02 0.  1.
    10030    2    1    2    0    0  0.00000000000E+00  0.00000000000E+00 -0.41745155235E+03  0.65131108953E+03  0.49994033322E+03 0.  0.
        3    1    3    3  502    0 -0.13657139757E+03  0.20935926369E+03 -0.21058014943E+03  0.32684408739E+03  0.10100000352E+00 0. -1.
       -3    1    3    3    0  502  0.13657139757E+03 -0.20935926369E+03 -0.20687140292E+03  0.32446700214E+03  0.10100000352E+00 0.  1.
</event>
<event>
 5   0  0.2005125E-03  0.4982969E+03  0.7818609E-02  0.1014224E+00
       -3   -1    0    0    0  501  0.00000000000E+00  0.00000000000E+00  0.13237393632E+03  0.13237397485E+03  0.10100000352E+00 0.  1.
        3   -1    0    0  501    0  0.00000000000E+00  0.00000000000E+00 -0.46893620825E+03  0.46893621913E+03  0.10100000352E+00 0. -1.
    10030    2    1    2    0    0  0.00000000000E+00  0.00000000000E+00 -0.33656227194E+03  0.60131019398E+03  0.49829688589E+03 0.  0.
        2    1    3    3  502    0 -0.41157611809E+02 -0.31707964208E+02  0.12576427680E+03  0.13607349973E+03  0.25500000920E-02 0.  1.
       -2    1    3    3    0  502  0.41157611809E+02  0.31707964208E+02 -0.46232654873E+03  0.46523669425E+03  0.25500000920E-02 0. -1.
</event>
<event>
 5   0  0.3057783E-03  0.4998791E+03  0.7818609E-02  0.1013810E+00
        1   -1    0    0  501    0  0.00000000000E+00  0.00000000000E+00  0.11288565143E+04  0.11288565143E+04  0.50400001928E-02 0.  1.
       -1   -1    0    0    0  501  0.00000000000E+00  0.00000000000E+00 -0.55338994540E+02  0.55338994769E+02  0.50400001928E-02 0. -1.
    10030    2    1    2    0    0  0.00000000000E+00  0.00000000000E+00  0.10735175198E+04  0.11841955091E+04  0.49987912389E+03 0.  0.
        5    1    3    3  502    0  0.16097714033E+03 -0.16059622177E+03  0.78229711804E+03  0.81468745973E+03  0.46999998093E+01 0.  1.
       -5    1    3    3    0  502 -0.16097714033E+03  0.16059622177E+03  0.29122040174E+03  0.36950804936E+03  0.46999998093E+01 0. -1.
</event>
<event>
 5   0  0.4989875E-03  0.5000253E+03  0.7818609E-02  0.1013772E+00
        2   -1    0    0  501    0  0.00000000000E+00  0.00000000000E+00  0.19587412522E+04  0.19587412522E+04  0.25500000920E-02 0.  1.
       -2   -1    0    0    0  501  0.00000000000E+00  0.00000000000E+00 -0.31911473487E+02  0.31911473589E+02  0.25500000920E-02 0. -1.
    10030    2    1    2    0    0  0.00000000000E+00  0.00000000000E+00  0.19268297787E+04  0.19906527258E+04  0.50002527792E+03 0.  0.
        2    1    3    3  502    0  0.19926330086E+03 -0.38684605927E+02  0.15444918950E+04  0.15577732747E+04  0.25500000920E-02 0.  1.
       -2    1    3    3    0  502 -0.19926330086E+03  0.38684605927E+02  0.38233788373E+03  0.43287945105E+03  0.25500000920E-02 0. -1.
</event>
<event>
 5   0  0.3211775E-03  0.5002473E+03  0.7818609E-02  0.1013714E+00
        1   -1    0    0  501    0  0.00000000000E+00  0.00000000000E+00  0.38918693530E+03  0.38918693533E+03  0.50400001928E-02 0. -1.
       -1   -1    0    0    0  501  0.00000000000E+00  0.00000000000E+00 -0.16075008511E+03  0.16075008519E+03  0.50400001928E-02 0.  1.
    10030    2    1    2    0    0  0.00000000000E+00  0.00000000000E+00  0.22843685019E+03  0.54993702052E+03  0.50024727087E+03 0.  0.
        4    1    3    3  502    0 -0.99996810358E+02 -0.11425491693E+03  0.33272446776E+03  0.36573314379E+03  0.12699999809E+01 0. -1.
       -4    1    3    3    0  502  0.99996810358E+02  0.11425491693E+03 -0.10428761757E+03  0.18420387673E+03  0.12699999809E+01 0.  1.
</event>
<event>
 5   0  0.5118882E-03  0.4999208E+03  0.7818609E-02  0.1013800E+00
       -2   -1    0    0    0  501  0.00000000000E+00  0.00000000000E+00  0.62108784148E+02  0.62108784200E+02  0.25500000920E-02 0.  1.
        2   -1    0    0  501    0  0.00000000000E+00  0.00000000000E+00 -0.10059799889E+04  0.10059799889E+04  0.25500000920E-02 0. -1.
    10030    2    1    2    0    0  0.00000000000E+00  0.00000000000E+00 -0.94387120476E+03  0.10680887731E+04  0.49992076979E+03 0.  0.
        3    1    3    3  502    0 -0.62870082028E+02 -0.23400077268E+02 -0.98638797449E+03  0.98866650457E+03  0.10100000352E+00 0. -1.
       -3    1    3    3    0  502  0.62870082028E+02  0.23400077268E+02  0.42516769735E+02  0.79422268540E+02  0.10100000352E+00 0.  1.
</event>
<event>
 5   0  0.4889251E-03  0.5014639E+03  0.7818609E-02  0.1013398E+00
        2   -1    0    0  501    0  0.00000000000E+00  0.00000000000E+00  0.27455959491E+03  0.27455959493E+03  0.25500000920E-02 0. -1.
       -2   -1    0    0    0  501  0.00000000000E+00  0.00000000000E+00 -0.22897220018E+03  0.22897220020E+03  0.25500000920E-02 0.  1.
    10030    2    1    2    0    0  0.00000000000E+00  0.00000000000E+00  0.45587394733E+02  0.50353179512E+03  0.50146391509E+03 0.  0.
        5    1    3    3  502    0 -0.36086416794E+02  0.10076041183E+03 -0.20483371093E+03  0.23115758521E+03  0.46999998093E+01 0.  1.
       -5    1    3    3    0  502  0.36086416794E+02 -0.10076041183E+03  0.25042110566E+03  0.27237420991E+03  0.46999998093E+01 0. -1.
</event>
<event>
 5   0  0.4978779E-03  0.5001404E+03  0.7818609E-02  0.1013742E+00
       -2   -1    0    0    0  501  0.00000000000E+00  0.00000000000E+00  0.15082948335E+03  0.15082948337E+03  0.25500000920E-02 0. -1.
        2   -1    0    0  501    0  0.00000000000E+00  0.00000000000E+00 -0.41460793256E+03  0.41460793257E+03  0.25500000920E-02 0.  1.
    10030    2    1    2    0    0  0.00000000000E+00  0.00000000000E+00 -0.26377844921E+03  0.56543741594E+03  0.50014038137E+03 0.  0.
        1    1    3    3  502    0  0.52309950813E+02 -0.20630679202E+03 -0.28031671786E+03  0.35196063093E+03  0.50400001928E-02 0.  1.
       -1    1    3    3    0  502 -0.52309950813E+02  0.20630679202E+03  0.16538268643E+02  0.21347678502E+03  0.50400001928E-02 0. -1.
</event>
<event>
 5   0  0.3211775E-03  0.4998695E+03  0.7818609E-02  0.1013813E+00
        1   -1    0    0  501    0  0.00000000000E+00  0.00000000000E+00  0.15833524748E+03  0.15833524756E+03  0.50400001928E-02 0. -1.
       -1   -1    0    0    0  501  0.00000000000E+00  0.00000000000E+00 -0.39452607702E+03  0.39452607705E+03  0.50400001928E-02 0.  1.
    10030    2    1    2    0    0  0.00000000000E+00  0.00000000000E+00 -0.23619082953E+03  0.55286132461E+03  0.49986951927E+03 0.  0.
        4    1    3    3  502    0  0.71121079845E+02  0.23741144872E+03 -0.15382090056E+03  0.29169313727E+03  0.12699999809E+01 0. -1.
       -4    1    3    3    0  502 -0.71121079845E+02 -0.23741144872E+03 -0.82369928977E+02  0.26116818734E+03  0.12699999809E+01 0.  1.
</event>
<event>
 5   0  0.4978779E-03  0.4999955E+03  0.7818609E-02  0.1013780E+00
       -2   -1    0    0    0  501  0.00000000000E+00  0.00000000000E+00  0.10718324688E+03  0.10718324691E+03  0.25500000920E-02 0.  1.
        2   -1    0    0  501    0  0.00000000000E+00  0.00000000000E+00 -0.58310308914E+03  0.58310308914E+03  0.25500000920E-02 0. -1.
    10030    2    1    2    0    0  0.00000000000E+00  0.00000000000E+00 -0.47591984225E+03  0.69028633605E+03  0.49999552947E+03 0.  0.
        1    1    3    3  502    0 -0.10841979407E+02 -0.33777173284E+02  0.10369076238E+03  0.10959115011E+03  0.50400001928E-02 0.  1.
       -1    1    3    3    0  502  0.10841979407E+02  0.33777173284E+02 -0.57961060464E+03  0.58069518595E+03  0.50400001928E-02 0. -1.
</event>
<event>
 5   0  0.3211775E-03  0.4999426E+03  0.7818609E-02  0.1013794E+00
       -1   -1    0    0    0  501  0.00000000000E+00  0.00000000000E+00  0.10570187225E+03  0.10570187237E+03  0.50400001928E-02 0. -1.
        1   -1    0    0  501    0  0.00000000000E+00  0.00000000000E+00 -0.59114985964E+03  0.59114985966E+03  0.50400001928E-02 0.  1.
    10030    2    1    2    0    0  0.00000000000E+00  0.00000000000E+00 -0.48544798739E+03  0.69685173203E+03  0.49994258468E+03 0.  0.
        4    1    3    3  502    0 -0.13392423754E+03  0.19529074370E+03 -0.13112906450E+03  0.27068546402E+03  0.12699999809E+01 0. -1.
       -4    1    3    3    0  502  0.13392423754E+03 -0.19529074370E+03 -0.35431892289E+03  0.42616626801E+03  0.12699999809E+01 0.  1.
</event>
<event>
 5   0  0.5095783E-03  0.5003564E+03  0.7818609E-02  0.1013686E+00
       -2   -1    0    0    0  501  0.00000000000E+00  0.00000000000E+00  0.15413070183E+03  0.15413070186E+03  0.25500000920E-02 0.  1.
        2   -1    0    0  501    0  0.00000000000E+00  0.00000000000E+00 -0.40607831335E+03  0.40607831336E+03  0.25500000920E-02 0. -1.
    10030    2    1    2    0    0  0.00000000000E+00  0.00000000000E+00 -0.25194761152E+03  0.56020901522E+03  0.50035641475E+03 0.  0.
        4    1    3    3  502    0 -0.30932528775E+02 -0.51771119080E+02 -0.39781432609E+03  0.40236167940E+03  0.12699999809E+01 0. -1.
       -4    1    3    3    0  502  0.30932528775E+02  0.51771119080E+02  0.14586671457E+03  0.15784733582E+03  0.12699999809E+01 0.  1.
</event>
<event>
 5   0  0.2863538E-03  0.5001351E+03  0.7818609E-02  0.1013744E+00
        1   -1    0    0  501    0  0.00000000000E+00  0.00000000000E+00  0.10651301109E+04  0.10651301109E+04  0.50400001928E-02 0.  1.
       -1   -1    0    0    0  501  0.00000000000E+00  0.00000000000E+00 -0.58710001524E+02  0.58710001741E+02  0.50400001928E-02 0. -1.
    10030    2    1    2    0    0  0.00000000000E+00  0.00000000000E+00  0.10064201094E+04  0.11238401126E+04  0.50013514398E+03 0.  0.
        1    1    3    3  502    0 -0.63969831000E+02 -0.20186787562E+03  0.80208774280E+03  0.82957068756E+03  0.50400001928E-02 0.  1.
       -1    1    3    3    0  502  0.63969831000E+02  0.20186787562E+03  0.20433236655E+03  0.29426942507E+03  0.50400001928E-02 0. -1.
</event>
<event>
 5   0  0.4889251E-03  0.4996684E+03  0.7818609E-02  0.1013866E+00
        2   -1    0    0  501    0  0.00000000000E+00  0.00000000000E+00  0.43059817893E+03  0.43059817894E+03  0.25500000920E-02 0.  1.
       -2   -1    0    0    0  501  0.00000000000E+00  0.00000000000E+00 -0.14495446864E+03  0.14495446866E+03  0.25500000920E-02 0. -1.
    10030    2    1    2    0    0  0.00000000000E+00  0.00000000000E+00  0.28564371030E+03  0.57555264760E+03  0.49966841098E+03 0.  0.
        5    1    3    3  502    0  0.22352081307E+03 -0.89231199873E+02  0.65799097659E+02  0.24955033993E+03  0.46999998093E+01 0.  1.
       -5    1    3    3    0  502 -0.22352081307E+03  0.89231199873E+02  0.21984461264E+03  0.32600230768E+03  0.46999998093E+01 0. -1.
</event>
<event>
 5   0  0.4889251E-03  0.4993278E+03  0.7818609E-02  0.1013955E+00
        2   -1    0    0  501    0  0.00000000000E+00  0.00000000000E+00  0.81244448200E+03  0.81244448201E+03  0.25500000920E-02 0.  1.
       -2   -1    0    0    0  501  0.00000000000E+00  0.00000000000E+00 -0.76721612993E+02  0.76721613035E+02  0.25500000920E-02 0. -1.
    10030    2    1    2    0    0  0.00000000000E+00  0.00000000000E+00  0.73572286901E+03  0.88916609504E+03  0.49932775267E+03 0.  0.
        5    1    3    3  502    0  0.18274444183E+03  0.50473990618E+02  0.65701327068E+03  0.68383600563E+03  0.46999998093E+01 0.  1.
       -5    1    3    3    0  502 -0.18274444183E+03 -0.50473990618E+02  0.78709598325E+02  0.20533008941E+03  0.46999998093E+01 0. -1.
</event>
<event>
 5   0  0.4989875E-03  0.4999672E+03  0.7818609E-02  0.1013787E+00
       -2   -1    0    0    0  501  0.00000000000E+00  0.00000000000E+00  0.16595961438E+03  0.16595961440E+03  0.25500000920E-02 0.  1.
        2   -1    0    0  501    0  0.00000000000E+00  0.00000000000E+00 -0.37654820102E+03  0.37654820103E+03  0.25500000920E-02 0. -1.
    10030    2    1    2    0    0  0.00000000000E+00  0.00000000000E+00 -0.21058858664E+03  0.54250781543E+03  0.49996717590E+03 0.  0.
        2    1    3    3  502    0 -0.18990785752E+03 -0.59747870076E+02  0.58754879023E+02  0.20757393415E+03  0.25500000920E-02 0. -1.
       -2    1    3    3    0  502  0.18990785752E+03  0.59747870076E+02 -0.26934346567E+03  0.33493388128E+03  0.25500000920E-02 0.  1.
</event>
<event>
 5   0  0.4989875E-03  0.4999551E+03  0.7818609E-02  0.1013791E+00
        2   -1    0    0  501    0  0.00000000000E+00  0.00000000000E+00  0.74184592541E+03  0.74184592542E+03  0.25500000920E-02 0.  1.
       -2   -1    0    0    0  501  0.00000000000E+00  0.00000000000E+00 -0.84234182727E+02  0.84234182766E+02  0.25500000920E-02 0. -1.
    10030    2    1    2    0    0  0.00000000000E+00  0.00000000000E+00  0.65761174269E+03  0.82608010818E+03  0.49995513901E+03 0.  0.
        2    1    3    3  502    0  0.14787023727E+03  0.19468993290E+03  0.24264771704E+03  0.34445274223E+03  0.25500000920E-02 0. -1.
       -2    1    3    3    0  502 -0.14787023727E+03 -0.19468993290E+03  0.41496402565E+03  0.48162736595E+03  0.25500000920E-02 0.  1.
</event>
<event>
 5   0  0.4978779E-03  0.4998949E+03  0.7818609E-02  0.1013806E+00
        2   -1    0    0  501    0  0.00000000000E+00  0.00000000000E+00  0.74630912419E+02  0.74630912463E+02  0.25500000920E-02 0. -1.
       -2   -1    0    0    0  501  0.00000000000E+00  0.00000000000E+00 -0.83710241383E+03  0.83710241384E+03  0.25500000920E-02 0.  1.
    10030    2    1    2    0    0  0.00000000000E+00  0.00000000000E+00 -0.76247150141E+03  0.91173332630E+03  0.49989485676E+03 0.  0.
        1    1    3    3  502    0  0.14426614023E+03 -0.80826389893E+02 -0.72307068543E+03  0.74173906508E+03  0.50400001928E-02 0.  1.
       -1    1    3    3    0  502 -0.14426614023E+03  0.80826389893E+02 -0.39400815983E+02  0.16999426121E+03  0.50400001928E-02 0. -1.
</event>
<event>
 5   0  0.3055293E-03  0.4999882E+03  0.7818609E-02  0.1013782E+00
       -1   -1    0    0    0  501  0.00000000000E+00  0.00000000000E+00  0.54837734208E+02  0.54837734439E+02  0.50400001928E-02 0.  1.
        1   -1    0    0  501    0  0.00000000000E+00  0.00000000000E+00 -0.11396723673E+04  0.11396723674E+04  0.50400001928E-02 0. -1.
    10030    2    1    2    0    0  0.00000000000E+00  0.00000000000E+00 -0.10848346331E+04  0.11945101018E+04  0.49998820190E+03 0.  0.
        3    1    3    3  502    0 -0.18389487959E+03  0.90720926888E+02 -0.20077579926E+03  0.28698178528E+03  0.10100000352E+00 0.  1.
       -3    1    3    3    0  502  0.18389487959E+03 -0.90720926888E+02 -0.88405883388E+03  0.90752831651E+03  0.10100000352E+00 0. -1.
</event>
<event>
 5   0  0.3055293E-03  0.4999497E+03  0.7818609E-02  0.1013792E+00
       -1   -1    0    0    0  501  0.00000000000E+00  0.00000000000E+00  0.86200941564E+02  0.86200941712E+02  0.50400001928E-02 0.  1.
        1   -1    0    0  501    0  0.00000000000E+00  0.00000000000E+00 -0.72490421064E+03  0.72490421065E+03  0.50400001928E-02 0. -1.
    10030    2    1    2    0    0  0.00000000000E+00  0.00000000000E+00 -0.63870326907E+03  0.81110515237E+03  0.49994969974E+03 0.  0.
        3    1    3    3  502    0  0.84318500757E+01  0.22529060068E+03 -0.49454141732E+03  0.54350545029E+03  0.10100000352E+00 0. -1.
       -3    1    3    3    0  502 -0.84318500757E+01 -0.22529060068E+03 -0.14416185175E+03  0.26759970208E+03  0.10100000352E+00 0.  1.
</event>
<event>
 5   0  0.2005125E-03  0.4994608E+03  0.7818609E-02  0.1013920E+00
       -3   -1    0    0    0  501  0.00000000000E+00  0.00000000000E+00  0.44758530784E+03  0.44758531924E+03  0.10100000352E+00 0. -1.
        3   -1    0    0  501    0  0.00000000000E+00  0.00000000000E+00 -0.13933715057E+03  0.13933718717E+03  0.10100000352E+00 0.  1.
    10030    2    1    2    0    0  0.00000000000E+00  0.00000000000E+00  0.30824815727E+03  0.58692250641E+03  0.49946081134E+03 0.  0.
        2    1    3    3  502    0 -0.15927539991E+03  0.45138154615E+02 -0.65591018108E+02  0.17806821076E+03  0.25500000920E-02 0.  1.
       -2    1    3    3    0  502  0.15927539991E+03 -0.45138154615E+02  0.37383917538E+03  0.40885429566E+03  0.25500000920E-02 0. -1.
</event>
<event>
 5   0  0.5118882E-03  0.4998372E+03  0.7818609E-02  0.1013821E+00
       -2   -1    0    0    0  501  0.00000000000E+00  0.00000000000E+00  0.41051502641E+02  0.41051502720E+02  0.25500000920E-02 0. -1.
        2   -1    0    0  501    0  0.00000000000E+00  0.00000000000E+00 -0.15214867882E+04  0.15214867882E+04  0.25500000920E-02 0.  1.
    10030    2    1    2    0    0  0.00000000000E+00  0.00000000000E+00 -0.14804352856E+04  0.15625382910E+04  0.49983724939E+03 0.  0.
        3    1    3    3  502    0 -0.20966260601E+03  0.22120668656E+02 -0.11597620282E+04  0.11787687240E+04  0.10100000352E+00 0.  1.
       -3    1    3    3    0  502  0.20966260601E+03 -0.22120668656E+02 -0.32067325739E+03  0.38376956699E+03  0.10100000352E+00 0. -1.
</event>
<event>
 5   0  0.2863538E-03  0.5008973E+03  0.7818609E-02  0.1013545E+00
        1   -1    0    0  501    0  0.00000000000E+00  0.00000000000E+00  0.17485095329E+03  0.17485095336E+03  0.50400001928E-02 0.  1.
       -1   -1    0    0    0  501  0.00000000000E+00  0.00000000000E+00 -0.35873137933E+03  0.35873137936E+03  0.50400001928E-02 0. -1.
    10030    2    1    2    0    0  0.00000000000E+00  0.00000000000E+00 -0.18388042604E+03  0.53358233272E+03  0.50089728959E+03 0.  0.
        1    1    3    3  502    0  0.17522454551E+03  0.73229161798E+02 -0.26586824104E+03  0.32672935759E+03  0.50400001928E-02 0. -1.
       -1    1    3    3    0  502 -0.17522454551E+03 -0.73229161798E+02  0.81987815006E+02  0.20685297514E+03  0.50400001928E-02 0.  1.
</event>
<event>
 5   0  0.4989875E-03  0.5000568E+03  0.7818609E-02  0.1013764E+00
       -2   -1    0    0    0  501  0.00000000000E+00  0.00000000000E+00  0.46065928808E+03  0.46065928808E+03  0.25500000920E-02 0. -1.
        2   -1    0    0  501    0  0.00000000000E+00  0.00000000000E+00 -0.13570596202E+03  0.13570596204E+03  0.25500000920E-02 0.  1.
    10030    2    1    2    0    0  0.00000000000E+00  0.00000000000E+00  0.32495332606E+03  0.59636525012E+03  0.50005684421E+03 0.  0.
        2    1    3    3  502    0 -0.19029488090E+03  0.14431338412E+03  0.74226917128E+02  0.25009624101E+03  0.25500000920E-02 0.  1.
       -2    1    3    3    0  502  0.19029488090E+03 -0.14431338412E+03  0.25072640893E+03  0.34626900912E+03  0.25500000920E-02 0. -1.
</event>
<event>
 5   0  0.3211775E-03  0.5003587E+03  0.7818609E-02  0.1013685E+00
        1   -1    0    0  501    0  0.00000000000E+00  0.00000000000E+00  0.98945063492E+02  0.98945063620E+02  0.50400001928E-02 0. -1.
       -1   -1    0    0    0  501  0.00000000000E+00  0.00000000000E+00 -0.63257027592E+03  0.63257027594E+03  0.50400001928E-02 0.  1.
    10030    2    1    2    0    0  0.00000000000E+00  0.00000000000E+00 -0.53362521243E+03  0.73151533956E+03  0.50035869601E+03 0.  0.
        4    1    3    3  502    0 -0.31480487829E+02  0.15559519136E+03 -0.54949808895E+03  0.57197084484E+03  0.12699999809E+01 0.  1.
       -4    1    3    3    0  502  0.31480487829E+02 -0.15559519136E+03  0.15872876520E+02  0.15954449472E+03  0.12699999809E+01 0. -1.
</event>
<event>
 5   0  0.2863538E-03  0.5000942E+03  0.7818609E-02  0.1013754E+00
       -1   -1    0    0    0  501  0.00000000000E+00  0.00000000000E+00  0.21198784879E+03  0.21198784885E+03  0.50400001928E-02 0. -1.
        1   -1    0    0  501    0  0.00000000000E+00  0.00000000000E+00 -0.29493934754E+03  0.29493934759E+03  0.50400001928E-02 0.  1.
    10030    2    1    2    0    0  0.00000000000E+00  0.00000000000E+00 -0.82951498750E+02  0.50692719644E+03  0.50009422247E+03 0.  0.
        1    1    3    3  502    0  0.56650041043E+02  0.19085808248E+03 -0.19482905834E+03  0.27855770819E+03  0.50400001928E-02 0.  1.
       -1    1    3    3    0  502 -0.56650041043E+02 -0.19085808248E+03  0.11187755959E+03  0.22836948824E+03  0.50400001928E-02 0. -1.
</event>
<event>
 5   0  0.3013734E-03  0.4999074E+03  0.7818609E-02  0.1013803E+00
        1   -1    0    0  501    0  0.00000000000E+00  0.00000000000E+00  0.19441812068E+04  0.19441812068E+04  0.50400001928E-02 0.  1.
       -1   -1    0    0    0  501  0.00000000000E+00  0.00000000000E+00 -0.32135302547E+02  0.32135302942E+02  0.50400001928E-02 0. -1.
    10030    2    1    2    0    0  0.00000000000E+00  0.00000000000E+00  0.19120459043E+04  0.19763165098E+04  0.49990739816E+03 0.  0.
        2    1    3    3  502    0 -0.42694544021E+02  0.48128107347E+02  0.19108872028E+04  0.19119699372E+04  0.25500000920E-02 0.  1.
       -2    1    3    3    0  502  0.42694544021E+02 -0.48128107347E+02  0.11587014437E+01  0.64346572570E+02  0.25500000920E-02 0. -1.
</event>
<event>
 5   0  0.3055293E-03  0.4997931E+03  0.7818609E-02  0.1013833E+00
       -1   -1    0    0    0  501  0.00000000000E+00  0.00000000000E+00  0.71918936246E+02  0.71918936423E+02  0.50400001928E-02 0.  1.
        1   -1    0    0  501    0  0.00000000000E+00  0.00000000000E+00 -0.86831488939E+03  0.86831488940E+03  0.50400001928E-02 0. -1.
    10030    2    1    2    0    0  0.00000000000E+00  0.00000000000E+00 -0.79639595314E+03  0.94023382582E+03  0.49979309023E+03 0.  0.
        3    1    3    3  502    0 -0.20993328469E+03 -0.10809290716E+03 -0.24430085969E+03  0.33976312461E+03  0.10100000352E+00 0.  1.
       -3    1    3    3    0  502  0.20993328469E+03  0.10809290716E+03 -0.55209509345E+03  0.60047070121E+03  0.10100000352E+00 0. -1.
</event>
<event>
 5   0  0.5095783E-03  0.4997697E+03  0.7818609E-02  0.1013839E+00
       -2   -1    0    0    0  501  0.00000000000E+00  0.00000000000E+00  0.64697859242E+02  0.64697859293E+02  0.25500000920E-02 0.  1.
        2   -1    0    0  501    0  0.00000000000E+00  0.00000000000E+00 -0.96513920178E+03  0.96513920178E+03  0.25500000920E-02 0. -1.
    10030    2    1    2    0    0  0.00000000000E+00  0.00000000000E+00 -0.90044134254E+03  0.10298370611E+04  0.49976970798E+03 0.  0.
        4    1    3    3  502    0  0.54637847194E+02 -0.51579369889E+02 -0.94130268512E+03  0.94429766687E+03  0.12699999809E+01 0. -1.
       -4    1    3    3    0  502 -0.54637847194E+02  0.51579369889E+02  0.40861342579E+02  0.85539394208E+02  0.12699999809E+01 0.  1.
</event>
<event>
 5   0  0.5095783E-03  0.5004122E+03  0.7818609E-02  0.1013671E+00
       -2   -1    0    0    0  501  0.00000000000E+00  0.00000000000E+00  0.18285538629E+03  0.18285538631E+03  0.25500000920E-02 0.  1.
        2   -1    0    0  501    0  0.00000000000E+00  0.00000000000E+00 -0.34236398557E+03  0.34236398558E+03  0.25500000920E-02 0. -1.
    10030    2    1    2    0    0  0.00000000000E+00  0.00000000000E+00 -0.15950859928E+03  0.52521937189E+03  0.50041222543E+03 0.  0.
        4    1    3    3  502    0 -0.10884520132E+03 -0.19703628791E+03  0.34889242883E+02  0.22779255645E+03  0.12699999809E+01 0.  1.
       -4    1    3    3    0  502  0.10884520132E+03  0.19703628791E+03 -0.19439784216E+03  0.29742681544E+03  0.12699999809E+01 0. -1.
</event>
<event>
 5   0  0.3013734E-03  0.4999501E+03  0.7818609E-02  0.1013792E+00
       -1   -1    0    0    0  501  0.00000000000E+00  0.00000000000E+00  0.82397927677E+03  0.82397927679E+03  0.50400001928E-02 0. -1.
        1   -1    0    0  501    0  0.00000000000E+00  0.00000000000E+00 -0.75836278764E+02  0.75836278931E+02  0.50400001928E-02 0.  1.
    10030    2    1    2    0    0  0.00000000000E+00  0.00000000000E+00  0.74814299801E+03  0.89981555572E+03  0.49995008635E+03 0.  0.
        2    1    3    3  502    0 -0.13901487408E+03 -0.14981183370E+03  0.11500624823E+03  0.23451046431E+03  0.25500000920E-02 0.  1.
       -2    1    3    3    0  502  0.13901487408E+03  0.14981183370E+03  0.63313674978E+03  0.66530509141E+03  0.25500000920E-02 0. -1.
</event>
<event>
 5   0  0.5095783E-03  0.5003789E+03  0.7818609E-02  0.1013680E+00
        2   -1    0    0  501    0  0.00000000000E+00  0.00000000000E+00  0.98353660845E+03  0.98353660845E+03  0.25500000920E-02 0.  1.
       -2   -1    0    0    0  501  0.00000000000E+00  0.00000000000E+00 -0.63642524311E+02  0.63642524362E+02  0.25500000920E-02 0. -1.
    10030    2    1    2    0    0  0.00000000000E+00  0.00000000000E+00  0.91989408414E+03  0.10471791328E+04  0.50037886663E+03 0.  0.
        4    1    3    3  502    0 -0.57634769080E+02 -0.36057757457E+02  0.96382830280E+03  0.96622385535E+03  0.12699999809E+01 0.  1.
       -4    1    3    3    0  502  0.57634769080E+02  0.36057757457E+02 -0.43934218659E+02  0.80955277461E+02  0.12699999809E+01 0. -1.
</event>
<event>
 5   0  0.4978779E-03  0.4999096E+03  0.7818609E-02  0.1013803E+00
       -2   -1    0    0    0  501  0.00000000000E+00  0.00000000000E+00  0.30449964863E+03  0.30449964864E+03  0.25500000920E-02 0.  1.
        2   -1    0    0  501    0  0.00000000000E+00  0.00000000000E+00 -0.20518051233E+03  0.20518051234E+03  0.25500000920E-02 0. -1.
    10030    2    1    2    0    0  0.00000000000E+00  0.00000000000E+00  0.99319136304E+02  0.50968016099E+03  0.49990956749E+03 0.  0.
        1    1    3    3  502    0 -0.82950580628E+02  0.10592859553E+03  0.26443224237E+03  0.29669188902E+03  0.50400001928E-02 0.  1.
       -1    1    3    3    0  502  0.82950580628E+02 -0.10592859553E+03 -0.16511310607E+03  0.21298827197E+03  0.50400001928E-02 0. -1.
</event>
<event>
 5   0  0.2005125E-03  0.4996468E+03  0.7818609E-02  0.1013871E+00
        3   -1    0    0  501    0  0.00000000000E+00  0.00000000000E+00  0.35812725924E+03  0.35812727349E+03  0.10100000352E+00 0. -1.
       -3   -1    0    0    0  501  0.00000000000E+00  0.00000000000E+00 -0.17427247712E+03  0.17427250639E+03  0.10100000352E+00 0.  1.
    10030    2    1    2    0    0  0.00000000000E+00  0.00000000000E+00  0.18385478212E+03  0.53239977988E+03  0.49964681997E+03 0.  0.
        1    1    3    3  502    0  0.91626533408E+02 -0.56566058251E+02  0.33212989086E+03  0.34914954532E+03  0.50400001928E-02 0. -1.
       -1    1    3    3    0  502 -0.91626533408E+02  0.56566058251E+02 -0.14827510873E+03  0.18325023456E+03  0.50400001928E-02 0.  1.
</event>
<event>
 5   0  0.5095783E-03  0.4991689E+03  0.7818609E-02  0.1013996E+00
       -2   -1    0    0    0  501  0.00000000000E+00  0.00000000000E+00  0.72168183021E+02  0.72168183066E+02  0.25500000920E-02 0.  1.
        2   -1    0    0  501    0  0.00000000000E+00  0.00000000000E+00 -0.86315588700E+03  0.86315588701E+03  0.25500000920E-02 0. -1.
    10030    2    1    2    0    0  0.00000000000E+00  0.00000000000E+00 -0.79098770398E+03  0.93532407007E+03  0.49916887744E+03 0.  0.
        4    1    3    3  502    0  0.15483424328E+03  0.19482458882E+03 -0.35991624008E+03  0.43757465200E+03  0.12699999809E+01 0.  1.
       -4    1    3    3    0  502 -0.15483424328E+03 -0.19482458882E+03 -0.43107146390E+03  0.49774941807E+03  0.12699999809E+01 0. -1.
</event>
<event>
 5   0  0.3055293E-03  0.5002649E+03  0.7818609E-02  0.1013710E+00
       -1   -1    0    0    0  501  0.00000000000E+00  0.00000000000E+00  0.14246206227E+03  0.14246206236E+03  0.50400001928E-02 0.  1.
        1   -1    0    0  501    0  0.00000000000E+00  0.00000000000E+00 -0.43917826821E+03  0.43917826824E+03  0.50400001928E-02 0. -1.
    10030    2    1    2    0    0  0.00000000000E+00  0.00000000000E+00 -0.29671620594E+03  0.58164033059E+03  0.50026489713E+03 0.  0.
        3    1    3    3  502    0 -0.18453123228E+03 -0.45689401103E+02 -0.33736509787E+03  0.38723961126E+03  0.10100000352E+00 0. -1.
       -3    1    3    3    0  502  0.18453123228E+03  0.45689401103E+02  0.40648891934E+02  0.19440071934E+03  0.10100000352E+00 0.  1.
</event>
<event>
 5   0  0.4889251E-03  0.5012246E+03  0.7818609E-02  0.1013460E+00
        2   -1    0    0  501    0  0.00000000000E+00  0.00000000000E+00  0.86239553952E+03  0.86239553953E+03  0.25500000920E-02 0.  1.
       -2   -1    0    0    0  501  0.00000000000E+00  0.00000000000E+00 -0.72827965563E+02  0.72827965607E+02  0.25500000920E-02 0. -1.
    10030    2    1    2    0    0  0.00000000000E+00  0.00000000000E+00  0.78956757396E+03  0.93522350513E+03  0.50122455118E+03 0.  0.
        5    1    3    3  502    0 -0.17048716469E+03 -0.12676225208E+03  0.14689666446E+03  0.25833168970E+03  0.46999998093E+01 0. -1.
       -5    1    3    3    0  502  0.17048716469E+03  0.12676225208E+03  0.64267090950E+03  0.67689181543E+03  0.46999998093E+01 0.  1.
</event>
<event>
 5   0  0.3055293E-03  0.4999684E+03  0.7818609E-02  0.1013787E+00
        1   -1    0    0  501    0  0.00000000000E+00  0.00000000000E+00  0.41830975463E+03  0.41830975466E+03  0.50400001928E-02 0. -1.
       -1   -1    0    0    0  501  0.00000000000E+00  0.00000000000E+00 -0.14939192158E+03  0.14939192166E+03  0.50400001928E-02 0.  1.
    10030    2    1    2    0    0  0.00000000000E+00  0.00000000000E+00  0.26891783305E+03  0.56770167632E+03  0.49996839137E+03 0.  0.
        3    1    3    3  502    0  0.18206009074E+03  0.41413730716E+01  0.32891731388E+03  0.37596494142E+03  0.10100000352E+00 0. -1.
       -3    1    3    3    0  502 -0.18206009074E+03 -0.41413730716E+01 -0.59999480824E+02  0.19173673490E+03  0.10100000352E+00 0.  1.
</event>
<event>
 5   0  0.3055293E-03  0.5002065E+03  0.7818609E-02  0.1013725E+00
       -1   -1    0    0    0  501  0.00000000000E+00  0.00000000000E+00  0.68290097250E+02  0.68290097436E+02  0.50400001928E-02 0.  1.
        1   -1    0    0  501    0  0.00000000000E+00  0.00000000000E+00 -0.91596943099E+03  0.91596943100E+03  0.50400001928E-02 0. -1.
    10030    2    1    2    0    0  0.00000000000E+00  0.00000000000E+00 -0.84767933374E+03  0.98425952844E+03  0.50020652382E+03 0.  0.
        3    1    3    3  502    0  0.48630375250E+02 -0.18477863742E+03 -0.74138852891E+03  0.76561414514E+03  0.10100000352E+00 0. -1.
       -3    1    3    3    0  502 -0.48630375250E+02  0.18477863742E+03 -0.10629080483E+03  0.21864538329E+03  0.10100000352E+00 0.  1.
</event>
<event>
 5   0  0.4889251E-03  0.5005552E+03  0.7818609E-02  0.1013634E+00
       -2   -1    0    0    0  501  0.00000000000E+00  0.00000000000E+00  0.41164816166E+02  0.41164816245E+02  0.25500000920E-02 0. -1.
        2   -1    0    0  501    0  0.00000000000E+00  0.00000000000E+00 -0.15216607930E+04  0.15216607930E+04  0.25500000920E-02 0.  1.
    10030    2    1    2    0    0  0.00000000000E+00  0.00000000000E+00 -0.14804959768E+04  0.15628256092E+04  0.50055523921E+03 0.  0.
        5    1    3    3  502    0 -0.11632147088E+03 -0.74676264974E+02 -0.13915027207E+04  0.13983594462E+04  0.46999998093E+01 0.  1.
       -5    1    3    3    0  502  0.11632147088E+03  0.74676264974E+02 -0.88993256091E+02  0.16446616298E+03  0.46999998093E+01 0. -1.
</event>
<event>
 5   0  0.2005125E-03  0.4999894E+03  0.7818609E-02  0.1013782E+00
       -3   -1    0    0    0  501  0.00000000000E+00  0.00000000000E+00  0.14652169346E+03  0.14652172827E+03  0.10100000352E+00 0. -1.
        3   -1    0    0  501    0  0.00000000000E+00  0.00000000000E+00 -0.42653983448E+03  0.42653984644E+03  0.10100000352E+00 0.  1.
    10030    2    1    2    0    0  0.00000000000E+00  0.00000000000E+00 -0.28001814102E+03  0.57306157471E+03  0.49998940899E+03 0.  0.
        3    1    3    3  502    0 -0.18701858224E+03 -0.12410044213E+03 -0.26619189788E+03  0.34818817690E+03  0.10100000352E+00 0.  1.
       -3    1    3    3    0  502  0.18701858224E+03  0.12410044213E+03 -0.13826243142E+02  0.22487339780E+03  0.10100000352E+00 0. -1.
</event>
<event>
 5   0  0.2863538E-03  0.5000322E+03  0.7818609E-02  0.1013771E+00
        1   -1    0    0  501    0  0.00000000000E+00  0.00000000000E+00  0.11591476754E+04  0.11591476754E+04  0.50400001928E-02 0.  1.
       -1   -1    0    0    0  501  0.00000000000E+00  0.00000000000E+00 -0.53925867836E+02  0.53925868071E+02  0.50400001928E-02 0. -1.
    10030    2    1    2    0    0  0.00000000000E+00  0.00000000000E+00  0.11052218076E+04  0.12130735435E+04  0.50003217695E+03 0.  0.
        1    1    3    3  502    0  0.87879615292E+02  0.72690309589E+02  0.12854701065E+02  0.11476912153E+03  0.50400001928E-02 0. -1.
       -1    1    3    3    0  502 -0.87879615292E+02 -0.72690309589E+02  0.10923671065E+04  0.10983044220E+04  0.50400001928E-02 0.  1.
</event>
<event>
 5   0  0.3211775E-03  0.4995841E+03  0.7818609E-02  0.1013888E+00
       -1   -1    0    0    0  501  0.00000000000E+00  0.00000000000E+00  0.55957770953E+02  0.55957771180E+02  0.50400001928E-02 0. -1.
        1   -1    0    0  501    0  0.00000000000E+00  0.00000000000E+00 -0.11150563950E+04  0.11150563950E+04  0.50400001928E-02 0.  1.
    10030    2    1    2    0    0  0.00000000000E+00  0.00000000000E+00 -0.10590986240E+04  0.11710141662E+04  0.49958410899E+03 0.  0.
        4    1    3    3  502    0 -0.78535570847E+02  0.40191671329E+02 -0.10773147128E+04  0.10809217407E+04  0.12699999809E+01 0.  1.
       -4    1    3    3    0  502  0.78535570847E+02 -0.40191671329E+02  0.18216088745E+02  0.90092425440E+02  0.12699999809E+01 0. -1.
</event>
<event>
 5   0  0.3057783E-03  0.4999616E+03  0.7818609E-02  0.1013789E+00
       -1   -1    0    0    0  501  0.00000000000E+00  0.00000000000E+00  0.10865673630E+03  0.10865673642E+03  0.50400001928E-02 0.  1.
        1   -1    0    0  501    0  0.00000000000E+00  0.00000000000E+00 -0.57511760981E+03  0.57511760983E+03  0.50400001928E-02 0. -1.
    10030    2    1    2    0    0  0.00000000000E+00  0.00000000000E+00 -0.46646087351E+03  0.68377434625E+03  0.49996160860E+03 0.  0.
        5    1    3    3  502    0 -0.19426314324E+03 -0.89718815172E+02 -0.56592902164E+02  0.22138762655E+03  0.46999998093E+01 0.  1.
       -5    1    3    3    0  502  0.19426314324E+03  0.89718815172E+02 -0.40986797135E+03  0.46238671970E+03  0.46999998093E+01 0. -1.
</event>
<event>
 5   0  0.2005125E-03  0.4999406E+03  0.7818609E-02  0.1013794E+00
       -3   -1    0    0    0  501  0.00000000000E+00  0.00000000000E+00  0.55640116985E+02  0.55640208655E+02  0.10100000352E+00 0.  1.
        3   -1    0    0  501    0  0.00000000000E+00  0.00000000000E+00 -0.11230224044E+04  0.11230224090E+04  0.10100000352E+00 0. -1.
    10030    2    1    2    0    0  0.00000000000E+00  0.00000000000E+00 -0.10673822874E+04  0.11786626176E+04  0.49994061511E+03 0.  0.
        3    1    3    3  502    0  0.21219353370E+03  0.13200364402E+03 -0.51992654834E+03  0.57686626149E+03  0.10100000352E+00 0. -1.
       -3    1    3    3    0  502 -0.21219353370E+03 -0.13200364402E+03 -0.54745573911E+03  0.60179635614E+03  0.10100000352E+00 0.  1.
</event>
<event>
 5   0  0.3211775E-03  0.5001247E+03  0.7818609E-02  0.1013746E+00
        1   -1    0    0  501    0  0.00000000000E+00  0.00000000000E+00  0.34082839251E+03  0.34082839255E+03  0.50400001928E-02 0. -1.
       -1   -1    0    0    0  501  0.00000000000E+00  0.00000000000E+00 -0.18346820457E+03  0.18346820464E+03  0.50400001928E-02 0.  1.
    10030    2    1    2    0    0  0.00000000000E+00  0.00000000000E+00  0.15736018794E+03  0.52429659719E+03  0.50012467753E+03 0.  0.
        4    1    3    3  502    0 -0.52667857887E+02 -0.23148224492E+03  0.16103673095E+03  0.28686647518E+03  0.12699999809E+01 0. -1.
       -4    1    3    3    0  502  0.52667857887E+02  0.23148224492E+03 -0.36765430099E+01  0.23743012201E+03  0.12699999809E+01 0.  1.
</event>
<event>
 5   0  0.2863538E-03  0.4996096E+03  0.7818609E-02  0.1013881E+00
        1   -1    0    0  501    0  0.00000000000E+00  0.00000000000E+00  0.28614251758E+03  0.28614251762E+03  0.50400001928E-02 0. -1.
       -1   -1    0    0    0  501  0.00000000000E+00  0.00000000000E+00 -0.21808170389E+03  0.21808170395E+03  0.50400001928E-02 0.  1.
    10030    2    1    2    0    0  0.00000000000E+00  0.00000000000E+00  0.68060813687E+02  0.50422422157E+03  0.49960963888E+03 0.  0.
        1    1    3    3  502    0  0.21958542997E+03 -0.14093507153E+02 -0.85324584568E+02  0.23600142533E+03  0.50400001928E-02 0. -1.
       -1    1    3    3    0  502 -0.21958542997E+03  0.14093507153E+02  0.15338539826E+03  0.26822279624E+03  0.50400001928E-02 0.  1.
</event>
<event>
 5   0  0.5095783E-03  0.5000779E+03  0.7818609E-02  0.1013759E+00
       -2   -1    0    0    0  501  0.00000000000E+00  0.00000000000E+00  0.61828012192E+02  0.61828012244E+02  0.25500000920E-02 0.  1.
        2   -1    0    0  501    0  0.00000000000E+00  0.00000000000E+00 -0.10111837087E+04  0.10111837087E+04  0.25500000920E-02 0. -1.
    10030    2    1    2    0    0  0.00000000000E+00  0.00000000000E+00 -0.94935569655E+03  0.10730117210E+04  0.50007790874E+03 0.  0.
        4    1    3    3  502    0  0.24838933504E+03  0.19095159665E+02 -0.42885952636E+03  0.49596773396E+03  0.12699999809E+01 0. -1.
       -4    1    3    3    0  502 -0.24838933504E+03 -0.19095159665E+02 -0.52049617019E+03  0.57704398703E+03  0.12699999809E+01 0.  1.
</event>
<event>
 5   0  0.3211775E-03  0.5002667E+03  0.7818609E-02  0.1013709E+00
        1   -1    0    0  501    0  0.00000000000E+00  0.00000000000E+00  0.86453690217E+02  0.86453690364E+02  0.50400001928E-02 0.  1.
       -1   -1    0    0    0  501  0.00000000000E+00  0.00000000000E+00 -0.72370186723E+03  0.72370186725E+03  0.50400001928E-02 0. -1.
    10030    2    1    2    0    0  0.00000000000E+00  0.00000000000E+00 -0.63724817701E+03  0.81015555761E+03  0.50026671728E+03 0.  0.
        4    1    3    3  502    0  0.12995638996E+03 -0.51233422925E+02 -0.65464107929E+03  0.66938037207E+03  0.12699999809E+01 0. -1.
       -4    1    3    3    0  502 -0.12995638996E+03  0.51233422925E+02  0.17392902276E+02  0.14077518554E+03  0.12699999809E+01 0.  1.
</event>
<event>
 5   0  0.3211775E-03  0.4999833E+03  0.7818609E-02  0.1013783E+00
       -1   -1    0    0    0  501  0.00000000000E+00  0.00000000000E+00  0.44913137220E+02  0.44913137503E+02  0.50400001928E-02 0.  1.
        1   -1    0    0  501    0  0.00000000000E+00  0.00000000000E+00 -0.13914819079E+04  0.13914819079E+04  0.50400001928E-02 0. -1.
    10030    2    1    2    0    0  0.00000000000E+00  0.00000000000E+00 -0.13465687707E+04  0.14363950454E+04  0.49998327204E+03 0.  0.
        4    1    3    3  502    0 -0.14684473429E+03  0.14421520074E+03 -0.10809185429E+04  0.11003399063E+04  0.12699999809E+01 0. -1.
       -4    1    3    3    0  502  0.14684473429E+03 -0.14421520074E+03 -0.26565022785E+03  0.33605513918E+03  0.12699999809E+01 0.  1.
</event>
<event>
 5   0  0.3055293E-03  0.4996329E+03  0.7818609E-02  0.1013875E+00
        1   -1    0    0  501    0  0.00000000000E+00  0.00000000000E+00  0.25564123089E+03  0.25564123094E+03  0.50400001928E-02 0.  1.
       -1   -1    0    0    0  501  0.00000000000E+00  0.00000000000E+00 -0.24412436640E+03  0.24412436645E+03  0.50400001928E-02 0. -1.
    10030    2    1    2    0    0  0.00000000000E+00  0.00000000000E+00  0.11516864487E+02  0.49976559739E+03  0.49963287939E+03 0.  0.
        3    1    3    3  502    0 -0.19853040259E+03  0.12709894439E+03  0.88483368754E+02  0.25178915617E+03  0.10100000352E+00 0.  1.
       -3    1    3    3    0  502  0.19853040259E+03 -0.12709894439E+03 -0.76966504267E+02  0.24797644122E+03  0.10100000352E+00 0. -1.
</event>
<event>
 5   0  0.3055293E-03  0.4999929E+03  0.7818609E-02  0.1013781E+00
        1   -1    0    0  501    0  0.00000000000E+00  0.00000000000E+00  0.22780366799E+03  0.22780366805E+03  0.50400001928E-02 0.  1.
       -1   -1    0    0    0  501  0.00000000000E+00  0.00000000000E+00 -0.27435121926E+03  0.27435121930E+03  0.50400001928E-02 0. -1.
    10030    2    1    2    0    0  0.00000000000E+00  0.00000000000E+00 -0.46547551266E+02  0.50215488735E+03  0.49999285631E+03 0.  0.
        3    1    3    3  502    0 -0.18319329408E+03 -0.11618961743E+03 -0.14806238654E+03  0.26264479950E+03  0.10100000352E+00 0. -1.
       -3    1    3    3    0  502  0.18319329408E+03  0.11618961743E+03  0.10151483528E+03  0.23951008784E+03  0.10100000352E+00 0.  1.
</event>
<event>
 5   0  0.2005125E-03  0.5000552E+03  0.7818609E-02  0.1013765E+00
       -3   -1    0    0    0  501  0.00000000000E+00  0.00000000000E+00  0.77468294090E+03  0.77468294749E+03  0.10100000352E+00 0. -1.
        3   -1    0    0  501    0  0.00000000000E+00  0.00000000000E+00 -0.80695928572E+02  0.80695991779E+02  0.10100000352E+00 0.  1.
    10030    2    1    2    0    0  0.00000000000E+00  0.00000000000E+00  0.69398701233E+03  0.85537893927E+03  0.50005515341E+03 0.  0.
        1    1    3    3  502    0  0.12980463642E+03 -0.10522346130E+03  0.66514359689E+03  0.68581136251E+03  0.50400001928E-02 0. -1.
       -1    1    3    3    0  502 -0.12980463642E+03  0.10522346130E+03  0.28843415444E+02  0.16956757675E+03  0.50400001928E-02 0.  1.
</event>
<event>
 5   0  0.5095783E-03  0.5000978E+03  0.7818609E-02  0.1013753E+00
        2   -1    0    0  501    0  0.00000000000E+00  0.00000000000E+00  0.62332558662E+03  0.62332558663E+03  0.25500000920E-02 0.  1.
       -2   -1    0    0    0  501  0.00000000000E+00  0.00000000000E+00 -0.10030785574E+03  0.10030785577E+03  0.25500000920E-02 0. -1.
    10030    2    1    2    0    0  0.00000000000E+00  0.00000000000E+00  0.52301773088E+03  0.72363344240E+03  0.50009780258E+03 0.  0.
        4    1    3    3  502    0  0.32542258817E+02 -0.19383715996E+03  0.48516500245E+03  0.52346779814E+03  0.12699999809E+01 0.  1.
       -4    1    3    3    0  502 -0.32542258817E+02  0.19383715996E+03  0.37852728429E+02  0.20016564426E+03  0.12699999809E+01 0. -1.
</event>
<event>
 5   0  0.3013734E-03  0.5002366E+03  0.7818609E-02  0.1013717E+00
       -1   -1    0    0    0  501  0.00000000000E+00  0.00000000000E+00  0.50950304599E+03  0.50950304602E+03  0.50400001928E-02 0.  1.
        1   -1    0    0  501    0  0.00000000000E+00  0.00000000000E+00 -0.12278465497E+03  0.12278465507E+03  0.50400001928E-02 0. -1.
    10030    2    1    2    0    0  0.00000000000E+00  0.00000000000E+00  0.38671839103E+03  0.63228770109E+03  0.50023656703E+03 0.  0.
        2    1    3    3  502    0  0.46157934765E+02  0.15156807245E+03 -0.51264416856E+02  0.16652770331E+03  0.25500000920E-02 0.  1.
       -2    1    3    3    0  502 -0.46157934765E+02 -0.15156807245E+03  0.43798280788E+03  0.46575999778E+03  0.25500000920E-02 0. -1.
</event>
<event>
 5   0  0.3211775E-03  0.4999045E+03  0.7818609E-02  0.1013804E+00
       -1   -1    0    0    0  501  0.00000000000E+00  0.00000000000E+00  0.17264738115E+03  0.17264738123E+03  0.50400001928E-02 0. -1.
        1   -1    0    0  501    0  0.00000000000E+00  0.00000000000E+00 -0.36187123942E+03  0.36187123945E+03  0.50400001928E-02 0.  1.
    10030    2    1    2    0    0  0.00000000000E+00  0.00000000000E+00 -0.18922385826E+03  0.53451862068E+03  0.49990447819E+03 0.  0.
        4    1    3    3  502    0 -0.16149999823E+03 -0.17728616395E+02  0.10848192068E+03  0.19536246641E+03  0.12699999809E+01 0. -1.
       -4    1    3    3    0  502  0.16149999823E+03  0.17728616395E+02 -0.29770577894E+03  0.33915615427E+03  0.12699999809E+01 0.  1.
</event>
<event>
 5   0  0.5095783E-03  0.5000047E+03  0.7818609E-02  0.1013778E+00
        2   -1    0    0  501    0  0.00000000000E+00  0.00000000000E+00  0.54536120426E+03  0.54536120427E+03  0.25500000920E-02 0.  1.
       -2   -1    0    0    0  501  0.00000000000E+00  0.00000000000E+00 -0.11460510824E+03  0.11460510827E+03  0.25500000920E-02 0. -1.
    10030    2    1    2    0    0  0.00000000000E+00  0.00000000000E+00  0.43075609602E+03  0.65996631253E+03  0.50000471939E+03 0.  0.
        4    1    3    3  502    0 -0.53483558845E+02 -0.23630071960E+03  0.13400150886E+03  0.27686917204E+03  0.12699999809E+01 0. -1.
       -4    1    3    3    0  502  0.53483558845E+02  0.23630071960E+03  0.29675458716E+03  0.38309714049E+03  0.12699999809E+01 0.  1.
</event>
<event>
 5   0  0.4889251E-03  0.4998507E+03  0.7818609E-02  0.1013818E+00
       -2   -1    0    0    0  501  0.00000000000E+00  0.00000000000E+00  0.58887087225E+02  0.58887087281E+02  0.25500000920E-02 0.  1.
        2   -1    0    0  501    0  0.00000000000E+00  0.00000000000E+00 -0.10607195243E+04  0.10607195243E+04  0.25500000920E-02 0. -1.
    10030    2    1    2    0    0  0.00000000000E+00  0.00000000000E+00 -0.10018324371E+04  0.11196066116E+04  0.49985071044E+03 0.  0.
        5    1    3    3  502    0  0.15023696066E+03  0.10658266412E+03 -0.87911540039E+03  0.89821878507E+03  0.46999998093E+01 0. -1.
       -5    1    3    3    0  502 -0.15023696066E+03 -0.10658266412E+03 -0.12271703668E+03  0.22138782651E+03  0.46999998093E+01 0.  1.
</event>
<event>
 5   0  0.3211775E-03  0.4999407E+03  0.7818609E-02  0.1013794E+00
        1   -1    0    0  501    0  0.00000000000E+00  0.00000000000E+00  0.45369187649E+03  0.45369187652E+03  0.50400001928E-02 0.  1.
       -1   -1    0    0    0  501  0.00000000000E+00  0.00000000000E+00 -0.13772603088E+03  0.13772603097E+03  0.50400001928E-02 0. -1.
    10030    2    1    2    0    0  0.00000000000E+00  0.00000000000E+00  0.31596584561E+03  0.59141790749E+03  0.49994072219E+03 0.  0.
        4    1    3    3  502    0  0.14262909125E+03  0.15377658449E+03 -0.28899608241E+01  0.20976239029E+03  0.12699999809E+01 0. -1.
       -4    1    3    3    0  502 -0.14262909125E+03 -0.15377658449E+03  0.31885580644E+03  0.38165551719E+03  0.12699999809E+01 0.  1.
</event>
<event>
 5   0  0.5095783E-03  0.5000566E+03  0.7818609E-02  0.1013764E+00
        2   -1    0    0  501    0  0.00000000000E+00  0.00000000000E+00  0.14127599123E+04  0.14127599123E+04  0.25500000920E-02 0. -1.
       -2   -1    0    0    0  501  0.00000000000E+00  0.00000000000E+00 -0.44249663887E+02  0.44249663961E+02  0.25500000920E-02 0.  1.
    10030    2    1    2    0    0  0.00000000000E+00  0.00000000000E+00  0.13685102484E+04  0.14570095763E+04  0.50005660211E+03 0.  0.
        4    1    3    3  502    0  0.22663877371E+03 -0.90992253096E+02  0.52822129262E+03  0.58194851211E+03  0.12699999809E+01 0. -1.
       -4    1    3    3    0  502 -0.22663877371E+03  0.90992253096E+02  0.84028895581E+03  0.87506106417E+03  0.12699999809E+01 0.  1.
</event>
<event>
 5   0  0.5118882E-03  0.5000326E+03  0.7818609E-02  0.1013770E+00
        2   -1    0    0  501    0  0.00000000000E+00  0.00000000000E+00  0.17331355186E+04  0.17331355186E+04  0.25500000920E-02 0. -1.
       -2   -1    0    0    0  501  0.00000000000E+00  0.00000000000E+00 -0.36066504929E+02  0.36066505020E+02  0.25500000920E-02 0.  1.
    10030    2    1    2    0    0  0.00000000000E+00  0.00000000000E+00  0.16970690136E+04  0.17692020236E+04  0.50003256216E+03 0.  0.
        3    1    3    3  502    0 -0.23010590696E+03  0.66502463622E+02  0.11021212264E+04  0.11278486220E+04  0.10100000352E+00 0.  1.
       -3    1    3    3    0  502  0.23010590696E+03 -0.66502463622E+02  0.59494778718E+03  0.64135340161E+03  0.10100000352E+00 0. -1.
</event>
<event>
 5   0  0.3057783E-03  0.4998975E+03  0.7818609E-02  0.1013806E+00
       -1   -1    0    0    0  501  0.00000000000E+00  0.00000000000E+00  0.31830674676E+03  0.31830674680E+03  0.50400001928E-02 0. -1.
        1   -1    0    0  501    0  0.00000000000E+00  0.00000000000E+00 -0.19627101611E+03  0.19627101617E+03  0.50400001928E-02 0.  1.
    10030    2    1    2    0    0  0.00000000000E+00  0.00000000000E+00  0.12203573065E+03  0.51457776297E+03  0.49989754409E+03 0.  0.
        5    1    3    3  502    0 -0.12253067654E+03 -0.11417190176E+03  0.25194608295E+03  0.30256884929E+03  0.46999998093E+01 0. -1.
       -5    1    3    3    0  502  0.12253067654E+03  0.11417190176E+03 -0.12991035230E+03  0.21200891368E+03  0.46999998093E+01 0.  1.
</event>
<event>
 5   0  0.4989875E-03  0.4989063E+03  0.7818609E-02  0.1014065E+00
       -2   -1    0    0    0  501  0.00000000000E+00  0.00000000000E+00  0.37967050086E+03  0.37967050087E+03  0.25500000920E-02 0. -1.
        2   -1    0    0  501    0  0.00000000000E+00  0.00000000000E+00 -0.16389703104E+03  0.16389703106E+03  0.25500000920E-02 0.  1.
    10030    2    1    2    0    0  0.00000000000E+00  0.00000000000E+00  0.21577346982E+03  0.54356753193E+03  0.49890627525E+03 0.  0.
        2    1    3    3  502    0  0.19844708428E+03 -0.13982498202E+03  0.17042354018E+03  0.29660824990E+03  0.25500000920E-02 0. -1.
       -2    1    3    3    0  502 -0.19844708428E+03  0.13982498202E+03  0.45349929647E+02  0.24695928203E+03  0.25500000920E-02 0.  1.
</event>
<event>
 5   0  0.3057783E-03  0.5000623E+03  0.7818609E-02  0.1013763E+00
       -1   -1    0    0    0  501  0.00000000000E+00  0.00000000000E+00  0.65285090055E+02  0.65285090249E+02  0.50400001928E-02 0. -1.
        1   -1    0    0  501    0  0.00000000000E+00  0.00000000000E+00 -0.95757796188E+03  0.95757796189E+03  0.50400001928E-02 0.  1.
    10030    2    1    2    0    0  0.00000000000E+00  0.00000000000E+00 -0.89229287182E+03  0.10228630521E+04  0.50006225045E+03 0.  0.
        5    1    3    3  502    0  0.34862164718E+02 -0.18646501973E+03 -0.11311190239E+03  0.22090940807E+03  0.46999998093E+01 0. -1.
       -5    1    3    3    0  502 -0.34862164718E+02  0.18646501973E+03 -0.77918096944E+03  0.80195364407E+03  0.46999998093E+01 0.  1.
</event>
<event>
 5   0  0.4989875E-03  0.5000670E+03  0.7818609E-02  0.1013761E+00
        2   -1    0    0  501    0  0.00000000000E+00  0.00000000000E+00  0.11064642153E+04  0.11064642153E+04  0.25500000920E-02 0.  1.
       -2   -1    0    0    0  501  0.00000000000E+00  0.00000000000E+00 -0.56501375841E+02  0.56501375898E+02  0.25500000920E-02 0. -1.
    10030    2    1    2    0    0  0.00000000000E+00  0.00000000000E+00  0.10499628395E+04  0.11629655912E+04  0.50006699759E+03 0.  0.
        2    1    3    3  502    0 -0.21246205129E+03 -0.11381923723E+03  0.37033543901E+03  0.44186341713E+03  0.25500000920E-02 0. -1.
       -2    1    3    3    0  502  0.21246205129E+03  0.11381923723E+03  0.67962740048E+03  0.72110217410E+03  0.25500000920E-02 0.  1.
</event>
<event>
 5   0  0.3055293E-03  0.5003355E+03  0.7818609E-02  0.1013691E+00
       -1   -1    0    0    0  501  0.00000000000E+00  0.00000000000E+00  0.29545665508E+03  0.29545665512E+03  0.50400001928E-02 0.  1.
        1   -1    0    0  501    0  0.00000000000E+00  0.00000000000E+00 -0.21182095485E+03  0.21182095491E+03  0.50400001928E-02 0. -1.
    10030    2    1    2    0    0  0.00000000000E+00  0.00000000000E+00  0.83635700223E+02  0.50727761003E+03  0.50033553071E+03 0.  0.
        3    1    3    3  502    0  0.20380728517E+03  0.26363700996E+02  0.18645571076E+03  0.27748548879E+03  0.10100000352E+00 0.  1.
       -3    1    3    3    0  502 -0.20380728517E+03 -0.26363700996E+02 -0.10282001053E+03  0.22979212124E+03  0.10100000352E+00 0. -1.
</event>
<event>
 5   0  0.5118882E-03  0.5000216E+03  0.7818609E-02  0.1013773E+00
        2   -1    0    0  501    0  0.00000000000E+00  0.00000000000E+00  0.11233036262E+04  0.11233036262E+04  0.25500000920E-02 0.  1.
       -2   -1    0    0    0  501  0.00000000000E+00  0.00000000000E+00 -0.55644269278E+02  0.55644269336E+02  0.25500000920E-02 0. -1.
    10030    2    1    2    0    0  0.00000000000E+00  0.00000000000E+00  0.10676593569E+04  0.11789478956E+04  0.50002163751E+03 0.  0.
        3    1    3    3  502    0 -0.36984018991E+02 -0.11433438550E+03  0.16912070925E+02  0.12135154598E+03  0.10100000352E+00 0. -1.
       -3    1    3    3    0  502  0.36984018991E+02  0.11433438550E+03  0.10507472860E+04  0.10575963496E+04  0.10100000352E+00 0.  1.
</event>
<event>
 5   0  0.3013734E-03  0.5001462E+03  0.7818609E-02  0.1013741E+00
       -1   -1    0    0    0  501  0.00000000000E+00  0.00000000000E+00  0.11676790994E+03  0.11676791005E+03  0.50400001928E-02 0. -1.
        1   -1    0    0  501    0  0.00000000000E+00  0.00000000000E+00 -0.53556291738E+03  0.53556291740E+03  0.50400001928E-02 0.  1.
    10030    2    1    2    0    0  0.00000000000E+00  0.00000000000E+00 -0.41879500744E+03  0.65233082745E+03  0.50014622880E+03 0.  0.
        2    1    3    3  502    0  0.12826235471E+03 -0.15099145239E+01 -0.48938685653E+03  0.50591798429E+03  0.25500000920E-02 0.  1.
       -2    1    3    3    0  502 -0.12826235471E+03  0.15099145239E+01  0.70591849090E+02  0.14641284316E+03  0.25500000920E-02 0. -1.
</event>
<event>
 5   0  0.2863538E-03  0.5000785E+03  0.7818609E-02  0.1013758E+00
        1   -1    0    0  501    0  0.00000000000E+00  0.00000000000E+00  0.68147241175E+02  0.68147241362E+02  0.50400001928E-02 0. -1.
       -1   -1    0    0    0  501  0.00000000000E+00  0.00000000000E+00 -0.91741975418E+03  0.91741975419E+03  0.50400001928E-02 0.  1.
    10030    2    1    2    0    0  0.00000000000E+00  0.00000000000E+00 -0.84927251301E+03  0.98556699556E+03  0.50007849522E+03 0.  0.
        1    1    3    3  502    0  0.19593582698E+03 -0.15017172383E+03 -0.34636621928E+03  0.42533745757E+03  0.50400001928E-02 0. -1.
       -1    1    3    3    0  502 -0.19593582698E+03  0.15017172383E+03 -0.50290629373E+03  0.56022953798E+03  0.50400001928E-02 0.  1.
</event>
<event>
 5   0  0.4989875E-03  0.5017272E+03  0.7818609E-02  0.1013329E+00
        2   -1    0    0  501    0  0.00000000000E+00  0.00000000000E+00  0.82929215772E+03  0.82929215773E+03  0.25500000920E-02 0. -1.
       -2   -1    0    0    0  501  0.00000000000E+00  0.00000000000E+00 -0.75887050037E+02  0.75887050080E+02  0.25500000920E-02 0.  1.
    10030    2    1    2    0    0  0.00000000000E+00  0.00000000000E+00  0.75340510768E+03  0.90517920781E+03  0.50172715888E+03 0.  0.
        2    1    3    3  502    0 -0.45665150034E+02 -0.30119067387E+02  0.81840071060E+03  0.82022691206E+03  0.25500000920E-02 0. -1.
       -2    1    3    3    0  502  0.45665150034E+02  0.30119067387E+02 -0.64995602915E+02  0.84952295747E+02  0.25500000920E-02 0.  1.
</event>
<event>
 5   0  0.3055293E-03  0.4999983E+03  0.7818609E-02  0.1013779E+00
        1   -1    0    0  501    0  0.00000000000E+00  0.00000000000E+00  0.92363552445E+02  0.92363552583E+02  0.50400001928E-02 0. -1.
       -1   -1    0    0    0  501  0.00000000000E+00  0.00000000000E+00 -0.67666926417E+03  0.67666926419E+03  0.50400001928E-02 0.  1.
    10030    2    1    2    0    0  0.00000000000E+00  0.00000000000E+00 -0.58430571173E+03  0.76903281678E+03  0.49999830852E+03 0.  0.
        3    1    3    3  502    0 -0.24633656632E+02 -0.16599885323E+03 -0.57716170067E+03  0.60106411907E+03  0.10100000352E+00 0.  1.
       -3    1    3    3    0  502  0.24633656632E+02  0.16599885323E+03 -0.71440110557E+01  0.16796869770E+03  0.10100000352E+00 0. -1.
</event>
<event>
 5   0  0.5095783E-03  0.5004011E+03  0.7818609E-02  0.1013674E+00
       -2   -1    0    0    0  501  0.00000000000E+00  0.00000000000E+00  0.25404733178E+03  0.25404733179E+03  0.25500000920E-02 0. -1.
        2   -1    0    0  501    0  0.00000000000E+00  0.00000000000E+00 -0.24641198816E+03  0.24641198818E+03  0.25500000920E-02 0.  1.
    10030    2    1    2    0    0  0.00000000000E+00  0.00000000000E+00  0.76353436129E+01  0.50045931997E+03  0.50040107161E+03 0.  0.
        4    1    3    3  502    0 -0.23137873385E+01  0.17742731609E+03 -0.17259132122E+03  0.24753824587E+03  0.12699999809E+01 0.  1.
       -4    1    3    3    0  502  0.23137873385E+01 -0.17742731609E+03  0.18022666483E+03  0.25292107410E+03  0.12699999809E+01 0. -1.
</event>
<event>
 5   0  0.5118882E-03  0.5000499E+03  0.7818609E-02  0.1013766E+00
        2   -1    0    0  501    0  0.00000000000E+00  0.00000000000E+00  0.89443273804E+03  0.89443273804E+03  0.25500000920E-02 0.  1.
       -2   -1    0    0    0  501  0.00000000000E+00  0.00000000000E+00 -0.69890651852E+02  0.69890651898E+02  0.25500000920E-02 0. -1.
    10030    2    1    2    0    0  0.00000000000E+00  0.00000000000E+00  0.82454208619E+03  0.96432338994E+03  0.50004994600E+03 0.  0.
        3    1    3    3  502    0 -0.22615229583E+03  0.95910639179E+02  0.50207916093E+03  0.55895188135E+03  0.10100000352E+00 0.  1.
       -3    1    3    3    0  502  0.22615229583E+03 -0.95910639179E+02  0.32246292526E+03  0.40537150860E+03  0.10100000352E+00 0. -1.
</event>
<event>
 5   0  0.2005125E-03  0.4998788E+03  0.7818609E-02  0.1013811E+00
       -4   -1    0    0    0  501  0.00000000000E+00  0.00000000000E+00  0.48728297506E+03  0.48728463005E+03  0.12699999809E+01 0.  1.
        4   -1    0    0  501    0  0.00000000000E+00  0.00000000000E+00 -0.12819504400E+03  0.12820133465E+03  0.12699999809E+01 0. -1.
    10030    2    1    2    0    0  0.00000000000E+00  0.00000000000E+00  0.35908793106E+03  0.61548596469E+03  0.49987881581E+03 0.  0.
        2    1    3    3  502    0  0.17298854384E+03 -0.11521576827E+03  0.35046450584E+03  0.40746175209E+03  0.25500000920E-02 0.  1.
       -2    1    3    3    0  502 -0.17298854384E+03  0.11521576827E+03  0.86234252218E+01  0.20802421260E+03  0.25500000920E-02 0. -1.
</event>
<event>
 5   0  0.3211775E-03  0.4996174E+03  0.7818609E-02  0.1013879E+00
       -1   -1    0    0    0  501  0.00000000000E+00  0.00000000000E+00  0.93381736602E+03  0.93381736603E+03  0.50400001928E-02 0. -1.
        1   -1    0    0  501    0  0.00000000000E+00  0.00000000000E+00 -0.66827191143E+02  0.66827191333E+02  0.50400001928E-02 0.  1.
    10030    2    1    2    0    0  0.00000000000E+00  0.00000000000E+00  0.86699017487E+03  0.10006445574E+04  0.49961742049E+03 0.  0.
        4    1    3    3  502    0 -0.51753251626E+02  0.16667786456E+03  0.79145074134E+03  0.81046640797E+03  0.12699999809E+01 0. -1.
       -4    1    3    3    0  502  0.51753251626E+02 -0.16667786456E+03  0.75539433535E+02  0.19017814939E+03  0.12699999809E+01 0.  1.
</event>
<event>
 5   0  0.2863538E-03  0.4999024E+03  0.7818609E-02  0.1013804E+00
        1   -1    0    0  501    0  0.00000000000E+00  0.00000000000E+00  0.86917259381E+03  0.86917259383E+03  0.50400001928E-02 0.  1.
       -1   -1    0    0    0  501  0.00000000000E+00  0.00000000000E+00 -0.71879408284E+02  0.71879408461E+02  0.50400001928E-02 0. -1.
    10030    2    1    2    0    0  0.00000000000E+00  0.00000000000E+00  0.79729318553E+03  0.94105200229E+03  0.49990243780E+03 0.  0.
        1    1    3    3  502    0  0.17118347904E+03 -0.44415058104E+02  0.66140493024E+02  0.18881484509E+03  0.50400001928E-02 0. -1.
       -1    1    3    3    0  502 -0.17118347904E+03  0.44415058104E+02  0.73115269251E+03  0.75223715720E+03  0.50400001928E-02 0.  1.
</event>
<event>
 5   0  0.3057783E-03  0.5002289E+03  0.7818609E-02  0.1013719E+00
       -1   -1    0    0    0  501  0.00000000000E+00  0.00000000000E+00  0.77406401924E+02  0.77406402088E+02  0.50400001928E-02 0. -1.
        1   -1    0    0  501    0  0.00000000000E+00  0.00000000000E+00 -0.80816628220E+03  0.80816628222E+03  0.50400001928E-02 0.  1.
    10030    2    1    2    0    0  0.00000000000E+00  0.00000000000E+00 -0.73075988028E+03  0.88557268431E+03  0.50022892416E+03 0.  0.
        5    1    3    3  502    0  0.50334300582E+02 -0.23910763446E+03 -0.45954363958E+03  0.52048866399E+03  0.46999998093E+01 0.  1.
       -5    1    3    3    0  502 -0.50334300582E+02  0.23910763446E+03 -0.27121624070E+03  0.36508402031E+03  0.46999998093E+01 0. -1.
</event>
<event>
 5   0  0.5095783E-03  0.5022610E+03  0.7818609E-02  0.1013190E+00
        2   -1    0    0  501    0  0.00000000000E+00  0.00000000000E+00  0.10406569795E+04  0.10406569795E+04  0.25500000920E-02 0.  1.
       -2   -1    0    0    0  501  0.00000000000E+00  0.00000000000E+00 -0.60602620973E+02  0.60602621026E+02  0.25500000920E-02 0. -1.
    10030    2    1    2    0    0  0.00000000000E+00  0.00000000000E+00  0.98005435856E+03  0.11012596006E+04  0.50226104975E+03 0.  0.
        4    1    3    3  502    0  0.23384648007E+02 -0.19484715436E+03  0.83359271461E+03  0.85638232238E+03  0.12699999809E+01 0.  1.
       -4    1    3    3    0  502 -0.23384648007E+02  0.19484715436E+03  0.14646164395E+03  0.24487727819E+03  0.12699999809E+01 0. -1.
</event>
<event>
 5   0  0.4978779E-03  0.4999430E+03  0.7818609E-02  0.1013794E+00
        2   -1    0    0  501    0  0.00000000000E+00  0.00000000000E+00  0.50282544290E+03  0.50282544291E+03  0.25500000920E-02 0.  1.
       -2   -1    0    0    0  501  0.00000000000E+00  0.00000000000E+00 -0.12426928970E+03  0.12426928973E+03  0.25500000920E-02 0. -1.
    10030    2    1    2    0    0  0.00000000000E+00  0.00000000000E+00  0.37855615320E+03  0.62709473263E+03  0.49994303932E+03 0.  0.
        1    1    3    3  502    0  0.17303636944E+03  0.17742019743E+03  0.23023637898E+03  0.33827252598E+03  0.50400001928E-02 0.  1.
       -1    1    3    3    0  502 -0.17303636944E+03 -0.17742019743E+03  0.14831977422E+03  0.28882220665E+03  0.50400001928E-02 0. -1.
</event>
<event>
 5   0  0.4889251E-03  0.5000740E+03  0.7818609E-02  0.1013760E+00
       -2   -1    0    0    0  501  0.00000000000E+00  0.00000000000E+00  0.23280547105E+03  0.23280547106E+03  0.25500000920E-02 0. -1.
        2   -1    0    0  501    0  0.00000000000E+00  0.00000000000E+00 -0.26854394777E+03  0.26854394779E+03  0.25500000920E-02 0.  1.
    10030    2    1    2    0    0  0.00000000000E+00  0.00000000000E+00 -0.35738476724E+02  0.50134941885E+03  0.50007399559E+03 0.  0.
        5    1    3    3  502    0  0.16121018966E+03 -0.16008313639E+03 -0.12244767271E+03  0.25812953794E+03  0.46999998093E+01 0.  1.
       -5    1    3    3    0  502 -0.16121018966E+03  0.16008313639E+03  0.86709195987E+02  0.24321988091E+03  0.46999998093E+01 0. -1.
</event>
<event>
 5   0  0.5095783E-03  0.5002189E+03  0.7818609E-02  0.1013722E+00
       -2   -1    0    0    0  501  0.00000000000E+00  0.00000000000E+00  0.78499175534E+02  0.78499175575E+02  0.25500000920E-02 0. -1.
        2   -1    0    0  501    0  0.00000000000E+00  0.00000000000E+00 -0.79688399451E+03  0.79688399451E+03  0.25500000920E-02 0.  1.
    10030    2    1    2    0    0  0.00000000000E+00  0.00000000000E+00 -0.71838481898E+03  0.87538317009E+03  0.50021889842E+03 0.  0.
        4    1    3    3  502    0  0.24006298681E+03 -0.34199422843E+02 -0.46640453332E+03  0.52567541293E+03  0.12699999809E+01 0.  1.
       -4    1    3    3    0  502 -0.24006298681E+03  0.34199422843E+02 -0.25198028565E+03  0.34970775716E+03  0.12699999809E+01 0. -1.
</event>
<event>
 5   0  0.4989875E-03  0.4997963E+03  0.7818609E-02  0.1013832E+00
       -2   -1    0    0    0  501  0.00000000000E+00  0.00000000000E+00  0.57033425356E+02  0.57033425413E+02  0.25500000920E-02 0. -1.
        2   -1    0    0  501    0  0.00000000000E+00  0.00000000000E+00 -0.10949560554E+04  0.10949560554E+04  0.25500000920E-02 0.  1.
    10030    2    1    2    0    0  0.00000000000E+00  0.00000000000E+00 -0.10379226301E+04  0.11519894808E+04  0.49979633648E+03 0.  0.
        2    1    3    3  502    0 -0.26755265276E+02 -0.14154082216E+03 -0.48286904672E+02  0.15192522413E+03  0.25500000920E-02 0. -1.
       -2    1    3    3    0  502  0.26755265276E+02  0.14154082216E+03 -0.98963572539E+03  0.10000642567E+04  0.25500000920E-02 0.  1.
</event>
<event>
 5   0  0.4889251E-03  0.4997836E+03  0.7818609E-02  0.1013835E+00
       -2   -1    0    0    0  501  0.00000000000E+00  0.00000000000E+00  0.82092073227E+02  0.82092073267E+02  0.25500000920E-02 0. -1.
        2   -1    0    0  501    0  0.00000000000E+00  0.00000000000E+00 -0.76068136795E+03  0.76068136796E+03  0.25500000920E-02 0.  1.
    10030    2    1    2    0    0  0.00000000000E+00  0.00000000000E+00 -0.67858929473E+03  0.84277344122E+03  0.49978359549E+03 0.  0.
        5    1    3    3  502    0 -0.84196186039E+02 -0.65213899188E+02 -0.72041545803E+03  0.72825982489E+03  0.46999998093E+01 0.  1.
       -5    1    3    3    0  502  0.84196186039E+02  0.65213899188E+02  0.41826163300E+02  0.11451361633E+03  0.46999998093E+01 0. -1.
</event>
<event>
 5   0  0.4889251E-03  0.5000507E+03  0.7818609E-02  0.1013766E+00
        2   -1    0    0  501    0  0.00000000000E+00  0.00000000000E+00  0.23641436076E+03  0.23641436077E+03  0.25500000920E-02 0. -1.
       -2   -1    0    0    0  501  0.00000000000E+00  0.00000000000E+00 -0.26441991402E+03  0.26441991403E+03  0.25500000920E-02 0.  1.
    10030    2    1    2    0    0  0.00000000000E+00  0.00000000000E+00 -0.28005553256E+02  0.50083427480E+03  0.50005065724E+03 0.  0.
        5    1    3    3  502    0  0.20365639187E+02 -0.59125395294E+02 -0.25641512338E+03  0.26397230371E+03  0.46999998093E+01 0.  1.
       -5    1    3    3    0  502 -0.20365639187E+02  0.59125395294E+02  0.22840957012E+03  0.23686197109E+03  0.46999998093E+01 0. -1.
</event>
<event>
 5   0  0.2005125E-03  0.4990974E+03  0.7818609E-02  0.1014015E+00
       -4   -1    0    0    0  501  0.00000000000E+00  0.00000000000E+00  0.19630816363E+03  0.19631227167E+03  0.12699999809E+01 0. -1.
        4   -1    0    0  501    0  0.00000000000E+00  0.00000000000E+00 -0.31721982605E+03  0.31722236829E+03  0.12699999809E+01 0.  1.
    10030    2    1    2    0    0  0.00000000000E+00  0.00000000000E+00 -0.12091166242E+03  0.51353463996E+03  0.49909738161E+03 0.  0.
        5    1    3    3  502    0  0.24638785981E+03  0.25966843263E+02 -0.90825814352E+02  0.26391792846E+03  0.46999998093E+01 0.  1.
       -5    1    3    3    0  502 -0.24638785981E+03 -0.25966843263E+02 -0.30085848071E+02  0.24961671150E+03  0.46999998093E+01 0. -1.
</event>
<event>
 5   0  0.3013734E-03  0.4995827E+03  0.7818609E-02  0.1013888E+00
       -1   -1    0    0    0  501  0.00000000000E+00  0.00000000000E+00  0.16420060543E+03  0.16420060551E+03  0.50400001928E-02 0.  1.
        1   -1    0    0  501    0  0.00000000000E+00  0.00000000000E+00 -0.37999693642E+03  0.37999693646E+03  0.50400001928E-02 0. -1.
    10030    2    1    2    0    0  0.00000000000E+00  0.00000000000E+00 -0.21579633099E+03  0.54419754197E+03  0.49958273411E+03 0.  0.
        2    1    3    3  502    0  0.43541872699E+02  0.69352395450E+02 -0.36496027488E+03  0.37403429212E+03  0.25500000920E-02 0. -1.
       -2    1    3    3    0  502 -0.43541872699E+02 -0.69352395450E+02  0.14916394390E+03  0.17016324985E+03  0.25500000920E-02 0.  1.
</event>
<event>
 5   0  0.2005125E-03  0.5001669E+03  0.7818609E-02  0.1013735E+00
       -4   -1    0    0    0  501  0.00000000000E+00  0.00000000000E+00  0.47789778573E+03  0.47789947322E+03  0.12699999809E+01 0. -1.
        4   -1    0    0  501    0  0.00000000000E+00  0.00000000000E+00 -0.13086345425E+03  0.13086961663E+03  0.12699999809E+01 0.  1.
    10030    2    1    2    0    0  0.00000000000E+00  0.00000000000E+00  0.34703433148E+03  0.60876908985E+03  0.50016694966E+03 0.  0.
        4    1    3    3  502    0  0.36738918471E+02 -0.18796618531E+02  0.47372481158E+03  0.47552063153E+03  0.12699999809E+01 0. -1.
       -4    1    3    3    0  502 -0.36738918471E+02  0.18796618531E+02 -0.12669048010E+03  0.13324845833E+03  0.12699999809E+01 0.  1.
</event>
<event>
 5   0  0.3055293E-03  0.4999796E+03  0.7818609E-02  0.1013784E+00
        1   -1    0    0  501    0  0.00000000000E+00  0.00000000000E+00  0.62736114546E+03  0.62736114548E+03  0.50400001928E-02 0. -1.
       -1   -1    0    0    0  501  0.00000000000E+00  0.00000000000E+00 -0.99615506153E+02  0.99615506280E+02  0.50400001928E-02 0.  1.
    10030    2    1    2    0    0  0.00000000000E+00  0.00000000000E+00  0.52774563930E+03  0.72697665176E+03  0.49997959198E+03 0.  0.
        3    1    3    3  502    0  0.46713364309E+02 -0.24435363139E+03  0.22813685888E+03  0.33754595563E+03  0.10100000352E+00 0. -1.
       -3    1    3    3    0  502 -0.46713364309E+02  0.24435363139E+03  0.29960878042E+03  0.38943069613E+03  0.10100000352E+00 0.  1.
</event>
<event>
 5   0  0.5118882E-03  0.5003050E+03  0.7818609E-02  0.1013699E+00
       -2   -1    0    0    0  501  0.00000000000E+00  0.00000000000E+00  0.27457144126E+03  0.27457144127E+03  0.25500000920E-02 0. -1.
        2   -1    0    0  501    0  0.00000000000E+00  0.00000000000E+00 -0.22790526328E+03  0.22790526329E+03  0.25500000920E-02 0.  1.
    10030    2    1    2    0    0  0.00000000000E+00  0.00000000000E+00  0.46666177980E+02  0.50247670456E+03  0.50030501343E+03 0.  0.
        3    1    3    3  502    0  0.22575747713E+03 -0.10244484733E+03 -0.10201684047E+02  0.24812390006E+03  0.10100000352E+00 0. -1.
       -3    1    3    3    0  502 -0.22575747713E+03  0.10244484733E+03  0.56867862027E+02  0.25435280450E+03  0.10100000352E+00 0.  1.
</event>
<event>
 5   0  0.2863538E-03  0.5000179E+03  0.7818609E-02  0.1013774E+00
       -1   -1    0    0    0  501  0.00000000000E+00  0.00000000000E+00  0.10166568137E+03  0.10166568149E+03  0.50400001928E-02 0. -1.
        1   -1    0    0  501    0  0.00000000000E+00  0.00000000000E+00 -0.61480399510E+03  0.61480399512E+03  0.50400001928E-02 0.  1.
    10030    2    1    2    0    0  0.00000000000E+00  0.00000000000E+00 -0.51313831373E+03  0.71646967661E+03  0.50001786816E+03 0.  0.
        1    1    3    3  502    0  0.13781784705E+03 -0.14189281468E+02 -0.55476613320E+03  0.57180464955E+03  0.50400001928E-02 0.  1.
       -1    1    3    3    0  502 -0.13781784705E+03  0.14189281468E+02  0.41627819474E+02  0.14466502706E+03  0.50400001928E-02 0. -1.
</event>
<event>
 5   0  0.3013734E-03  0.4996397E+03  0.7818609E-02  0.1013873E+00
       -1   -1    0    0    0  501  0.00000000000E+00  0.00000000000E+00  0.55037892070E+02  0.55037892300E+02  0.50400001928E-02 0.  1.
        1   -1    0    0  501    0  0.00000000000E+00  0.00000000000E+00 -0.11339454142E+04  0.11339454142E+04  0.50400001928E-02 0. -1.
    10030    2    1    2    0    0  0.00000000000E+00  0.00000000000E+00 -0.10789075221E+04  0.11889833065E+04  0.49963973206E+03 0.  0.
        2    1    3    3  502    0 -0.20266989555E+03 -0.12455956750E+02 -0.19313263901E+03  0.28023285617E+03  0.25500000920E-02 0.  1.
       -2    1    3    3    0  502  0.20266989555E+03  0.12455956750E+02 -0.88577488312E+03  0.90875045034E+03  0.25500000920E-02 0. -1.
</event>
<event>
 5   0  0.3057783E-03  0.4999448E+03  0.7818609E-02  0.1013793E+00
        1   -1    0    0  501    0  0.00000000000E+00  0.00000000000E+00  0.29112378816E+03  0.29112378821E+03  0.50400001928E-02 0.  1.
       -1   -1    0    0    0  501  0.00000000000E+00  0.00000000000E+00 -0.21463793943E+03  0.21463793949E+03  0.50400001928E-02 0. -1.
    10030    2    1    2    0    0  0.00000000000E+00  0.00000000000E+00  0.76485848737E+02  0.50576172769E+03  0.49994483710E+03 0.  0.
        5    1    3    3  502    0 -0.15731840930E+03  0.12918951971E+03  0.18493037899E+03  0.27506426336E+03  0.46999998093E+01 0.  1.
       -5    1    3    3    0  502  0.15731840930E+03 -0.12918951971E+03 -0.10844453026E+03  0.23069746433E+03  0.46999998093E+01 0. -1.
</event>
<event>
 5   0  0.4989875E-03  0.5000329E+03  0.7818609E-02  0.1013770E+00
        2   -1    0    0  501    0  0.00000000000E+00  0.00000000000E+00  0.72379624734E+03  0.72379624734E+03  0.25500000920E-02 0.  1.
       -2   -1    0    0    0  501  0.00000000000E+00  0.00000000000E+00 -0.86361648939E+02  0.86361648977E+02  0.25500000920E-02 0. -1.
    10030    2    1    2    0    0  0.00000000000E+00  0.00000000000E+00  0.63743459840E+03  0.81015789632E+03  0.50003294865E+03 0.  0.
        2    1    3    3  502    0  0.22764960280E+03 -0.97936968352E+02  0.26517077583E+03  0.36294838722E+03  0.25500000920E-02 0.  1.
       -2    1    3    3    0  502 -0.22764960280E+03  0.97936968352E+02  0.37226382257E+03  0.44720950910E+03  0.25500000920E-02 0. -1.
</event>
<event>
 5   0  0.5095783E-03  0.4997905E+03  0.7818609E-02  0.1013834E+00
        2   -1    0    0  501    0  0.00000000000E+00  0.00000000000E+00  0.91995962036E+03  0.91995962036E+03  0.25500000920E-02 0.  1.
       -2   -1    0    0    0  501  0.00000000000E+00  0.00000000000E+00 -0.67880831988E+02  0.67880832036E+02  0.25500000920E-02 0. -1.
    10030    2    1    2    0    0  0.00000000000E+00  0.00000000000E+00  0.85207878837E+03  0.98784045240E+03  0.49979045389E+03 0.  0.
        4    1    3    3  502    0  0.13972719250E+03  0.36991144971E+01  0.16617348735E+02  0.14076619250E+03  0.12699999809E+01 0. -1.
       -4    1    3    3    0  502 -0.13972719250E+03 -0.36991144971E+01  0.83546143964E+03  0.84707425990E+03  0.12699999809E+01 0.  1.
</event>
<event>
 5   0  0.3055293E-03  0.4998115E+03  0.7818609E-02  0.1013828E+00
       -1   -1    0    0    0  501  0.00000000000E+00  0.00000000000E+00  0.91224185409E+02  0.91224185548E+02  0.50400001928E-02 0.  1.
        1   -1    0    0  501    0  0.00000000000E+00  0.00000000000E+00 -0.68460872716E+03  0.68460872717E+03  0.50400001928E-02 0. -1.
    10030    2    1    2    0    0  0.00000000000E+00  0.00000000000E+00 -0.59338454175E+03  0.77583291272E+03  0.49981145853E+03 0.  0.
        3    1    3    3  502    0  0.10823230588E+03 -0.18162201839E+02 -0.64520209335E+03  0.65446913531E+03  0.10100000352E+00 0. -1.
       -3    1    3    3    0  502 -0.10823230588E+03  0.18162201839E+02  0.51817551604E+02  0.12136377741E+03  0.10100000352E+00 0.  1.
</event>
<event>
 5   0  0.4989875E-03  0.5000364E+03  0.7818609E-02  0.1013769E+00
       -2   -1    0    0    0  501  0.00000000000E+00  0.00000000000E+00  0.27695842913E+03  0.27695842915E+03  0.25500000920E-02 0. -1.
        2   -1    0    0  501    0  0.00000000000E+00  0.00000000000E+00 -0.22569850550E+03  0.22569850552E+03  0.25500000920E-02 0.  1.
    10030    2    1    2    0    0  0.00000000000E+00  0.00000000000E+00  0.51259923631E+02  0.50265693466E+03  0.50003641287E+03 0.  0.
        2    1    3    3  502    0 -0.16094604503E+03 -0.82034475357E+02  0.19938201977E+03  0.26904734597E+03  0.25500000920E-02 0. -1.
       -2    1    3    3    0  502  0.16094604503E+03  0.82034475357E+02 -0.14812209614E+03  0.23360958869E+03  0.25500000920E-02 0.  1.
</event>
<event>
 5   0  0.3057783E-03  0.4993706E+03  0.7818609E-02  0.1013943E+00
       -1   -1    0    0    0  501  0.00000000000E+00  0.00000000000E+00  0.51698369654E+02  0.51698369900E+02  0.50400001928E-02 0.  1.
        1   -1    0    0  501    0  0.00000000000E+00  0.00000000000E+00 -0.12058938438E+04  0.12058938438E+04  0.50400001928E-02 0. -1.
    10030    2    1    2    0    0  0.00000000000E+00  0.00000000000E+00 -0.11541954742E+04  0.12575922137E+04  0.49937058729E+03 0.  0.
        5    1    3    3  502    0  0.15130240223E+03  0.10148204416E+03 -0.14727994175E+03  0.23431707887E+03  0.46999998093E+01 0.  1.
       -5    1    3    3    0  502 -0.15130240223E+03 -0.10148204416E+03 -0.10069155324E+04  0.10232751349E+04  0.46999998093E+01 0. -1.
</event>
<event>
 5   0  0.2005125E-03  0.4998245E+03  0.7818609E-02  0.1013825E+00
        3   -1    0    0  501    0  0.00000000000E+00  0.00000000000E+00  0.63533031943E+02  0.63533112224E+02  0.10100000352E+00 0.  1.
       -3   -1    0    0    0  501  0.00000000000E+00  0.00000000000E+00 -0.98304906810E+03  0.98304907328E+03  0.10100000352E+00 0. -1.
    10030    2    1    2    0    0  0.00000000000E+00  0.00000000000E+00 -0.91951603615E+03  0.10465821855E+04  0.49982449948E+03 0.  0.
        2    1    3    3  502    0  0.11750345940E+03 -0.14033858240E+03 -0.10346179189E+03  0.21025299776E+03  0.25500000920E-02 0. -1.
       -2    1    3    3    0  502 -0.11750345940E+03  0.14033858240E+03 -0.81605424427E+03  0.83632918774E+03  0.25500000920E-02 0.  1.
</event>
<event>
 5   0  0.3211775E-03  0.4999748E+03  0.7818609E-02  0.1013785E+00
       -1   -1    0    0    0  501  0.00000000000E+00  0.00000000000E+00  0.88998326331E+02  0.88998326473E+02  0.50400001928E-02 0. -1.
        1   -1    0    0  501    0  0.00000000000E+00  0.00000000000E+00 -0.70218970614E+03  0.70218970616E+03  0.50400001928E-02 0.  1.
    10030    2    1    2    0    0  0.00000000000E+00  0.00000000000E+00 -0.61319137981E+03  0.79118803263E+03  0.49997483407E+03 0.  0.
        4    1    3    3  502    0 -0.24378253547E+03  0.24932125410E+02 -0.38477221024E+03  0.45618286043E+03  0.12699999809E+01 0. -1.
       -4    1    3    3    0  502  0.24378253547E+03 -0.24932125410E+02 -0.22841916957E+03  0.33500517220E+03  0.12699999809E+01 0.  1.
</event>
<event>
 5   0  0.3013734E-03  0.4996273E+03  0.7818609E-02  0.1013876E+00
       -1   -1    0    0    0  501  0.00000000000E+00  0.00000000000E+00  0.92675494305E+02  0.92675494442E+02  0.50400001928E-02 0. -1.
        1   -1    0    0  501    0  0.00000000000E+00  0.00000000000E+00 -0.67339130603E+03  0.67339130605E+03  0.50400001928E-02 0.  1.
    10030    2    1    2    0    0  0.00000000000E+00  0.00000000000E+00 -0.58071581172E+03  0.76606680049E+03  0.49962734996E+03 0.  0.
        2    1    3    3  502    0 -0.18055331054E+03 -0.91215109186E+02 -0.51511330300E+03  0.55340889857E+03  0.25500000920E-02 0.  1.
       -2    1    3    3    0  502  0.18055331054E+03  0.91215109186E+02 -0.65602508724E+02  0.21265790191E+03  0.25500000920E-02 0. -1.
</event>
<event>
 5   0  0.3057783E-03  0.5000394E+03  0.7818609E-02  0.1013769E+00
       -1   -1    0    0    0  501  0.00000000000E+00  0.00000000000E+00  0.10600212772E+03  0.10600212784E+03  0.50400001928E-02 0.  1.
        1   -1    0    0  501    0  0.00000000000E+00  0.00000000000E+00 -0.58970373738E+03  0.58970373741E+03  0.50400001928E-02 0. -1.
    10030    2    1    2    0    0  0.00000000000E+00  0.00000000000E+00 -0.48370160967E+03  0.69570586524E+03  0.50003940219E+03 0.  0.
        5    1    3    3  502    0 -0.22887296646E+03  0.34780018929E+02 -0.37307114590E+03  0.43908615828E+03  0.46999998093E+01 0. -1.
       -5    1    3    3    0  502  0.22887296646E+03 -0.34780018929E+02 -0.11063046377E+03  0.25661970696E+03  0.46999998093E+01 0.  1.
</event>
<event>
 5   0  0.2863538E-03  0.4993411E+03  0.7818609E-02  0.1013951E+00
       -1   -1    0    0    0  501  0.00000000000E+00  0.00000000000E+00  0.42606146788E+03  0.42606146791E+03  0.50400001928E-02 0. -1.
        1   -1    0    0  501    0  0.00000000000E+00  0.00000000000E+00 -0.14630607107E+03  0.14630607116E+03  0.50400001928E-02 0.  1.
    10030    2    1    2    0    0  0.00000000000E+00  0.00000000000E+00  0.27975539681E+03  0.57236753906E+03  0.49934108356E+03 0.  0.
        1    1    3    3  502    0 -0.20541490806E+03 -0.13562158728E+03  0.91969566710E+02  0.26276776936E+03  0.50400001928E-02 0. -1.
       -1    1    3    3    0  502  0.20541490806E+03  0.13562158728E+03  0.18778583010E+03  0.30959976970E+03  0.50400001928E-02 0.  1.
</event>
<event>
 5   0  0.5118882E-03  0.4999498E+03  0.7818609E-02  0.1013792E+00
       -2   -1    0    0    0  501  0.00000000000E+00  0.00000000000E+00  0.65854827674E+03  0.65854827675E+03  0.25500000920E-02 0.  1.
        2   -1    0    0  501    0  0.00000000000E+00  0.00000000000E+00 -0.94886659167E+02  0.94886659201E+02  0.25500000920E-02 0. -1.
    10030    2    1    2    0    0  0.00000000000E+00  0.00000000000E+00  0.56366161757E+03  0.75343493595E+03  0.49994978106E+03 0.  0.
        3    1    3    3  502    0 -0.10258969177E+03 -0.17155861057E+03  0.55624793200E+02  0.20748766117E+03  0.10100000352E+00 0. -1.
       -3    1    3    3    0  502  0.10258969177E+03  0.17155861057E+03  0.50803682437E+03  0.54594727478E+03  0.10100000352E+00 0.  1.
</event>
<event>
 5   0  0.5118882E-03  0.5005035E+03  0.7818609E-02  0.1013648E+00
       -2   -1    0    0    0  501  0.00000000000E+00  0.00000000000E+00  0.17651614196E+03  0.17651614198E+03  0.25500000920E-02 0. -1.
        2   -1    0    0  501    0  0.00000000000E+00  0.00000000000E+00 -0.35478869769E+03  0.35478869770E+03  0.25500000920E-02 0.  1.
    10030    2    1    2    0    0  0.00000000000E+00  0.00000000000E+00 -0.17827255573E+03  0.53130483968E+03  0.50050347505E+03 0.  0.
        3    1    3    3  502    0  0.15756076119E+03 -0.16777176958E+03 -0.19343319405E+03  0.30064791850E+03  0.10100000352E+00 0.  1.
       -3    1    3    3    0  502 -0.15756076119E+03  0.16777176958E+03  0.15160638322E+02  0.23065692118E+03  0.10100000352E+00 0. -1.
</event>
<event>
 5   0  0.3057783E-03  0.5001740E+03  0.7818609E-02  0.1013734E+00
        1   -1    0    0  501    0  0.00000000000E+00  0.00000000000E+00  0.16841382738E+04  0.16841382738E+04  0.50400001928E-02 0.  1.
       -1   -1    0    0    0  501  0.00000000000E+00  0.00000000000E+00 -0.37136794114E+02  0.37136794456E+02  0.50400001928E-02 0. -1.
    10030    2    1    2    0    0  0.00000000000E+00  0.00000000000E+00  0.16470014796E+04  0.17212750682E+04  0.50017395627E+03 0.  0.
        5    1    3    3  502    0  0.14025636870E+03  0.20581645511E+03  0.89961180198E+03  0.93346437875E+03  0.46999998093E+01 0.  1.
       -5    1    3    3    0  502 -0.14025636870E+03 -0.20581645511E+03  0.74738967766E+03  0.78781068946E+03  0.46999998093E+01 0. -1.
</event>
<event>
 5   0  0.2863538E-03  0.5000918E+03  0.7818609E-02  0.1013755E+00
        1   -1    0    0  501    0  0.00000000000E+00  0.00000000000E+00  0.19815229542E+03  0.19815229548E+03  0.50400001928E-02 0. -1.
       -1   -1    0    0    0  501  0.00000000000E+00  0.00000000000E+00 -0.31552980865E+03  0.31552980869E+03  0.50400001928E-02 0.  1.
    10030    2    1    2    0    0  0.00000000000E+00  0.00000000000E+00 -0.11737751324E+03  0.51368210417E+03  0.50009181510E+03 0.  0.
        1    1    3    3  502    0  0.10064741791E+03  0.44266623240E+02 -0.28936577335E+03  0.30955126793E+03  0.50400001928E-02 0.  1.
       -1    1    3    3    0  502 -0.10064741791E+03 -0.44266623240E+02  0.17198826011E+03  0.20413083625E+03  0.50400001928E-02 0. -1.
</event>
<event>
 5   0  0.3055293E-03  0.4999983E+03  0.7818609E-02  0.1013779E+00
       -1   -1    0    0    0  501  0.00000000000E+00  0.00000000000E+00  0.66437318681E+02  0.66437318872E+02  0.50400001928E-02 0. -1.
        1   -1    0    0  501    0  0.00000000000E+00  0.00000000000E+00 -0.94072976243E+03  0.94072976244E+03  0.50400001928E-02 0.  1.
    10030    2    1    2    0    0  0.00000000000E+00  0.00000000000E+00 -0.87429244375E+03  0.10071670813E+04  0.49999825249E+03 0.  0.
        3    1    3    3  502    0 -0.57775075265E+02 -0.15679537645E+03 -0.81170972426E+03  0.82873122064E+03  0.10100000352E+00 0.  1.
       -3    1    3    3    0  502  0.57775075265E+02  0.15679537645E+03 -0.62582719487E+02  0.17843586068E+03  0.10100000352E+00 0. -1.
</event>
<event>
 5   0  0.4989875E-03  0.5001095E+03  0.7818609E-02  0.1013750E+00
        2   -1    0    0  501    0  0.00000000000E+00  0.00000000000E+00  0.23490874330E+03  0.23490874332E+03  0.25500000920E-02 0. -1.
       -2   -1    0    0    0  501  0.00000000000E+00  0.00000000000E+00 -0.26617733723E+03  0.26617733725E+03  0.25500000920E-02 0.  1.
    10030    2    1    2    0    0  0.00000000000E+00  0.00000000000E+00 -0.31268593932E+02  0.50108608056E+03  0.50010952317E+03 0.  0.
        2    1    3    3  502    0 -0.15355929562E+03 -0.13392352548E+03  0.12960190167E+03  0.24148006309E+03  0.25500000920E-02 0. -1.
       -2    1    3    3    0  502  0.15355929562E+03  0.13392352548E+03 -0.16087049560E+03  0.25960601747E+03  0.25500000920E-02 0.  1.
</event>
<event>
 5   0  0.4989875E-03  0.4998950E+03  0.7818609E-02  0.1013806E+00
       -2   -1    0    0    0  501  0.00000000000E+00  0.00000000000E+00  0.15417218656E+03  0.15417218658E+03  0.25500000920E-02 0.  1.
        2   -1    0    0  501    0  0.00000000000E+00  0.00000000000E+00 -0.40522056387E+03  0.40522056388E+03  0.25500000920E-02 0. -1.
    10030    2    1    2    0    0  0.00000000000E+00  0.00000000000E+00 -0.25104837730E+03  0.55939275046E+03  0.49989495048E+03 0.  0.
        2    1    3    3  502    0 -0.34254786263E+02  0.42522160713E+02 -0.39846479770E+03  0.40218866164E+03  0.25500000920E-02 0. -1.
       -2    1    3    3    0  502  0.34254786263E+02 -0.42522160713E+02  0.14741642040E+03  0.15720408882E+03  0.25500000920E-02 0.  1.
</event>
<event>
 5   0  0.3211775E-03  0.5000565E+03  0.7818609E-02  0.1013764E+00
       -1   -1    0    0    0  501  0.00000000000E+00  0.00000000000E+00  0.50948995798E+02  0.50948996047E+02  0.50400001928E-02 0.  1.
        1   -1    0    0  501    0  0.00000000000E+00  0.00000000000E+00 -0.12269944411E+04  0.12269944411E+04  0.50400001928E-02 0. -1.
    10030    2    1    2    0    0  0.00000000000E+00  0.00000000000E+00 -0.11760454453E+04  0.12779434371E+04  0.50005653596E+03 0.  0.
        4    1    3    3  502    0 -0.21748624289E+03  0.83064478850E+02 -0.35502073955E+03  0.42454836226E+03  0.12699999809E+01 0.  1.
       -4    1    3    3    0  502  0.21748624289E+03 -0.83064478850E+02 -0.82102470572E+03  0.85339507486E+03  0.12699999809E+01 0. -1.
</event>
<event>
 5   0  0.4978779E-03  0.4993232E+03  0.7818609E-02  0.1013956E+00
        2   -1    0    0  501    0  0.00000000000E+00  0.00000000000E+00  0.35656425517E+03  0.35656425518E+03  0.25500000920E-02 0. -1.
       -2   -1    0    0    0  501  0.00000000000E+00  0.00000000000E+00 -0.17480975224E+03  0.17480975226E+03  0.25500000920E-02 0.  1.
    10030    2    1    2    0    0  0.00000000000E+00  0.00000000000E+00  0.18175450293E+03  0.53137400743E+03  0.49932317835E+03 0.  0.
        1    1    3    3  502    0  0.14977611946E+03 -0.12398244769E+02  0.30303360533E+03  0.33825429549E+03  0.50400001928E-02 0. -1.
       -1    1    3    3    0  502 -0.14977611946E+03  0.12398244769E+02 -0.12127910240E+03  0.19311971194E+03  0.50400001928E-02 0.  1.
</event>
<event>
 5   0  0.3057783E-03  0.5000465E+03  0.7818609E-02  0.1013767E+00
        1   -1    0    0  501    0  0.00000000000E+00  0.00000000000E+00  0.10388563632E+03  0.10388563644E+03  0.50400001928E-02 0.  1.
       -1   -1    0    0    0  501  0.00000000000E+00  0.00000000000E+00 -0.60173503468E+03  0.60173503470E+03  0.50400001928E-02 0. -1.
    10030    2    1    2    0    0  0.00000000000E+00  0.00000000000E+00 -0.49784939836E+03  0.70562067114E+03  0.50004650593E+03 0.  0.
        5    1    3    3  502    0 -0.18483370861E+03  0.16246727703E+03 -0.31092401886E+03  0.39655384432E+03  0.46999998093E+01 0. -1.
       -5    1    3    3    0  502  0.18483370861E+03 -0.16246727703E+03 -0.18692537950E+03  0.30906682682E+03  0.46999998093E+01 0.  1.
</event>
<event>
 5   0  0.4889251E-03  0.4992053E+03  0.7818609E-02  0.1013987E+00
       -2   -1    0    0    0  501  0.00000000000E+00  0.00000000000E+00  0.50388839236E+02  0.50388839301E+02  0.25500000920E-02 0.  1.
        2   -1    0    0  501    0  0.00000000000E+00  0.00000000000E+00 -0.12364144682E+04  0.12364144682E+04  0.25500000920E-02 0. -1.
    10030    2    1    2    0    0  0.00000000000E+00  0.00000000000E+00 -0.11860256290E+04  0.12868033075E+04  0.49920532815E+03 0.  0.
        5    1    3    3  502    0  0.14685971684E+03 -0.12510163014E+02 -0.73907113885E+02  0.16495039282E+03  0.46999998093E+01 0.  1.
       -5    1    3    3    0  502 -0.14685971684E+03  0.12510163014E+02 -0.11121185151E+04  0.11218529147E+04  0.46999998093E+01 0. -1.
</event>
<event>
 5   0  0.4889251E-03  0.4998914E+03  0.7818609E-02  0.1013807E+00
       -2   -1    0    0    0  501  0.00000000000E+00  0.00000000000E+00  0.79354976932E+02  0.79354976973E+02  0.25500000920E-02 0. -1.
        2   -1    0    0  501    0  0.00000000000E+00  0.00000000000E+00 -0.78725831042E+03  0.78725831042E+03  0.25500000920E-02 0.  1.
    10030    2    1    2    0    0  0.00000000000E+00  0.00000000000E+00 -0.70790333349E+03  0.86661328740E+03  0.49989144855E+03 0.  0.
        5    1    3    3  502    0 -0.20809435441E+03 -0.18754226472E+02 -0.59162473422E+03  0.62745270538E+03  0.46999998093E+01 0.  1.
       -5    1    3    3    0  502  0.20809435441E+03  0.18754226472E+02 -0.11627859927E+03  0.23916058202E+03  0.46999998093E+01 0. -1.
</event>
<event>
 5   0  0.2005125E-03  0.5003598E+03  0.7818609E-02  0.1013685E+00
       -3   -1    0    0    0  501  0.00000000000E+00  0.00000000000E+00  0.70118206639E+02  0.70118279381E+02  0.10100000352E+00 0.  1.
        3   -1    0    0  501    0  0.00000000000E+00  0.00000000000E+00 -0.89263460248E+03  0.89263460820E+03  0.10100000352E+00 0. -1.
    10030    2    1    2    0    0  0.00000000000E+00  0.00000000000E+00 -0.82251639584E+03  0.96275288758E+03  0.50035977167E+03 0.  0.
        1    1    3    3  502    0  0.21168571043E+03  0.13329000634E+03 -0.41817151536E+03  0.48728275372E+03  0.50400001928E-02 0.  1.
       -1    1    3    3    0  502 -0.21168571043E+03 -0.13329000634E+03 -0.40434488049E+03  0.47547013386E+03  0.50400001928E-02 0. -1.
</event>
<event>
 5   0  0.4989875E-03  0.5001043E+03  0.7818609E-02  0.1013752E+00
       -2   -1    0    0    0  501  0.00000000000E+00  0.00000000000E+00  0.59539220111E+02  0.59539220166E+02  0.25500000920E-02 0. -1.
        2   -1    0    0  501    0  0.00000000000E+00  0.00000000000E+00 -0.10501661812E+04  0.10501661812E+04  0.25500000920E-02 0.  1.
    10030    2    1    2    0    0  0.00000000000E+00  0.00000000000E+00 -0.99062696111E+03  0.11097054014E+04  0.50010429092E+03 0.  0.
        2    1    3    3  502    0  0.12600399651E+03  0.67973467382E+02 -0.95021770905E+03  0.96094281515E+03  0.25500000920E-02 0.  1.
       -2    1    3    3    0  502 -0.12600399651E+03 -0.67973467382E+02 -0.40409252063E+02  0.14876258624E+03  0.25500000920E-02 0. -1.
</event>
<event>
 5   0  0.3057783E-03  0.4999094E+03  0.7818609E-02  0.1013803E+00
        1   -1    0    0  501    0  0.00000000000E+00  0.00000000000E+00  0.40029646146E+03  0.40029646149E+03  0.50400001928E-02 0. -1.
       -1   -1    0    0    0  501  0.00000000000E+00  0.00000000000E+00 -0.15607767936E+03  0.15607767944E+03  0.50400001928E-02 0.  1.
    10030    2    1    2    0    0  0.00000000000E+00  0.00000000000E+00  0.24421878210E+03  0.55637414093E+03  0.49990936295E+03 0.  0.
        5    1    3    3  502    0 -0.76877103946E+02  0.20894705426E+03  0.24844903634E+03  0.33364348375E+03  0.46999998093E+01 0.  1.
       -5    1    3    3    0  502  0.76877103946E+02 -0.20894705426E+03 -0.42302542311E+01  0.22273065717E+03  0.46999998093E+01 0. -1.
</event>
<event>
 5   0  0.4889251E-03  0.5000476E+03  0.7818609E-02  0.1013766E+00
        2   -1    0    0  501    0  0.00000000000E+00  0.00000000000E+00  0.68307241083E+03  0.68307241084E+03  0.25500000920E-02 0. -1.
       -2   -1    0    0    0  501  0.00000000000E+00  0.00000000000E+00 -0.91515788161E+02  0.91515788196E+02  0.25500000920E-02 0.  1.
    10030    2    1    2    0    0  0.00000000000E+00  0.00000000000E+00  0.59155662267E+03  0.77458819904E+03  0.50004763799E+03 0.  0.
        5    1    3    3  502    0  0.20814325611E+03  0.13379938758E+03  0.35084903900E+03  0.42935187126E+03  0.46999998093E+01 0.  1.
       -5    1    3    3    0  502 -0.20814325611E+03 -0.13379938758E+03  0.24070758367E+03  0.34523632778E+03  0.46999998093E+01 0. -1.
</event>
<event>
 5   0  0.3055293E-03  0.5004870E+03  0.7818609E-02  0.1013652E+00
       -1   -1    0    0    0  501  0.00000000000E+00  0.00000000000E+00  0.64963575208E+02  0.64963575403E+02  0.50400001928E-02 0.  1.
        1   -1    0    0  501    0  0.00000000000E+00  0.00000000000E+00 -0.96395264394E+03  0.96395264396E+03  0.50400001928E-02 0. -1.
    10030    2    1    2    0    0  0.00000000000E+00  0.00000000000E+00 -0.89898906874E+03  0.10289162194E+04  0.50048700358E+03 0.  0.
        3    1    3    3  502    0 -0.85831499069E+02  0.15019447745E+03 -0.77756501475E+02  0.18966156967E+03  0.10100000352E+00 0.  1.
       -3    1    3    3    0  502  0.85831499069E+02 -0.15019447745E+03 -0.82123256726E+03  0.83925464969E+03  0.10100000352E+00 0. -1.
</event>
<event>
 5   0  0.5095783E-03  0.5004048E+03  0.7818609E-02  0.1013673E+00
        2   -1    0    0  501    0  0.00000000000E+00  0.00000000000E+00  0.39994078902E+03  0.39994078903E+03  0.25500000920E-02 0.  1.
       -2   -1    0    0    0  501  0.00000000000E+00  0.00000000000E+00 -0.15652626983E+03  0.15652626985E+03  0.25500000920E-02 0. -1.
    10030    2    1    2    0    0  0.00000000000E+00  0.00000000000E+00  0.24341451919E+03  0.55646705888E+03  0.50040479560E+03 0.  0.
        4    1    3    3  502    0  0.14288739769E+03  0.20512555848E+03  0.11024069687E+03  0.27321772876E+03  0.12699999809E+01 0. -1.
       -4    1    3    3    0  502 -0.14288739769E+03 -0.20512555848E+03  0.13317382232E+03  0.28324933012E+03  0.12699999809E+01 0.  1.
</event>
<event>
 5   0  0.3013734E-03  0.5001073E+03  0.7818609E-02  0.1013751E+00
        1   -1    0    0  501    0  0.00000000000E+00  0.00000000000E+00  0.14781794332E+04  0.14781794332E+04  0.50400001928E-02 0.  1.
       -1   -1    0    0    0  501  0.00000000000E+00  0.00000000000E+00 -0.42299885565E+02  0.42299885865E+02  0.50400001928E-02 0. -1.
    10030    2    1    2    0    0  0.00000000000E+00  0.00000000000E+00  0.14358795477E+04  0.15204793191E+04  0.50010727291E+03 0.  0.
        2    1    3    3  502    0 -0.15938807395E+03 -0.29690864949E+02  0.12967227236E+04  0.13068190110E+04  0.25500000920E-02 0.  1.
       -2    1    3    3    0  502  0.15938807395E+03  0.29690864949E+02  0.13915682410E+03  0.21366030815E+03  0.25500000920E-02 0. -1.
</event>
<event>
 5   0  0.2863538E-03  0.5000026E+03  0.7818609E-02  0.1013778E+00
       -1   -1    0    0    0  501  0.00000000000E+00  0.00000000000E+00  0.35345944976E+03  0.35345944980E+03  0.50400001928E-02 0. -1.
        1   -1    0    0  501    0  0.00000000000E+00  0.00000000000E+00 -0.17682551574E+03  0.17682551582E+03  0.50400001928E-02 0.  1.
    10030    2    1    2    0    0  0.00000000000E+00  0.00000000000E+00  0.17663393402E+03  0.53028496561E+03  0.50000259810E+03 0.  0.
        1    1    3    3  502    0 -0.23978025811E+03  0.26322717070E+02  0.15796942441E+03  0.28834319254E+03  0.50400001928E-02 0. -1.
       -1    1    3    3    0  502  0.23978025811E+03 -0.26322717070E+02  0.18664509608E+02  0.24194177307E+03  0.50400001928E-02 0.  1.
</event>
<event>
 5   0  0.4889251E-03  0.5000525E+03  0.7818609E-02  0.1013765E+00
       -2   -1    0    0    0  501  0.00000000000E+00  0.00000000000E+00  0.31887728836E+02  0.31887728938E+02  0.25500000920E-02 0. -1.
        2   -1    0    0  501    0  0.00000000000E+00  0.00000000000E+00 -0.19604132927E+04  0.19604132927E+04  0.25500000920E-02 0.  1.
    10030    2    1    2    0    0  0.00000000000E+00  0.00000000000E+00 -0.19285255639E+04  0.19923010216E+04  0.50005250759E+03 0.  0.
        5    1    3    3  502    0 -0.18673660763E+03 -0.42082712984E+02 -0.32369423758E+03  0.37608717713E+03  0.46999998093E+01 0. -1.
       -5    1    3    3    0  502  0.18673660763E+03  0.42082712984E+02 -0.16048313263E+04  0.16162138445E+04  0.46999998093E+01 0.  1.
</event>
<event>
 5   0  0.3057783E-03  0.4995910E+03  0.7818609E-02  0.1013886E+00
       -1   -1    0    0    0  501  0.00000000000E+00  0.00000000000E+00  0.12722093107E+03  0.12722093117E+03  0.50400001928E-02 0.  1.
        1   -1    0    0  501    0  0.00000000000E+00  0.00000000000E+00 -0.49046790853E+03  0.49046790855E+03  0.50400001928E-02 0. -1.
    10030    2    1    2    0    0  0.00000000000E+00  0.00000000000E+00 -0.36324697746E+03  0.61768883972E+03  0.49959096877E+03 0.  0.
        5    1    3    3  502    0 -0.21890792861E+02 -0.49195263888E+02  0.11990419787E+03  0.13152371446E+03  0.46999998093E+01 0.  1.
       -5    1    3    3    0  502  0.21890792861E+02  0.49195263888E+02 -0.48315117533E+03  0.48616512526E+03  0.46999998093E+01 0. -1.
</event>
<event>
 5   0  0.5118882E-03  0.4999265E+03  0.7818609E-02  0.1013798E+00
       -2   -1    0    0    0  501  0.00000000000E+00  0.00000000000E+00  0.35773984846E+02  0.35773984937E+02  0.25500000920E-02 0. -1.
        2   -1    0    0  501    0  0.00000000000E+00  0.00000000000E+00 -0.17465658622E+04  0.17465658622E+04  0.25500000920E-02 0.  1.
    10030    2    1    2    0    0  0.00000000000E+00  0.00000000000E+00 -0.17107918773E+04  0.17823398471E+04  0.49992647767E+03 0.  0.
        3    1    3    3  502    0 -0.16440444536E+03  0.64930427961E+02 -0.22528380335E+03  0.28635220339E+03  0.10100000352E+00 0. -1.
       -3    1    3    3    0  502  0.16440444536E+03 -0.64930427961E+02 -0.14855080740E+04  0.14959876437E+04  0.10100000352E+00 0.  1.
</event>
<event>
 5   0  0.4978779E-03  0.5002089E+03  0.7818609E-02  0.1013724E+00
       -2   -1    0    0    0  501  0.00000000000E+00  0.00000000000E+00  0.40792591693E+02  0.40792591773E+02  0.25500000920E-02 0.  1.
        2   -1    0    0  501    0  0.00000000000E+00  0.00000000000E+00 -0.15334214444E+04  0.15334214444E+04  0.25500000920E-02 0. -1.
    10030    2    1    2    0    0  0.00000000000E+00  0.00000000000E+00 -0.14926288527E+04  0.15742140362E+04  0.50020889612E+03 0.  0.
        1    1    3    3  502    0  0.14654489462E+03 -0.48290847354E+02 -0.12684595291E+03  0.19974310469E+03  0.50400001928E-02 0.  1.
       -1    1    3    3    0  502 -0.14654489462E+03  0.48290847354E+02 -0.13657828998E+04  0.13744709315E+04  0.50400001928E-02 0. -1.
</event>
<event>
 5   0  0.3013734E-03  0.5002605E+03  0.7818609E-02  0.1013711E+00
       -1   -1    0    0    0  501  0.00000000000E+00  0.00000000000E+00  0.56862733139E+02  0.56862733362E+02  0.50400001928E-02 0. -1.
        1   -1    0    0  501    0  0.00000000000E+00  0.00000000000E+00 -0.11002838944E+04  0.11002838944E+04  0.50400001928E-02 0.  1.
    10030    2    1    2    0    0  0.00000000000E+00  0.00000000000E+00 -0.10434211612E+04  0.11571466278E+04  0.50026053052E+03 0.  0.
        2    1    3    3  502    0 -0.16507035883E+03  0.13892710675E+03 -0.22897757205E+03  0.31461038264E+03  0.25500000920E-02 0.  1.
       -2    1    3    3    0  502  0.16507035883E+03 -0.13892710675E+03 -0.81444358919E+03  0.84253624511E+03  0.25500000920E-02 0. -1.
</event>
<event>
 5   0  0.2005125E-03  0.4999346E+03  0.7818609E-02  0.1013796E+00
       -4   -1    0    0    0  501  0.00000000000E+00  0.00000000000E+00  0.39890342553E+03  0.39890544720E+03  0.12699999809E+01 0.  1.
        4   -1    0    0  501    0  0.00000000000E+00  0.00000000000E+00 -0.15663355615E+03  0.15663870471E+03  0.12699999809E+01 0. -1.
    10030    2    1    2    0    0  0.00000000000E+00  0.00000000000E+00  0.24226986938E+03  0.55554415190E+03  0.49993461083E+03 0.  0.
        5    1    3    3  502    0 -0.17880207510E+03  0.17142591410E+03  0.84203545333E+02  0.26166649218E+03  0.46999998093E+01 0. -1.
       -5    1    3    3    0  502  0.17880207510E+03 -0.17142591410E+03  0.15806632405E+03  0.29387765972E+03  0.46999998093E+01 0.  1.
</event>
<event>
 5   0  0.5118882E-03  0.4998352E+03  0.7818609E-02  0.1013822E+00
        2   -1    0    0  501    0  0.00000000000E+00  0.00000000000E+00  0.12946479356E+04  0.12946479356E+04  0.25500000920E-02 0.  1.
       -2   -1    0    0    0  501  0.00000000000E+00  0.00000000000E+00 -0.48243849457E+02  0.48243849524E+02  0.25500000920E-02 0. -1.
    10030    2    1    2    0    0  0.00000000000E+00  0.00000000000E+00  0.12464040861E+04  0.13428917851E+04  0.49983517344E+03 0.  0.
        3    1    3    3  502    0  0.22343039788E+03 -0.38122309079E+02  0.34034365657E+03  0.40891107581E+03  0.10100000352E+00 0.  1.
       -3    1    3    3    0  502 -0.22343039788E+03  0.38122309079E+02  0.90606042957E+03  0.93398070932E+03  0.10100000352E+00 0. -1.
</event>
<event>
 5   0  0.4889251E-03  0.5000422E+03  0.7818609E-02  0.1013768E+00
       -2   -1    0    0    0  501  0.00000000000E+00  0.00000000000E+00  0.22172425033E+03  0.22172425034E+03  0.25500000920E-02 0.  1.
        2   -1    0    0  501    0  0.00000000000E+00  0.00000000000E+00 -0.28192925484E+03  0.28192925485E+03  0.25500000920E-02 0. -1.
    10030    2    1    2    0    0  0.00000000000E+00  0.00000000000E+00 -0.60205004514E+02  0.50365350520E+03  0.50004220895E+03 0.  0.
        5    1    3    3  502    0 -0.29419541184E+02 -0.23463839624E+03  0.51524598516E+02  0.24206933024E+03  0.46999998093E+01 0.  1.
       -5    1    3    3    0  502  0.29419541184E+02  0.23463839624E+03 -0.11172960303E+03  0.26158417495E+03  0.46999998093E+01 0. -1.
</event>
<event>
 5   0  0.3211775E-03  0.4996097E+03  0.7818609E-02  0.1013881E+00
       -1   -1    0    0    0  501  0.00000000000E+00  0.00000000000E+00  0.26799000764E+03  0.26799000768E+03  0.50400001928E-02 0.  1.
        1   -1    0    0  501    0  0.00000000000E+00  0.00000000000E+00 -0.23285370283E+03  0.23285370289E+03  0.50400001928E-02 0. -1.
    10030    2    1    2    0    0  0.00000000000E+00  0.00000000000E+00  0.35136304802E+02  0.50084371057E+03  0.49960971018E+03 0.  0.
        4    1    3    3  502    0 -0.13667487066E+03 -0.20886428137E+03  0.77181813313E+01  0.24973083815E+03  0.12699999809E+01 0. -1.
       -4    1    3    3    0  502  0.13667487066E+03  0.20886428137E+03  0.27418123471E+02  0.25111287242E+03  0.12699999809E+01 0.  1.
</event>
<event>
 5   0  0.3211775E-03  0.5001780E+03  0.7818609E-02  0.1013732E+00
        1   -1    0    0  501    0  0.00000000000E+00  0.00000000000E+00  0.13724216072E+03  0.13724216081E+03  0.50400001928E-02 0.  1.
       -1   -1    0    0    0  501  0.00000000000E+00  0.00000000000E+00 -0.45572376435E+03  0.45572376438E+03  0.50400001928E-02 0. -1.
    10030    2    1    2    0    0  0.00000000000E+00  0.00000000000E+00 -0.31848160363E+03  0.59296592519E+03  0.50017802489E+03 0.  0.
        4    1    3    3  502    0 -0.19510500493E+01 -0.23465424865E+03 -0.26174783566E+03  0.35153942223E+03  0.12699999809E+01 0. -1.
       -4    1    3    3    0  502  0.19510500493E+01  0.23465424865E+03 -0.56733767973E+02  0.24142650297E+03  0.12699999809E+01 0.  1.
</event>
<event>
 5   0  0.2863538E-03  0.5000507E+03  0.7818609E-02  0.1013766E+00
       -1   -1    0    0    0  501  0.00000000000E+00  0.00000000000E+00  0.86230168064E+03  0.86230168065E+03  0.50400001928E-02 0. -1.
        1   -1    0    0  501    0  0.00000000000E+00  0.00000000000E+00 -0.72495141304E+02  0.72495141480E+02  0.50400001928E-02 0.  1.
    10030    2    1    2    0    0  0.00000000000E+00  0.00000000000E+00  0.78980653933E+03  0.93479682213E+03  0.50005072652E+03 0.  0.
        1    1    3    3  502    0  0.15197309584E+02  0.24702068850E+03  0.46132641815E+03  0.52351909504E+03  0.50400001928E-02 0.  1.
       -1    1    3    3    0  502 -0.15197309584E+02 -0.24702068850E+03  0.32848012119E+03  0.41127772709E+03  0.50400001928E-02 0. -1.
</event>
<event>
 5   0  0.2863538E-03  0.4998477E+03  0.7818609E-02  0.1013819E+00
       -1   -1    0    0    0  501  0.00000000000E+00  0.00000000000E+00  0.17096803321E+03  0.17096803328E+03  0.50400001928E-02 0. -1.
        1   -1    0    0  501    0  0.00000000000E+00  0.00000000000E+00 -0.36534274399E+03  0.36534274402E+03  0.50400001928E-02 0.  1.
    10030    2    1    2    0    0  0.00000000000E+00  0.00000000000E+00 -0.19437471078E+03  0.53631077731E+03  0.49984769847E+03 0.  0.
        1    1    3    3  502    0  0.95787832523E+02  0.52939768704E+02  0.14388961053E+03  0.18078204561E+03  0.50400001928E-02 0. -1.
       -1    1    3    3    0  502 -0.95787832523E+02 -0.52939768704E+02 -0.33826432131E+03  0.35552873170E+03  0.50400001928E-02 0.  1.
</event>
<event>
 5   0  0.3013734E-03  0.5004121E+03  0.7818609E-02  0.1013671E+00
       -1   -1    0    0    0  501  0.00000000000E+00  0.00000000000E+00  0.85948346914E+02  0.85948347062E+02  0.50400001928E-02 0.  1.
        1   -1    0    0  501    0  0.00000000000E+00  0.00000000000E+00 -0.72838011488E+03  0.72838011490E+03  0.50400001928E-02 0. -1.
    10030    2    1    2    0    0  0.00000000000E+00  0.00000000000E+00 -0.64243176796E+03  0.81432846196E+03  0.50041209764E+03 0.  0.
        2    1    3    3  502    0  0.16517071238E+03  0.14695213898E+03 -0.13055745252E+03  0.25675191099E+03  0.25500000920E-02 0.  1.
       -2    1    3    3    0  502 -0.16517071238E+03 -0.14695213898E+03 -0.51187431544E+03  0.55757655097E+03  0.25500000920E-02 0. -1.
</event>
<event>
 5   0  0.3057783E-03  0.4992415E+03  0.7818609E-02  0.1013977E+00
        1   -1    0    0  501    0  0.00000000000E+00  0.00000000000E+00  0.67875809689E+03  0.67875809691E+03  0.50400001928E-02 0.  1.
       -1   -1    0    0    0  501  0.00000000000E+00  0.00000000000E+00 -0.91800767269E+02  0.91800767407E+02  0.50400001928E-02 0. -1.
    10030    2    1    2    0    0  0.00000000000E+00  0.00000000000E+00  0.58695732962E+03  0.77055886431E+03  0.49924148123E+03 0.  0.
        5    1    3    3  502    0  0.19239394714E+03 -0.11755207400E+03  0.45866848701E+03  0.51110937379E+03  0.46999998093E+01 0.  1.
       -5    1    3    3    0  502 -0.19239394714E+03  0.11755207400E+03  0.12828884261E+03  0.25944949053E+03  0.46999998093E+01 0. -1.
</event>
<event>
 5   0  0.2005125E-03  0.4996124E+03  0.7818609E-02  0.1013880E+00
        3   -1    0    0  501    0  0.00000000000E+00  0.00000000000E+00  0.84014887284E+02  0.84014947993E+02  0.10100000352E+00 0. -1.
       -3   -1    0    0    0  501  0.00000000000E+00  0.00000000000E+00 -0.74276249484E+03  0.74276250171E+03  0.10100000352E+00 0.  1.
    10030    2    1    2    0    0  0.00000000000E+00  0.00000000000E+00 -0.65874760756E+03  0.82677744970E+03  0.49961239063E+03 0.  0.
        1    1    3    3  502    0  0.13153246736E+03 -0.21052215669E+03 -0.28307480371E+03  0.37649928678E+03  0.50400001928E-02 0.  1.
       -1    1    3    3    0  502 -0.13153246736E+03  0.21052215669E+03 -0.37567280385E+03  0.45027816292E+03  0.50400001928E-02 0. -1.
</event>
<event>
 5   0  0.3013734E-03  0.4999080E+03  0.7818609E-02  0.1013803E+00
        1   -1    0    0  501    0  0.00000000000E+00  0.00000000000E+00  0.11651706266E+04  0.11651706267E+04  0.50400001928E-02 0.  1.
       -1   -1    0    0    0  501  0.00000000000E+00  0.00000000000E+00 -0.53620465756E+02  0.53620465993E+02  0.50400001928E-02 0. -1.
    10030    2    1    2    0    0  0.00000000000E+00  0.00000000000E+00  0.11115501609E+04  0.12187910926E+04  0.49990795887E+03 0.  0.
        2    1    3    3  502    0 -0.85529503730E+02 -0.14024480281E+03  0.10150906134E+04  0.10282960926E+04  0.25500000920E-02 0.  1.
       -2    1    3    3    0  502  0.85529503730E+02  0.14024480281E+03  0.96459547508E+02  0.19049500003E+03  0.25500000920E-02 0. -1.
</event>
<event>
 5   0  0.4978779E-03  0.5000901E+03  0.7818609E-02  0.1013755E+00
       -2   -1    0    0    0  501  0.00000000000E+00  0.00000000000E+00  0.45177093910E+03  0.45177093911E+03  0.25500000920E-02 0. -1.
        2   -1    0    0  501    0  0.00000000000E+00  0.00000000000E+00 -0.13839429851E+03  0.13839429853E+03  0.25500000920E-02 0.  1.
    10030    2    1    2    0    0  0.00000000000E+00  0.00000000000E+00  0.31337664059E+03  0.59016523764E+03  0.50009008074E+03 0.  0.
        1    1    3    3  502    0 -0.12600373514E+03 -0.38655504044E+02  0.40744971245E+03  0.42823645041E+03  0.50400001928E-02 0. -1.
       -1    1    3    3    0  502  0.12600373514E+03  0.38655504044E+02 -0.94073071856E+02  0.16192878723E+03  0.50400001928E-02 0.  1.
</event>
<event>
 5   0  0.4978779E-03  0.5012527E+03  0.7818609E-02  0.1013452E+00
        2   -1    0    0  501    0  0.00000000000E+00  0.00000000000E+00  0.10709361512E+04  0.10709361512E+04  0.25500000920E-02 0.  1.
       -2   -1    0    0    0  501  0.00000000000E+00  0.00000000000E+00 -0.58652953215E+02  0.58652953270E+02  0.25500000920E-02 0. -1.
    10030    2    1    2    0    0  0.00000000000E+00  0.00000000000E+00  0.10122831980E+04  0.11295891045E+04  0.50125270276E+03 0.  0.
        1    1    3    3  502    0  0.16060104344E+03  0.33300153935E+02  0.79087005378E+02  0.18208885153E+03  0.50400001928E-02 0. -1.
       -1    1    3    3    0  502 -0.16060104344E+03 -0.33300153935E+02  0.93319619261E+03  0.94750025295E+03  0.50400001928E-02 0.  1.
</event>
<event>
 5   0  0.4989875E-03  0.5000505E+03  0.7818609E-02  0.1013766E+00
       -2   -1    0    0    0  501  0.00000000000E+00  0.00000000000E+00  0.75534621723E+02  0.75534621766E+02  0.25500000920E-02 0. -1.
        2   -1    0    0  501    0  0.00000000000E+00  0.00000000000E+00 -0.82760243152E+03  0.82760243153E+03  0.25500000920E-02 0.  1.
    10030    2    1    2    0    0  0.00000000000E+00  0.00000000000E+00 -0.75206780980E+03  0.90313705329E+03  0.50005054394E+03 0.  0.
        2    1    3    3  502    0  0.14727149507E+03 -0.19635636782E+03 -0.29002297586E+03  0.37994478938E+03  0.25500000920E-02 0.  1.
       -2    1    3    3    0  502 -0.14727149507E+03  0.19635636782E+03 -0.46204483393E+03  0.52319226391E+03  0.25500000920E-02 0. -1.
</event>
<event>
 5   0  0.3013734E-03  0.5000229E+03  0.7818609E-02  0.1013773E+00
       -1   -1    0    0    0  501  0.00000000000E+00  0.00000000000E+00  0.68823160428E+02  0.68823160612E+02  0.50400001928E-02 0. -1.
        1   -1    0    0  501    0  0.00000000000E+00  0.00000000000E+00 -0.90820777731E+03  0.90820777733E+03  0.50400001928E-02 0.  1.
    10030    2    1    2    0    0  0.00000000000E+00  0.00000000000E+00 -0.83938461688E+03  0.97703093794E+03  0.50002291810E+03 0.  0.
        2    1    3    3  502    0 -0.23511466591E+03  0.79409596075E+02 -0.36039513752E+03  0.43757221716E+03  0.25500000920E-02 0. -1.
       -2    1    3    3    0  502  0.23511466591E+03 -0.79409596075E+02 -0.47898947937E+03  0.53945872078E+03  0.25500000920E-02 0.  1.
</event>
<event>
 5   0  0.3211775E-03  0.5002624E+03  0.7818609E-02  0.1013710E+00
        1   -1    0    0  501    0  0.00000000000E+00  0.00000000000E+00  0.60358846730E+03  0.60358846732E+03  0.50400001928E-02 0.  1.
       -1   -1    0    0    0  501  0.00000000000E+00  0.00000000000E+00 -0.10365608936E+03  0.10365608948E+03  0.50400001928E-02 0. -1.
    10030    2    1    2    0    0  0.00000000000E+00  0.00000000000E+00  0.49993237793E+03  0.70724455680E+03  0.50026241176E+03 0.  0.
        4    1    3    3  502    0 -0.23290352572E+03  0.84799186856E+02  0.29747004682E+03  0.38720149282E+03  0.12699999809E+01 0.  1.
       -4    1    3    3    0  502  0.23290352572E+03 -0.84799186856E+02  0.20246233111E+03  0.32004306398E+03  0.12699999809E+01 0. -1.
</event>
<event>
 5   0  0.2863538E-03  0.5005825E+03  0.7818609E-02  0.1013627E+00
       -1   -1    0    0    0  501  0.00000000000E+00  0.00000000000E+00  0.28792050836E+02  0.28792051277E+02  0.50400001928E-02 0. -1.
        1   -1    0    0  501    0  0.00000000000E+00  0.00000000000E+00 -0.21757985013E+04  0.21757985013E+04  0.50400001928E-02 0.  1.
    10030    2    1    2    0    0  0.00000000000E+00  0.00000000000E+00 -0.21470064505E+04  0.22045905526E+04  0.50058246694E+03 0.  0.
        1    1    3    3  502    0  0.73098112601E+02 -0.19077682877E+03 -0.43671695432E+03  0.48214191964E+03  0.50400001928E-02 0. -1.
       -1    1    3    3    0  502 -0.73098112601E+02  0.19077682877E+03 -0.17102894962E+04  0.17224486330E+04  0.50400001928E-02 0.  1.
</event>
<event>
 5   0  0.3013734E-03  0.5000216E+03  0.7818609E-02  0.1013773E+00
        1   -1    0    0  501    0  0.00000000000E+00  0.00000000000E+00  0.10548348122E+04  0.10548348123E+04  0.50400001928E-02 0.  1.
       -1   -1    0    0    0  501  0.00000000000E+00  0.00000000000E+00 -0.59256108091E+02  0.59256108305E+02  0.50400001928E-02 0. -1.
    10030    2    1    2    0    0  0.00000000000E+00  0.00000000000E+00  0.99557870416E+03  0.11140909206E+04  0.50002162265E+03 0.  0.
        2    1    3    3  502    0  0.24839691788E+03 -0.23267799944E+02  0.46165680883E+03  0.52475654209E+03  0.25500000920E-02 0. -1.
       -2    1    3    3    0  502 -0.24839691788E+03  0.23267799944E+02  0.53392189533E+03  0.58933437847E+03  0.25500000920E-02 0.  1.
</event>
<event>
 5   0  0.2005125E-03  0.4999665E+03  0.7818609E-02  0.1013788E+00
        4   -1    0    0  501    0  0.00000000000E+00  0.00000000000E+00  0.10576818092E+04  0.10576825716E+04  0.12699999809E+01 0.  1.
       -4   -1    0    0    0  501  0.00000000000E+00  0.00000000000E+00 -0.59075977003E+02  0.59089626490E+02  0.12699999809E+01 0. -1.
    10030    2    1    2    0    0  0.00000000000E+00  0.00000000000E+00  0.99860583216E+03  0.11167721981E+04  0.49996653335E+03 0.  0.
        3    1    3    3  502    0 -0.17639309822E+03 -0.14071604340E+03  0.73963108140E+03  0.77328499064E+03  0.10100000352E+00 0.  1.
       -3    1    3    3    0  502  0.17639309822E+03  0.14071604340E+03  0.25897475075E+03  0.34348720748E+03  0.10100000352E+00 0. -1.
</event>
<event>
 5   0  0.5118882E-03  0.4996839E+03  0.7818609E-02  0.1013861E+00
        2   -1    0    0  501    0  0.00000000000E+00  0.00000000000E+00  0.24410308405E+03  0.24410308406E+03  0.25500000920E-02 0. -1.
       -2   -1    0    0    0  501  0.00000000000E+00  0.00000000000E+00 -0.25571570153E+03  0.25571570155E+03  0.25500000920E-02 0.  1.
    10030    2    1    2    0    0  0.00000000000E+00  0.00000000000E+00 -0.11612617484E+02  0.49981878561E+03  0.49968386562E+03 0.  0.
        3    1    3    3  502    0  0.91990565164E+02 -0.23084717763E+03  0.20052125700E+02  0.24930860685E+03  0.10100000352E+00 0. -1.
       -3    1    3    3    0  502 -0.91990565164E+02  0.23084717763E+03 -0.31664743184E+02  0.25051017876E+03  0.10100000352E+00 0.  1.
</event>
<event>
 5   0  0.4978779E-03  0.4993474E+03  0.7818609E-02  0.1013949E+00
        2   -1    0    0  501    0  0.00000000000E+00  0.00000000000E+00  0.40398820343E+03  0.40398820344E+03  0.25500000920E-02 0.  1.
       -2   -1    0    0    0  501  0.00000000000E+00  0.00000000000E+00 -0.15430391080E+03  0.15430391082E+03  0.25500000920E-02 0. -1.
    10030    2    1    2    0    0  0.00000000000E+00  0.00000000000E+00  0.24968429263E+03  0.55829211426E+03  0.49934741299E+03 0.  0.
        1    1    3    3  502    0 -0.68426843076E+02 -0.17711749711E+03  0.30610357644E+03  0.36021138263E+03  0.50400001928E-02 0.  1.
       -1    1    3    3    0  502  0.68426843076E+02  0.17711749711E+03 -0.56419283811E+02  0.19808073164E+03  0.50400001928E-02 0. -1.
</event>
<event>
 5   0  0.5118882E-03  0.5000345E+03  0.7818609E-02  0.1013770E+00
        2   -1    0    0  501    0  0.00000000000E+00  0.00000000000E+00  0.44755990847E+03  0.44755990848E+03  0.25500000920E-02 0. -1.
       -2   -1    0    0    0  501  0.00000000000E+00  0.00000000000E+00 -0.13966537026E+03  0.13966537029E+03  0.25500000920E-02 0.  1.
    10030    2    1    2    0    0  0.00000000000E+00  0.00000000000E+00  0.30789453820E+03  0.58722527876E+03  0.50003448017E+03 0.  0.
        3    1    3    3  502    0 -0.95524202498E+02  0.18314917102E+03  0.31936304109E+03  0.38034360034E+03  0.10100000352E+00 0. -1.
       -3    1    3    3    0  502  0.95524202498E+02 -0.18314917102E+03 -0.11468502883E+02  0.20688167842E+03  0.10100000352E+00 0.  1.
</event>
<event>
 5   0  0.3211775E-03  0.4986956E+03  0.7818609E-02  0.1014120E+00
       -1   -1    0    0    0  501  0.00000000000E+00  0.00000000000E+00  0.11530941805E+03  0.11530941816E+03  0.50400001928E-02 0.  1.
        1   -1    0    0  501    0  0.00000000000E+00  0.00000000000E+00 -0.53919564103E+03  0.53919564105E+03  0.50400001928E-02 0. -1.
    10030    2    1    2    0    0  0.00000000000E+00  0.00000000000E+00 -0.42388622298E+03  0.65450505921E+03  0.49869564114E+03 0.  0.
        4    1    3    3  502    0  0.16153326354E+03 -0.63559673234E+02 -0.44686472804E+03  0.47939808652E+03  0.12699999809E+01 0. -1.
       -4    1    3    3    0  502 -0.16153326354E+03  0.63559673234E+02  0.22978505054E+02  0.17510697269E+03  0.12699999809E+01 0.  1.
</event>
<event>
 5   0  0.4989875E-03  0.5002413E+03  0.7818609E-02  0.1013716E+00
       -2   -1    0    0    0  501  0.00000000000E+00  0.00000000000E+00  0.67459738985E+02  0.67459739033E+02  0.25500000920E-02 0.  1.
        2   -1    0    0  501    0  0.00000000000E+00  0.00000000000E+00 -0.92737311084E+03  0.92737311084E+03  0.25500000920E-02 0. -1.
    10030    2    1    2    0    0  0.00000000000E+00  0.00000000000E+00 -0.85991337185E+03  0.99483284988E+03  0.50024133386E+03 0.  0.
        2    1    3    3  502    0 -0.80448779710E+02  0.12609575908E+03 -0.82863244409E+03  0.84202367782E+03  0.25500000920E-02 0. -1.
       -2    1    3    3    0  502  0.80448779710E+02 -0.12609575908E+03 -0.31280927764E+02  0.15280917205E+03  0.25500000920E-02 0.  1.
</event>
<event>
 5   0  0.4989875E-03  0.5000308E+03  0.7818609E-02  0.1013771E+00
       -2   -1    0    0    0  501  0.00000000000E+00  0.00000000000E+00  0.20486204201E+03  0.20486204203E+03  0.25500000920E-02 0. -1.
        2   -1    0    0  501    0  0.00000000000E+00  0.00000000000E+00 -0.30512089435E+03  0.30512089436E+03  0.25500000920E-02 0.  1.
    10030    2    1    2    0    0  0.00000000000E+00  0.00000000000E+00 -0.10025885234E+03  0.50998293639E+03  0.50003075699E+03 0.  0.
        2    1    3    3  502    0 -0.35430763274E+02  0.24233727386E+03 -0.10137888572E+03  0.26506673078E+03  0.25500000920E-02 0.  1.
       -2    1    3    3    0  502  0.35430763274E+02 -0.24233727386E+03  0.11200333834E+01  0.24491620561E+03  0.25500000920E-02 0. -1.
</event>
<event>
 5   0  0.3211775E-03  0.4998895E+03  0.7818609E-02  0.1013808E+00
        1   -1    0    0  501    0  0.00000000000E+00  0.00000000000E+00  0.70764229008E+03  0.70764229009E+03  0.50400001928E-02 0. -1.
       -1   -1    0    0    0  501  0.00000000000E+00  0.00000000000E+00 -0.88282416839E+02  0.88282416983E+02  0.50400001928E-02 0.  1.
    10030    2    1    2    0    0  0.00000000000E+00  0.00000000000E+00  0.61935987324E+03  0.79592470708E+03  0.49988947454E+03 0.  0.
        4    1    3    3  502    0 -0.18992858108E+02 -0.21115795197E+03  0.52044283505E+03  0.56197043231E+03  0.12699999809E+01 0. -1.
       -4    1    3    3    0  502  0.18992858108E+02  0.21115795197E+03  0.98917038188E+02  0.23395427477E+03  0.12699999809E+01 0.  1.
</event>
<event>
 5   0  0.3013734E-03  0.5001093E+03  0.7818609E-02  0.1013750E+00
        1   -1    0    0  501    0  0.00000000000E+00  0.00000000000E+00  0.52319346642E+03  0.52319346645E+03  0.50400001928E-02 0.  1.
       -1   -1    0    0    0  501  0.00000000000E+00  0.00000000000E+00 -0.11951090934E+03  0.11951090944E+03  0.50400001928E-02 0. -1.
    10030    2    1    2    0    0  0.00000000000E+00  0.00000000000E+00  0.40368255709E+03  0.64270437589E+03  0.50010929594E+03 0.  0.
        2    1    3    3  502    0 -0.30023102716E+02  0.52617959183E+02  0.51361999362E+03  0.51718036909E+03  0.25500000920E-02 0.  1.
       -2    1    3    3    0  502  0.30023102716E+02 -0.52617959183E+02 -0.10993743653E+03  0.12552400680E+03  0.25500000920E-02 0. -1.
</event>
<event>
 5   0  0.3057783E-03  0.5000859E+03  0.7818609E-02  0.1013756E+00
        1   -1    0    0  501    0  0.00000000000E+00  0.00000000000E+00  0.81706602324E+02  0.81706602480E+02  0.50400001928E-02 0.  1.
       -1   -1    0    0    0  501  0.00000000000E+00  0.00000000000E+00 -0.76519495316E+03  0.76519495318E+03  0.50400001928E-02 0. -1.
    10030    2    1    2    0    0  0.00000000000E+00  0.00000000000E+00 -0.68348835083E+03  0.84690155565E+03  0.50008591186E+03 0.  0.
        5    1    3    3  502    0 -0.12489213232E+03 -0.14193058884E+02 -0.70771485798E+03  0.71880588328E+03  0.46999998093E+01 0. -1.
       -5    1    3    3    0  502  0.12489213232E+03  0.14193058884E+02  0.24226507145E+02  0.12809567238E+03  0.46999998093E+01 0.  1.
</event>
<event>
 5   0  0.5095783E-03  0.5014955E+03  0.7818609E-02  0.1013389E+00
       -2   -1    0    0    0  501  0.00000000000E+00  0.00000000000E+00  0.27451097068E+02  0.27451097186E+02  0.25500000920E-02 0.  1.
        2   -1    0    0  501    0  0.00000000000E+00  0.00000000000E+00 -0.22904158420E+04  0.22904158420E+04  0.25500000920E-02 0. -1.
    10030    2    1    2    0    0  0.00000000000E+00  0.00000000000E+00 -0.22629647449E+04  0.23178669392E+04  0.50149547453E+03 0.  0.
        4    1    3    3  502    0 -0.65941206062E+02 -0.30818603245E+02 -0.22466789816E+02  0.76186603202E+02  0.12699999809E+01 0.  1.
       -4    1    3    3    0  502  0.65941206062E+02  0.30818603245E+02 -0.22404979551E+04  0.22416803360E+04  0.12699999809E+01 0. -1.
</event>
<event>
 5   0  0.3057783E-03  0.4999552E+03  0.7818609E-02  0.1013791E+00
       -1   -1    0    0    0  501  0.00000000000E+00  0.00000000000E+00  0.18667844035E+03  0.18667844042E+03  0.50400001928E-02 0.  1.
        1   -1    0    0  501    0  0.00000000000E+00  0.00000000000E+00 -0.33474030639E+03  0.33474030643E+03  0.50400001928E-02 0. -1.
    10030    2    1    2    0    0  0.00000000000E+00  0.00000000000E+00 -0.14806186604E+03  0.52141874684E+03  0.49995519138E+03 0.  0.
        5    1    3    3  502    0 -0.42235193712E+01  0.23320125893E+03 -0.16769776408E+03  0.28730697061E+03  0.46999998093E+01 0. -1.
       -5    1    3    3    0  502  0.42235193712E+01 -0.23320125893E+03  0.19635898046E+02  0.23411177624E+03  0.46999998093E+01 0.  1.
</event>
<event>
 5   0  0.5118882E-03  0.4999406E+03  0.7818609E-02  0.1013794E+00
       -2   -1    0    0    0  501  0.00000000000E+00  0.00000000000E+00  0.14289397786E+03  0.14289397788E+03  0.25500000920E-02 0.  1.
        2   -1    0    0  501    0  0.00000000000E+00  0.00000000000E+00 -0.43728336507E+03  0.43728336508E+03  0.25500000920E-02 0. -1.
    10030    2    1    2    0    0  0.00000000000E+00  0.00000000000E+00 -0.29438938721E+03  0.58017734296E+03  0.49994063446E+03 0.  0.
        3    1    3    3  502    0  0.10957783867E+03  0.18525052572E+03  0.32982486436E+00  0.21523284831E+03  0.10100000352E+00 0.  1.
       -3    1    3    3    0  502 -0.10957783867E+03 -0.18525052572E+03 -0.29471921207E+03  0.36494449465E+03  0.10100000352E+00 0. -1.
</event>
<event>
 5   0  0.3057783E-03  0.5000770E+03  0.7818609E-02  0.1013759E+00
       -1   -1    0    0    0  501  0.00000000000E+00  0.00000000000E+00  0.11197788170E+03  0.11197788182E+03  0.50400001928E-02 0. -1.
        1   -1    0    0  501    0  0.00000000000E+00  0.00000000000E+00 -0.55831793526E+03  0.55831793529E+03  0.50400001928E-02 0.  1.
    10030    2    1    2    0    0  0.00000000000E+00  0.00000000000E+00 -0.44634005356E+03  0.67029581710E+03  0.50007703308E+03 0.  0.
        5    1    3    3  502    0  0.10943326576E+03 -0.21304692821E+03 -0.31919752677E+03  0.39909119806E+03  0.46999998093E+01 0.  1.
       -5    1    3    3    0  502 -0.10943326576E+03  0.21304692821E+03 -0.12714252679E+03  0.27120461905E+03  0.46999998093E+01 0. -1.
</event>
<event>
 5   0  0.2863538E-03  0.4999707E+03  0.7818609E-02  0.1013787E+00
       -1   -1    0    0    0  501  0.00000000000E+00  0.00000000000E+00  0.23251360902E+03  0.23251360908E+03  0.50400001928E-02 0.  1.
        1   -1    0    0  501    0  0.00000000000E+00  0.00000000000E+00 -0.26876997605E+03  0.26876997609E+03  0.50400001928E-02 0. -1.
    10030    2    1    2    0    0  0.00000000000E+00  0.00000000000E+00 -0.36256367023E+02  0.50128358517E+03  0.49997070775E+03 0.  0.
        1    1    3    3  502    0 -0.11061536002E+03  0.14810721615E+03 -0.18685904817E+03  0.26284559965E+03  0.50400001928E-02 0. -1.
       -1    1    3    3    0  502  0.11061536002E+03 -0.14810721615E+03  0.15060268114E+03  0.23843798552E+03  0.50400001928E-02 0.  1.
</event>
<event>
 5   0  0.3055293E-03  0.5001708E+03  0.7818609E-02  0.1013734E+00
       -1   -1    0    0    0  501  0.00000000000E+00  0.00000000000E+00  0.11557128467E+03  0.11557128478E+03  0.50400001928E-02 0.  1.
        1   -1    0    0  501    0  0.00000000000E+00  0.00000000000E+00 -0.54116120338E+03  0.54116120340E+03  0.50400001928E-02 0. -1.
    10030    2    1    2    0    0  0.00000000000E+00  0.00000000000E+00 -0.42558991871E+03  0.65673248819E+03  0.50017075298E+03 0.  0.
        3    1    3    3  502    0  0.26841229566E+02  0.11604410097E+03  0.75937356349E+02  0.14125571587E+03  0.10100000352E+00 0.  1.
       -3    1    3    3    0  502 -0.26841229566E+02 -0.11604410097E+03 -0.50152727506E+03  0.51547677232E+03  0.10100000352E+00 0. -1.
</event>
<event>
 5   0  0.3057783E-03  0.4999334E+03  0.7818609E-02  0.1013796E+00
        1   -1    0    0  501    0  0.00000000000E+00  0.00000000000E+00  0.34215869425E+03  0.34215869429E+03  0.50400001928E-02 0.  1.
       -1   -1    0    0    0  501  0.00000000000E+00  0.00000000000E+00 -0.18261514321E+03  0.18261514328E+03  0.50400001928E-02 0. -1.
    10030    2    1    2    0    0  0.00000000000E+00  0.00000000000E+00  0.15954355105E+03  0.52477383757E+03  0.49993343149E+03 0.  0.
        5    1    3    3  502    0 -0.43083155169E+02  0.16995680947E+02  0.33756837772E+03  0.34076313044E+03  0.46999998093E+01 0.  1.
       -5    1    3    3    0  502  0.43083155169E+02 -0.16995680947E+02 -0.17802482667E+03  0.18401070714E+03  0.46999998093E+01 0. -1.
</event>
<event>
 5   0  0.5095783E-03  0.4998592E+03  0.7818609E-02  0.1013816E+00
       -2   -1    0    0    0  501  0.00000000000E+00  0.00000000000E+00  0.37368455179E+03  0.37368455180E+03  0.25500000920E-02 0. -1.
        2   -1    0    0  501    0  0.00000000000E+00  0.00000000000E+00 -0.16715915795E+03  0.16715915797E+03  0.25500000920E-02 0.  1.
    10030    2    1    2    0    0  0.00000000000E+00  0.00000000000E+00  0.20652539384E+03  0.54084370978E+03  0.49985916027E+03 0.  0.
        4    1    3    3  502    0  0.82122639467E+02  0.19014816515E+03 -0.48072118971E+02  0.21263347372E+03  0.12699999809E+01 0.  1.
       -4    1    3    3    0  502 -0.82122639467E+02 -0.19014816515E+03  0.25459751281E+03  0.32821023606E+03  0.12699999809E+01 0. -1.
</event>
<event>
 5   0  0.5118882E-03  0.5002964E+03  0.7818609E-02  0.1013702E+00
       -2   -1    0    0    0  501  0.00000000000E+00  0.00000000000E+00  0.89997376357E+02  0.89997376393E+02  0.25500000920E-02 0.  1.
        2   -1    0    0  501    0  0.00000000000E+00  0.00000000000E+00 -0.69528836768E+03  0.69528836768E+03  0.25500000920E-02 0. -1.
    10030    2    1    2    0    0  0.00000000000E+00  0.00000000000E+00 -0.60529099132E+03  0.78528574408E+03  0.50029642781E+03 0.  0.
        3    1    3    3  502    0  0.84424481785E+02  0.22978133305E+03 -0.22188652359E+03  0.33039460301E+03  0.10100000352E+00 0.  1.
       -3    1    3    3    0  502 -0.84424481785E+02 -0.22978133305E+03 -0.38340446774E+03  0.45489114107E+03  0.10100000352E+00 0. -1.
</event>
<event>
 5   0  0.4989875E-03  0.4994083E+03  0.7818609E-02  0.1013933E+00
       -2   -1    0    0    0  501  0.00000000000E+00  0.00000000000E+00  0.16989456119E+03  0.16989456121E+03  0.25500000920E-02 0.  1.
        2   -1    0    0  501    0  0.00000000000E+00  0.00000000000E+00 -0.36700500860E+03  0.36700500861E+03  0.25500000920E-02 0. -1.
    10030    2    1    2    0    0  0.00000000000E+00  0.00000000000E+00 -0.19711044741E+03  0.53689956982E+03  0.49940826945E+03 0.  0.
        2    1    3    3  502    0 -0.18430907593E+03  0.12197524616E+03  0.26376953907E+02  0.22258378164E+03  0.25500000920E-02 0.  1.
       -2    1    3    3    0  502  0.18430907593E+03 -0.12197524616E+03 -0.22348740132E+03  0.31431578818E+03  0.25500000920E-02 0. -1.
</event>
<event>
 5   0  0.4978779E-03  0.5004038E+03  0.7818609E-02  0.1013674E+00
        2   -1    0    0  501    0  0.00000000000E+00  0.00000000000E+00  0.62286365926E+03  0.62286365927E+03  0.25500000920E-02 0. -1.
       -2   -1    0    0    0  501  0.00000000000E+00  0.00000000000E+00 -0.10050510628E+03  0.10050510631E+03  0.25500000920E-02 0.  1.
    10030    2    1    2    0    0  0.00000000000E+00  0.00000000000E+00  0.52235855299E+03  0.72336876558E+03  0.50040375012E+03 0.  0.
        1    1    3    3  502    0  0.17301086169E+03  0.11037518459E+03  0.54278133306E+02  0.21227707228E+03  0.50400001928E-02 0.  1.
       -1    1    3    3    0  502 -0.17301086169E+03 -0.11037518459E+03  0.46808041968E+03  0.51109169329E+03  0.50400001928E-02 0. -1.
</event>
<event>
 5   0  0.4889251E-03  0.5018337E+03  0.7818609E-02  0.1013301E+00
        2   -1    0    0  501    0  0.00000000000E+00  0.00000000000E+00  0.12781106494E+04  0.12781106494E+04  0.25500000920E-02 0.  1.
       -2   -1    0    0    0  501  0.00000000000E+00  0.00000000000E+00 -0.49259635394E+02  0.49259635460E+02  0.25500000920E-02 0. -1.
    10030    2    1    2    0    0  0.00000000000E+00  0.00000000000E+00  0.12288510140E+04  0.13273702849E+04  0.50183369607E+03 0.  0.
        5    1    3    3  502    0 -0.21837495157E+03 -0.10815380707E+03  0.77207321128E+03  0.80963201458E+03  0.46999998093E+01 0. -1.
       -5    1    3    3    0  502  0.21837495157E+03  0.10815380707E+03  0.45677780272E+03  0.51773827028E+03  0.46999998093E+01 0.  1.
</event>
<event>
 5   0  0.5118882E-03  0.4999369E+03  0.7818609E-02  0.1013795E+00
       -2   -1    0    0    0  501  0.00000000000E+00  0.00000000000E+00  0.12237730851E+03  0.12237730854E+03  0.25500000920E-02 0. -1.
        2   -1    0    0  501    0  0.00000000000E+00  0.00000000000E+00 -0.51058670162E+03  0.51058670163E+03  0.25500000920E-02 0.  1.
    10030    2    1    2    0    0  0.00000000000E+00  0.00000000000E+00 -0.38820939311E+03  0.63296401017E+03  0.49993690129E+03 0.  0.
        3    1    3    3  502    0 -0.11281347574E+01  0.23484468364E+03 -0.85701271605E+02  0.24999603252E+03  0.10100000352E+00 0. -1.
       -3    1    3    3    0  502  0.11281347574E+01 -0.23484468364E+03 -0.30250812150E+03  0.38296797764E+03  0.10100000352E+00 0.  1.
</event>
<event>
 5   0  0.2863538E-03  0.5000870E+03  0.7818609E-02  0.1013756E+00
       -1   -1    0    0    0  501  0.00000000000E+00  0.00000000000E+00  0.74680827900E+02  0.74680828070E+02  0.50400001928E-02 0. -1.
        1   -1    0    0  501    0  0.00000000000E+00  0.00000000000E+00 -0.83718620264E+03  0.83718620265E+03  0.50400001928E-02 0.  1.
    10030    2    1    2    0    0  0.00000000000E+00  0.00000000000E+00 -0.76250537474E+03  0.91186703073E+03  0.50008702764E+03 0.  0.
        1    1    3    3  502    0 -0.49727564054E+02  0.12768226943E+03  0.12556485885E+00  0.13702411593E+03  0.50400001928E-02 0. -1.
       -1    1    3    3    0  502  0.49727564054E+02 -0.12768226943E+03 -0.76263093960E+03  0.77484291480E+03  0.50400001928E-02 0.  1.
</event>
<event>
 5   0  0.3055293E-03  0.5000184E+03  0.7818609E-02  0.1013774E+00
       -1   -1    0    0    0  501  0.00000000000E+00  0.00000000000E+00  0.54604803178E+02  0.54604803411E+02  0.50400001928E-02 0.  1.
        1   -1    0    0  501    0  0.00000000000E+00  0.00000000000E+00 -0.11446721096E+04  0.11446721096E+04  0.50400001928E-02 0. -1.
    10030    2    1    2    0    0  0.00000000000E+00  0.00000000000E+00 -0.10900673064E+04  0.11992769130E+04  0.50001838124E+03 0.  0.
        3    1    3    3  502    0  0.63140632221E+02 -0.23282953207E+03 -0.70246245553E+03  0.74273133909E+03  0.10100000352E+00 0. -1.
       -3    1    3    3    0  502 -0.63140632221E+02  0.23282953207E+03 -0.38760485089E+03  0.45654557393E+03  0.10100000352E+00 0.  1.
</event>
<event>
 5   0  0.3057783E-03  0.4998780E+03  0.7818609E-02  0.1013811E+00
       -1   -1    0    0    0  501  0.00000000000E+00  0.00000000000E+00  0.30431779410E+03  0.30431779415E+03  0.50400001928E-02 0.  1.
        1   -1    0    0  501    0  0.00000000000E+00  0.00000000000E+00 -0.20527716524E+03  0.20527716530E+03  0.50400001928E-02 0. -1.
    10030    2    1    2    0    0  0.00000000000E+00  0.00000000000E+00  0.99040628868E+02  0.50959495944E+03  0.49987796163E+03 0.  0.
        5    1    3    3  502    0  0.11679492467E+03 -0.89564420786E+01  0.27455118557E+03  0.29853260421E+03  0.46999998093E+01 0.  1.
       -5    1    3    3    0  502 -0.11679492467E+03  0.89564420786E+01 -0.17551055670E+03  0.21106235523E+03  0.46999998093E+01 0. -1.
</event>
<event>
 5   0  0.3055293E-03  0.4967153E+03  0.7818609E-02  0.1014640E+00
        1   -1    0    0  501    0  0.00000000000E+00  0.00000000000E+00  0.17518367963E+03  0.17518367970E+03  0.50400001928E-02 0.  1.
       -1   -1    0    0    0  501  0.00000000000E+00  0.00000000000E+00 -0.35209622292E+03  0.35209622296E+03  0.50400001928E-02 0. -1.
    10030    2    1    2    0    0  0.00000000000E+00  0.00000000000E+00 -0.17691254329E+03  0.52727990266E+03  0.49671525825E+03 0.  0.
        3    1    3    3  502    0 -0.14620673729E+02  0.91911891260E+02  0.15597307177E+03  0.18162920793E+03  0.10100000352E+00 0.  1.
       -3    1    3    3    0  502  0.14620673729E+02 -0.91911891260E+02 -0.33288561506E+03  0.34565069473E+03  0.10100000352E+00 0. -1.
</event>
<event>
 5   0  0.4989875E-03  0.4998553E+03  0.7818609E-02  0.1013817E+00
        2   -1    0    0  501    0  0.00000000000E+00  0.00000000000E+00  0.73342943268E+03  0.73342943268E+03  0.25500000920E-02 0. -1.
       -2   -1    0    0    0  501  0.00000000000E+00  0.00000000000E+00 -0.85166773920E+02  0.85166773958E+02  0.25500000920E-02 0.  1.
    10030    2    1    2    0    0  0.00000000000E+00  0.00000000000E+00  0.64826265876E+03  0.81859620664E+03  0.49985525384E+03 0.  0.
        2    1    3    3  502    0 -0.16029243975E+03 -0.70582903853E+02  0.61611494148E+03  0.64052574786E+03  0.25500000920E-02 0. -1.
       -2    1    3    3    0  502  0.16029243975E+03  0.70582903853E+02  0.32147717279E+02  0.17807045878E+03  0.25500000920E-02 0.  1.
</event>
<event>
 5   0  0.5118882E-03  0.5001807E+03  0.7818609E-02  0.1013732E+00
        2   -1    0    0  501    0  0.00000000000E+00  0.00000000000E+00  0.31297488301E+04  0.31297488301E+04  0.25500000920E-02 0.  1.
       -2   -1    0    0    0  501  0.00000000000E+00  0.00000000000E+00 -0.19984087627E+02  0.19984087790E+02  0.25500000920E-02 0. -1.
    10030    2    1    2    0    0  0.00000000000E+00  0.00000000000E+00  0.31097647425E+04  0.31497329179E+04  0.50018066788E+03 0.  0.
        3    1    3    3  502    0  0.30384037533E+02 -0.18074137452E+03  0.26264142411E+04  0.26328012477E+04  0.10100000352E+00 0.  1.
       -3    1    3    3    0  502 -0.30384037533E+02  0.18074137452E+03  0.48335050146E+03  0.51693167021E+03  0.10100000352E+00 0. -1.
</event>
<event>
 5   0  0.3055293E-03  0.5005088E+03  0.7818609E-02  0.1013646E+00
        1   -1    0    0  501    0  0.00000000000E+00  0.00000000000E+00  0.19686901838E+03  0.19686901845E+03  0.50400001928E-02 0. -1.
       -1   -1    0    0    0  501  0.00000000000E+00  0.00000000000E+00 -0.31811639407E+03  0.31811639411E+03  0.50400001928E-02 0.  1.
    10030    2    1    2    0    0  0.00000000000E+00  0.00000000000E+00 -0.12124737569E+03  0.51498541256E+03  0.50050879017E+03 0.  0.
        3    1    3    3  502    0 -0.20707341935E+03 -0.52279548199E+02  0.73589553499E+02  0.22589374658E+03  0.10100000352E+00 0. -1.
       -3    1    3    3    0  502  0.20707341935E+03  0.52279548199E+02 -0.19483692919E+03  0.28909166598E+03  0.10100000352E+00 0.  1.
</event>
<event>
 5   0  0.3013734E-03  0.5000364E+03  0.7818609E-02  0.1013769E+00
        1   -1    0    0  501    0  0.00000000000E+00  0.00000000000E+00  0.17755905017E+04  0.17755905017E+04  0.50400001928E-02 0. -1.
       -1   -1    0    0    0  501  0.00000000000E+00  0.00000000000E+00 -0.35204679621E+02  0.35204679982E+02  0.50400001928E-02 0.  1.
    10030    2    1    2    0    0  0.00000000000E+00  0.00000000000E+00  0.17403858221E+04  0.18107951817E+04  0.50003637901E+03 0.  0.
        2    1    3    3  502    0  0.18005375201E+03  0.15104391819E+03  0.11790790656E+04  0.12022732891E+04  0.25500000920E-02 0. -1.
       -2    1    3    3    0  502 -0.18005375201E+03 -0.15104391819E+03  0.56130675646E+03  0.60852189253E+03  0.25500000920E-02 0.  1.
</event>
<event>
 5   0  0.4989875E-03  0.5000598E+03  0.7818609E-02  0.1013763E+00
       -2   -1    0    0    0  501  0.00000000000E+00  0.00000000000E+00  0.96305501023E+02  0.96305501057E+02  0.25500000920E-02 0.  1.
        2   -1    0    0  501    0  0.00000000000E+00  0.00000000000E+00 -0.64913162408E+03  0.64913162408E+03  0.25500000920E-02 0. -1.
    10030    2    1    2    0    0  0.00000000000E+00  0.00000000000E+00 -0.55282612305E+03  0.74543712514E+03  0.50005978163E+03 0.  0.
        2    1    3    3  502    0  0.97386265268E+02 -0.10804483610E+03  0.26741790964E+02  0.14789487706E+03  0.25500000920E-02 0.  1.
       -2    1    3    3    0  502 -0.97386265268E+02  0.10804483610E+03 -0.57956791402E+03  0.59754224808E+03  0.25500000920E-02 0. -1.
</event>
<event>
 5   0  0.3013734E-03  0.5008939E+03  0.7818609E-02  0.1013546E+00
       -1   -1    0    0    0  501  0.00000000000E+00  0.00000000000E+00  0.49560541301E+02  0.49560541557E+02  0.50400001928E-02 0.  1.
        1   -1    0    0  501    0  0.00000000000E+00  0.00000000000E+00 -0.12655970344E+04  0.12655970344E+04  0.50400001928E-02 0. -1.
    10030    2    1    2    0    0  0.00000000000E+00  0.00000000000E+00 -0.12160364931E+04  0.13151575760E+04  0.50089389803E+03 0.  0.
        2    1    3    3  502    0 -0.12160791987E+03 -0.16811556086E+03 -0.97628297939E+03  0.99808806417E+03  0.25500000920E-02 0. -1.
       -2    1    3    3    0  502  0.12160791987E+03  0.16811556086E+03 -0.23975351374E+03  0.31706951183E+03  0.25500000920E-02 0.  1.
</event>
<event>
 5   0  0.2005125E-03  0.5000146E+03  0.7818609E-02  0.1013775E+00
       -3   -1    0    0    0  501  0.00000000000E+00  0.00000000000E+00  0.55367252400E+03  0.55367253322E+03  0.10100000352E+00 0. -1.
        3   -1    0    0  501    0  0.00000000000E+00  0.00000000000E+00 -0.11288918945E+03  0.11288923464E+03  0.10100000352E+00 0.  1.
    10030    2    1    2    0    0  0.00000000000E+00  0.00000000000E+00  0.44078333455E+03  0.66656176785E+03  0.50001464213E+03 0.  0.
        2    1    3    3  502    0  0.64940090985E+02  0.57848237679E+02 -0.92073859746E+02  0.12665397615E+03  0.25500000920E-02 0.  1.
       -2    1    3    3    0  502 -0.64940090985E+02 -0.57848237679E+02  0.53285719430E+03  0.53990779170E+03  0.25500000920E-02 0. -1.
</event>
<event>
 5   0  0.4978779E-03  0.5000109E+03  0.7818609E-02  0.1013776E+00
       -2   -1    0    0    0  501  0.00000000000E+00  0.00000000000E+00  0.17217141335E+03  0.17217141337E+03  0.25500000920E-02 0. -1.
        2   -1    0    0  501    0  0.00000000000E+00  0.00000000000E+00 -0.36302611236E+03  0.36302611237E+03  0.25500000920E-02 0.  1.
    10030    2    1    2    0    0  0.00000000000E+00  0.00000000000E+00 -0.19085469901E+03  0.53519752574E+03  0.50001087530E+03 0.  0.
        1    1    3    3  502    0  0.13016338054E+03  0.16160376309E+03 -0.24468353303E+03  0.32082442744E+03  0.50400001928E-02 0.  1.
       -1    1    3    3    0  502 -0.13016338054E+03 -0.16160376309E+03  0.53828834018E+02  0.21437309830E+03  0.50400001928E-02 0. -1.
</event>
<event>
 5   0  0.3013734E-03  0.4998847E+03  0.7818609E-02  0.1013809E+00
       -1   -1    0    0    0  501  0.00000000000E+00  0.00000000000E+00  0.31235792886E+03  0.31235792890E+03  0.50400001928E-02 0. -1.
        1   -1    0    0  501    0  0.00000000000E+00  0.00000000000E+00 -0.19999870401E+03  0.19999870407E+03  0.50400001928E-02 0.  1.
    10030    2    1    2    0    0  0.00000000000E+00  0.00000000000E+00  0.11235922485E+03  0.51235663297E+03  0.49988471065E+03 0.  0.
        2    1    3    3  502    0  0.13168447440E+03 -0.21229503214E+03  0.64197804954E+02  0.25793669696E+03  0.25500000920E-02 0.  1.
       -2    1    3    3    0  502 -0.13168447440E+03  0.21229503214E+03  0.48161419898E+02  0.25441993602E+03  0.25500000920E-02 0. -1.
</event>
<event>
 5   0  0.2863538E-03  0.5000092E+03  0.7818609E-02  0.1013777E+00
        1   -1    0    0  501    0  0.00000000000E+00  0.00000000000E+00  0.63065364709E+03  0.63065364711E+03  0.50400001928E-02 0.  1.
       -1   -1    0    0    0  501  0.00000000000E+00  0.00000000000E+00 -0.99107184882E+02  0.99107185010E+02  0.50400001928E-02 0. -1.
    10030    2    1    2    0    0  0.00000000000E+00  0.00000000000E+00  0.53154646221E+03  0.72976083212E+03  0.50000923053E+03 0.  0.
        1    1    3    3  502    0 -0.17999306867E+03 -0.82696085757E+02  0.43152868437E+02  0.20272719958E+03  0.50400001928E-02 0. -1.
       -1    1    3    3    0  502  0.17999306867E+03  0.82696085757E+02  0.48839359377E+03  0.52703363254E+03  0.50400001928E-02 0.  1.
</event>
<event>
 5   0  0.3013734E-03  0.5000926E+03  0.7818609E-02  0.1013755E+00
       -1   -1    0    0    0  501  0.00000000000E+00  0.00000000000E+00  0.55771085821E+02  0.55771086049E+02  0.50400001928E-02 0. -1.
        1   -1    0    0  501    0  0.00000000000E+00  0.00000000000E+00 -0.11210674086E+04  0.11210674086E+04  0.50400001928E-02 0.  1.
    10030    2    1    2    0    0  0.00000000000E+00  0.00000000000E+00 -0.10652963227E+04  0.11768384946E+04  0.50009257861E+03 0.  0.
        2    1    3    3  502    0 -0.18638128384E+03  0.12571332694E+03 -0.79023214111E+03  0.82158910679E+03  0.25500000920E-02 0.  1.
       -2    1    3    3    0  502  0.18638128384E+03 -0.12571332694E+03 -0.27506418163E+03  0.35524938784E+03  0.25500000920E-02 0. -1.
</event>
<event>
 5   0  0.4978779E-03  0.5000628E+03  0.7818609E-02  0.1013763E+00
        2   -1    0    0  501    0  0.00000000000E+00  0.00000000000E+00  0.40429109091E+03  0.40429109092E+03  0.25500000920E-02 0.  1.
       -2   -1    0    0    0  501  0.00000000000E+00  0.00000000000E+00 -0.15463042303E+03  0.15463042305E+03  0.25500000920E-02 0. -1.
    10030    2    1    2    0    0  0.00000000000E+00  0.00000000000E+00  0.24966066788E+03  0.55892151397E+03  0.50006280574E+03 0.  0.
        1    1    3    3  502    0  0.27959600664E+01 -0.24944732703E+03  0.10599725890E+03  0.27104834491E+03  0.50400001928E-02 0. -1.
       -1    1    3    3    0  502 -0.27959600664E+01  0.24944732703E+03  0.14366340898E+03  0.28787316906E+03  0.50400001928E-02 0.  1.
</event>
<event>
 5   0  0.4889251E-03  0.5000074E+03  0.7818609E-02  0.1013777E+00
       -2   -1    0    0    0  501  0.00000000000E+00  0.00000000000E+00  0.50192378255E+02  0.50192378320E+02  0.25500000920E-02 0. -1.
        2   -1    0    0  501    0  0.00000000000E+00  0.00000000000E+00 -0.12452458391E+04  0.12452458391E+04  0.25500000920E-02 0.  1.
    10030    2    1    2    0    0  0.00000000000E+00  0.00000000000E+00 -0.11950534609E+04  0.12954382175E+04  0.50000740083E+03 0.  0.
        5    1    3    3  502    0  0.30414523008E+02  0.16413653358E+03 -0.11550608893E+03  0.20305071151E+03  0.46999998093E+01 0. -1.
       -5    1    3    3    0  502 -0.30414523008E+02 -0.16413653358E+03 -0.10795473719E+04  0.10923875059E+04  0.46999998093E+01 0.  1.
</event>
<event>
 5   0  0.3055293E-03  0.4997529E+03  0.7818609E-02  0.1013843E+00
        1   -1    0    0  501    0  0.00000000000E+00  0.00000000000E+00  0.90453963612E+03  0.90453963614E+03  0.50400001928E-02 0.  1.
       -1   -1    0    0    0  501  0.00000000000E+00  0.00000000000E+00 -0.69027642564E+02  0.69027642748E+02  0.50400001928E-02 0. -1.
    10030    2    1    2    0    0  0.00000000000E+00  0.00000000000E+00  0.83551199356E+03  0.97356727889E+03  0.49975289407E+03 0.  0.
        3    1    3    3  502    0  0.15777416620E+03 -0.15750396454E+02  0.41528688835E+02  0.16390669513E+03  0.10100000352E+00 0. -1.
       -3    1    3    3    0  502 -0.15777416620E+03  0.15750396454E+02  0.79398330472E+03  0.80966058376E+03  0.10100000352E+00 0.  1.
</event>
<event>
 5   0  0.5095783E-03  0.5006633E+03  0.7818609E-02  0.1013606E+00
       -2   -1    0    0    0  501  0.00000000000E+00  0.00000000000E+00  0.29501625136E+03  0.29501625138E+03  0.25500000920E-02 0. -1.
        2   -1    0    0  501    0  0.00000000000E+00  0.00000000000E+00 -0.21241521607E+03  0.21241521608E+03  0.25500000920E-02 0.  1.
    10030    2    1    2    0    0  0.00000000000E+00  0.00000000000E+00  0.82601035297E+02  0.50743146746E+03  0.50066332314E+03 0.  0.
        4    1    3    3  502    0  0.23568308058E+03  0.55703970924E+01 -0.44020537709E+02  0.23982694685E+03  0.12699999809E+01 0.  1.
       -4    1    3    3    0  502 -0.23568308058E+03 -0.55703970924E+01  0.12662157301E+03  0.26760452060E+03  0.12699999809E+01 0. -1.
</event>
<event>
 5   0  0.3211775E-03  0.5001245E+03  0.7818609E-02  0.1013746E+00
       -1   -1    0    0    0  501  0.00000000000E+00  0.00000000000E+00  0.19857414068E+03  0.19857414074E+03  0.50400001928E-02 0.  1.
        1   -1    0    0  501    0  0.00000000000E+00  0.00000000000E+00 -0.31490063819E+03  0.31490063823E+03  0.50400001928E-02 0. -1.
    10030    2    1    2    0    0  0.00000000000E+00  0.00000000000E+00 -0.11632649751E+03  0.51347477897E+03  0.50012447912E+03 0.  0.
        4    1    3    3  502    0  0.24355478927E+03 -0.55800131998E+02 -0.48055622966E+02  0.25444753075E+03  0.12699999809E+01 0. -1.
       -4    1    3    3    0  502 -0.24355478927E+03  0.55800131998E+02 -0.68270874546E+02  0.25902724822E+03  0.12699999809E+01 0.  1.
</event>
<event>
 5   0  0.3057783E-03  0.4998472E+03  0.7818609E-02  0.1013819E+00
        1   -1    0    0  501    0  0.00000000000E+00  0.00000000000E+00  0.25869264996E+03  0.25869265001E+03  0.50400001928E-02 0. -1.
       -1   -1    0    0    0  501  0.00000000000E+00  0.00000000000E+00 -0.24145180240E+03  0.24145180245E+03  0.50400001928E-02 0.  1.
    10030    2    1    2    0    0  0.00000000000E+00  0.00000000000E+00  0.17240847564E+02  0.50014445246E+03  0.49984720316E+03 0.  0.
        5    1    3    3  502    0  0.72367139445E+02  0.10366039938E+03  0.22428800641E+03  0.25750666222E+03  0.46999998093E+01 0. -1.
       -5    1    3    3    0  502 -0.72367139445E+02 -0.10366039938E+03 -0.20704715884E+03  0.24263779024E+03  0.46999998093E+01 0.  1.
</event>
<event>
 5   0  0.3013734E-03  0.5000796E+03  0.7818609E-02  0.1013758E+00
        1   -1    0    0  501    0  0.00000000000E+00  0.00000000000E+00  0.11971914669E+03  0.11971914680E+03  0.50400001928E-02 0.  1.
       -1   -1    0    0    0  501  0.00000000000E+00  0.00000000000E+00 -0.52222141791E+03  0.52222141794E+03  0.50400001928E-02 0. -1.
    10030    2    1    2    0    0  0.00000000000E+00  0.00000000000E+00 -0.40250227122E+03  0.64194056473E+03  0.50007960398E+03 0.  0.
        2    1    3    3  502    0 -0.82867886296E+02 -0.23589579847E+03 -0.19810986124E+03  0.31900067624E+03  0.25500000920E-02 0.  1.
       -2    1    3    3    0  502  0.82867886296E+02  0.23589579847E+03 -0.20439240998E+03  0.32293988849E+03  0.25500000920E-02 0. -1.
</event>
<event>
 5   0  0.3013734E-03  0.4999899E+03  0.7818609E-02  0.1013782E+00
        1   -1    0    0  501    0  0.00000000000E+00  0.00000000000E+00  0.21194347351E+04  0.21194347351E+04  0.50400001928E-02 0. -1.
       -1   -1    0    0    0  501  0.00000000000E+00  0.00000000000E+00 -0.29487797787E+02  0.29487798218E+02  0.50400001928E-02 0.  1.
    10030    2    1    2    0    0  0.00000000000E+00  0.00000000000E+00  0.20899469374E+04  0.21489225334E+04  0.49998985335E+03 0.  0.
        2    1    3    3  502    0  0.19835050092E+03  0.12568988865E+02  0.39320847329E+03  0.44058348150E+03  0.25500000920E-02 0.  1.
       -2    1    3    3    0  502 -0.19835050092E+03 -0.12568988865E+02  0.16967384641E+04  0.17083390519E+04  0.25500000920E-02 0. -1.
</event>
<event>
 5   0  0.3057783E-03  0.4999196E+03  0.7818609E-02  0.1013800E+00
        1   -1    0    0  501    0  0.00000000000E+00  0.00000000000E+00  0.11612098537E+03  0.11612098548E+03  0.50400001928E-02 0. -1.
       -1   -1    0    0    0  501  0.00000000000E+00  0.00000000000E+00 -0.53805874491E+03  0.53805874493E+03  0.50400001928E-02 0.  1.
    10030    2    1    2    0    0  0.00000000000E+00  0.00000000000E+00 -0.42193775954E+03  0.65417973041E+03  0.49991964029E+03 0.  0.
        5    1    3    3  502    0 -0.60222294152E+02  0.96680419812E+02 -0.50206019910E+03  0.51484013228E+03  0.46999998093E+01 0.  1.
       -5    1    3    3    0  502  0.60222294152E+02 -0.96680419812E+02  0.80122439556E+02  0.13933959813E+03  0.46999998093E+01 0. -1.
</event>
<event>
 5   0  0.3057783E-03  0.5000258E+03  0.7818609E-02  0.1013772E+00
        1   -1    0    0  501    0  0.00000000000E+00  0.00000000000E+00  0.63894131902E+03  0.63894131904E+03  0.50400001928E-02 0.  1.
       -1   -1    0    0    0  501  0.00000000000E+00  0.00000000000E+00 -0.97828145677E+02  0.97828145807E+02  0.50400001928E-02 0. -1.
    10030    2    1    2    0    0  0.00000000000E+00  0.00000000000E+00  0.54111317334E+03  0.73676946485E+03  0.50002577730E+03 0.  0.
        5    1    3    3  502    0  0.67630242658E+02 -0.85999202316E+02 -0.60611031363E+02  0.12516189373E+03  0.46999998093E+01 0. -1.
       -5    1    3    3    0  502 -0.67630242658E+02  0.85999202316E+02  0.60172420471E+03  0.61160757112E+03  0.46999998093E+01 0.  1.
</event>
<event>
 5   0  0.3013734E-03  0.4999227E+03  0.7818609E-02  0.1013799E+00
        1   -1    0    0  501    0  0.00000000000E+00  0.00000000000E+00  0.40344064621E+03  0.40344064624E+03  0.50400001928E-02 0. -1.
       -1   -1    0    0    0  501  0.00000000000E+00  0.00000000000E+00 -0.15486955674E+03  0.15486955683E+03  0.50400001928E-02 0.  1.
    10030    2    1    2    0    0  0.00000000000E+00  0.00000000000E+00  0.24857108946E+03  0.55831020307E+03  0.49992269035E+03 0.  0.
        2    1    3    3  502    0 -0.56126629196E+02 -0.16215716792E+03 -0.78699174378E+02  0.18878216459E+03  0.25500000920E-02 0.  1.
       -2    1    3    3    0  502  0.56126629196E+02  0.16215716792E+03  0.32727026384E+03  0.36952803847E+03  0.25500000920E-02 0. -1.
</event>
<event>
 5   0  0.2005125E-03  0.5001497E+03  0.7818609E-02  0.1013740E+00
        4   -1    0    0  501    0  0.00000000000E+00  0.00000000000E+00  0.48824514818E+02  0.48841029342E+02  0.12699999809E+01 0.  1.
       -4   -1    0    0    0  501  0.00000000000E+00  0.00000000000E+00 -0.12806280746E+04  0.12806287043E+04  0.12699999809E+01 0. -1.
    10030    2    1    2    0    0  0.00000000000E+00  0.00000000000E+00 -0.12318035598E+04  0.13294697337E+04  0.50014974044E+03 0.  0.
        5    1    3    3  502    0 -0.14049683118E+03  0.18029675340E+03 -0.34653501934E+03  0.41515646265E+03  0.46999998093E+01 0.  1.
       -5    1    3    3    0  502  0.14049683118E+03 -0.18029675340E+03 -0.88526854045E+03  0.91431327102E+03  0.46999998093E+01 0. -1.
</event>
<event>
 5   0  0.2005125E-03  0.5013814E+03  0.7818609E-02  0.1013419E+00
        3   -1    0    0  501    0  0.00000000000E+00  0.00000000000E+00  0.71640356425E+03  0.71640357137E+03  0.10100000352E+00 0.  1.
       -3   -1    0    0    0  501  0.00000000000E+00  0.00000000000E+00 -0.87724017240E+02  0.87724075382E+02  0.10100000352E+00 0. -1.
    10030    2    1    2    0    0  0.00000000000E+00  0.00000000000E+00  0.62867954701E+03  0.80412764675E+03  0.50138139120E+03 0.  0.
        3    1    3    3  502    0  0.16275161444E+03  0.18495874711E+03  0.24000829668E+03  0.34395031445E+03  0.10100000352E+00 0. -1.
       -3    1    3    3    0  502 -0.16275161444E+03 -0.18495874711E+03  0.38867125033E+03  0.46017733230E+03  0.10100000352E+00 0.  1.
</event>
<event>
 5   0  0.2005125E-03  0.4997875E+03  0.7818609E-02  0.1013834E+00
        4   -1    0    0  501    0  0.00000000000E+00  0.00000000000E+00  0.35506278322E+03  0.35506505451E+03  0.12699999809E+01 0.  1.
       -4   -1    0    0    0  501  0.00000000000E+00  0.00000000000E+00 -0.17587046369E+03  0.17587504911E+03  0.12699999809E+01 0. -1.
    10030    2    1    2    0    0  0.00000000000E+00  0.00000000000E+00  0.17919231953E+03  0.53094010361E+03  0.49978746107E+03 0.  0.
        4    1    3    3  502    0 -0.94989020060E+02 -0.17963761223E+03  0.24410127180E+03  0.31761553718E+03  0.12699999809E+01 0.  1.
       -4    1    3    3    0  502  0.94989020060E+02  0.17963761223E+03 -0.64908952264E+02  0.21332456644E+03  0.12699999809E+01 0. -1.
</event>
<event>
 5   0  0.4978779E-03  0.4999137E+03  0.7818609E-02  0.1013801E+00
        2   -1    0    0  501    0  0.00000000000E+00  0.00000000000E+00  0.84122117574E+03  0.84122117575E+03  0.25500000920E-02 0. -1.
       -2   -1    0    0    0  501  0.00000000000E+00  0.00000000000E+00 -0.74271104877E+02  0.74271104921E+02  0.25500000920E-02 0.  1.
    10030    2    1    2    0    0  0.00000000000E+00  0.00000000000E+00  0.76695007087E+03  0.91549228067E+03  0.49991369731E+03 0.  0.
        1    1    3    3  502    0 -0.76012376514E+02  0.20349030707E+03  0.15701310817E+03  0.26802854814E+03  0.50400001928E-02 0.  1.
       -1    1    3    3    0  502  0.76012376514E+02 -0.20349030707E+03  0.60993696270E+03  0.64746373253E+03  0.50400001928E-02 0. -1.
</event>
<event>
 5   0  0.3057783E-03  0.4998436E+03  0.7818609E-02  0.1013820E+00
       -1   -1    0    0    0  501  0.00000000000E+00  0.00000000000E+00  0.73355607856E+02  0.73355608029E+02  0.50400001928E-02 0. -1.
        1   -1    0    0  501    0  0.00000000000E+00  0.00000000000E+00 -0.85148115239E+03  0.85148115240E+03  0.50400001928E-02 0.  1.
    10030    2    1    2    0    0  0.00000000000E+00  0.00000000000E+00 -0.77812554453E+03  0.92483676043E+03  0.49984364595E+03 0.  0.
        5    1    3    3  502    0  0.13446835268E+03 -0.17562073134E+03 -0.17396789309E+03  0.28144501589E+03  0.46999998093E+01 0. -1.
       -5    1    3    3    0  502 -0.13446835268E+03  0.17562073134E+03 -0.60415765144E+03  0.64339174454E+03  0.46999998093E+01 0.  1.
</event>
<event>
 5   0  0.3013734E-03  0.5000200E+03  0.7818609E-02  0.1013774E+00
        1   -1    0    0  501    0  0.00000000000E+00  0.00000000000E+00  0.72671873141E+03  0.72671873143E+03  0.50400001928E-02 0. -1.
       -1   -1    0    0    0  501  0.00000000000E+00  0.00000000000E+00 -0.86009877008E+02  0.86009877156E+02  0.50400001928E-02 0.  1.
    10030    2    1    2    0    0  0.00000000000E+00  0.00000000000E+00  0.64070885440E+03  0.81272860858E+03  0.50001995470E+03 0.  0.
        2    1    3    3  502    0  0.23501191155E+03 -0.29570413787E+02  0.45038562031E+03  0.50887347635E+03  0.25500000920E-02 0.  1.
       -2    1    3    3    0  502 -0.23501191155E+03  0.29570413787E+02  0.19032323410E+03  0.30385513224E+03  0.25500000920E-02 0. -1.
</event>
<event>
 5   0  0.2863538E-03  0.4979063E+03  0.7818609E-02  0.1014327E+00
        1   -1    0    0  501    0  0.00000000000E+00  0.00000000000E+00  0.11222383737E+04  0.11222383737E+04  0.50400001928E-02 0.  1.
       -1   -1    0    0    0  501  0.00000000000E+00  0.00000000000E+00 -0.55226834891E+02  0.55226835121E+02  0.50400001928E-02 0. -1.
    10030    2    1    2    0    0  0.00000000000E+00  0.00000000000E+00  0.10670115388E+04  0.11774652088E+04  0.49790631052E+03 0.  0.
        1    1    3    3  502    0  0.10568256357E+03 -0.16535087518E+03  0.89578054653E+03  0.91702372037E+03  0.50400001928E-02 0.  1.
       -1    1    3    3    0  502 -0.10568256357E+03  0.16535087518E+03  0.17123099226E+03  0.26044148844E+03  0.50400001928E-02 0. -1.
</event>
<event>
 5   0  0.4889251E-03  0.5010794E+03  0.7818609E-02  0.1013498E+00
       -2   -1    0    0    0  501  0.00000000000E+00  0.00000000000E+00  0.17955197913E+03  0.17955197915E+03  0.25500000920E-02 0.  1.
        2   -1    0    0  501    0  0.00000000000E+00  0.00000000000E+00 -0.34959315818E+03  0.34959315819E+03  0.25500000920E-02 0. -1.
    10030    2    1    2    0    0  0.00000000000E+00  0.00000000000E+00 -0.17004117905E+03  0.52914513734E+03  0.50107940868E+03 0.  0.
        5    1    3    3  502    0  0.13666906038E+03  0.16683965529E+03 -0.21957038479E+03  0.30781024434E+03  0.46999998093E+01 0. -1.
       -5    1    3    3    0  502 -0.13666906038E+03 -0.16683965529E+03  0.49529205735E+02  0.22133489301E+03  0.46999998093E+01 0.  1.
</event>
<event>
 5   0  0.4889251E-03  0.4996979E+03  0.7818609E-02  0.1013858E+00
       -2   -1    0    0    0  501  0.00000000000E+00  0.00000000000E+00  0.93709168115E+02  0.93709168150E+02  0.25500000920E-02 0. -1.
        2   -1    0    0  501    0  0.00000000000E+00  0.00000000000E+00 -0.66615155273E+03  0.66615155274E+03  0.25500000920E-02 0.  1.
    10030    2    1    2    0    0  0.00000000000E+00  0.00000000000E+00 -0.57244238462E+03  0.75986072089E+03  0.49969794020E+03 0.  0.
        5    1    3    3  502    0 -0.40239340829E+02  0.23441090029E+03 -0.17006635335E+03  0.29242491218E+03  0.46999998093E+01 0. -1.
       -5    1    3    3    0  502  0.40239340829E+02 -0.23441090029E+03 -0.40237603127E+03  0.46743580871E+03  0.46999998093E+01 0.  1.
</event>
<event>
 5   0  0.5095783E-03  0.4997784E+03  0.7818609E-02  0.1013837E+00
       -2   -1    0    0    0  501  0.00000000000E+00  0.00000000000E+00  0.69228184030E+02  0.69228184077E+02  0.25500000920E-02 0.  1.
        2   -1    0    0  501    0  0.00000000000E+00  0.00000000000E+00 -0.90201145787E+03  0.90201145787E+03  0.25500000920E-02 0. -1.
    10030    2    1    2    0    0  0.00000000000E+00  0.00000000000E+00 -0.83278327383E+03  0.97123964195E+03  0.49977841181E+03 0.  0.
        4    1    3    3  502    0  0.74139941410E+02 -0.23842392464E+03 -0.39692875660E+03  0.46893149763E+03  0.12699999809E+01 0.  1.
       -4    1    3    3    0  502 -0.74139941410E+02  0.23842392464E+03 -0.43585451723E+03  0.50230814431E+03  0.12699999809E+01 0. -1.
</event>
<event>
 5   0  0.3057783E-03  0.4998897E+03  0.7818609E-02  0.1013808E+00
       -1   -1    0    0    0  501  0.00000000000E+00  0.00000000000E+00  0.23010028246E+03  0.23010028252E+03  0.50400001928E-02 0. -1.
        1   -1    0    0  501    0  0.00000000000E+00  0.00000000000E+00 -0.27150089127E+03  0.27150089132E+03  0.50400001928E-02 0.  1.
    10030    2    1    2    0    0  0.00000000000E+00  0.00000000000E+00 -0.41400608806E+02  0.50160117384E+03  0.49988971502E+03 0.  0.
        5    1    3    3  502    0  0.23433025179E+03  0.21540403795E+02 -0.10510539016E+03  0.25776712153E+03  0.46999998093E+01 0.  1.
       -5    1    3    3    0  502 -0.23433025179E+03 -0.21540403795E+02  0.63704781350E+02  0.24383405231E+03  0.46999998093E+01 0. -1.
</event>
<event>
 5   0  0.4989875E-03  0.5000106E+03  0.7818609E-02  0.1013776E+00
        2   -1    0    0  501    0  0.00000000000E+00  0.00000000000E+00  0.43052508643E+03  0.43052508644E+03  0.25500000920E-02 0. -1.
       -2   -1    0    0    0  501  0.00000000000E+00  0.00000000000E+00 -0.14517770872E+03  0.14517770874E+03  0.25500000920E-02 0.  1.
    10030    2    1    2    0    0  0.00000000000E+00  0.00000000000E+00  0.28534737771E+03  0.57570279518E+03  0.50001058230E+03 0.  0.
        2    1    3    3  502    0  0.52273989753E+02 -0.57870870919E+02 -0.13081519424E+03  0.15229649621E+03  0.25500000920E-02 0.  1.
       -2    1    3    3    0  502 -0.52273989753E+02  0.57870870919E+02  0.41616257195E+03  0.42340629897E+03  0.25500000920E-02 0. -1.
</event>
<event>
 5   0  0.3013734E-03  0.5001646E+03  0.7818609E-02  0.1013736E+00
        1   -1    0    0  501    0  0.00000000000E+00  0.00000000000E+00  0.33965099533E+03  0.33965099537E+03  0.50400001928E-02 0.  1.
       -1   -1    0    0    0  501  0.00000000000E+00  0.00000000000E+00 -0.18413358018E+03  0.18413358025E+03  0.50400001928E-02 0. -1.
    10030    2    1    2    0    0  0.00000000000E+00  0.00000000000E+00  0.15551741515E+03  0.52378457561E+03  0.50016458815E+03 0.  0.
        2    1    3    3  502    0 -0.13818077883E+03  0.16688365720E+03  0.20854471777E+03  0.30072409613E+03  0.25500000920E-02 0.  1.
       -2    1    3    3    0  502  0.13818077883E+03 -0.16688365720E+03 -0.53027302614E+02  0.22306047948E+03  0.25500000920E-02 0. -1.
</event>
<event>
 5   0  0.4989875E-03  0.5002311E+03  0.7818609E-02  0.1013719E+00
        2   -1    0    0  501    0  0.00000000000E+00  0.00000000000E+00  0.37576658382E+03  0.37576658383E+03  0.25500000920E-02 0. -1.
       -2   -1    0    0    0  501  0.00000000000E+00  0.00000000000E+00 -0.16648043563E+03  0.16648043565E+03  0.25500000920E-02 0.  1.
    10030    2    1    2    0    0  0.00000000000E+00  0.00000000000E+00  0.20928614819E+03  0.54224701948E+03  0.50023108492E+03 0.  0.
        2    1    3    3  502    0  0.88531069725E+02 -0.79096971143E+01  0.35806912968E+03  0.36893605848E+03  0.25500000920E-02 0. -1.
       -2    1    3    3    0  502 -0.88531069725E+02  0.79096971143E+01 -0.14878298149E+03  0.17331096100E+03  0.25500000920E-02 0.  1.
</event>
<event>
 5   0  0.3057783E-03  0.5012466E+03  0.7818609E-02  0.1013454E+00
        1   -1    0    0  501    0  0.00000000000E+00  0.00000000000E+00  0.12215251702E+04  0.12215251702E+04  0.50400001928E-02 0. -1.
       -1   -1    0    0    0  501  0.00000000000E+00  0.00000000000E+00 -0.51420988406E+02  0.51420988653E+02  0.50400001928E-02 0.  1.
    10030    2    1    2    0    0  0.00000000000E+00  0.00000000000E+00  0.11701041818E+04  0.12729461589E+04  0.50124657317E+03 0.  0.
        5    1    3    3  502    0  0.24076694093E+03  0.23381378569E+01  0.40881763886E+03  0.47447669972E+03  0.46999998093E+01 0.  1.
       -5    1    3    3    0  502 -0.24076694093E+03 -0.23381378569E+01  0.76128654294E+03  0.79846945915E+03  0.46999998093E+01 0. -1.
</event>
<event>
 5   0  0.5095783E-03  0.5000152E+03  0.7818609E-02  0.1013775E+00
        2   -1    0    0  501    0  0.00000000000E+00  0.00000000000E+00  0.14414617726E+04  0.14414617726E+04  0.25500000920E-02 0.  1.
       -2   -1    0    0    0  501  0.00000000000E+00  0.00000000000E+00 -0.43361397690E+02  0.43361397765E+02  0.25500000920E-02 0. -1.
    10030    2    1    2    0    0  0.00000000000E+00  0.00000000000E+00  0.13981003749E+04  0.14848231704E+04  0.50001518871E+03 0.  0.
        4    1    3    3  502    0  0.18341447628E+03 -0.10012090597E+03  0.11066169626E+04  0.11261739567E+04  0.12699999809E+01 0.  1.
       -4    1    3    3    0  502 -0.18341447628E+03  0.10012090597E+03  0.29148341232E+03  0.35864921369E+03  0.12699999809E+01 0. -1.
</event>
<event>
 5   0  0.2863538E-03  0.4998724E+03  0.7818609E-02  0.1013812E+00
        1   -1    0    0  501    0  0.00000000000E+00  0.00000000000E+00  0.13678458383E+04  0.13678458383E+04  0.50400001928E-02 0.  1.
       -1   -1    0    0    0  501  0.00000000000E+00  0.00000000000E+00 -0.45668972695E+02  0.45668972973E+02  0.50400001928E-02 0. -1.
    10030    2    1    2    0    0  0.00000000000E+00  0.00000000000E+00  0.13221768656E+04  0.14135148113E+04  0.49987244151E+03 0.  0.
        1    1    3    3  502    0  0.37326688884E+02 -0.18792045779E+03  0.11149467390E+04  0.11312884739E+04  0.50400001928E-02 0.  1.
       -1    1    3    3    0  502 -0.37326688884E+02  0.18792045779E+03  0.20723012659E+03  0.28222633746E+03  0.50400001928E-02 0. -1.
</event>
<event>
 5   0  0.3057783E-03  0.4998409E+03  0.7818609E-02  0.1013820E+00
       -1   -1    0    0    0  501  0.00000000000E+00  0.00000000000E+00  0.15350839615E+03  0.15350839623E+03  0.50400001928E-02 0.  1.
        1   -1    0    0  501    0  0.00000000000E+00  0.00000000000E+00 -0.40688481986E+03  0.40688481989E+03  0.50400001928E-02 0. -1.
    10030    2    1    2    0    0  0.00000000000E+00  0.00000000000E+00 -0.25337642371E+03  0.56039321612E+03  0.49984091927E+03 0.  0.
        5    1    3    3  502    0 -0.16958162753E+03 -0.16910738137E+03 -0.46756828587E+02  0.24405639891E+03  0.46999998093E+01 0.  1.
       -5    1    3    3    0  502  0.16958162753E+03  0.16910738137E+03 -0.20661959512E+03  0.31633681721E+03  0.46999998093E+01 0. -1.
</event>
<event>
 5   0  0.3211775E-03  0.4998722E+03  0.7818609E-02  0.1013812E+00
       -1   -1    0    0    0  501  0.00000000000E+00  0.00000000000E+00  0.15092654563E+03  0.15092654571E+03  0.50400001928E-02 0.  1.
        1   -1    0    0  501    0  0.00000000000E+00  0.00000000000E+00 -0.41389711196E+03  0.41389711199E+03  0.50400001928E-02 0. -1.
    10030    2    1    2    0    0  0.00000000000E+00  0.00000000000E+00 -0.26297056633E+03  0.56482365770E+03  0.49987222921E+03 0.  0.
        4    1    3    3  502    0 -0.73419876371E+02 -0.31426545657E+02  0.13611722027E+03  0.15782147057E+03  0.12699999809E+01 0.  1.
       -4    1    3    3    0  502  0.73419876371E+02  0.31426545657E+02 -0.39908778660E+03  0.40700218713E+03  0.12699999809E+01 0. -1.
</event>
<event>
 5   0  0.4989875E-03  0.5000087E+03  0.7818609E-02  0.1013777E+00
       -2   -1    0    0    0  501  0.00000000000E+00  0.00000000000E+00  0.12896905612E+03  0.12896905614E+03  0.25500000920E-02 0. -1.
        2   -1    0    0  501    0  0.00000000000E+00  0.00000000000E+00 -0.48462928261E+03  0.48462928262E+03  0.25500000920E-02 0.  1.
    10030    2    1    2    0    0  0.00000000000E+00  0.00000000000E+00 -0.35566022650E+03  0.61359833876E+03  0.50000872454E+03 0.  0.
        2    1    3    3  502    0 -0.15442118892E+03 -0.43709091082E+01 -0.41904786341E+03  0.44661630095E+03  0.25500000920E-02 0.  1.
       -2    1    3    3    0  502  0.15442118892E+03  0.43709091082E+01  0.63387636917E+02  0.16698203782E+03  0.25500000920E-02 0. -1.
</event>
<event>
 5   0  0.5118882E-03  0.4999134E+03  0.7818609E-02  0.1013802E+00
       -2   -1    0    0    0  501  0.00000000000E+00  0.00000000000E+00  0.74443150569E+02  0.74443150612E+02  0.25500000920E-02 0. -1.
        2   -1    0    0  501    0  0.00000000000E+00  0.00000000000E+00 -0.83927617158E+03  0.83927617158E+03  0.25500000920E-02 0.  1.
    10030    2    1    2    0    0  0.00000000000E+00  0.00000000000E+00 -0.76483302101E+03  0.91371932219E+03  0.49991344223E+03 0.  0.
        3    1    3    3  502    0 -0.43829030041E+02  0.37358874036E+02  0.62151545660E+02  0.84731895839E+02  0.10100000352E+00 0. -1.
       -3    1    3    3    0  502  0.43829030041E+02 -0.37358874036E+02 -0.82698456667E+03  0.82898742636E+03  0.10100000352E+00 0.  1.
</event>
<event>
 5   0  0.3055293E-03  0.4999670E+03  0.7818609E-02  0.1013788E+00
       -1   -1    0    0    0  501  0.00000000000E+00  0.00000000000E+00  0.25679614880E+03  0.25679614885E+03  0.50400001928E-02 0. -1.
        1   -1    0    0  501    0  0.00000000000E+00  0.00000000000E+00 -0.24335160945E+03  0.24335160950E+03  0.50400001928E-02 0.  1.
    10030    2    1    2    0    0  0.00000000000E+00  0.00000000000E+00  0.13444539352E+02  0.50014775836E+03  0.49996702346E+03 0.  0.
        3    1    3    3  502    0  0.10941798974E+03 -0.16045499302E+03  0.16417562448E+03  0.25430640405E+03  0.10100000352E+00 0. -1.
       -3    1    3    3    0  502 -0.10941798974E+03  0.16045499302E+03 -0.15073108513E+03  0.24584135431E+03  0.10100000352E+00 0.  1.
</event>
<event>
 5   0  0.4889251E-03  0.5002914E+03  0.7818609E-02  0.1013703E+00
        2   -1    0    0  501    0  0.00000000000E+00  0.00000000000E+00  0.13556507052E+04  0.13556507052E+04  0.25500000920E-02 0.  1.
       -2   -1    0    0    0  501  0.00000000000E+00  0.00000000000E+00 -0.46157080780E+02  0.46157080850E+02  0.25500000920E-02 0. -1.
    10030    2    1    2    0    0  0.00000000000E+00  0.00000000000E+00  0.13094936244E+04  0.14018077861E+04  0.50029143171E+03 0.  0.
        5    1    3    3  502    0 -0.42949422027E+01 -0.16335077371E+03  0.11852684752E+04  0.11964887672E+04  0.46999998093E+01 0.  1.
       -5    1    3    3    0  502  0.42949422027E+01  0.16335077371E+03  0.12422514926E+03  0.20531901887E+03  0.46999998093E+01 0. -1.
</event>
<event>
 5   0  0.4889251E-03  0.5000544E+03  0.7818609E-02  0.1013765E+00
       -2   -1    0    0    0  501  0.00000000000E+00  0.00000000000E+00  0.46425970528E+02  0.46425970599E+02  0.25500000920E-02 0. -1.
        2   -1    0    0  501    0  0.00000000000E+00  0.00000000000E+00 -0.13465222980E+04  0.13465222980E+04  0.25500000920E-02 0.  1.
    10030    2    1    2    0    0  0.00000000000E+00  0.00000000000E+00 -0.13000963275E+04  0.13929482686E+04  0.50005441533E+03 0.  0.
        5    1    3    3  502    0  0.10561044860E+03  0.12147314063E+03 -0.11726220240E+03  0.19920292382E+03  0.46999998093E+01 0. -1.
       -5    1    3    3    0  502 -0.10561044860E+03 -0.12147314063E+03 -0.11828341251E+04  0.11937453448E+04  0.46999998093E+01 0.  1.
</event>
<event>
 5   0  0.4889251E-03  0.4999742E+03  0.7818609E-02  0.1013786E+00
       -2   -1    0    0    0  501  0.00000000000E+00  0.00000000000E+00  0.18475280576E+03  0.18475280578E+03  0.25500000920E-02 0. -1.
        2   -1    0    0  501    0  0.00000000000E+00  0.00000000000E+00 -0.33825494065E+03  0.33825494066E+03  0.25500000920E-02 0.  1.
    10030    2    1    2    0    0  0.00000000000E+00  0.00000000000E+00 -0.15350213489E+03  0.52300774643E+03  0.49997419675E+03 0.  0.
        5    1    3    3  502    0  0.18252019449E+03  0.16876768641E+03 -0.10393490894E+03  0.26948229750E+03  0.46999998093E+01 0. -1.
       -5    1    3    3    0  502 -0.18252019449E+03 -0.16876768641E+03 -0.49567225950E+02  0.25352544894E+03  0.46999998093E+01 0.  1.
</event>
<event>
 5   0  0.3211775E-03  0.5010522E+03  0.7818609E-02  0.1013505E+00
       -1   -1    0    0    0  501  0.00000000000E+00  0.00000000000E+00  0.82277219409E+02  0.82277219563E+02  0.50400001928E-02 0. -1.
        1   -1    0    0  501    0  0.00000000000E+00  0.00000000000E+00 -0.76282738995E+03  0.76282738997E+03  0.50400001928E-02 0.  1.
    10030    2    1    2    0    0  0.00000000000E+00  0.00000000000E+00 -0.68055017055E+03  0.84510460953E+03  0.50105215939E+03 0.  0.
        4    1    3    3  502    0  0.50239451344E+02  0.15190488918E+03 -0.66542272976E+03  0.68438886608E+03  0.12699999809E+01 0.  1.
       -4    1    3    3    0  502 -0.50239451344E+02 -0.15190488918E+03 -0.15127440784E+02  0.16071574345E+03  0.12699999809E+01 0. -1.
</event>
<event>
 5   0  0.5095783E-03  0.4998355E+03  0.7818609E-02  0.1013822E+00
       -2   -1    0    0    0  501  0.00000000000E+00  0.00000000000E+00  0.89588119595E+02  0.89588119632E+02  0.25500000920E-02 0. -1.
        2   -1    0    0  501    0  0.00000000000E+00  0.00000000000E+00 -0.69717804430E+03  0.69717804431E+03  0.25500000920E-02 0.  1.
    10030    2    1    2    0    0  0.00000000000E+00  0.00000000000E+00 -0.60758992471E+03  0.78676616394E+03  0.49983545304E+03 0.  0.
        4    1    3    3  502    0  0.31820514316E+02 -0.79330322483E+02 -0.67345026007E+03  0.67885396875E+03  0.12699999809E+01 0.  1.
       -4    1    3    3    0  502 -0.31820514316E+02  0.79330322483E+02  0.65860335363E+02  0.10791219519E+03  0.12699999809E+01 0. -1.
</event>
<event>
 5   0  0.2863538E-03  0.5001571E+03  0.7818609E-02  0.1013738E+00
        1   -1    0    0  501    0  0.00000000000E+00  0.00000000000E+00  0.38280516656E+03  0.38280516659E+03  0.50400001928E-02 0. -1.
       -1   -1    0    0    0  501  0.00000000000E+00  0.00000000000E+00 -0.16337106120E+03  0.16337106128E+03  0.50400001928E-02 0.  1.
    10030    2    1    2    0    0  0.00000000000E+00  0.00000000000E+00  0.21943410536E+03  0.54617622787E+03  0.50015712061E+03 0.  0.
        1    1    3    3  502    0 -0.31496731632E+02  0.24808147381E+03  0.10788177893E+03  0.27235076648E+03  0.50400001928E-02 0. -1.
       -1    1    3    3    0  502  0.31496731632E+02 -0.24808147381E+03  0.11155232643E+03  0.27382546139E+03  0.50400001928E-02 0.  1.
</event>
<event>
 5   0  0.2005125E-03  0.5003436E+03  0.7818609E-02  0.1013689E+00
       -3   -1    0    0    0  501  0.00000000000E+00  0.00000000000E+00  0.11378278489E+03  0.11378282972E+03  0.10100000352E+00 0. -1.
        3   -1    0    0  501    0  0.00000000000E+00  0.00000000000E+00 -0.55004722354E+03  0.55004723281E+03  0.10100000352E+00 0.  1.
    10030    2    1    2    0    0  0.00000000000E+00  0.00000000000E+00 -0.43626443864E+03  0.66383006253E+03  0.50034357345E+03 0.  0.
        4    1    3    3  502    0 -0.10457958486E+03  0.19648487291E+03 -0.36964384380E+03  0.43148740307E+03  0.12699999809E+01 0.  1.
       -4    1    3    3    0  502  0.10457958486E+03 -0.19648487291E+03 -0.66620594849E+02  0.23234265947E+03  0.12699999809E+01 0. -1.
</event>
<event>
 5   0  0.2863538E-03  0.4990339E+03  0.7818609E-02  0.1014031E+00
        1   -1    0    0  501    0  0.00000000000E+00  0.00000000000E+00  0.26997197013E+03  0.26997197018E+03  0.50400001928E-02 0.  1.
       -1   -1    0    0    0  501  0.00000000000E+00  0.00000000000E+00 -0.23061178826E+03  0.23061178832E+03  0.50400001928E-02 0. -1.
    10030    2    1    2    0    0  0.00000000000E+00  0.00000000000E+00  0.39360181873E+02  0.50058375850E+03  0.49903394209E+03 0.  0.
        1    1    3    3  502    0  0.14160781836E+02 -0.14509241421E+03 -0.18344912775E+03  0.23432012057E+03  0.50400001928E-02 0. -1.
       -1    1    3    3    0  502 -0.14160781836E+02  0.14509241421E+03  0.22280930962E+03  0.26626363793E+03  0.50400001928E-02 0.  1.
</event>
<event>
 5   0  0.3013734E-03  0.4984589E+03  0.7818609E-02  0.1014182E+00
       -1   -1    0    0    0  501  0.00000000000E+00  0.00000000000E+00  0.25917644202E+03  0.25917644207E+03  0.50400001928E-02 0. -1.
        1   -1    0    0  501    0  0.00000000000E+00  0.00000000000E+00 -0.23966426088E+03  0.23966426094E+03  0.50400001928E-02 0.  1.
    10030    2    1    2    0    0  0.00000000000E+00  0.00000000000E+00  0.19512181140E+02  0.49884070301E+03  0.49845894692E+03 0.  0.
        2    1    3    3  502    0  0.19224619108E+02 -0.71577441491E+02  0.24789298115E+03  0.25873508889E+03  0.25500000920E-02 0. -1.
       -2    1    3    3    0  502 -0.19224619108E+02  0.71577441491E+02 -0.22838080001E+03  0.24010561412E+03  0.25500000920E-02 0.  1.
</event>
<event>
 5   0  0.5095783E-03  0.4998355E+03  0.7818609E-02  0.1013822E+00
       -2   -1    0    0    0  501  0.00000000000E+00  0.00000000000E+00  0.89478154504E+03  0.89478154504E+03  0.25500000920E-02 0. -1.
        2   -1    0    0  501    0  0.00000000000E+00  0.00000000000E+00 -0.69803487766E+02  0.69803487812E+02  0.25500000920E-02 0.  1.
    10030    2    1    2    0    0  0.00000000000E+00  0.00000000000E+00  0.82497805727E+03  0.96458503285E+03  0.49983546355E+03 0.  0.
        4    1    3    3  502    0  0.10065338909E+03 -0.31232634496E+01  0.85388908004E+03  0.85980755604E+03  0.12699999809E+01 0. -1.
       -4    1    3    3    0  502 -0.10065338909E+03  0.31232634496E+01 -0.28911022771E+02  0.10477747681E+03  0.12699999809E+01 0.  1.
</event>
<event>
 5   0  0.3211775E-03  0.4996086E+03  0.7818609E-02  0.1013881E+00
        1   -1    0    0  501    0  0.00000000000E+00  0.00000000000E+00  0.51437536336E+03  0.51437536338E+03  0.50400001928E-02 0. -1.
       -1   -1    0    0    0  501  0.00000000000E+00  0.00000000000E+00 -0.12131644810E+03  0.12131644820E+03  0.50400001928E-02 0.  1.
    10030    2    1    2    0    0  0.00000000000E+00  0.00000000000E+00  0.39305891526E+03  0.63569181158E+03  0.49960861526E+03 0.  0.
        4    1    3    3  502    0 -0.20837660622E+03 -0.12730266665E+03  0.26354172157E+03  0.35928071319E+03  0.12699999809E+01 0. -1.
       -4    1    3    3    0  502  0.20837660622E+03  0.12730266665E+03  0.12951719369E+03  0.27641109840E+03  0.12699999809E+01 0.  1.
</event>
<event>
 5   0  0.2863538E-03  0.4987472E+03  0.7818609E-02  0.1014106E+00
       -1   -1    0    0    0  501  0.00000000000E+00  0.00000000000E+00  0.16771136350E+03  0.16771136357E+03  0.50400001928E-02 0. -1.
        1   -1    0    0  501    0  0.00000000000E+00  0.00000000000E+00 -0.37079890767E+03  0.37079890770E+03  0.50400001928E-02 0.  1.
    10030    2    1    2    0    0  0.00000000000E+00  0.00000000000E+00 -0.20308754417E+03  0.53851027128E+03  0.49874719215E+03 0.  0.
        1    1    3    3  502    0  0.17437044115E+03 -0.17383789280E+03 -0.58863493323E+02  0.25315918824E+03  0.50400001928E-02 0. -1.
       -1    1    3    3    0  502 -0.17437044115E+03  0.17383789280E+03 -0.14422405085E+03  0.28535108303E+03  0.50400001928E-02 0.  1.
</event>
<event>
 5   0  0.4978779E-03  0.5001095E+03  0.7818609E-02  0.1013750E+00
        2   -1    0    0  501    0  0.00000000000E+00  0.00000000000E+00  0.39396548627E+03  0.39396548628E+03  0.25500000920E-02 0.  1.
       -2   -1    0    0    0  501  0.00000000000E+00  0.00000000000E+00 -0.15871285691E+03  0.15871285693E+03  0.25500000920E-02 0. -1.
    10030    2    1    2    0    0  0.00000000000E+00  0.00000000000E+00  0.23525262936E+03  0.55267834321E+03  0.50010953943E+03 0.  0.
        1    1    3    3  502    0 -0.39691247847E+01 -0.10239099713E+03 -0.13444573654E+03  0.16904238032E+03  0.50400001928E-02 0. -1.
       -1    1    3    3    0  502  0.39691247847E+01  0.10239099713E+03  0.36969836590E+03  0.38363596289E+03  0.50400001928E-02 0.  1.
</event>
<event>
 5   0  0.2005125E-03  0.4989738E+03  0.7818609E-02  0.1014047E+00
       -3   -1    0    0    0  501  0.00000000000E+00  0.00000000000E+00  0.29962166163E+03  0.29962167865E+03  0.10100000352E+00 0.  1.
        3   -1    0    0  501    0  0.00000000000E+00  0.00000000000E+00 -0.20774095924E+03  0.20774098379E+03  0.10100000352E+00 0. -1.
    10030    2    1    2    0    0  0.00000000000E+00  0.00000000000E+00  0.91880702388E+02  0.50736266245E+03  0.49897375460E+03 0.  0.
        5    1    3    3  502    0  0.18563403564E+03  0.14038054541E+03 -0.45317743188E+02  0.23715497162E+03  0.46999998093E+01 0.  1.
       -5    1    3    3    0  502 -0.18563403564E+03 -0.14038054541E+03  0.13719844558E+03  0.27020769083E+03  0.46999998093E+01 0. -1.
</event>
<event>
 5   0  0.4889251E-03  0.4997412E+03  0.7818609E-02  0.1013846E+00
        2   -1    0    0  501    0  0.00000000000E+00  0.00000000000E+00  0.27384175575E+03  0.27384175576E+03  0.25500000920E-02 0.  1.
       -2   -1    0    0    0  501  0.00000000000E+00  0.00000000000E+00 -0.22799776868E+03  0.22799776869E+03  0.25500000920E-02 0. -1.
    10030    2    1    2    0    0  0.00000000000E+00  0.00000000000E+00  0.45843987066E+02  0.50183952445E+03  0.49974117016E+03 0.  0.
        5    1    3    3  502    0  0.33428350278E+02 -0.13709793410E+03 -0.18409871745E+03  0.23200802982E+03  0.46999998093E+01 0. -1.
       -5    1    3    3    0  502 -0.33428350278E+02  0.13709793410E+03  0.22994270451E+03  0.26983149463E+03  0.46999998093E+01 0.  1.
</event>
<event>
 5   0  0.3211775E-03  0.5001674E+03  0.7818609E-02  0.1013735E+00
        1   -1    0    0  501    0  0.00000000000E+00  0.00000000000E+00  0.73309763244E+03  0.73309763245E+03  0.50400001928E-02 0.  1.
       -1   -1    0    0    0  501  0.00000000000E+00  0.00000000000E+00 -0.85311756625E+02  0.85311756774E+02  0.50400001928E-02 0. -1.
    10030    2    1    2    0    0  0.00000000000E+00  0.00000000000E+00  0.64778587581E+03  0.81840938923E+03  0.50016735947E+03 0.  0.
        4    1    3    3  502    0  0.68208362690E+02 -0.13741633338E+03  0.64704966141E+03  0.66498910265E+03  0.12699999809E+01 0.  1.
       -4    1    3    3    0  502 -0.68208362690E+02  0.13741633338E+03  0.73621440489E+00  0.15342028658E+03  0.12699999809E+01 0. -1.
</event>
<event>
 5   0  0.5095783E-03  0.5017858E+03  0.7818609E-02  0.1013314E+00
       -2   -1    0    0    0  501  0.00000000000E+00  0.00000000000E+00  0.80460586539E+02  0.80460586580E+02  0.25500000920E-02 0. -1.
        2   -1    0    0  501    0  0.00000000000E+00  0.00000000000E+00 -0.78233627150E+03  0.78233627150E+03  0.25500000920E-02 0.  1.
    10030    2    1    2    0    0  0.00000000000E+00  0.00000000000E+00 -0.70187568496E+03  0.86279685808E+03  0.50178575227E+03 0.  0.
        4    1    3    3  502    0 -0.24537390810E+03  0.14965307686E+02 -0.43713898370E+03  0.50152210238E+03  0.12699999809E+01 0. -1.
       -4    1    3    3    0  502  0.24537390810E+03 -0.14965307686E+02 -0.26473670126E+03  0.36127475570E+03  0.12699999809E+01 0.  1.
</event>
<event>
 5   0  0.4989875E-03  0.5003539E+03  0.7818609E-02  0.1013687E+00
       -2   -1    0    0    0  501  0.00000000000E+00  0.00000000000E+00  0.13618486774E+03  0.13618486777E+03  0.25500000920E-02 0.  1.
        2   -1    0    0  501    0  0.00000000000E+00  0.00000000000E+00 -0.45958494470E+03  0.45958494471E+03  0.25500000920E-02 0. -1.
    10030    2    1    2    0    0  0.00000000000E+00  0.00000000000E+00 -0.32340007696E+03  0.59576981247E+03  0.50035393441E+03 0.  0.
        2    1    3    3  502    0  0.61002964447E+02  0.90165325552E+02  0.10650389258E+03  0.15229650930E+03  0.25500000920E-02 0.  1.
       -2    1    3    3    0  502 -0.61002964447E+02 -0.90165325552E+02 -0.42990396953E+03  0.44347330318E+03  0.25500000920E-02 0. -1.
</event>
<event>
 5   0  0.2863538E-03  0.5016686E+03  0.7818609E-02  0.1013344E+00
        1   -1    0    0  501    0  0.00000000000E+00  0.00000000000E+00  0.42637027118E+03  0.42637027121E+03  0.50400001928E-02 0.  1.
       -1   -1    0    0    0  501  0.00000000000E+00  0.00000000000E+00 -0.14756620858E+03  0.14756620867E+03  0.50400001928E-02 0. -1.
    10030    2    1    2    0    0  0.00000000000E+00  0.00000000000E+00  0.27880406260E+03  0.57393647989E+03  0.50166859342E+03 0.  0.
        1    1    3    3  502    0 -0.11186334192E+03 -0.20553048958E+03  0.36045950676E+02  0.23676042744E+03  0.50400001928E-02 0. -1.
       -1    1    3    3    0  502  0.11186334192E+03  0.20553048958E+03  0.24275811192E+03  0.33717605245E+03  0.50400001928E-02 0.  1.
</event>
<event>
 5   0  0.4989875E-03  0.5001695E+03  0.7818609E-02  0.1013735E+00
       -2   -1    0    0    0  501  0.00000000000E+00  0.00000000000E+00  0.16201500514E+03  0.16201500516E+03  0.25500000920E-02 0.  1.
        2   -1    0    0  501    0  0.00000000000E+00  0.00000000000E+00 -0.38602827448E+03  0.38602827449E+03  0.25500000920E-02 0. -1.
    10030    2    1    2    0    0  0.00000000000E+00  0.00000000000E+00 -0.22401326934E+03  0.54804327965E+03  0.50016946281E+03 0.  0.
        2    1    3    3  502    0 -0.97806872422E+01 -0.21056275893E+03 -0.25946089859E+03  0.33429372593E+03  0.25500000920E-02 0. -1.
       -2    1    3    3    0  502  0.97806872422E+01  0.21056275893E+03  0.35447629251E+02  0.21374955372E+03  0.25500000920E-02 0.  1.
</event>
<event>
 5   0  0.3013734E-03  0.5000499E+03  0.7818609E-02  0.1013766E+00
        1   -1    0    0  501    0  0.00000000000E+00  0.00000000000E+00  0.68454267506E+03  0.68454267508E+03  0.50400001928E-02 0. -1.
       -1   -1    0    0    0  501  0.00000000000E+00  0.00000000000E+00 -0.91320057939E+02  0.91320058079E+02  0.50400001928E-02 0.  1.
    10030    2    1    2    0    0  0.00000000000E+00  0.00000000000E+00  0.59322261712E+03  0.77586273316E+03  0.50004990475E+03 0.  0.
        2    1    3    3  502    0 -0.55586779990E+01  0.24781641385E+03  0.34733136441E+03  0.42671178866E+03  0.25500000920E-02 0.  1.
       -2    1    3    3    0  502  0.55586779990E+01 -0.24781641385E+03  0.24589125271E+03  0.34915094449E+03  0.25500000920E-02 0. -1.
</event>
<event>
 5   0  0.3211775E-03  0.4998634E+03  0.7818609E-02  0.1013815E+00
        1   -1    0    0  501    0  0.00000000000E+00  0.00000000000E+00  0.19873989562E+03  0.19873989569E+03  0.50400001928E-02 0. -1.
       -1   -1    0    0    0  501  0.00000000000E+00  0.00000000000E+00 -0.31430953758E+03  0.31430953762E+03  0.50400001928E-02 0.  1.
    10030    2    1    2    0    0  0.00000000000E+00  0.00000000000E+00 -0.11556964196E+03  0.51304943331E+03  0.49986336021E+03 0.  0.
        4    1    3    3  502    0 -0.70808587249E+02 -0.13174406215E+03 -0.26330143663E+03  0.30281944021E+03  0.12699999809E+01 0.  1.
       -4    1    3    3    0  502  0.70808587249E+02  0.13174406215E+03  0.14773179467E+03  0.21022999310E+03  0.12699999809E+01 0. -1.
</event>
<event>
 5   0  0.4978779E-03  0.4999578E+03  0.7818609E-02  0.1013790E+00
       -2   -1    0    0    0  501  0.00000000000E+00  0.00000000000E+00  0.78694179119E+02  0.78694179160E+02  0.25500000920E-02 0. -1.
        2   -1    0    0  501    0  0.00000000000E+00  0.00000000000E+00 -0.79407961430E+03  0.79407961430E+03  0.25500000920E-02 0.  1.
    10030    2    1    2    0    0  0.00000000000E+00  0.00000000000E+00 -0.71538543518E+03  0.87277379346E+03  0.49995777191E+03 0.  0.
        1    1    3    3  502    0 -0.15780539919E+03  0.75683570917E+02 -0.66928288012E+03  0.69178762678E+03  0.50400001928E-02 0.  1.
       -1    1    3    3    0  502  0.15780539919E+03 -0.75683570917E+02 -0.46102555060E+02  0.18098616668E+03  0.50400001928E-02 0. -1.
</event>
<event>
 5   0  0.4989875E-03  0.4998692E+03  0.7818609E-02  0.1013813E+00
       -2   -1    0    0    0  501  0.00000000000E+00  0.00000000000E+00  0.18102648875E+03  0.18102648877E+03  0.25500000920E-02 0.  1.
        2   -1    0    0  501    0  0.00000000000E+00  0.00000000000E+00 -0.34507279493E+03  0.34507279493E+03  0.25500000920E-02 0. -1.
    10030    2    1    2    0    0  0.00000000000E+00  0.00000000000E+00 -0.16404630617E+03  0.52609928370E+03  0.49986924865E+03 0.  0.
        2    1    3    3  502    0  0.50383347383E+02 -0.22057165446E+03 -0.19378863498E+03  0.29789993538E+03  0.25500000920E-02 0. -1.
       -2    1    3    3    0  502 -0.50383347383E+02  0.22057165446E+03  0.29742328803E+02  0.22819934832E+03  0.25500000920E-02 0.  1.
</event>
<event>
 5   0  0.2863538E-03  0.5003541E+03  0.7818609E-02  0.1013687E+00
       -1   -1    0    0    0  501  0.00000000000E+00  0.00000000000E+00  0.16942435392E+03  0.16942435400E+03  0.50400001928E-02 0.  1.
        1   -1    0    0  501    0  0.00000000000E+00  0.00000000000E+00 -0.36941887936E+03  0.36941887940E+03  0.50400001928E-02 0. -1.
    10030    2    1    2    0    0  0.00000000000E+00  0.00000000000E+00 -0.19999452544E+03  0.53884323340E+03  0.50035409459E+03 0.  0.
        1    1    3    3  502    0  0.71103937753E+02  0.22001127727E+03  0.28916499076E+01  0.23123385080E+03  0.50400001928E-02 0.  1.
       -1    1    3    3    0  502 -0.71103937753E+02 -0.22001127727E+03 -0.20288617535E+03  0.30760938260E+03  0.50400001928E-02 0. -1.
</event>
<event>
 5   0  0.3013734E-03  0.4995695E+03  0.7818609E-02  0.1013891E+00
        1   -1    0    0  501    0  0.00000000000E+00  0.00000000000E+00  0.85496545974E+03  0.85496545976E+03  0.50400001928E-02 0.  1.
       -1   -1    0    0    0  501  0.00000000000E+00  0.00000000000E+00 -0.72976549636E+02  0.72976549810E+02  0.50400001928E-02 0. -1.
    10030    2    1    2    0    0  0.00000000000E+00  0.00000000000E+00  0.78198891011E+03  0.92794200957E+03  0.49956953229E+03 0.  0.
        2    1    3    3  502    0 -0.16951895811E+03  0.10823537157E+03  0.11585575447E+03  0.23210801078E+03  0.25500000920E-02 0. -1.
       -2    1    3    3    0  502  0.16951895811E+03 -0.10823537157E+03  0.66613315563E+03  0.69583399878E+03  0.25500000920E-02 0.  1.
</event>
<event>
 5   0  0.4978779E-03  0.5003049E+03  0.7818609E-02  0.1013699E+00
       -2   -1    0    0    0  501  0.00000000000E+00  0.00000000000E+00  0.27207976163E+02  0.27207976283E+02  0.25500000920E-02 0.  1.
        2   -1    0    0  501    0  0.00000000000E+00  0.00000000000E+00 -0.22999233300E+04  0.22999233300E+04  0.25500000920E-02 0. -1.
    10030    2    1    2    0    0  0.00000000000E+00  0.00000000000E+00 -0.22727153538E+04  0.23271313063E+04  0.50030494413E+03 0.  0.
        1    1    3    3  502    0  0.14547717543E+03  0.42579277882E+02 -0.20619756936E+04  0.20675396888E+04  0.50400001928E-02 0. -1.
       -1    1    3    3    0  502 -0.14547717543E+03 -0.42579277882E+02 -0.21073966021E+03  0.25959161753E+03  0.50400001928E-02 0.  1.
</event>
<event>
 5   0  0.3013734E-03  0.5007863E+03  0.7818609E-02  0.1013574E+00
        1   -1    0    0  501    0  0.00000000000E+00  0.00000000000E+00  0.35726594692E+03  0.35726594696E+03  0.50400001928E-02 0. -1.
       -1   -1    0    0    0  501  0.00000000000E+00  0.00000000000E+00 -0.17549038819E+03  0.17549038826E+03  0.50400001928E-02 0.  1.
    10030    2    1    2    0    0  0.00000000000E+00  0.00000000000E+00  0.18177555873E+03  0.53275633522E+03  0.50078634063E+03 0.  0.
        2    1    3    3  502    0  0.19056461084E+03  0.13561136914E+03 -0.42139189870E+01  0.23392962930E+03  0.25500000920E-02 0.  1.
       -2    1    3    3    0  502 -0.19056461084E+03 -0.13561136914E+03  0.18598947772E+03  0.29882670592E+03  0.25500000920E-02 0. -1.
</event>
<event>
 5   0  0.2863538E-03  0.5000966E+03  0.7818609E-02  0.1013754E+00
       -1   -1    0    0    0  501  0.00000000000E+00  0.00000000000E+00  0.75144691281E+02  0.75144691450E+02  0.50400001928E-02 0. -1.
        1   -1    0    0  501    0  0.00000000000E+00  0.00000000000E+00 -0.83205026483E+03  0.83205026484E+03  0.50400001928E-02 0.  1.
    10030    2    1    2    0    0  0.00000000000E+00  0.00000000000E+00 -0.75690557355E+03  0.90719495629E+03  0.50009663212E+03 0.  0.
        1    1    3    3  502    0 -0.89248011360E+02 -0.18596174329E+03 -0.12205526719E+03  0.23967575133E+03  0.50400001928E-02 0.  1.
       -1    1    3    3    0  502  0.89248011360E+02  0.18596174329E+03 -0.63485030635E+03  0.66751920497E+03  0.50400001928E-02 0. -1.
</event>
<event>
 5   0  0.2005125E-03  0.4999266E+03  0.7818609E-02  0.1013798E+00
        3   -1    0    0  501    0  0.00000000000E+00  0.00000000000E+00  0.70807172828E+03  0.70807173548E+03  0.10100000352E+00 0. -1.
       -3   -1    0    0    0  501  0.00000000000E+00  0.00000000000E+00 -0.88241938291E+02  0.88241996093E+02  0.10100000352E+00 0.  1.
    10030    2    1    2    0    0  0.00000000000E+00  0.00000000000E+00  0.61982978999E+03  0.79631373157E+03  0.49992658515E+03 0.  0.
        3    1    3    3  502    0  0.75859603483E+02  0.78788823091E+02  0.66793428295E+03  0.67682979739E+03  0.10100000352E+00 0. -1.
       -3    1    3    3    0  502 -0.75859603483E+02 -0.78788823091E+02 -0.48104492966E+02  0.11948393419E+03  0.10100000352E+00 0.  1.
</event>
<event>
 5   0  0.4978779E-03  0.5003311E+03  0.7818609E-02  0.1013693E+00
        2   -1    0    0  501    0  0.00000000000E+00  0.00000000000E+00  0.45431318129E+03  0.45431318130E+03  0.25500000920E-02 0.  1.
       -2   -1    0    0    0  501  0.00000000000E+00  0.00000000000E+00 -0.13775258272E+03  0.13775258275E+03  0.25500000920E-02 0. -1.
    10030    2    1    2    0    0  0.00000000000E+00  0.00000000000E+00  0.31656059857E+03  0.59206576404E+03  0.50033114673E+03 0.  0.
        1    1    3    3  502    0  0.70399631691E+02 -0.29412384659E+02 -0.12364872674E+03  0.14529351040E+03  0.50400001928E-02 0. -1.
       -1    1    3    3    0  502 -0.70399631691E+02  0.29412384659E+02  0.44020932531E+03  0.44677225365E+03  0.50400001928E-02 0.  1.
</event>
<event>
 5   0  0.5095783E-03  0.5001075E+03  0.7818609E-02  0.1013751E+00
        2   -1    0    0  501    0  0.00000000000E+00  0.00000000000E+00  0.16346764443E+04  0.16346764443E+04  0.25500000920E-02 0. -1.
       -2   -1    0    0    0  501  0.00000000000E+00  0.00000000000E+00 -0.38250304242E+02  0.38250304327E+02  0.25500000920E-02 0.  1.
    10030    2    1    2    0    0  0.00000000000E+00  0.00000000000E+00  0.15964261401E+04  0.16729267486E+04  0.50010747407E+03 0.  0.
        4    1    3    3  502    0  0.21498923114E+03  0.19398490500E+02  0.12203975011E+04  0.12393418998E+04  0.12699999809E+01 0. -1.
       -4    1    3    3    0  502 -0.21498923114E+03 -0.19398490500E+02  0.37602863894E+03  0.43358484884E+03  0.12699999809E+01 0.  1.
</event>
<event>
 5   0  0.5095783E-03  0.4999608E+03  0.7818609E-02  0.1013789E+00
        2   -1    0    0  501    0  0.00000000000E+00  0.00000000000E+00  0.89257165873E+03  0.89257165873E+03  0.25500000920E-02 0. -1.
       -2   -1    0    0    0  501  0.00000000000E+00  0.00000000000E+00 -0.70011401722E+02  0.70011401768E+02  0.25500000920E-02 0.  1.
    10030    2    1    2    0    0  0.00000000000E+00  0.00000000000E+00  0.82256025700E+03  0.96258306050E+03  0.49996077042E+03 0.  0.
        4    1    3    3  502    0  0.13100723170E+03  0.19391245752E+03  0.24207504201E+03  0.33669997744E+03  0.12699999809E+01 0. -1.
       -4    1    3    3    0  502 -0.13100723170E+03 -0.19391245752E+03  0.58048521499E+03  0.62588308306E+03  0.12699999809E+01 0.  1.
</event>
<event>
 5   0  0.5118882E-03  0.4999516E+03  0.7818609E-02  0.1013792E+00
       -2   -1    0    0    0  501  0.00000000000E+00  0.00000000000E+00  0.56552297133E+02  0.56552297191E+02  0.25500000920E-02 0.  1.
        2   -1    0    0  501    0  0.00000000000E+00  0.00000000000E+00 -0.11049578380E+04  0.11049578380E+04  0.25500000920E-02 0. -1.
    10030    2    1    2    0    0  0.00000000000E+00  0.00000000000E+00 -0.10484055408E+04  0.11615101351E+04  0.49995161369E+03 0.  0.
        3    1    3    3  502    0  0.60524409462E+02 -0.38435164162E+02  0.32152236691E+02  0.78576348287E+02  0.10100000352E+00 0.  1.
       -3    1    3    3    0  502 -0.60524409462E+02  0.38435164162E+02 -0.10805577775E+04  0.10829337869E+04  0.10100000352E+00 0. -1.
</event>
<event>
 5   0  0.2863538E-03  0.4996580E+03  0.7818609E-02  0.1013868E+00
       -1   -1    0    0    0  501  0.00000000000E+00  0.00000000000E+00  0.49731920202E+02  0.49731920457E+02  0.50400001928E-02 0.  1.
        1   -1    0    0  501    0  0.00000000000E+00  0.00000000000E+00 -0.12550196463E+04  0.12550196463E+04  0.50400001928E-02 0. -1.
    10030    2    1    2    0    0  0.00000000000E+00  0.00000000000E+00 -0.12052877261E+04  0.13047515668E+04  0.49965803136E+03 0.  0.
        1    1    3    3  502    0 -0.22909575004E+03  0.25483962588E+02 -0.35108790641E+03  0.41999644414E+03  0.50400001928E-02 0. -1.
       -1    1    3    3    0  502  0.22909575004E+03 -0.25483962588E+02 -0.85419981970E+03  0.88475512264E+03  0.50400001928E-02 0.  1.
</event>
<event>
 5   0  0.4989875E-03  0.5002241E+03  0.7818609E-02  0.1013720E+00
        2   -1    0    0  501    0  0.00000000000E+00  0.00000000000E+00  0.19186347406E+03  0.19186347408E+03  0.25500000920E-02 0. -1.
       -2   -1    0    0    0  501  0.00000000000E+00  0.00000000000E+00 -0.32604448047E+03  0.32604448048E+03  0.25500000920E-02 0.  1.
    10030    2    1    2    0    0  0.00000000000E+00  0.00000000000E+00 -0.13418100641E+03  0.51790795456E+03  0.50022405671E+03 0.  0.
        2    1    3    3  502    0  0.51557729841E+02  0.20547051071E+03  0.70575089683E+02  0.22328719974E+03  0.25500000920E-02 0. -1.
       -2    1    3    3    0  502 -0.51557729841E+02 -0.20547051071E+03 -0.20475609609E+03  0.29462075482E+03  0.25500000920E-02 0.  1.
</event>
<event>
 5   0  0.4978779E-03  0.5033406E+03  0.7818609E-02  0.1012911E+00
        2   -1    0    0  501    0  0.00000000000E+00  0.00000000000E+00  0.74006636679E+03  0.74006636680E+03  0.25500000920E-02 0.  1.
       -2   -1    0    0    0  501  0.00000000000E+00  0.00000000000E+00 -0.85584137085E+02  0.85584137123E+02  0.25500000920E-02 0. -1.
    10030    2    1    2    0    0  0.00000000000E+00  0.00000000000E+00  0.65448222971E+03  0.82565050392E+03  0.50334060597E+03 0.  0.
        1    1    3    3  502    0  0.19626299360E+03 -0.11117347233E+03  0.14414462452E+03  0.26768708675E+03  0.50400001928E-02 0.  1.
       -1    1    3    3    0  502 -0.19626299360E+03  0.11117347233E+03  0.51033760519E+03  0.55796341717E+03  0.50400001928E-02 0. -1.
</event>
<event>
 5   0  0.3013734E-03  0.4998898E+03  0.7818609E-02  0.1013808E+00
        1   -1    0    0  501    0  0.00000000000E+00  0.00000000000E+00  0.27287891401E+03  0.27287891405E+03  0.50400001928E-02 0. -1.
       -1   -1    0    0    0  501  0.00000000000E+00  0.00000000000E+00 -0.22893835354E+03  0.22893835360E+03  0.50400001928E-02 0.  1.
    10030    2    1    2    0    0  0.00000000000E+00  0.00000000000E+00  0.43940560464E+02  0.50181726765E+03  0.49988978512E+03 0.  0.
        2    1    3    3  502    0  0.16404064755E+03  0.42006706138E+02 -0.16258241230E+03  0.23474867030E+03  0.25500000920E-02 0.  1.
       -2    1    3    3    0  502 -0.16404064755E+03 -0.42006706138E+02  0.20652297276E+03  0.26706859736E+03  0.25500000920E-02 0. -1.
</event>
<event>
 5   0  0.3013734E-03  0.4998412E+03  0.7818609E-02  0.1013820E+00
        1   -1    0    0  501    0  0.00000000000E+00  0.00000000000E+00  0.40452723762E+03  0.40452723765E+03  0.50400001928E-02 0.  1.
       -1   -1    0    0    0  501  0.00000000000E+00  0.00000000000E+00 -0.15440318626E+03  0.15440318635E+03  0.50400001928E-02 0. -1.
    10030    2    1    2    0    0  0.00000000000E+00  0.00000000000E+00  0.25012405135E+03  0.55893042400E+03  0.49984115257E+03 0.  0.
        2    1    3    3  502    0 -0.42338406460E+02 -0.24246085176E+03  0.76571023911E+02  0.25776525563E+03  0.25500000920E-02 0.  1.
       -2    1    3    3    0  502  0.42338406460E+02  0.24246085176E+03  0.17355302744E+03  0.30116516837E+03  0.25500000920E-02 0. -1.
</event>
<event>
 5   0  0.4978779E-03  0.5003856E+03  0.7818609E-02  0.1013678E+00
       -2   -1    0    0    0  501  0.00000000000E+00  0.00000000000E+00  0.46461795367E+02  0.46461795437E+02  0.25500000920E-02 0. -1.
        2   -1    0    0  501    0  0.00000000000E+00  0.00000000000E+00 -0.13472670681E+04  0.13472670681E+04  0.25500000920E-02 0.  1.
    10030    2    1    2    0    0  0.00000000000E+00  0.00000000000E+00 -0.13008052727E+04  0.13937288635E+04  0.50038563877E+03 0.  0.
        1    1    3    3  502    0 -0.50145856127E+02  0.20121952086E+03 -0.26053348114E+03  0.33298888462E+03  0.50400001928E-02 0. -1.
       -1    1    3    3    0  502  0.50145856127E+02 -0.20121952086E+03 -0.10402717916E+04  0.10607399789E+04  0.50400001928E-02 0.  1.
</event>
<event>
 5   0  0.5095783E-03  0.5000603E+03  0.7818609E-02  0.1013763E+00
       -2   -1    0    0    0  501  0.00000000000E+00  0.00000000000E+00  0.10539648464E+04  0.10539648464E+04  0.25500000920E-02 0.  1.
        2   -1    0    0  501    0  0.00000000000E+00  0.00000000000E+00 -0.59314189152E+02  0.59314189207E+02  0.25500000920E-02 0. -1.
    10030    2    1    2    0    0  0.00000000000E+00  0.00000000000E+00  0.99465065722E+03  0.11132790356E+04  0.50006027752E+03 0.  0.
        4    1    3    3  502    0 -0.10645024116E+03 -0.21769860421E+03  0.36028420024E+03  0.43420116762E+03  0.12699999809E+01 0.  1.
       -4    1    3    3    0  502  0.10645024116E+03  0.21769860421E+03  0.63436645698E+03  0.67907786796E+03  0.12699999809E+01 0. -1.
</event>
<event>
 5   0  0.5095783E-03  0.5002693E+03  0.7818609E-02  0.1013709E+00
        2   -1    0    0  501    0  0.00000000000E+00  0.00000000000E+00  0.70483067437E+03  0.70483067437E+03  0.25500000920E-02 0. -1.
       -2   -1    0    0    0  501  0.00000000000E+00  0.00000000000E+00 -0.88769312972E+02  0.88769313008E+02  0.25500000920E-02 0.  1.
    10030    2    1    2    0    0  0.00000000000E+00  0.00000000000E+00  0.61606136140E+03  0.79359998738E+03  0.50026926646E+03 0.  0.
        4    1    3    3  502    0  0.22867378452E+02  0.23525778086E+03  0.43784553935E+03  0.49757358217E+03  0.12699999809E+01 0. -1.
       -4    1    3    3    0  502 -0.22867378452E+02 -0.23525778086E+03  0.17821582205E+03  0.29602640521E+03  0.12699999809E+01 0.  1.
</event>
<event>
 5   0  0.3055293E-03  0.5002502E+03  0.7818609E-02  0.1013714E+00
       -1   -1    0    0    0  501  0.00000000000E+00  0.00000000000E+00  0.11775099582E+03  0.11775099593E+03  0.50400001928E-02 0.  1.
        1   -1    0    0  501    0  0.00000000000E+00  0.00000000000E+00 -0.53131244567E+03  0.53131244569E+03  0.50400001928E-02 0. -1.
    10030    2    1    2    0    0  0.00000000000E+00  0.00000000000E+00 -0.41356144985E+03  0.64906344162E+03  0.50025021584E+03 0.  0.
        3    1    3    3  502    0  0.11831329055E+03 -0.20001067353E+03 -0.32682548796E+03  0.40102021648E+03  0.10100000352E+00 0. -1.
       -3    1    3    3    0  502 -0.11831329055E+03  0.20001067353E+03 -0.86735961887E+02  0.24804322513E+03  0.10100000352E+00 0.  1.
</event>
<event>
 5   0  0.2005125E-03  0.5003785E+03  0.7818609E-02  0.1013680E+00
       -3   -1    0    0    0  501  0.00000000000E+00  0.00000000000E+00  0.16007909053E+03  0.16007912239E+03  0.10100000352E+00 0. -1.
        3   -1    0    0  501    0  0.00000000000E+00  0.00000000000E+00 -0.39102329386E+03  0.39102330691E+03  0.10100000352E+00 0.  1.
    10030    2    1    2    0    0  0.00000000000E+00  0.00000000000E+00 -0.23094420334E+03  0.55110242930E+03  0.50037851925E+03 0.  0.
        4    1    3    3  502    0  0.74377946132E+02  0.18908805548E+03 -0.27623712619E+03  0.34292117809E+03  0.12699999809E+01 0.  1.
       -4    1    3    3    0  502 -0.74377946132E+02 -0.18908805548E+03  0.45292922850E+02  0.20818125121E+03  0.12699999809E+01 0. -1.
</event>
<event>
 5   0  0.3055293E-03  0.4999961E+03  0.7818609E-02  0.1013780E+00
       -1   -1    0    0    0  501  0.00000000000E+00  0.00000000000E+00  0.70936080873E+03  0.70936080875E+03  0.50400001928E-02 0.  1.
        1   -1    0    0  501    0  0.00000000000E+00  0.00000000000E+00 -0.88106116709E+02  0.88106116854E+02  0.50400001928E-02 0. -1.
    10030    2    1    2    0    0  0.00000000000E+00  0.00000000000E+00  0.62125469202E+03  0.79746692560E+03  0.49999610506E+03 0.  0.
        3    1    3    3  502    0  0.66397219283E+02 -0.19796442514E+03  0.91355516559E+02  0.22791302060E+03  0.10100000352E+00 0. -1.
       -3    1    3    3    0  502 -0.66397219283E+02  0.19796442514E+03  0.52989917546E+03  0.56955390500E+03  0.10100000352E+00 0.  1.
</event>
<event>
 5   0  0.4989875E-03  0.4996478E+03  0.7818609E-02  0.1013871E+00
        2   -1    0    0  501    0  0.00000000000E+00  0.00000000000E+00  0.23048117923E+03  0.23048117924E+03  0.25500000920E-02 0.  1.
       -2   -1    0    0    0  501  0.00000000000E+00  0.00000000000E+00 -0.27078993708E+03  0.27078993709E+03  0.25500000920E-02 0. -1.
    10030    2    1    2    0    0  0.00000000000E+00  0.00000000000E+00 -0.40308757854E+02  0.50127111633E+03  0.49964781207E+03 0.  0.
        2    1    3    3  502    0  0.23396864553E+03  0.86293677939E+02 -0.51371779074E+01  0.24942797867E+03  0.25500000920E-02 0.  1.
       -2    1    3    3    0  502 -0.23396864553E+03 -0.86293677939E+02 -0.35171579947E+02  0.25184313766E+03  0.25500000920E-02 0. -1.
</event>
<event>
 5   0  0.3013734E-03  0.4998752E+03  0.7818609E-02  0.1013812E+00
       -1   -1    0    0    0  501  0.00000000000E+00  0.00000000000E+00  0.29443118298E+03  0.29443118302E+03  0.50400001928E-02 0.  1.
        1   -1    0    0  501    0  0.00000000000E+00  0.00000000000E+00 -0.21216772733E+03  0.21216772739E+03  0.50400001928E-02 0. -1.
    10030    2    1    2    0    0  0.00000000000E+00  0.00000000000E+00  0.82263455642E+02  0.50659891041E+03  0.49987516431E+03 0.  0.
        2    1    3    3  502    0 -0.85681470282E+02 -0.22971469735E+03 -0.80873392603E+01  0.24530707611E+03  0.25500000920E-02 0. -1.
       -2    1    3    3    0  502  0.85681470282E+02  0.22971469735E+03  0.90350794902E+02  0.26129183430E+03  0.25500000920E-02 0.  1.
</event>
<event>
 5   0  0.3013734E-03  0.5000619E+03  0.7818609E-02  0.1013763E+00
        1   -1    0    0  501    0  0.00000000000E+00  0.00000000000E+00  0.81148003146E+03  0.81148003147E+03  0.50400001928E-02 0. -1.
       -1   -1    0    0    0  501  0.00000000000E+00  0.00000000000E+00 -0.77038822288E+02  0.77038822453E+02  0.50400001928E-02 0.  1.
    10030    2    1    2    0    0  0.00000000000E+00  0.00000000000E+00  0.73444120917E+03  0.88851885393E+03  0.50006186023E+03 0.  0.
        2    1    3    3  502    0 -0.17237449478E+03  0.14210052075E+03  0.16769462458E+03  0.27933315515E+03  0.25500000920E-02 0. -1.
       -2    1    3    3    0  502  0.17237449478E+03 -0.14210052075E+03  0.56674658459E+03  0.60918569878E+03  0.25500000920E-02 0.  1.
</event>
<event>
 5   0  0.2863538E-03  0.5001478E+03  0.7818609E-02  0.1013740E+00
       -1   -1    0    0    0  501  0.00000000000E+00  0.00000000000E+00  0.36036335582E+02  0.36036335934E+02  0.50400001928E-02 0. -1.
        1   -1    0    0  501    0  0.00000000000E+00  0.00000000000E+00 -0.17353857384E+04  0.17353857384E+04  0.50400001928E-02 0.  1.
    10030    2    1    2    0    0  0.00000000000E+00  0.00000000000E+00 -0.16993494028E+04  0.17714220743E+04  0.50014775077E+03 0.  0.
        1    1    3    3  502    0 -0.11869552296E+03 -0.13336642060E+03 -0.14698606825E+04  0.14806639238E+04  0.50400001928E-02 0.  1.
       -1    1    3    3    0  502  0.11869552296E+03  0.13336642060E+03 -0.22948872031E+03  0.29075815052E+03  0.50400001928E-02 0. -1.
</event>
<event>
 5   0  0.4989875E-03  0.4999674E+03  0.7818609E-02  0.1013787E+00
        2   -1    0    0  501    0  0.00000000000E+00  0.00000000000E+00  0.15320122020E+04  0.15320122020E+04  0.25500000920E-02 0. -1.
       -2   -1    0    0    0  501  0.00000000000E+00  0.00000000000E+00 -0.40790704125E+02  0.40790704205E+02  0.25500000920E-02 0.  1.
    10030    2    1    2    0    0  0.00000000000E+00  0.00000000000E+00  0.14912214979E+04  0.15728029062E+04  0.49996742499E+03 0.  0.
        2    1    3    3  502    0 -0.16717464747E+03  0.56784721091E+02  0.18888232403E+03  0.25855057463E+03  0.25500000920E-02 0.  1.
       -2    1    3    3    0  502  0.16717464747E+03 -0.56784721091E+02  0.13023391739E+04  0.13142523316E+04  0.25500000920E-02 0. -1.
</event>
<event>
 5   0  0.5095783E-03  0.4999932E+03  0.7818609E-02  0.1013781E+00
        2   -1    0    0  501    0  0.00000000000E+00  0.00000000000E+00  0.80883911451E+03  0.80883911451E+03  0.25500000920E-02 0.  1.
       -2   -1    0    0    0  501  0.00000000000E+00  0.00000000000E+00 -0.77269140913E+02  0.77269140955E+02  0.25500000920E-02 0. -1.
    10030    2    1    2    0    0  0.00000000000E+00  0.00000000000E+00  0.73156997360E+03  0.88610825547E+03  0.49999321409E+03 0.  0.
        4    1    3    3  502    0  0.13685189848E+03 -0.19764620187E+03  0.48733830707E+03  0.54340841148E+03  0.12699999809E+01 0. -1.
       -4    1    3    3    0  502 -0.13685189848E+03  0.19764620187E+03  0.24423166653E+03  0.34269984399E+03  0.12699999809E+01 0.  1.
</event>
<event>
 5   0  0.2863538E-03  0.4999968E+03  0.7818609E-02  0.1013780E+00
       -1   -1    0    0    0  501  0.00000000000E+00  0.00000000000E+00  0.24192340494E+03  0.24192340499E+03  0.50400001928E-02 0. -1.
        1   -1    0    0  501    0  0.00000000000E+00  0.00000000000E+00 -0.25834296168E+03  0.25834296173E+03  0.50400001928E-02 0.  1.
    10030    2    1    2    0    0  0.00000000000E+00  0.00000000000E+00 -0.16419556743E+02  0.50026636672E+03  0.49999683582E+03 0.  0.
        1    1    3    3  502    0 -0.16251563771E+03 -0.11172452205E+03  0.14551388369E+03  0.24508772246E+03  0.50400001928E-02 0. -1.
       -1    1    3    3    0  502  0.16251563771E+03  0.11172452205E+03 -0.16193344043E+03  0.25517864426E+03  0.50400001928E-02 0.  1.
</event>
<event>
 5   0  0.4978779E-03  0.4998415E+03  0.7818609E-02  0.1013820E+00
        2   -1    0    0  501    0  0.00000000000E+00  0.00000000000E+00  0.22708186546E+04  0.22708186546E+04  0.25500000920E-02 0.  1.
       -2   -1    0    0    0  501  0.00000000000E+00  0.00000000000E+00 -0.27505670472E+02  0.27505670590E+02  0.25500000920E-02 0. -1.
    10030    2    1    2    0    0  0.00000000000E+00  0.00000000000E+00  0.22433129842E+04  0.22983243252E+04  0.49984153391E+03 0.  0.
        1    1    3    3  502    0  0.51435489195E+02  0.29316042366E+02  0.52031363891E+01  0.59431578663E+02  0.50400001928E-02 0. -1.
       -1    1    3    3    0  502 -0.51435489195E+02 -0.29316042366E+02  0.22381098478E+04  0.22388927466E+04  0.50400001928E-02 0.  1.
</event>
<event>
 5   0  0.3013734E-03  0.4996306E+03  0.7818609E-02  0.1013875E+00
        1   -1    0    0  501    0  0.00000000000E+00  0.00000000000E+00  0.66800569423E+03  0.66800569425E+03  0.50400001928E-02 0. -1.
       -1   -1    0    0    0  501  0.00000000000E+00  0.00000000000E+00 -0.93423880752E+02  0.93423880888E+02  0.50400001928E-02 0.  1.
    10030    2    1    2    0    0  0.00000000000E+00  0.00000000000E+00  0.57458181347E+03  0.76142957513E+03  0.49963060106E+03 0.  0.
        2    1    3    3  502    0 -0.36882783144E+01 -0.15333517318E+03 -0.13217949101E+02  0.15394802017E+03  0.25500000920E-02 0.  1.
       -2    1    3    3    0  502  0.36882783144E+01  0.15333517318E+03  0.58779976258E+03  0.60748155496E+03  0.25500000920E-02 0. -1.
</event>
<event>
 5   0  0.3211775E-03  0.4998350E+03  0.7818609E-02  0.1013822E+00
        1   -1    0    0  501    0  0.00000000000E+00  0.00000000000E+00  0.10413283040E+04  0.10413283040E+04  0.50400001928E-02 0. -1.
       -1   -1    0    0    0  501  0.00000000000E+00  0.00000000000E+00 -0.59979899017E+02  0.59979899228E+02  0.50400001928E-02 0.  1.
    10030    2    1    2    0    0  0.00000000000E+00  0.00000000000E+00  0.98134840496E+03  0.11013082032E+04  0.49983503934E+03 0.  0.
        4    1    3    3  502    0  0.72544129008E+02  0.15360199499E+03  0.86789106946E+02  0.19076211757E+03  0.12699999809E+01 0.  1.
       -4    1    3    3    0  502 -0.72544129008E+02 -0.15360199499E+03  0.89455929802E+03  0.91054608565E+03  0.12699999809E+01 0. -1.
</event>
<event>
 5   0  0.2863538E-03  0.4999898E+03  0.7818609E-02  0.1013782E+00
        1   -1    0    0  501    0  0.00000000000E+00  0.00000000000E+00  0.10375375394E+04  0.10375375394E+04  0.50400001928E-02 0.  1.
       -1   -1    0    0    0  501  0.00000000000E+00  0.00000000000E+00 -0.60236335257E+02  0.60236335468E+02  0.50400001928E-02 0. -1.
    10030    2    1    2    0    0  0.00000000000E+00  0.00000000000E+00  0.97730120411E+03  0.10977738748E+04  0.49998983664E+03 0.  0.
        1    1    3    3  502    0 -0.34239083994E+02 -0.73967575031E+02 -0.30243375298E+02  0.86937786972E+02  0.50400001928E-02 0. -1.
       -1    1    3    3    0  502  0.34239083994E+02  0.73967575031E+02  0.10075445794E+04  0.10108360879E+04  0.50400001928E-02 0.  1.
</event>
<event>
 5   0  0.2863538E-03  0.5000450E+03  0.7818609E-02  0.1013767E+00
       -1   -1    0    0    0  501  0.00000000000E+00  0.00000000000E+00  0.11224014895E+03  0.11224014906E+03  0.50400001928E-02 0. -1.
        1   -1    0    0  501    0  0.00000000000E+00  0.00000000000E+00 -0.55694192363E+03  0.55694192366E+03  0.50400001928E-02 0.  1.
    10030    2    1    2    0    0  0.00000000000E+00  0.00000000000E+00 -0.44470177469E+03  0.66918207272E+03  0.50004497602E+03 0.  0.
        1    1    3    3  502    0  0.13563209457E+02 -0.10299893244E+03  0.81988530475E+02  0.13234371873E+03  0.50400001928E-02 0. -1.
       -1    1    3    3    0  502 -0.13563209457E+02  0.10299893244E+03 -0.52669030516E+03  0.53683835398E+03  0.50400001928E-02 0.  1.
</event>
<event>
 5   0  0.2863538E-03  0.5000280E+03  0.7818609E-02  0.1013772E+00
        1   -1    0    0  501    0  0.00000000000E+00  0.00000000000E+00  0.31487039003E+03  0.31487039007E+03  0.50400001928E-02 0.  1.
       -1   -1    0    0    0  501  0.00000000000E+00  0.00000000000E+00 -0.19851661627E+03  0.19851661633E+03  0.50400001928E-02 0. -1.
    10030    2    1    2    0    0  0.00000000000E+00  0.00000000000E+00  0.11635377376E+03  0.51338700640E+03  0.50002801689E+03 0.  0.
        1    1    3    3  502    0  0.10502918086E+03  0.21603289858E+03  0.12935183480E+03  0.27282455772E+03  0.50400001928E-02 0. -1.
       -1    1    3    3    0  502 -0.10502918086E+03 -0.21603289858E+03 -0.12998061039E+02  0.24056244868E+03  0.50400001928E-02 0.  1.
</event>
<event>
 5   0  0.2005125E-03  0.4993741E+03  0.7818609E-02  0.1013942E+00
       -3   -1    0    0    0  501  0.00000000000E+00  0.00000000000E+00  0.26763378497E+03  0.26763380403E+03  0.10100000352E+00 0.  1.
        3   -1    0    0  501    0  0.00000000000E+00  0.00000000000E+00 -0.23294371729E+03  0.23294373919E+03  0.10100000352E+00 0. -1.
    10030    2    1    2    0    0  0.00000000000E+00  0.00000000000E+00  0.34690067678E+02  0.50057754321E+03  0.49937408420E+03 0.  0.
        3    1    3    3  502    0 -0.26593924170E+02 -0.21879049714E+03 -0.10027097651E+03  0.24213797177E+03  0.10100000352E+00 0. -1.
       -3    1    3    3    0  502  0.26593924170E+02  0.21879049714E+03  0.13496104418E+03  0.25843957145E+03  0.10100000352E+00 0.  1.
</event>
<event>
 5   0  0.3013734E-03  0.5000808E+03  0.7818609E-02  0.1013758E+00
        1   -1    0    0  501    0  0.00000000000E+00  0.00000000000E+00  0.56943080109E+03  0.56943080111E+03  0.50400001928E-02 0. -1.
       -1   -1    0    0    0  501  0.00000000000E+00  0.00000000000E+00 -0.10979419036E+03  0.10979419048E+03  0.50400001928E-02 0.  1.
    10030    2    1    2    0    0  0.00000000000E+00  0.00000000000E+00  0.45963661072E+03  0.67922499159E+03  0.50008076876E+03 0.  0.
        2    1    3    3  502    0 -0.15232417709E+03 -0.11444154474E+03  0.98827672238E+01  0.19078047904E+03  0.25500000920E-02 0.  1.
       -2    1    3    3    0  502  0.15232417709E+03  0.11444154474E+03  0.44975384350E+03  0.48844451255E+03  0.25500000920E-02 0. -1.
</event>
<event>
 5   0  0.3211775E-03  0.4997885E+03  0.7818609E-02  0.1013834E+00
       -1   -1    0    0    0  501  0.00000000000E+00  0.00000000000E+00  0.12041380724E+03  0.12041380734E+03  0.50400001928E-02 0.  1.
        1   -1    0    0  501    0  0.00000000000E+00  0.00000000000E+00 -0.51860434940E+03  0.51860434943E+03  0.50400001928E-02 0. -1.
    10030    2    1    2    0    0  0.00000000000E+00  0.00000000000E+00 -0.39819054217E+03  0.63901815677E+03  0.49978845206E+03 0.  0.
        4    1    3    3  502    0 -0.18476490187E+03  0.16197572737E+03 -0.25728537343E+03  0.35576900020E+03  0.12699999809E+01 0. -1.
       -4    1    3    3    0  502  0.18476490187E+03 -0.16197572737E+03 -0.14090516874E+03  0.28324915657E+03  0.12699999809E+01 0.  1.
</event>
<event>
 5   0  0.4989875E-03  0.4999739E+03  0.7818609E-02  0.1013786E+00
        2   -1    0    0  501    0  0.00000000000E+00  0.00000000000E+00  0.14367315803E+04  0.14367315803E+04  0.25500000920E-02 0.  1.
       -2   -1    0    0    0  501  0.00000000000E+00  0.00000000000E+00 -0.43496977938E+02  0.43496978013E+02  0.25500000920E-02 0. -1.
    10030    2    1    2    0    0  0.00000000000E+00  0.00000000000E+00  0.13932346024E+04  0.14802285583E+04  0.49997392695E+03 0.  0.
        2    1    3    3  502    0  0.65566792338E+02 -0.17100060347E+03  0.12003849119E+04  0.12142751531E+04  0.25500000920E-02 0.  1.
       -2    1    3    3    0  502 -0.65566792338E+02  0.17100060347E+03  0.19284969047E+03  0.26595340525E+03  0.25500000920E-02 0. -1.
</event>
<event>
 5   0  0.2005125E-03  0.5000594E+03  0.7818609E-02  0.1013763E+00
        4   -1    0    0  501    0  0.00000000000E+00  0.00000000000E+00  0.30455517914E+03  0.30455782709E+03  0.12699999809E+01 0.  1.
       -4   -1    0    0    0  501  0.00000000000E+00  0.00000000000E+00 -0.20526057754E+03  0.20526450641E+03  0.12699999809E+01 0. -1.
    10030    2    1    2    0    0  0.00000000000E+00  0.00000000000E+00  0.99294601599E+02  0.50982233349E+03  0.50005939030E+03 0.  0.
        5    1    3    3  502    0  0.50782973539E+02  0.10899484818E+03 -0.17379814928E+03  0.21139222792E+03  0.46999998093E+01 0. -1.
       -5    1    3    3    0  502 -0.50782973539E+02 -0.10899484818E+03  0.27309275088E+03  0.29843010558E+03  0.46999998093E+01 0.  1.
</event>
<event>
 5   0  0.3057783E-03  0.4999980E+03  0.7818609E-02  0.1013779E+00
        1   -1    0    0  501    0  0.00000000000E+00  0.00000000000E+00  0.35211807703E+03  0.35211807706E+03  0.50400001928E-02 0. -1.
       -1   -1    0    0    0  501  0.00000000000E+00  0.00000000000E+00 -0.17749584518E+03  0.17749584525E+03  0.50400001928E-02 0.  1.
    10030    2    1    2    0    0  0.00000000000E+00  0.00000000000E+00  0.17462223185E+03  0.52961392231E+03  0.49999798285E+03 0.  0.
        5    1    3    3  502    0  0.10455518662E+03  0.15591847947E+03  0.26211665936E+03  0.32244316150E+03  0.46999998093E+01 0. -1.
       -5    1    3    3    0  502 -0.10455518662E+03 -0.15591847947E+03 -0.87494427508E+02  0.20717076081E+03  0.46999998093E+01 0.  1.
</event>
<event>
 5   0  0.4978779E-03  0.5000619E+03  0.7818609E-02  0.1013763E+00
       -2   -1    0    0    0  501  0.00000000000E+00  0.00000000000E+00  0.53852966256E+03  0.53852966256E+03  0.25500000920E-02 0. -1.
        2   -1    0    0  501    0  0.00000000000E+00  0.00000000000E+00 -0.11608548985E+03  0.11608548988E+03  0.25500000920E-02 0.  1.
    10030    2    1    2    0    0  0.00000000000E+00  0.00000000000E+00  0.42244417270E+03  0.65461515245E+03  0.50006191493E+03 0.  0.
        1    1    3    3  502    0 -0.18007965539E+03 -0.16182342512E+03  0.29297312271E+03  0.38006414441E+03  0.50400001928E-02 0. -1.
       -1    1    3    3    0  502  0.18007965539E+03  0.16182342512E+03  0.12947104999E+03  0.27455100804E+03  0.50400001928E-02 0.  1.
</event>
<event>
 5   0  0.4978779E-03  0.5000445E+03  0.7818609E-02  0.1013767E+00
        2   -1    0    0  501    0  0.00000000000E+00  0.00000000000E+00  0.92906466957E+03  0.92906466958E+03  0.25500000920E-02 0.  1.
       -2   -1    0    0    0  501  0.00000000000E+00  0.00000000000E+00 -0.67283927751E+02  0.67283927800E+02  0.25500000920E-02 0. -1.
    10030    2    1    2    0    0  0.00000000000E+00  0.00000000000E+00  0.86178074182E+03  0.99634859738E+03  0.50004447854E+03 0.  0.
        1    1    3    3  502    0 -0.20937947162E+03  0.38878022932E+02  0.69190178584E+03  0.72393324628E+03  0.50400001928E-02 0.  1.
       -1    1    3    3    0  502  0.20937947162E+03 -0.38878022932E+02  0.16987895599E+03  0.27241535110E+03  0.50400001928E-02 0. -1.
</event>
<event>
 5   0  0.4989875E-03  0.4999846E+03  0.7818609E-02  0.1013783E+00
       -2   -1    0    0    0  501  0.00000000000E+00  0.00000000000E+00  0.33743579618E+02  0.33743579714E+02  0.25500000920E-02 0. -1.
        2   -1    0    0  501    0  0.00000000000E+00  0.00000000000E+00 -0.18520899567E+04  0.18520899567E+04  0.25500000920E-02 0.  1.
    10030    2    1    2    0    0  0.00000000000E+00  0.00000000000E+00 -0.18183463771E+04  0.18858335364E+04  0.49998457979E+03 0.  0.
        2    1    3    3  502    0 -0.37435021250E+02 -0.14698809566E+03 -0.16586984312E+04  0.16656192142E+04  0.25500000920E-02 0.  1.
       -2    1    3    3    0  502  0.37435021250E+02  0.14698809566E+03 -0.15964794595E+03  0.22021432227E+03  0.25500000920E-02 0. -1.
</event>
<event>
 5   0  0.4889251E-03  0.4997510E+03  0.7818609E-02  0.1013844E+00
        2   -1    0    0  501    0  0.00000000000E+00  0.00000000000E+00  0.23647280490E+04  0.23647280490E+04  0.25500000920E-02 0.  1.
       -2   -1    0    0    0  501  0.00000000000E+00  0.00000000000E+00 -0.26403783144E+02  0.26403783267E+02  0.25500000920E-02 0. -1.
    10030    2    1    2    0    0  0.00000000000E+00  0.00000000000E+00  0.23383242658E+04  0.23911318323E+04  0.49975100499E+03 0.  0.
        5    1    3    3  502    0  0.79144560326E+02 -0.16479529956E+03  0.19838783160E+04  0.19922892900E+04  0.46999998093E+01 0.  1.
       -5    1    3    3    0  502 -0.79144560326E+02  0.16479529956E+03  0.35444594983E+03  0.39884254228E+03  0.46999998093E+01 0. -1.
</event>
<event>
 5   0  0.3013734E-03  0.4997764E+03  0.7818609E-02  0.1013837E+00
        1   -1    0    0  501    0  0.00000000000E+00  0.00000000000E+00  0.11185809783E+04  0.11185809783E+04  0.50400001928E-02 0. -1.
       -1   -1    0    0    0  501  0.00000000000E+00  0.00000000000E+00 -0.55824401768E+02  0.55824401996E+02  0.50400001928E-02 0.  1.
    10030    2    1    2    0    0  0.00000000000E+00  0.00000000000E+00  0.10627565765E+04  0.11744053803E+04  0.49977640633E+03 0.  0.
        2    1    3    3  502    0 -0.16048365509E+03 -0.11317806528E+03  0.89450479583E+03  0.91580735298E+03  0.25500000920E-02 0. -1.
       -2    1    3    3    0  502  0.16048365509E+03  0.11317806528E+03  0.16825178066E+03  0.25859802728E+03  0.25500000920E-02 0.  1.
</event>
<event>
 5   0  0.4978779E-03  0.5000181E+03  0.7818609E-02  0.1013774E+00
       -2   -1    0    0    0  501  0.00000000000E+00  0.00000000000E+00  0.78448840593E+02  0.78448840635E+02  0.25500000920E-02 0.  1.
        2   -1    0    0  501    0  0.00000000000E+00  0.00000000000E+00 -0.79675532566E+03  0.79675532566E+03  0.25500000920E-02 0. -1.
    10030    2    1    2    0    0  0.00000000000E+00  0.00000000000E+00 -0.71830648507E+03  0.87520416630E+03  0.50001812589E+03 0.  0.
        1    1    3    3  502    0 -0.21093772622E+03 -0.86673792128E+02 -0.53848853365E+03  0.58478797139E+03  0.50400001928E-02 0. -1.
       -1    1    3    3    0  502  0.21093772622E+03  0.86673792128E+02 -0.17981795141E+03  0.29041619490E+03  0.50400001928E-02 0.  1.
</event>
<event>
 5   0  0.2863538E-03  0.4999125E+03  0.7818609E-02  0.1013802E+00
        1   -1    0    0  501    0  0.00000000000E+00  0.00000000000E+00  0.49849346250E+03  0.49849346252E+03  0.50400001928E-02 0.  1.
       -1   -1    0    0    0  501  0.00000000000E+00  0.00000000000E+00 -0.12533387010E+03  0.12533387021E+03  0.50400001928E-02 0. -1.
    10030    2    1    2    0    0  0.00000000000E+00  0.00000000000E+00  0.37315959239E+03  0.62382733273E+03  0.49991245200E+03 0.  0.
        1    1    3    3  502    0  0.16054957993E+03  0.39137184829E+02 -0.47442931443E+02  0.17192649191E+03  0.50400001928E-02 0. -1.
       -1    1    3    3    0  502 -0.16054957993E+03 -0.39137184829E+02  0.42060252384E+03  0.45190084082E+03  0.50400001928E-02 0.  1.
</event>
<event>
 5   0  0.2005125E-03  0.4982966E+03  0.7818609E-02  0.1014224E+00
        4   -1    0    0  501    0  0.00000000000E+00  0.00000000000E+00  0.99849131427E+02  0.99857207785E+02  0.12699999809E+01 0. -1.
       -4   -1    0    0    0  501  0.00000000000E+00  0.00000000000E+00 -0.62165277968E+03  0.62165407695E+03  0.12699999809E+01 0.  1.
    10030    2    1    2    0    0  0.00000000000E+00  0.00000000000E+00 -0.52180364825E+03  0.72151128473E+03  0.49829658504E+03 0.  0.
        1    1    3    3  502    0 -0.95273864488E+02 -0.20991362875E+03 -0.12404106608E+03  0.26177667369E+03  0.50400001928E-02 0. -1.
       -1    1    3    3    0  502  0.95273864488E+02  0.20991362875E+03 -0.39776258217E+03  0.45973461104E+03  0.50400001928E-02 0.  1.
</event>
<event>
 5   0  0.2005125E-03  0.5000147E+03  0.7818609E-02  0.1013775E+00
       -3   -1    0    0    0  501  0.00000000000E+00  0.00000000000E+00  0.77569189624E+03  0.77569190281E+03  0.10100000352E+00 0. -1.
        3   -1    0    0  501    0  0.00000000000E+00  0.00000000000E+00 -0.80577926782E+02  0.80577990081E+02  0.10100000352E+00 0.  1.
    10030    2    1    2    0    0  0.00000000000E+00  0.00000000000E+00  0.69511396946E+03  0.85626989290E+03  0.50001469873E+03 0.  0.
        5    1    3    3  502    0 -0.28304233307E+02  0.23324771603E+03  0.20148295944E+03  0.30955306427E+03  0.46999998093E+01 0. -1.
       -5    1    3    3    0  502  0.28304233307E+02 -0.23324771603E+03  0.49363101002E+03  0.54671682863E+03  0.46999998093E+01 0.  1.
</event>
<event>
 5   0  0.2863538E-03  0.5000061E+03  0.7818609E-02  0.1013777E+00
       -1   -1    0    0    0  501  0.00000000000E+00  0.00000000000E+00  0.97481726973E+02  0.97481727103E+02  0.50400001928E-02 0. -1.
        1   -1    0    0  501    0  0.00000000000E+00  0.00000000000E+00 -0.64116155570E+03  0.64116155572E+03  0.50400001928E-02 0.  1.
    10030    2    1    2    0    0  0.00000000000E+00  0.00000000000E+00 -0.54367982873E+03  0.73864328282E+03  0.50000614306E+03 0.  0.
        1    1    3    3  502    0 -0.72489263628E+02  0.15700420665E+03 -0.51263881081E+01  0.17300663030E+03  0.50400001928E-02 0. -1.
       -1    1    3    3    0  502  0.72489263628E+02 -0.15700420665E+03 -0.53855344062E+03  0.56563665252E+03  0.50400001928E-02 0.  1.
</event>
<event>
 5   0  0.3057783E-03  0.4999793E+03  0.7818609E-02  0.1013784E+00
        1   -1    0    0  501    0  0.00000000000E+00  0.00000000000E+00  0.65990341152E+02  0.65990341345E+02  0.50400001928E-02 0.  1.
       -1   -1    0    0    0  501  0.00000000000E+00  0.00000000000E+00 -0.94702989387E+03  0.94702989388E+03  0.50400001928E-02 0. -1.
    10030    2    1    2    0    0  0.00000000000E+00  0.00000000000E+00 -0.88103955272E+03  0.10130202352E+04  0.49997930310E+03 0.  0.
        5    1    3    3  502    0 -0.21573785343E+02  0.10473803618E+03 -0.89825015079E+03  0.90460538791E+03  0.46999998093E+01 0. -1.
       -5    1    3    3    0  502  0.21573785343E+02 -0.10473803618E+03  0.17210598071E+02  0.10841484732E+03  0.46999998093E+01 0.  1.
</event>
<event>
 5   0  0.2005125E-03  0.4998752E+03  0.7818609E-02  0.1013811E+00
        4   -1    0    0  501    0  0.00000000000E+00  0.00000000000E+00  0.19553462216E+03  0.19553874645E+03  0.12699999809E+01 0. -1.
       -4   -1    0    0    0  501  0.00000000000E+00  0.00000000000E+00 -0.31946825230E+03  0.31947077664E+03  0.12699999809E+01 0.  1.
    10030    2    1    2    0    0  0.00000000000E+00  0.00000000000E+00 -0.12393363014E+03  0.51500952310E+03  0.49987524864E+03 0.  0.
        3    1    3    3  502    0 -0.28502308084E+02 -0.66508312638E+02  0.18451060670E+03  0.19819160275E+03  0.10100000352E+00 0. -1.
       -3    1    3    3    0  502  0.28502308084E+02  0.66508312638E+02 -0.30844423683E+03  0.31681792035E+03  0.10100000352E+00 0.  1.
</event>
<event>
 5   0  0.4978779E-03  0.5001506E+03  0.7818609E-02  0.1013740E+00
        2   -1    0    0  501    0  0.00000000000E+00  0.00000000000E+00  0.15513060510E+03  0.15513060512E+03  0.25500000920E-02 0.  1.
       -2   -1    0    0    0  501  0.00000000000E+00  0.00000000000E+00 -0.40312905170E+03  0.40312905171E+03  0.25500000920E-02 0. -1.
    10030    2    1    2    0    0  0.00000000000E+00  0.00000000000E+00 -0.24799844660E+03  0.55825965683E+03  0.50015059225E+03 0.  0.
        1    1    3    3  502    0  0.77767459078E+02  0.50420950910E+02  0.13525243094E+03  0.16396118468E+03  0.50400001928E-02 0.  1.
       -1    1    3    3    0  502 -0.77767459078E+02 -0.50420950910E+02 -0.38325087753E+03  0.39429847215E+03  0.50400001928E-02 0. -1.
</event>
<event>
 5   0  0.5118882E-03  0.4997421E+03  0.7818609E-02  0.1013846E+00
        2   -1    0    0  501    0  0.00000000000E+00  0.00000000000E+00  0.52315079421E+03  0.52315079421E+03  0.25500000920E-02 0. -1.
       -2   -1    0    0    0  501  0.00000000000E+00  0.00000000000E+00 -0.11934522558E+03  0.11934522561E+03  0.25500000920E-02 0.  1.
    10030    2    1    2    0    0  0.00000000000E+00  0.00000000000E+00  0.40380556862E+03  0.64249601983E+03  0.49974213174E+03 0.  0.
        3    1    3    3  502    0 -0.76554414227E+02  0.22180721625E+03  0.91482150906E+02  0.25184918831E+03  0.10100000352E+00 0. -1.
       -3    1    3    3    0  502  0.76554414227E+02 -0.22180721625E+03  0.31232341772E+03  0.39064683152E+03  0.10100000352E+00 0.  1.
</event>
<event>
 5   0  0.2863538E-03  0.4998621E+03  0.7818609E-02  0.1013815E+00
        1   -1    0    0  501    0  0.00000000000E+00  0.00000000000E+00  0.68478090956E+03  0.68478090958E+03  0.50400001928E-02 0. -1.
       -1   -1    0    0    0  501  0.00000000000E+00  0.00000000000E+00 -0.91219740128E+02  0.91219740268E+02  0.50400001928E-02 0.  1.
    10030    2    1    2    0    0  0.00000000000E+00  0.00000000000E+00  0.59356116943E+03  0.77600064985E+03  0.49986212770E+03 0.  0.
        1    1    3    3  502    0 -0.35560554638E+02  0.24659018295E+03  0.32760579992E+03  0.41157846340E+03  0.50400001928E-02 0.  1.
       -1    1    3    3    0  502  0.35560554638E+02 -0.24659018295E+03  0.26595536951E+03  0.36442218644E+03  0.50400001928E-02 0. -1.
</event>
<event>
 5   0  0.3013734E-03  0.5002015E+03  0.7818609E-02  0.1013726E+00
        1   -1    0    0  501    0  0.00000000000E+00  0.00000000000E+00  0.68625955604E+03  0.68625955606E+03  0.50400001928E-02 0. -1.
       -1   -1    0    0    0  501  0.00000000000E+00  0.00000000000E+00 -0.91146847806E+02  0.91146847945E+02  0.50400001928E-02 0.  1.
    10030    2    1    2    0    0  0.00000000000E+00  0.00000000000E+00  0.59511270823E+03  0.77740640400E+03  0.50020154087E+03 0.  0.
        2    1    3    3  502    0  0.11223293056E+03  0.97308448719E+02  0.61027328607E+03  0.62809127409E+03  0.25500000920E-02 0. -1.
       -2    1    3    3    0  502 -0.11223293056E+03 -0.97308448719E+02 -0.15160577835E+02  0.14931512991E+03  0.25500000920E-02 0.  1.
</event>
<event>
 5   0  0.2005125E-03  0.5000861E+03  0.7818609E-02  0.1013756E+00
       -3   -1    0    0    0  501  0.00000000000E+00  0.00000000000E+00  0.42395258210E+03  0.42395259413E+03  0.10100000352E+00 0.  1.
        3   -1    0    0  501    0  0.00000000000E+00  0.00000000000E+00 -0.14747291882E+03  0.14747295341E+03  0.10100000352E+00 0. -1.
    10030    2    1    2    0    0  0.00000000000E+00  0.00000000000E+00  0.27647966328E+03  0.57142554753E+03  0.50008614475E+03 0.  0.
        2    1    3    3  502    0  0.17271661903E+03 -0.14327892943E+03  0.26425162344E+03  0.34668256750E+03  0.25500000920E-02 0. -1.
       -2    1    3    3    0  502 -0.17271661903E+03  0.14327892943E+03  0.12228039838E+02  0.22474298004E+03  0.25500000920E-02 0.  1.
</event>
<event>
 5   0  0.3211775E-03  0.5001871E+03  0.7818609E-02  0.1013730E+00
        1   -1    0    0  501    0  0.00000000000E+00  0.00000000000E+00  0.71906655831E+03  0.71906655833E+03  0.50400001928E-02 0. -1.
       -1   -1    0    0    0  501  0.00000000000E+00  0.00000000000E+00 -0.86983315710E+02  0.86983315856E+02  0.50400001928E-02 0.  1.
    10030    2    1    2    0    0  0.00000000000E+00  0.00000000000E+00  0.63208324260E+03  0.80604987419E+03  0.50018713908E+03 0.  0.
        4    1    3    3  502    0  0.92595565939E+02  0.23164376990E+03  0.28755841733E+03  0.38068915304E+03  0.12699999809E+01 0.  1.
       -4    1    3    3    0  502 -0.92595565939E+02 -0.23164376990E+03  0.34452482527E+03  0.42536072115E+03  0.12699999809E+01 0. -1.
</event>
<event>
 5   0  0.3013734E-03  0.4998441E+03  0.7818609E-02  0.1013820E+00
       -1   -1    0    0    0  501  0.00000000000E+00  0.00000000000E+00  0.62078396902E+02  0.62078397106E+02  0.50400001928E-02 0.  1.
        1   -1    0    0  501    0  0.00000000000E+00  0.00000000000E+00 -0.10061637508E+04  0.10061637509E+04  0.50400001928E-02 0. -1.
    10030    2    1    2    0    0  0.00000000000E+00  0.00000000000E+00 -0.94408535394E+03  0.10682421480E+04  0.49984410685E+03 0.  0.
        2    1    3    3  502    0  0.24251404395E+03  0.14833763349E+02 -0.34691564247E+03  0.42353697011E+03  0.25500000920E-02 0.  1.
       -2    1    3    3    0  502 -0.24251404395E+03 -0.14833763349E+02 -0.59716971147E+03  0.64470517786E+03  0.25500000920E-02 0. -1.
</event>
<event>
 5   0  0.3055293E-03  0.4996792E+03  0.7818609E-02  0.1013863E+00
       -1   -1    0    0    0  501  0.00000000000E+00  0.00000000000E+00  0.19299230011E+03  0.19299230017E+03  0.50400001928E-02 0. -1.
        1   -1    0    0  501    0  0.00000000000E+00  0.00000000000E+00 -0.32343163418E+03  0.32343163422E+03  0.50400001928E-02 0.  1.
    10030    2    1    2    0    0  0.00000000000E+00  0.00000000000E+00 -0.13043933407E+03  0.51642393439E+03  0.49967915720E+03 0.  0.
        3    1    3    3  502    0  0.81861766487E+02  0.50922012989E+01 -0.30912066870E+03  0.31981694349E+03  0.10100000352E+00 0.  1.
       -3    1    3    3    0  502 -0.81861766487E+02 -0.50922012989E+01  0.17868133463E+03  0.19660699090E+03  0.10100000352E+00 0. -1.
</event>
<event>
 5   0  0.4978779E-03  0.5004953E+03  0.7818609E-02  0.1013650E+00
        2   -1    0    0  501    0  0.00000000000E+00  0.00000000000E+00  0.13671409883E+04  0.13671409883E+04  0.25500000920E-02 0. -1.
       -2   -1    0    0    0  501  0.00000000000E+00  0.00000000000E+00 -0.45806464741E+02  0.45806464812E+02  0.25500000920E-02 0.  1.
    10030    2    1    2    0    0  0.00000000000E+00  0.00000000000E+00  0.13213345236E+04  0.14129474531E+04  0.50049533676E+03 0.  0.
        1    1    3    3  502    0 -0.12355139840E+02 -0.16130016392E+03  0.11996757575E+04  0.12105338969E+04  0.50400001928E-02 0. -1.
       -1    1    3    3    0  502  0.12355139840E+02  0.16130016392E+03  0.12165876606E+03  0.20241355623E+03  0.50400001928E-02 0.  1.
</event>
<event>
 5   0  0.3057783E-03  0.5001286E+03  0.7818609E-02  0.1013745E+00
       -1   -1    0    0    0  501  0.00000000000E+00  0.00000000000E+00  0.24607293841E+03  0.24607293846E+03  0.50400001928E-02 0.  1.
        1   -1    0    0  501    0  0.00000000000E+00  0.00000000000E+00 -0.25412043757E+03  0.25412043762E+03  0.50400001928E-02 0. -1.
    10030    2    1    2    0    0  0.00000000000E+00  0.00000000000E+00 -0.80474991578E+01  0.50019337608E+03  0.50012863469E+03 0.  0.
        5    1    3    3  502    0  0.12922887514E+03  0.11598884765E+03 -0.18392632178E+03  0.25299110022E+03  0.46999998093E+01 0. -1.
       -5    1    3    3    0  502 -0.12922887514E+03 -0.11598884765E+03  0.17587882262E+03  0.24720227586E+03  0.46999998093E+01 0.  1.
</event>
<event>
 5   0  0.4989875E-03  0.5001767E+03  0.7818609E-02  0.1013733E+00
        2   -1    0    0  501    0  0.00000000000E+00  0.00000000000E+00  0.12059300295E+03  0.12059300297E+03  0.25500000920E-02 0. -1.
       -2   -1    0    0    0  501  0.00000000000E+00  0.00000000000E+00 -0.51863852860E+03  0.51863852861E+03  0.25500000920E-02 0.  1.
    10030    2    1    2    0    0  0.00000000000E+00  0.00000000000E+00 -0.39804552566E+03  0.63923153158E+03  0.50017667926E+03 0.  0.
        2    1    3    3  502    0  0.13373487783E+03  0.15271320014E+03 -0.12337531141E+02  0.20336802533E+03  0.25500000920E-02 0. -1.
       -2    1    3    3    0  502 -0.13373487783E+03 -0.15271320014E+03 -0.38570799452E+03  0.43586350625E+03  0.25500000920E-02 0.  1.
</event>
<event>
 5   0  0.3013734E-03  0.4999751E+03  0.7818609E-02  0.1013785E+00
        1   -1    0    0  501    0  0.00000000000E+00  0.00000000000E+00  0.82778512517E+03  0.82778512518E+03  0.50400001928E-02 0. -1.
       -1   -1    0    0    0  501  0.00000000000E+00  0.00000000000E+00 -0.75495177776E+02  0.75495177944E+02  0.50400001928E-02 0.  1.
    10030    2    1    2    0    0  0.00000000000E+00  0.00000000000E+00  0.75228994739E+03  0.90328030313E+03  0.49997514045E+03 0.  0.
        2    1    3    3  502    0  0.19827351090E+03  0.14734535201E+03  0.44543060371E+03  0.50934414752E+03  0.25500000920E-02 0. -1.
       -2    1    3    3    0  502 -0.19827351090E+03 -0.14734535201E+03  0.30685934368E+03  0.39393615561E+03  0.25500000920E-02 0.  1.
</event>
<event>
 5   0  0.5118882E-03  0.4998456E+03  0.7818609E-02  0.1013819E+00
       -2   -1    0    0    0  501  0.00000000000E+00  0.00000000000E+00  0.19664420023E+03  0.19664420025E+03  0.25500000920E-02 0.  1.
        2   -1    0    0  501    0  0.00000000000E+00  0.00000000000E+00 -0.31763668190E+03  0.31763668191E+03  0.25500000920E-02 0. -1.
    10030    2    1    2    0    0  0.00000000000E+00  0.00000000000E+00 -0.12099248167E+03  0.51428088216E+03  0.49984562130E+03 0.  0.
        3    1    3    3  502    0  0.20434465769E+03 -0.12574899059E+03 -0.13245790556E+03  0.27407052871E+03  0.10100000352E+00 0. -1.
       -3    1    3    3    0  502 -0.20434465769E+03  0.12574899059E+03  0.11465423884E+02  0.24021035345E+03  0.10100000352E+00 0.  1.
</event>
<event>
 5   0  0.2863538E-03  0.5000365E+03  0.7818609E-02  0.1013769E+00
        1   -1    0    0  501    0  0.00000000000E+00  0.00000000000E+00  0.42098978956E+03  0.42098978959E+03  0.50400001928E-02 0. -1.
       -1   -1    0    0    0  501  0.00000000000E+00  0.00000000000E+00 -0.14848133772E+03  0.14848133781E+03  0.50400001928E-02 0.  1.
    10030    2    1    2    0    0  0.00000000000E+00  0.00000000000E+00  0.27250845184E+03  0.56947112740E+03  0.50003650728E+03 0.  0.
        1    1    3    3  502    0 -0.36721801086E+02  0.64773888020E+00 -0.14539236921E+03  0.14995949883E+03  0.50400001928E-02 0.  1.
       -1    1    3    3    0  502  0.36721801086E+02 -0.64773888020E+00  0.41790082105E+03  0.41951162856E+03  0.50400001928E-02 0. -1.
</event>
<event>
 5   0  0.5118882E-03  0.5000215E+03  0.7818609E-02  0.1013773E+00
        2   -1    0    0  501    0  0.00000000000E+00  0.00000000000E+00  0.17801765813E+04  0.17801765813E+04  0.25500000920E-02 0.  1.
       -2   -1    0    0    0  501  0.00000000000E+00  0.00000000000E+00 -0.35111902437E+02  0.35111902530E+02  0.25500000920E-02 0. -1.
    10030    2    1    2    0    0  0.00000000000E+00  0.00000000000E+00  0.17450646789E+04  0.18152884838E+04  0.50002154566E+03 0.  0.
        3    1    3    3  502    0 -0.21237254642E+03  0.91213176209E+02  0.12185370209E+04  0.12402638524E+04  0.10100000352E+00 0.  1.
       -3    1    3    3    0  502  0.21237254642E+03 -0.91213176209E+02  0.52652765792E+03  0.57502463142E+03  0.10100000352E+00 0. -1.
</event>
<event>
 5   0  0.3055293E-03  0.4997897E+03  0.7818609E-02  0.1013834E+00
        1   -1    0    0  501    0  0.00000000000E+00  0.00000000000E+00  0.11272128871E+04  0.11272128871E+04  0.50400001928E-02 0. -1.
       -1   -1    0    0    0  501  0.00000000000E+00  0.00000000000E+00 -0.55399853207E+02  0.55399853436E+02  0.50400001928E-02 0.  1.
    10030    2    1    2    0    0  0.00000000000E+00  0.00000000000E+00  0.10718130339E+04  0.11826127405E+04  0.49978967023E+03 0.  0.
        3    1    3    3  502    0  0.19100337521E+02 -0.19661731264E+03  0.89805604197E+03  0.91952588612E+03  0.10100000352E+00 0. -1.
       -3    1    3    3    0  502 -0.19100337521E+02  0.19661731264E+03  0.17375699188E+03  0.26308685439E+03  0.10100000352E+00 0.  1.
</event>
<event>
 5   0  0.3057783E-03  0.5000863E+03  0.7818609E-02  0.1013756E+00
       -1   -1    0    0    0  501  0.00000000000E+00  0.00000000000E+00  0.69252798687E+03  0.69252798689E+03  0.50400001928E-02 0.  1.
        1   -1    0    0  501    0  0.00000000000E+00  0.00000000000E+00 -0.90280203234E+02  0.90280203375E+02  0.50400001928E-02 0. -1.
    10030    2    1    2    0    0  0.00000000000E+00  0.00000000000E+00  0.60224778364E+03  0.78280819026E+03  0.50008626241E+03 0.  0.
        5    1    3    3  502    0 -0.18462264302E+03 -0.10877888644E+03  0.50268987904E+03  0.54647742034E+03  0.46999998093E+01 0.  1.
       -5    1    3    3    0  502  0.18462264302E+03  0.10877888644E+03  0.99557904594E+02  0.23633076993E+03  0.46999998093E+01 0. -1.
</event>
<event>
 5   0  0.3055293E-03  0.4985443E+03  0.7818609E-02  0.1014160E+00
       -1   -1    0    0    0  501  0.00000000000E+00  0.00000000000E+00  0.58723823582E+02  0.58723823798E+02  0.50400001928E-02 0. -1.
        1   -1    0    0  501    0  0.00000000000E+00  0.00000000000E+00 -0.10581156015E+04  0.10581156015E+04  0.50400001928E-02 0.  1.
    10030    2    1    2    0    0  0.00000000000E+00  0.00000000000E+00 -0.99939177793E+03  0.11168394253E+04  0.49854425697E+03 0.  0.
        3    1    3    3  502    0  0.23276358212E+03 -0.80241589061E+02 -0.41238590404E+03  0.48029130934E+03  0.10100000352E+00 0. -1.
       -3    1    3    3    0  502 -0.23276358212E+03  0.80241589061E+02 -0.58700587389E+03  0.63654811598E+03  0.10100000352E+00 0.  1.
</event>
<event>
 5   0  0.4889251E-03  0.4991232E+03  0.7818609E-02  0.1014008E+00
       -2   -1    0    0    0  501  0.00000000000E+00  0.00000000000E+00  0.95784393267E+02  0.95784393301E+02  0.25500000920E-02 0.  1.
        2   -1    0    0  501    0  0.00000000000E+00  0.00000000000E+00 -0.65022069609E+03  0.65022069610E+03  0.25500000920E-02 0. -1.
    10030    2    1    2    0    0  0.00000000000E+00  0.00000000000E+00 -0.55443630283E+03  0.74600508940E+03  0.49912321076E+03 0.  0.
        5    1    3    3  502    0 -0.40838814754E+01  0.96310857796E+02 -0.62119913845E+03  0.62865166748E+03  0.46999998093E+01 0. -1.
       -5    1    3    3    0  502  0.40838814754E+01 -0.96310857796E+02  0.66762835624E+02  0.11735342192E+03  0.46999998093E+01 0.  1.
</event>
<event>
 5   0  0.4978779E-03  0.5000051E+03  0.7818609E-02  0.1013778E+00
       -2   -1    0    0    0  501  0.00000000000E+00  0.00000000000E+00  0.70452507988E+02  0.70452508034E+02  0.25500000920E-02 0. -1.
        2   -1    0    0  501    0  0.00000000000E+00  0.00000000000E+00 -0.88714064708E+03  0.88714064708E+03  0.25500000920E-02 0.  1.
    10030    2    1    2    0    0  0.00000000000E+00  0.00000000000E+00 -0.81668813909E+03  0.95759315512E+03  0.50000513417E+03 0.  0.
        1    1    3    3  502    0 -0.43235527111E+02  0.10200415287E+03 -0.83755990008E+03  0.84485545761E+03  0.50400001928E-02 0.  1.
       -1    1    3    3    0  502  0.43235527111E+02 -0.10200415287E+03  0.20871760985E+02  0.11273769751E+03  0.50400001928E-02 0. -1.
</event>
<event>
 5   0  0.4978779E-03  0.4990298E+03  0.7818609E-02  0.1014032E+00
        2   -1    0    0  501    0  0.00000000000E+00  0.00000000000E+00  0.26514018217E+03  0.26514018218E+03  0.25500000920E-02 0.  1.
       -2   -1    0    0    0  501  0.00000000000E+00  0.00000000000E+00 -0.23481042524E+03  0.23481042526E+03  0.25500000920E-02 0. -1.
    10030    2    1    2    0    0  0.00000000000E+00  0.00000000000E+00  0.30329756929E+02  0.49995060744E+03  0.49902977439E+03 0.  0.
        1    1    3    3  502    0  0.21176476089E+03 -0.12718319765E+03  0.50412168984E+02  0.25211359846E+03  0.50400001928E-02 0.  1.
       -1    1    3    3    0  502 -0.21176476089E+03  0.12718319765E+03 -0.20082412056E+02  0.24783700898E+03  0.50400001928E-02 0. -1.
</event>
<event>
 5   0  0.3013734E-03  0.4999748E+03  0.7818609E-02  0.1013785E+00
       -1   -1    0    0    0  501  0.00000000000E+00  0.00000000000E+00  0.49461864434E+02  0.49461864691E+02  0.50400001928E-02 0.  1.
        1   -1    0    0  501    0  0.00000000000E+00  0.00000000000E+00 -0.12634722870E+04  0.12634722870E+04  0.50400001928E-02 0. -1.
    10030    2    1    2    0    0  0.00000000000E+00  0.00000000000E+00 -0.12140104226E+04  0.13129341517E+04  0.49997477997E+03 0.  0.
        2    1    3    3  502    0  0.69102087276E+02 -0.14058928078E+03 -0.11185920198E+04  0.11295081014E+04  0.25500000920E-02 0. -1.
       -2    1    3    3    0  502 -0.69102087276E+02  0.14058928078E+03 -0.95418402741E+02  0.18342605029E+03  0.25500000920E-02 0.  1.
</event>
<event>
 5   0  0.2005125E-03  0.4999867E+03  0.7818609E-02  0.1013782E+00
        4   -1    0    0  501    0  0.00000000000E+00  0.00000000000E+00  0.52638144553E+03  0.52638297759E+03  0.12699999809E+01 0. -1.
       -4   -1    0    0    0  501  0.00000000000E+00  0.00000000000E+00 -0.11872375547E+03  0.11873054794E+03  0.12699999809E+01 0.  1.
    10030    2    1    2    0    0  0.00000000000E+00  0.00000000000E+00  0.40765769006E+03  0.64511352553E+03  0.49998666838E+03 0.  0.
        4    1    3    3  502    0 -0.24546466713E+03 -0.31068494243E+02  0.24993471089E+03  0.35169180649E+03  0.12699999809E+01 0. -1.
       -4    1    3    3    0  502  0.24546466713E+03  0.31068494243E+02  0.15772297917E+03  0.29342171904E+03  0.12699999809E+01 0.  1.
</event>
<event>
 5   0  0.4989875E-03  0.5000162E+03  0.7818609E-02  0.1013775E+00
       -2   -1    0    0    0  501  0.00000000000E+00  0.00000000000E+00  0.58715264262E+02  0.58715264318E+02  0.25500000920E-02 0. -1.
        2   -1    0    0  501    0  0.00000000000E+00  0.00000000000E+00 -0.10645280457E+04  0.10645280457E+04  0.25500000920E-02 0.  1.
    10030    2    1    2    0    0  0.00000000000E+00  0.00000000000E+00 -0.10058127814E+04  0.11232433100E+04  0.50001618194E+03 0.  0.
        2    1    3    3  502    0 -0.19405166309E+03 -0.15317914297E+03 -0.41933050122E+03  0.48678328550E+03  0.25500000920E-02 0. -1.
       -2    1    3    3    0  502  0.19405166309E+03  0.15317914297E+03 -0.58648228022E+03  0.63646002452E+03  0.25500000920E-02 0.  1.
</event>
<event>
 5   0  0.3057783E-03  0.4999998E+03  0.7818609E-02  0.1013779E+00
       -1   -1    0    0    0  501  0.00000000000E+00  0.00000000000E+00  0.16399397655E+03  0.16399397663E+03  0.50400001928E-02 0. -1.
        1   -1    0    0  501    0  0.00000000000E+00  0.00000000000E+00 -0.38111128172E+03  0.38111128175E+03  0.50400001928E-02 0.  1.
    10030    2    1    2    0    0  0.00000000000E+00  0.00000000000E+00 -0.21711730517E+03  0.54510525838E+03  0.49999981851E+03 0.  0.
        5    1    3    3  502    0 -0.43650641404E+02  0.19672054188E+03 -0.26979754616E+03  0.33677463682E+03  0.46999998093E+01 0.  1.
       -5    1    3    3    0  502  0.43650641404E+02 -0.19672054188E+03  0.52680240990E+02  0.20833062156E+03  0.46999998093E+01 0. -1.
</event>
<event>
 5   0  0.3211775E-03  0.5008826E+03  0.7818609E-02  0.1013549E+00
        1   -1    0    0  501    0  0.00000000000E+00  0.00000000000E+00  0.82482666637E+03  0.82482666638E+03  0.50400001928E-02 0.  1.
       -1   -1    0    0    0  501  0.00000000000E+00  0.00000000000E+00 -0.76041230412E+02  0.76041230579E+02  0.50400001928E-02 0. -1.
    10030    2    1    2    0    0  0.00000000000E+00  0.00000000000E+00  0.74878543595E+03  0.90086789696E+03  0.50088255977E+03 0.  0.
        4    1    3    3  502    0  0.22561940250E+03  0.91915498078E+02  0.27003512127E+03  0.36369376292E+03  0.12699999809E+01 0. -1.
       -4    1    3    3    0  502 -0.22561940250E+03 -0.91915498078E+02  0.47875031468E+03  0.53717413404E+03  0.12699999809E+01 0.  1.
</event>
<event>
 5   0  0.3055293E-03  0.5026965E+03  0.7818609E-02  0.1013077E+00
       -1   -1    0    0    0  501  0.00000000000E+00  0.00000000000E+00  0.54800953497E+02  0.54800953729E+02  0.50400001928E-02 0. -1.
        1   -1    0    0  501    0  0.00000000000E+00  0.00000000000E+00 -0.11528256441E+04  0.11528256441E+04  0.50400001928E-02 0.  1.
    10030    2    1    2    0    0  0.00000000000E+00  0.00000000000E+00 -0.10980246906E+04  0.12076265978E+04  0.50269650748E+03 0.  0.
        3    1    3    3  502    0 -0.90092359218E+02 -0.23155538104E+03 -0.64021764652E+03  0.68674097941E+03  0.10100000352E+00 0. -1.
       -3    1    3    3    0  502  0.90092359218E+02  0.23155538104E+03 -0.45780704407E+03  0.52088561843E+03  0.10100000352E+00 0.  1.
</event>
<event>
 5   0  0.3055293E-03  0.5000190E+03  0.7818609E-02  0.1013774E+00
       -1   -1    0    0    0  501  0.00000000000E+00  0.00000000000E+00  0.87092410320E+02  0.87092410466E+02  0.50400001928E-02 0.  1.
        1   -1    0    0  501    0  0.00000000000E+00  0.00000000000E+00 -0.71768321364E+03  0.71768321366E+03  0.50400001928E-02 0. -1.
    10030    2    1    2    0    0  0.00000000000E+00  0.00000000000E+00 -0.63059080332E+03  0.80477562413E+03  0.50001904359E+03 0.  0.
        3    1    3    3  502    0  0.15023661154E+03 -0.15871706631E+03 -0.51071826466E+03  0.55551354857E+03  0.10100000352E+00 0. -1.
       -3    1    3    3    0  502 -0.15023661154E+03  0.15871706631E+03 -0.11987253866E+03  0.24926207556E+03  0.10100000352E+00 0.  1.
</event>
<event>
 5   0  0.4989875E-03  0.4998656E+03  0.7818609E-02  0.1013814E+00
       -2   -1    0    0    0  501  0.00000000000E+00  0.00000000000E+00  0.81838558252E+02  0.81838558292E+02  0.25500000920E-02 0.  1.
        2   -1    0    0  501    0  0.00000000000E+00  0.00000000000E+00 -0.76328825700E+03  0.76328825701E+03  0.25500000920E-02 0. -1.
    10030    2    1    2    0    0  0.00000000000E+00  0.00000000000E+00 -0.68144969875E+03  0.84512681530E+03  0.49986562395E+03 0.  0.
        2    1    3    3  502    0  0.22888834879E+03 -0.78017464857E+02 -0.44751831705E+03  0.50867400674E+03  0.25500000920E-02 0. -1.
       -2    1    3    3    0  502 -0.22888834879E+03  0.78017464857E+02 -0.23393138170E+03  0.33645280856E+03  0.25500000920E-02 0.  1.
</event>
<event>
 5   0  0.4989875E-03  0.5000139E+03  0.7818609E-02  0.1013775E+00
        2   -1    0    0  501    0  0.00000000000E+00  0.00000000000E+00  0.13226743744E+04  0.13226743744E+04  0.25500000920E-02 0.  1.
       -2   -1    0    0    0  501  0.00000000000E+00  0.00000000000E+00 -0.47255370924E+02  0.47255370992E+02  0.25500000920E-02 0. -1.
    10030    2    1    2    0    0  0.00000000000E+00  0.00000000000E+00  0.12754190034E+04  0.13699297454E+04  0.50001387269E+03 0.  0.
        2    1    3    3  502    0  0.10888338614E+03  0.22466023013E+03  0.67402144651E+03  0.71877167525E+03  0.25500000920E-02 0.  1.
       -2    1    3    3    0  502 -0.10888338614E+03 -0.22466023013E+03  0.60139755693E+03  0.65115807011E+03  0.25500000920E-02 0. -1.
</event>
<event>
 5   0  0.3211775E-03  0.5000771E+03  0.7818609E-02  0.1013759E+00
       -1   -1    0    0    0  501  0.00000000000E+00  0.00000000000E+00  0.10566821470E+03  0.10566821482E+03  0.50400001928E-02 0. -1.
        1   -1    0    0  501    0  0.00000000000E+00  0.00000000000E+00 -0.59165632578E+03  0.59165632580E+03  0.50400001928E-02 0.  1.
    10030    2    1    2    0    0  0.00000000000E+00  0.00000000000E+00 -0.48598811107E+03  0.69732454062E+03  0.50007706491E+03 0.  0.
        4    1    3    3  502    0  0.17688027388E+03  0.88326278170E+02 -0.45643584321E+03  0.49741678155E+03  0.12699999809E+01 0.  1.
       -4    1    3    3    0  502 -0.17688027388E+03 -0.88326278170E+02 -0.29552267867E+02  0.19990775908E+03  0.12699999809E+01 0. -1.
</event>
<event>
 5   0  0.2863538E-03  0.4998883E+03  0.7818609E-02  0.1013808E+00
       -1   -1    0    0    0  501  0.00000000000E+00  0.00000000000E+00  0.30161387583E+03  0.30161387587E+03  0.50400001928E-02 0. -1.
        1   -1    0    0  501    0  0.00000000000E+00  0.00000000000E+00 -0.20712603497E+03  0.20712603503E+03  0.50400001928E-02 0.  1.
    10030    2    1    2    0    0  0.00000000000E+00  0.00000000000E+00  0.94487840859E+02  0.50873991091E+03  0.49988833241E+03 0.  0.
        1    1    3    3  502    0  0.11372350416E+03  0.16293983983E+02  0.27315096092E+03  0.29632748234E+03  0.50400001928E-02 0. -1.
       -1    1    3    3    0  502 -0.11372350416E+03 -0.16293983983E+02 -0.17866312007E+03  0.21241242856E+03  0.50400001928E-02 0.  1.
</event>
<event>
 5   0  0.2005125E-03  0.4999879E+03  0.7818609E-02  0.1013782E+00
       -3   -1    0    0    0  501  0.00000000000E+00  0.00000000000E+00  0.72836462490E+03  0.72836463190E+03  0.10100000352E+00 0. -1.
        3   -1    0    0  501    0  0.00000000000E+00  0.00000000000E+00 -0.85804494742E+02  0.85804554185E+02  0.10100000352E+00 0.  1.
    10030    2    1    2    0    0  0.00000000000E+00  0.00000000000E+00  0.64256013016E+03  0.81416918608E+03  0.49998794256E+03 0.  0.
        5    1    3    3  502    0  0.23342120964E+03 -0.85825826759E+02  0.36193612640E+03  0.43917124592E+03  0.46999998093E+01 0. -1.
       -5    1    3    3    0  502 -0.23342120964E+03  0.85825826759E+02  0.28062400375E+03  0.37499794017E+03  0.46999998093E+01 0.  1.
</event>
<event>
 5   0  0.2863538E-03  0.5001839E+03  0.7818609E-02  0.1013731E+00
        1   -1    0    0  501    0  0.00000000000E+00  0.00000000000E+00  0.16730521480E+03  0.16730521488E+03  0.50400001928E-02 0.  1.
       -1   -1    0    0    0  501  0.00000000000E+00  0.00000000000E+00 -0.37384357266E+03  0.37384357269E+03  0.50400001928E-02 0. -1.
    10030    2    1    2    0    0  0.00000000000E+00  0.00000000000E+00 -0.20653835785E+03  0.54114878757E+03  0.50018388321E+03 0.  0.
        1    1    3    3  502    0 -0.13001583467E+03  0.11408376538E+03 -0.29869140063E+03  0.34516050704E+03  0.50400001928E-02 0. -1.
       -1    1    3    3    0  502  0.13001583467E+03 -0.11408376538E+03  0.92153042772E+02  0.19598828053E+03  0.50400001928E-02 0.  1.
</event>
<event>
 5   0  0.2005125E-03  0.4999553E+03  0.7818609E-02  0.1013791E+00
       -3   -1    0    0    0  501  0.00000000000E+00  0.00000000000E+00  0.45111884599E+03  0.45111885729E+03  0.10100000352E+00 0. -1.
        3   -1    0    0  501    0  0.00000000000E+00  0.00000000000E+00 -0.13851963731E+03  0.13851967413E+03  0.10100000352E+00 0.  1.
    10030    2    1    2    0    0  0.00000000000E+00  0.00000000000E+00  0.31259920868E+03  0.58963853142E+03  0.49995533047E+03 0.  0.
        1    1    3    3  502    0 -0.40751339914E+02  0.10592197462E+03  0.41898356838E+03  0.43408221227E+03  0.50400001928E-02 0. -1.
       -1    1    3    3    0  502  0.40751339914E+02 -0.10592197462E+03 -0.10638435970E+03  0.15555631915E+03  0.50400001928E-02 0.  1.
</event>
<event>
 5   0  0.2005125E-03  0.5000806E+03  0.7818609E-02  0.1013758E+00
        3   -1    0    0  501    0  0.00000000000E+00  0.00000000000E+00  0.92175825793E+02  0.92175881127E+02  0.10100000352E+00 0. -1.
       -3   -1    0    0    0  501  0.00000000000E+00  0.00000000000E+00 -0.67827044557E+03  0.67827045309E+03  0.10100000352E+00 0.  1.
    10030    2    1    2    0    0  0.00000000000E+00  0.00000000000E+00 -0.58609461978E+03  0.77044633422E+03  0.50008064407E+03 0.  0.
        2    1    3    3  502    0 -0.87298092729E+01  0.13436700458E+03  0.31548032932E+02  0.13829670957E+03  0.25500000920E-02 0. -1.
       -2    1    3    3    0  502  0.87298092729E+01 -0.13436700458E+03 -0.61764265271E+03  0.63214962465E+03  0.25500000920E-02 0.  1.
</event>
<event>
 5   0  0.3057783E-03  0.5001779E+03  0.7818609E-02  0.1013732E+00
       -1   -1    0    0    0  501  0.00000000000E+00  0.00000000000E+00  0.10660664676E+03  0.10660664688E+03  0.50400001928E-02 0. -1.
        1   -1    0    0  501    0  0.00000000000E+00  0.00000000000E+00 -0.58668460472E+03  0.58668460474E+03  0.50400001928E-02 0.  1.
    10030    2    1    2    0    0  0.00000000000E+00  0.00000000000E+00 -0.48007795796E+03  0.69329125162E+03  0.50017788222E+03 0.  0.
        5    1    3    3  502    0  0.52851898755E+02  0.18546184960E+03 -0.19424368603E+02  0.19387835607E+03  0.46999998093E+01 0.  1.
       -5    1    3    3    0  502 -0.52851898755E+02 -0.18546184960E+03 -0.46065358936E+03  0.49941289555E+03  0.46999998093E+01 0. -1.
</event>
<event>
 5   0  0.4978779E-03  0.4998752E+03  0.7818609E-02  0.1013812E+00
       -2   -1    0    0    0  501  0.00000000000E+00  0.00000000000E+00  0.20023574855E+03  0.20023574856E+03  0.25500000920E-02 0.  1.
        2   -1    0    0  501    0  0.00000000000E+00  0.00000000000E+00 -0.31197624547E+03  0.31197624548E+03  0.25500000920E-02 0. -1.
    10030    2    1    2    0    0  0.00000000000E+00  0.00000000000E+00 -0.11174049693E+03  0.51221199405E+03  0.49987517261E+03 0.  0.
        1    1    3    3  502    0  0.78942161281E+02 -0.96902380844E+01  0.18692272066E+03  0.20314002330E+03  0.50400001928E-02 0.  1.
       -1    1    3    3    0  502 -0.78942161281E+02  0.96902380844E+01 -0.29866321758E+03  0.30907197075E+03  0.50400001928E-02 0. -1.
</event>
<event>
 5   0  0.5118882E-03  0.5005352E+03  0.7818609E-02  0.1013639E+00
       -2   -1    0    0    0  501  0.00000000000E+00  0.00000000000E+00  0.87447215815E+02  0.87447215853E+02  0.25500000920E-02 0.  1.
        2   -1    0    0  501    0  0.00000000000E+00  0.00000000000E+00 -0.71624767585E+03  0.71624767585E+03  0.25500000920E-02 0. -1.
    10030    2    1    2    0    0  0.00000000000E+00  0.00000000000E+00 -0.62880046003E+03  0.80369489170E+03  0.50053517400E+03 0.  0.
        3    1    3    3  502    0 -0.30584912704E+02  0.18989999416E+03 -0.57149024659E+03  0.60299134058E+03  0.10100000352E+00 0. -1.
       -3    1    3    3    0  502  0.30584912704E+02 -0.18989999416E+03 -0.57310213445E+02  0.20070355113E+03  0.10100000352E+00 0.  1.
</event>
<event>
 5   0  0.4978779E-03  0.5000240E+03  0.7818609E-02  0.1013773E+00
       -2   -1    0    0    0  501  0.00000000000E+00  0.00000000000E+00  0.14084593194E+03  0.14084593196E+03  0.25500000920E-02 0. -1.
        2   -1    0    0  501    0  0.00000000000E+00  0.00000000000E+00 -0.44378981698E+03  0.44378981698E+03  0.25500000920E-02 0.  1.
    10030    2    1    2    0    0  0.00000000000E+00  0.00000000000E+00 -0.30294388504E+03  0.58463574895E+03  0.50002396089E+03 0.  0.
        1    1    3    3  502    0 -0.92396352353E+02  0.49378494591E+02  0.11394426593E+03  0.15478571452E+03  0.50400001928E-02 0. -1.
       -1    1    3    3    0  502  0.92396352353E+02 -0.49378494591E+02 -0.41688815096E+03  0.42985003443E+03  0.50400001928E-02 0.  1.
</event>
<event>
 5   0  0.2005125E-03  0.5000273E+03  0.7818609E-02  0.1013772E+00
       -3   -1    0    0    0  501  0.00000000000E+00  0.00000000000E+00  0.33437619290E+03  0.33437620816E+03  0.10100000352E+00 0. -1.
        3   -1    0    0  501    0  0.00000000000E+00  0.00000000000E+00 -0.18693560170E+03  0.18693562898E+03  0.10100000352E+00 0.  1.
    10030    2    1    2    0    0  0.00000000000E+00  0.00000000000E+00  0.14744059121E+03  0.52131183714E+03  0.50002730286E+03 0.  0.
        1    1    3    3  502    0  0.15351489441E+03  0.14375976971E+03  0.21465253719E+03  0.30051523413E+03  0.50400001928E-02 0. -1.
       -1    1    3    3    0  502 -0.15351489441E+03 -0.14375976971E+03 -0.67211945983E+02  0.22079660301E+03  0.50400001928E-02 0.  1.
</event>
<event>
 5   0  0.5118882E-03  0.4998429E+03  0.7818609E-02  0.1013820E+00
       -2   -1    0    0    0  501  0.00000000000E+00  0.00000000000E+00  0.64623376921E+03  0.64623376921E+03  0.25500000920E-02 0.  1.
        2   -1    0    0  501    0  0.00000000000E+00  0.00000000000E+00 -0.96653450068E+02  0.96653450102E+02  0.25500000920E-02 0. -1.
    10030    2    1    2    0    0  0.00000000000E+00  0.00000000000E+00  0.54958031914E+03  0.74288721931E+03  0.49984286874E+03 0.  0.
        3    1    3    3  502    0  0.56104116905E+02  0.19471706148E+03  0.57380370185E+02  0.21060608503E+03  0.10100000352E+00 0.  1.
       -3    1    3    3    0  502 -0.56104116905E+02 -0.19471706148E+03  0.49219994895E+03  0.53228113429E+03  0.10100000352E+00 0. -1.
</event>
<event>
 5   0  0.4889251E-03  0.4998548E+03  0.7818609E-02  0.1013817E+00
       -2   -1    0    0    0  501  0.00000000000E+00  0.00000000000E+00  0.70971476470E+02  0.70971476516E+02  0.25500000920E-02 0.  1.
        2   -1    0    0  501    0  0.00000000000E+00  0.00000000000E+00 -0.88012408742E+03  0.88012408742E+03  0.25500000920E-02 0. -1.
    10030    2    1    2    0    0  0.00000000000E+00  0.00000000000E+00 -0.80915261095E+03  0.95109556394E+03  0.49985480286E+03 0.  0.
        5    1    3    3  502    0 -0.82030614791E+02  0.13183586425E+03 -0.77710562143E+03  0.79248025447E+03  0.46999998093E+01 0. -1.
       -5    1    3    3    0  502  0.82030614791E+02 -0.13183586425E+03 -0.32046989522E+02  0.15861530948E+03  0.46999998093E+01 0.  1.
</event>
<event>
 5   0  0.2005125E-03  0.4994335E+03  0.7818609E-02  0.1013927E+00
        4   -1    0    0  501    0  0.00000000000E+00  0.00000000000E+00  0.13425978671E+03  0.13426579322E+03  0.12699999809E+01 0.  1.
       -4   -1    0    0    0  501  0.00000000000E+00  0.00000000000E+00 -0.46444386054E+03  0.46444559692E+03  0.12699999809E+01 0. -1.
    10030    2    1    2    0    0  0.00000000000E+00  0.00000000000E+00 -0.33018407383E+03  0.59871139013E+03  0.49943348512E+03 0.  0.
        4    1    3    3  502    0 -0.11035377628E+03  0.22381700185E+03 -0.17613334770E+03  0.30544488100E+03  0.12699999809E+01 0.  1.
       -4    1    3    3    0  502  0.11035377628E+03 -0.22381700185E+03 -0.15405072613E+03  0.29326650913E+03  0.12699999809E+01 0. -1.
</event>
<event>
 5   0  0.2863538E-03  0.4999070E+03  0.7818609E-02  0.1013803E+00
       -1   -1    0    0    0  501  0.00000000000E+00  0.00000000000E+00  0.10125039004E+03  0.10125039016E+03  0.50400001928E-02 0.  1.
        1   -1    0    0  501    0  0.00000000000E+00  0.00000000000E+00 -0.61705188464E+03  0.61705188466E+03  0.50400001928E-02 0. -1.
    10030    2    1    2    0    0  0.00000000000E+00  0.00000000000E+00 -0.51580149461E+03  0.71830227482E+03  0.49990696753E+03 0.  0.
        1    1    3    3  502    0  0.15324960828E+03 -0.12774751358E+03 -0.41548323472E+02  0.20379188618E+03  0.50400001928E-02 0.  1.
       -1    1    3    3    0  502 -0.15324960828E+03  0.12774751358E+03 -0.47425317113E+03  0.51451038864E+03  0.50400001928E-02 0. -1.
</event>
<event>
 5   0  0.4978779E-03  0.4999230E+03  0.7818609E-02  0.1013799E+00
        2   -1    0    0  501    0  0.00000000000E+00  0.00000000000E+00  0.14707920577E+03  0.14707920580E+03  0.25500000920E-02 0. -1.
       -2   -1    0    0    0  501  0.00000000000E+00  0.00000000000E+00 -0.42481019840E+03  0.42481019840E+03  0.25500000920E-02 0.  1.
    10030    2    1    2    0    0  0.00000000000E+00  0.00000000000E+00 -0.27773099262E+03  0.57188940420E+03  0.49992298044E+03 0.  0.
        1    1    3    3  502    0  0.17225267072E+03 -0.88130513092E+02 -0.31989534544E+03  0.37385960194E+03  0.50400001928E-02 0.  1.
       -1    1    3    3    0  502 -0.17225267072E+03  0.88130513092E+02  0.42164352816E+02  0.19802980226E+03  0.50400001928E-02 0. -1.
</event>
<event>
 5   0  0.3055293E-03  0.4995298E+03  0.7818609E-02  0.1013902E+00
        1   -1    0    0  501    0  0.00000000000E+00  0.00000000000E+00  0.11157219229E+03  0.11157219240E+03  0.50400001928E-02 0. -1.
       -1   -1    0    0    0  501  0.00000000000E+00  0.00000000000E+00 -0.55912227975E+03  0.55912227978E+03  0.50400001928E-02 0.  1.
    10030    2    1    2    0    0  0.00000000000E+00  0.00000000000E+00 -0.44755008747E+03  0.67069447217E+03  0.49952977310E+03 0.  0.
        3    1    3    3  502    0 -0.16066683636E+02  0.79862992787E+02  0.93233660598E+02  0.12380937610E+03  0.10100000352E+00 0. -1.
       -3    1    3    3    0  502  0.16066683636E+02 -0.79862992787E+02 -0.54078374807E+03  0.54688509608E+03  0.10100000352E+00 0.  1.
</event>
<event>
 5   0  0.2005125E-03  0.4999555E+03  0.7818609E-02  0.1013791E+00
       -3   -1    0    0    0  501  0.00000000000E+00  0.00000000000E+00  0.16458267300E+03  0.16458270399E+03  0.10100000352E+00 0.  1.
        3   -1    0    0  501    0  0.00000000000E+00  0.00000000000E+00 -0.37968067890E+03  0.37968069234E+03  0.10100000352E+00 0. -1.
    10030    2    1    2    0    0  0.00000000000E+00  0.00000000000E+00 -0.21509800591E+03  0.54426339633E+03  0.49995549045E+03 0.  0.
        5    1    3    3  502    0 -0.45887164853E+02 -0.87822644452E+02 -0.35733615889E+03  0.37084992817E+03  0.46999998093E+01 0. -1.
       -5    1    3    3    0  502  0.45887164853E+02  0.87822644452E+02  0.14223815298E+03  0.17341346816E+03  0.46999998093E+01 0.  1.
</event>
<event>
 5   0  0.3013734E-03  0.4999595E+03  0.7818609E-02  0.1013789E+00
        1   -1    0    0  501    0  0.00000000000E+00  0.00000000000E+00  0.47124470507E+03  0.47124470510E+03  0.50400001928E-02 0.  1.
       -1   -1    0    0    0  501  0.00000000000E+00  0.00000000000E+00 -0.13260599522E+03  0.13260599531E+03  0.50400001928E-02 0. -1.
    10030    2    1    2    0    0  0.00000000000E+00  0.00000000000E+00  0.33863870985E+03  0.60385070041E+03  0.49995949093E+03 0.  0.
        2    1    3    3  502    0 -0.20715029724E+03  0.12269485906E+03  0.25056214079E+03  0.34748620187E+03  0.25500000920E-02 0. -1.
       -2    1    3    3    0  502  0.20715029724E+03 -0.12269485906E+03  0.88076569067E+02  0.25636449854E+03  0.25500000920E-02 0.  1.
</event>
<event>
 5   0  0.3211775E-03  0.4998812E+03  0.7818609E-02  0.1013810E+00
        1   -1    0    0  501    0  0.00000000000E+00  0.00000000000E+00  0.68293255700E+03  0.68293255702E+03  0.50400001928E-02 0.  1.
       -1   -1    0    0    0  501  0.00000000000E+00  0.00000000000E+00 -0.91473609321E+02  0.91473609460E+02  0.50400001928E-02 0. -1.
    10030    2    1    2    0    0  0.00000000000E+00  0.00000000000E+00  0.59145894768E+03  0.77440616648E+03  0.49988120978E+03 0.  0.
        4    1    3    3  502    0 -0.14776373439E+03 -0.10348404775E+03  0.27736384052E+02  0.18252120216E+03  0.12699999809E+01 0. -1.
       -4    1    3    3    0  502  0.14776373439E+03  0.10348404775E+03  0.56372256363E+03  0.59188496431E+03  0.12699999809E+01 0.  1.
</event>
<event>
 5   0  0.5095783E-03  0.4999972E+03  0.7818609E-02  0.1013780E+00
       -2   -1    0    0    0  501  0.00000000000E+00  0.00000000000E+00  0.43822650628E+02  0.43822650702E+02  0.25500000920E-02 0. -1.
        2   -1    0    0  501    0  0.00000000000E+00  0.00000000000E+00 -0.14261870939E+04  0.14261870939E+04  0.25500000920E-02 0.  1.
    10030    2    1    2    0    0  0.00000000000E+00  0.00000000000E+00 -0.13823644433E+04  0.14700097446E+04  0.49999719520E+03 0.  0.
        4    1    3    3  502    0 -0.23590694603E+02  0.20321861830E+03 -0.11136006145E+04  0.11322377264E+04  0.12699999809E+01 0.  1.
       -4    1    3    3    0  502  0.23590694603E+02 -0.20321861830E+03 -0.26876382881E+03  0.33777201819E+03  0.12699999809E+01 0. -1.
</event>
<event>
 5   0  0.3057783E-03  0.4999844E+03  0.7818609E-02  0.1013783E+00
       -1   -1    0    0    0  501  0.00000000000E+00  0.00000000000E+00  0.84032170055E+02  0.84032170206E+02  0.50400001928E-02 0. -1.
        1   -1    0    0  501    0  0.00000000000E+00  0.00000000000E+00 -0.74371637559E+03  0.74371637560E+03  0.50400001928E-02 0.  1.
    10030    2    1    2    0    0  0.00000000000E+00  0.00000000000E+00 -0.65968420553E+03  0.82774854581E+03  0.49998440382E+03 0.  0.
        5    1    3    3  502    0  0.11704472449E+03  0.23545269402E+02 -0.69338554040E+03  0.70360460834E+03  0.46999998093E+01 0.  1.
       -5    1    3    3    0  502 -0.11704472449E+03 -0.23545269402E+02  0.33701334865E+02  0.12414393747E+03  0.46999998093E+01 0. -1.
</event>
<event>
 5   0  0.2005125E-03  0.4999121E+03  0.7818609E-02  0.1013802E+00
       -3   -1    0    0    0  501  0.00000000000E+00  0.00000000000E+00  0.27168729412E+03  0.27168731289E+03  0.10100000352E+00 0.  1.
        3   -1    0    0  501    0  0.00000000000E+00  0.00000000000E+00 -0.22996293472E+03  0.22996295690E+03  0.10100000352E+00 0. -1.
    10030    2    1    2    0    0  0.00000000000E+00  0.00000000000E+00  0.41724359395E+02  0.50165026979E+03  0.49991206328E+03 0.  0.
        5    1    3    3  502    0  0.19989461349E+03  0.92214575059E+02  0.13957204168E+03  0.26069873258E+03  0.46999998093E+01 0.  1.
       -5    1    3    3    0  502 -0.19989461349E+03 -0.92214575059E+02 -0.97847682286E+02  0.24095153720E+03  0.46999998093E+01 0. -1.
</event>
<event>
 5   0  0.3055293E-03  0.4996956E+03  0.7818609E-02  0.1013858E+00
       -1   -1    0    0    0  501  0.00000000000E+00  0.00000000000E+00  0.42212868304E+03  0.42212868307E+03  0.50400001928E-02 0.  1.
        1   -1    0    0  501    0  0.00000000000E+00  0.00000000000E+00 -0.14787891151E+03  0.14787891160E+03  0.50400001928E-02 0. -1.
    10030    2    1    2    0    0  0.00000000000E+00  0.00000000000E+00  0.27424977153E+03  0.57000759467E+03  0.49969562816E+03 0.  0.
        3    1    3    3  502    0  0.15742768024E+03 -0.14355406290E+03 -0.11748320412E+02  0.21337590472E+03  0.10100000352E+00 0. -1.
       -3    1    3    3    0  502 -0.15742768024E+03  0.14355406290E+03  0.28599809194E+03  0.35663168995E+03  0.10100000352E+00 0.  1.
</event>
<event>
 5   0  0.3057783E-03  0.5001377E+03  0.7818609E-02  0.1013743E+00
        1   -1    0    0  501    0  0.00000000000E+00  0.00000000000E+00  0.43884840550E+03  0.43884840553E+03  0.50400001928E-02 0. -1.
       -1   -1    0    0    0  501  0.00000000000E+00  0.00000000000E+00 -0.14249664490E+03  0.14249664499E+03  0.50400001928E-02 0.  1.
    10030    2    1    2    0    0  0.00000000000E+00  0.00000000000E+00  0.29635176060E+03  0.58134505052E+03  0.50013768279E+03 0.  0.
        5    1    3    3  502    0  0.10440942760E+03 -0.12145607441E+03  0.37133708767E+03  0.40443321978E+03  0.46999998093E+01 0. -1.
       -5    1    3    3    0  502 -0.10440942760E+03  0.12145607441E+03 -0.74985327071E+02  0.17691183074E+03  0.46999998093E+01 0.  1.
</event>
<event>
 5   0  0.4889251E-03  0.5002637E+03  0.7818609E-02  0.1013710E+00
       -2   -1    0    0    0  501  0.00000000000E+00  0.00000000000E+00  0.64844098673E+02  0.64844098724E+02  0.25500000920E-02 0.  1.
        2   -1    0    0  501    0  0.00000000000E+00  0.00000000000E+00 -0.96486713602E+03  0.96486713602E+03  0.25500000920E-02 0. -1.
    10030    2    1    2    0    0  0.00000000000E+00  0.00000000000E+00 -0.90002303734E+03  0.10297112347E+04  0.50026368968E+03 0.  0.
        5    1    3    3  502    0 -0.85002782889E+02 -0.88072992446E+02 -0.89890609024E+03  0.90721363205E+03  0.46999998093E+01 0. -1.
       -5    1    3    3    0  502  0.85002782889E+02  0.88072992446E+02 -0.11169470993E+01  0.12249760270E+03  0.46999998093E+01 0.  1.
</event>
<event>
 5   0  0.4978779E-03  0.5000921E+03  0.7818609E-02  0.1013755E+00
       -2   -1    0    0    0  501  0.00000000000E+00  0.00000000000E+00  0.53082558544E+02  0.53082558605E+02  0.25500000920E-02 0.  1.
        2   -1    0    0  501    0  0.00000000000E+00  0.00000000000E+00 -0.11778451043E+04  0.11778451043E+04  0.25500000920E-02 0. -1.
    10030    2    1    2    0    0  0.00000000000E+00  0.00000000000E+00 -0.11247625458E+04  0.12309276629E+04  0.50009211850E+03 0.  0.
        1    1    3    3  502    0 -0.62324461418E+02 -0.17375202531E+03 -0.14722130793E+03  0.23611060613E+03  0.50400001928E-02 0.  1.
       -1    1    3    3    0  502  0.62324461418E+02  0.17375202531E+03 -0.97754123786E+03  0.99481705681E+03  0.50400001928E-02 0. -1.
</event>
<event>
 5   0  0.3013734E-03  0.5000034E+03  0.7818609E-02  0.1013778E+00
       -1   -1    0    0    0  501  0.00000000000E+00  0.00000000000E+00  0.15035915662E+03  0.15035915671E+03  0.50400001928E-02 0. -1.
        1   -1    0    0  501    0  0.00000000000E+00  0.00000000000E+00 -0.41567707306E+03  0.41567707309E+03  0.50400001928E-02 0.  1.
    10030    2    1    2    0    0  0.00000000000E+00  0.00000000000E+00 -0.26531791644E+03  0.56603622980E+03  0.50000341665E+03 0.  0.
        2    1    3    3  502    0  0.81808731267E+02  0.10795938532E+03  0.10521733023E+03  0.17151846541E+03  0.25500000920E-02 0. -1.
       -2    1    3    3    0  502 -0.81808731267E+02 -0.10795938532E+03 -0.37053524667E+03  0.39451776439E+03  0.25500000920E-02 0.  1.
</event>
<event>
 5   0  0.2005125E-03  0.4999413E+03  0.7818609E-02  0.1013794E+00
        4   -1    0    0  501    0  0.00000000000E+00  0.00000000000E+00  0.11724658627E+04  0.11724665505E+04  0.12699999809E+01 0. -1.
       -4   -1    0    0    0  501  0.00000000000E+00  0.00000000000E+00 -0.53285677653E+02  0.53300809965E+02  0.12699999809E+01 0.  1.
    10030    2    1    2    0    0  0.00000000000E+00  0.00000000000E+00  0.11191801850E+04  0.12257673605E+04  0.49994133199E+03 0.  0.
        2    1    3    3  502    0  0.20509594607E+03 -0.10566238407E+03  0.32369919789E+03  0.39750478894E+03  0.25500000920E-02 0.  1.
       -2    1    3    3    0  502 -0.20509594607E+03  0.10566238407E+03  0.79548098714E+03  0.82826257154E+03  0.25500000920E-02 0. -1.
</event>
<event>
 5   0  0.4978779E-03  0.5000506E+03  0.7818609E-02  0.1013766E+00
       -2   -1    0    0    0  501  0.00000000000E+00  0.00000000000E+00  0.30581568633E+02  0.30581568739E+02  0.25500000920E-02 0. -1.
        2   -1    0    0  501    0  0.00000000000E+00  0.00000000000E+00 -0.20441281243E+04  0.20441281243E+04  0.25500000920E-02 0.  1.
    10030    2    1    2    0    0  0.00000000000E+00  0.00000000000E+00 -0.20135465556E+04  0.20747096930E+04  0.50005057600E+03 0.  0.
        1    1    3    3  502    0  0.98703491449E+02 -0.73149827803E+02 -0.10328757349E+03  0.16050420366E+03  0.50400001928E-02 0. -1.
       -1    1    3    3    0  502 -0.98703491449E+02  0.73149827803E+02 -0.19102589822E+04  0.19142054893E+04  0.50400001928E-02 0.  1.
</event>
<event>
 5   0  0.2005125E-03  0.4980684E+03  0.7818609E-02  0.1014284E+00
        3   -1    0    0  501    0  0.00000000000E+00  0.00000000000E+00  0.21449023974E+02  0.21449261769E+02  0.10100000352E+00 0.  1.
       -3   -1    0    0    0  501  0.00000000000E+00  0.00000000000E+00 -0.28913983135E+04  0.28913983152E+04  0.10100000352E+00 0. -1.
    10030    2    1    2    0    0  0.00000000000E+00  0.00000000000E+00 -0.28699492895E+04  0.29128475770E+04  0.49806835130E+03 0.  0.
        2    1    3    3  502    0  0.72908914359E+02 -0.11360629083E+03 -0.26588738357E+04  0.26622982878E+04  0.25500000920E-02 0. -1.
       -2    1    3    3    0  502 -0.72908914359E+02  0.11360629083E+03 -0.21107545377E+03  0.25054928916E+03  0.25500000920E-02 0.  1.
</event>
<event>
 5   0  0.4978779E-03  0.5000409E+03  0.7818609E-02  0.1013768E+00
        2   -1    0    0  501    0  0.00000000000E+00  0.00000000000E+00  0.11526622570E+03  0.11526622573E+03  0.25500000920E-02 0. -1.
       -2   -1    0    0    0  501  0.00000000000E+00  0.00000000000E+00 -0.54231165829E+03  0.54231165830E+03  0.25500000920E-02 0.  1.
    10030    2    1    2    0    0  0.00000000000E+00  0.00000000000E+00 -0.42704543260E+03  0.65757788402E+03  0.50004087039E+03 0.  0.
        1    1    3    3  502    0 -0.11215773573E+02  0.99725439984E+02 -0.51466377816E+03  0.52435652139E+03  0.50400001928E-02 0.  1.
       -1    1    3    3    0  502  0.11215773573E+02 -0.99725439984E+02  0.87618345560E+02  0.13322136263E+03  0.50400001928E-02 0. -1.
</event>
<event>
 5   0  0.5118882E-03  0.5000207E+03  0.7818609E-02  0.1013774E+00
       -2   -1    0    0    0  501  0.00000000000E+00  0.00000000000E+00  0.25155791203E+03  0.25155791205E+03  0.25500000920E-02 0.  1.
        2   -1    0    0  501    0  0.00000000000E+00  0.00000000000E+00 -0.24847234199E+03  0.24847234201E+03  0.25500000920E-02 0. -1.
    10030    2    1    2    0    0  0.00000000000E+00  0.00000000000E+00  0.30855700406E+01  0.50003025405E+03  0.50002073380E+03 0.  0.
        3    1    3    3  502    0  0.20466799483E+03  0.94778737842E+02  0.10940204095E+03  0.25068070133E+03  0.10100000352E+00 0.  1.
       -3    1    3    3    0  502 -0.20466799483E+03 -0.94778737842E+02 -0.10631647091E+03  0.24934955272E+03  0.10100000352E+00 0. -1.
</event>
<event>
 5   0  0.3211775E-03  0.5000893E+03  0.7818609E-02  0.1013756E+00
        1   -1    0    0  501    0  0.00000000000E+00  0.00000000000E+00  0.39585624590E+03  0.39585624593E+03  0.50400001928E-02 0. -1.
       -1   -1    0    0    0  501  0.00000000000E+00  0.00000000000E+00 -0.15794202321E+03  0.15794202329E+03  0.50400001928E-02 0.  1.
    10030    2    1    2    0    0  0.00000000000E+00  0.00000000000E+00  0.23791422269E+03  0.55379826923E+03  0.50008933766E+03 0.  0.
        4    1    3    3  502    0 -0.23086948148E+03 -0.80314965011E+01  0.22491786986E+03  0.32242035217E+03  0.12699999809E+01 0. -1.
       -4    1    3    3    0  502  0.23086948148E+03  0.80314965011E+01  0.12996352833E+02  0.23137791705E+03  0.12699999809E+01 0.  1.
</event>
<event>
 5   0  0.3211775E-03  0.4998138E+03  0.7818609E-02  0.1013828E+00
       -1   -1    0    0    0  501  0.00000000000E+00  0.00000000000E+00  0.14258898512E+03  0.14258898521E+03  0.50400001928E-02 0. -1.
        1   -1    0    0  501    0  0.00000000000E+00  0.00000000000E+00 -0.43799642652E+03  0.43799642655E+03  0.50400001928E-02 0.  1.
    10030    2    1    2    0    0  0.00000000000E+00  0.00000000000E+00 -0.29540744140E+03  0.58058541176E+03  0.49981382925E+03 0.  0.
        4    1    3    3  502    0  0.70892174129E+02 -0.83552666391E+02 -0.40859968702E+03  0.42303908276E+03  0.12699999809E+01 0.  1.
       -4    1    3    3    0  502 -0.70892174129E+02  0.83552666391E+02  0.11319224561E+03  0.15754632900E+03  0.12699999809E+01 0. -1.
</event>
<event>
 5   0  0.2863538E-03  0.5000660E+03  0.7818609E-02  0.1013762E+00
       -1   -1    0    0    0  501  0.00000000000E+00  0.00000000000E+00  0.68647093678E+02  0.68647093863E+02  0.50400001928E-02 0. -1.
        1   -1    0    0  501    0  0.00000000000E+00  0.00000000000E+00 -0.91069397990E+03  0.91069397992E+03  0.50400001928E-02 0.  1.
    10030    2    1    2    0    0  0.00000000000E+00  0.00000000000E+00 -0.84204688622E+03  0.97934107378E+03  0.50006597584E+03 0.  0.
        1    1    3    3  502    0 -0.19900660304E+03  0.13366487864E+03 -0.56014828784E+03  0.60929141815E+03  0.50400001928E-02 0.  1.
       -1    1    3    3    0  502  0.19900660304E+03 -0.13366487864E+03 -0.28189859839E+03  0.37004965563E+03  0.50400001928E-02 0. -1.
</event>
<event>
 5   0  0.4889251E-03  0.4998156E+03  0.7818609E-02  0.1013827E+00
        2   -1    0    0  501    0  0.00000000000E+00  0.00000000000E+00  0.21217698050E+04  0.21217698050E+04  0.25500000920E-02 0.  1.
       -2   -1    0    0    0  501  0.00000000000E+00  0.00000000000E+00 -0.29434812569E+02  0.29434812679E+02  0.25500000920E-02 0. -1.
    10030    2    1    2    0    0  0.00000000000E+00  0.00000000000E+00  0.20923349925E+04  0.21512046177E+04  0.49981555256E+03 0.  0.
        5    1    3    3  502    0 -0.11550369683E+03  0.21844213882E+03  0.88664446908E+03  0.92044477105E+03  0.46999998093E+01 0.  1.
       -5    1    3    3    0  502  0.11550369683E+03 -0.21844213882E+03  0.12056905234E+04  0.12307598467E+04  0.46999998093E+01 0. -1.
</event>
<event>
 5   0  0.2863538E-03  0.5001190E+03  0.7818609E-02  0.1013748E+00
       -1   -1    0    0    0  501  0.00000000000E+00  0.00000000000E+00  0.39453930983E+02  0.39453931305E+02  0.50400001928E-02 0.  1.
        1   -1    0    0  501    0  0.00000000000E+00  0.00000000000E+00 -0.15848800379E+04  0.15848800379E+04  0.50400001928E-02 0. -1.
    10030    2    1    2    0    0  0.00000000000E+00  0.00000000000E+00 -0.15454261070E+04  0.16243339692E+04  0.50011897745E+03 0.  0.
        1    1    3    3  502    0 -0.12763529155E+02 -0.11302819232E+03 -0.49434689155E+02  0.12402446715E+03  0.50400001928E-02 0.  1.
       -1    1    3    3    0  502  0.12763529155E+02  0.11302819232E+03 -0.14959914178E+04  0.15003095021E+04  0.50400001928E-02 0. -1.
</event>
<event>
 5   0  0.2005125E-03  0.4998520E+03  0.7818609E-02  0.1013818E+00
        3   -1    0    0  501    0  0.00000000000E+00  0.00000000000E+00  0.97726461330E+02  0.97726513521E+02  0.10100000352E+00 0.  1.
       -3   -1    0    0    0  501  0.00000000000E+00  0.00000000000E+00 -0.63916136705E+03  0.63916137503E+03  0.10100000352E+00 0. -1.
    10030    2    1    2    0    0  0.00000000000E+00  0.00000000000E+00 -0.54143490572E+03  0.73688788855E+03  0.49985198125E+03 0.  0.
        2    1    3    3  502    0  0.21991342175E+02  0.13872023025E+03  0.34042108153E+02  0.14451915633E+03  0.25500000920E-02 0.  1.
       -2    1    3    3    0  502 -0.21991342175E+02 -0.13872023025E+03 -0.57547701387E+03  0.59236873222E+03  0.25500000920E-02 0. -1.
</event>
<event>
 5   0  0.4889251E-03  0.5012741E+03  0.7818609E-02  0.1013447E+00
       -2   -1    0    0    0  501  0.00000000000E+00  0.00000000000E+00  0.36916686066E+02  0.36916686154E+02  0.25500000920E-02 0.  1.
        2   -1    0    0  501    0  0.00000000000E+00  0.00000000000E+00 -0.17016404602E+04  0.17016404602E+04  0.25500000920E-02 0. -1.
    10030    2    1    2    0    0  0.00000000000E+00  0.00000000000E+00 -0.16647237742E+04  0.17385571464E+04  0.50127408369E+03 0.  0.
        5    1    3    3  502    0  0.36908213276E+02 -0.21543911013E+03 -0.12574290037E+04  0.12762938595E+04  0.46999998093E+01 0. -1.
       -5    1    3    3    0  502 -0.36908213276E+02  0.21543911013E+03 -0.40729477048E+03  0.46226328692E+03  0.46999998093E+01 0.  1.
</event>
<event>
 5   0  0.4978779E-03  0.4998456E+03  0.7818609E-02  0.1013819E+00
       -2   -1    0    0    0  501  0.00000000000E+00  0.00000000000E+00  0.86330953017E+02  0.86330953054E+02  0.25500000920E-02 0.  1.
        2   -1    0    0  501    0  0.00000000000E+00  0.00000000000E+00 -0.72351123471E+03  0.72351123471E+03  0.25500000920E-02 0. -1.
    10030    2    1    2    0    0  0.00000000000E+00  0.00000000000E+00 -0.63718028169E+03  0.80984218777E+03  0.49984563388E+03 0.  0.
        1    1    3    3  502    0 -0.11361666049E+03  0.20393164515E+03 -0.17399783067E+03  0.29115649836E+03  0.50400001928E-02 0.  1.
       -1    1    3    3    0  502  0.11361666049E+03 -0.20393164515E+03 -0.46318245103E+03  0.51868568941E+03  0.50400001928E-02 0. -1.
</event>
<event>
 5   0  0.5095783E-03  0.4998240E+03  0.7818609E-02  0.1013825E+00
        2   -1    0    0  501    0  0.00000000000E+00  0.00000000000E+00  0.65774560420E+03  0.65774560421E+03  0.25500000920E-02 0. -1.
       -2   -1    0    0    0  501  0.00000000000E+00  0.00000000000E+00 -0.94954657031E+02  0.94954657065E+02  0.25500000920E-02 0.  1.
    10030    2    1    2    0    0  0.00000000000E+00  0.00000000000E+00  0.56279094717E+03  0.75270026127E+03  0.49982400213E+03 0.  0.
        4    1    3    3  502    0 -0.11498044562E+03  0.11341308337E+03  0.56859568774E+03  0.59108857151E+03  0.12699999809E+01 0. -1.
       -4    1    3    3    0  502  0.11498044562E+03 -0.11341308337E+03 -0.58047405639E+01  0.16161168976E+03  0.12699999809E+01 0.  1.
</event>
<event>
 5   0  0.4889251E-03  0.4991947E+03  0.7818609E-02  0.1013989E+00
        2   -1    0    0  501    0  0.00000000000E+00  0.00000000000E+00  0.60436939580E+03  0.60436939581E+03  0.25500000920E-02 0. -1.
       -2   -1    0    0    0  501  0.00000000000E+00  0.00000000000E+00 -0.10308073877E+03  0.10308073880E+03  0.25500000920E-02 0.  1.
    10030    2    1    2    0    0  0.00000000000E+00  0.00000000000E+00  0.50128865703E+03  0.70745013461E+03  0.49919472682E+03 0.  0.
        5    1    3    3  502    0  0.75807985600E+02  0.85434745013E+02  0.56508906110E+03  0.57653593410E+03  0.46999998093E+01 0. -1.
       -5    1    3    3    0  502 -0.75807985600E+02 -0.85434745013E+02 -0.63800404070E+02  0.13091420051E+03  0.46999998093E+01 0.  1.
</event>
<event>
 5   0  0.3211775E-03  0.5000444E+03  0.7818609E-02  0.1013767E+00
        1   -1    0    0  501    0  0.00000000000E+00  0.00000000000E+00  0.20292045985E+04  0.20292045985E+04  0.50400001928E-02 0.  1.
       -1   -1    0    0    0  501  0.00000000000E+00  0.00000000000E+00 -0.30805718036E+02  0.30805718448E+02  0.50400001928E-02 0. -1.
    10030    2    1    2    0    0  0.00000000000E+00  0.00000000000E+00  0.19983988804E+04  0.20600103169E+04  0.50004441854E+03 0.  0.
        4    1    3    3  502    0  0.11837711995E+03  0.84245156457E+02  0.16098279911E+03  0.21685816430E+03  0.12699999809E+01 0. -1.
       -4    1    3    3    0  502 -0.11837711995E+03 -0.84245156457E+02  0.18374160813E+04  0.18431521526E+04  0.12699999809E+01 0.  1.
</event>
<event>
 5   0  0.4978779E-03  0.4999836E+03  0.7818609E-02  0.1013783E+00
        2   -1    0    0  501    0  0.00000000000E+00  0.00000000000E+00  0.20559809856E+03  0.20559809857E+03  0.25500000920E-02 0.  1.
       -2   -1    0    0    0  501  0.00000000000E+00  0.00000000000E+00 -0.30397115530E+03  0.30397115531E+03  0.25500000920E-02 0. -1.
    10030    2    1    2    0    0  0.00000000000E+00  0.00000000000E+00 -0.98373056742E+02  0.50956925389E+03  0.49998356594E+03 0.  0.
        1    1    3    3  502    0  0.54821354047E+02 -0.66406007271E+02  0.19000589567E+03  0.20860819514E+03  0.50400001928E-02 0.  1.
       -1    1    3    3    0  502 -0.54821354047E+02  0.66406007271E+02 -0.28837895242E+03  0.30096105875E+03  0.50400001928E-02 0. -1.
</event>
<event>
 5   0  0.3211775E-03  0.4997659E+03  0.7818609E-02  0.1013840E+00
       -1   -1    0    0    0  501  0.00000000000E+00  0.00000000000E+00  0.11524710896E+03  0.11524710907E+03  0.50400001928E-02 0.  1.
        1   -1    0    0  501    0  0.00000000000E+00  0.00000000000E+00 -0.54180526255E+03  0.54180526258E+03  0.50400001928E-02 0. -1.
    10030    2    1    2    0    0  0.00000000000E+00  0.00000000000E+00 -0.42655815359E+03  0.65705237165E+03  0.49976590589E+03 0.  0.
        4    1    3    3  502    0 -0.15171266274E+03 -0.18580019775E+03 -0.12123521280E+03  0.26877134379E+03  0.12699999809E+01 0. -1.
       -4    1    3    3    0  502  0.15171266274E+03  0.18580019775E+03 -0.30532294080E+03  0.38828102786E+03  0.12699999809E+01 0.  1.
</event>
<event>
 5   0  0.3013734E-03  0.4998415E+03  0.7818609E-02  0.1013820E+00
       -1   -1    0    0    0  501  0.00000000000E+00  0.00000000000E+00  0.41901227730E+02  0.41901228033E+02  0.50400001928E-02 0.  1.
        1   -1    0    0  501    0  0.00000000000E+00  0.00000000000E+00 -0.14906574275E+04  0.14906574275E+04  0.50400001928E-02 0. -1.
    10030    2    1    2    0    0  0.00000000000E+00  0.00000000000E+00 -0.14487561998E+04  0.15325586556E+04  0.49984148118E+03 0.  0.
        2    1    3    3  502    0  0.24395220649E+03 -0.32733803083E+02 -0.59157021086E+03  0.64073356030E+03  0.25500000920E-02 0. -1.
       -2    1    3    3    0  502 -0.24395220649E+03  0.32733803083E+02 -0.85718598895E+03  0.89182509528E+03  0.25500000920E-02 0.  1.
</event>
<event>
 5   0  0.2005125E-03  0.5001469E+03  0.7818609E-02  0.1013741E+00
       -4   -1    0    0    0  501  0.00000000000E+00  0.00000000000E+00  0.10149551085E+04  0.10149559030E+04  0.12699999809E+01 0. -1.
        4   -1    0    0  501    0  0.00000000000E+00  0.00000000000E+00 -0.61607915323E+02  0.61621003971E+02  0.12699999809E+01 0.  1.
    10030    2    1    2    0    0  0.00000000000E+00  0.00000000000E+00  0.95334719315E+03  0.10765769070E+04  0.50014694443E+03 0.  0.
        1    1    3    3  502    0  0.13916576876E+03  0.24172828293E+02  0.92087233338E+03  0.93164225496E+03  0.50400001928E-02 0. -1.
       -1    1    3    3    0  502 -0.13916576876E+03 -0.24172828293E+02  0.32474859769E+02  0.14493465205E+03  0.50400001928E-02 0.  1.
</event>
<event>
 5   0  0.2863538E-03  0.4997557E+03  0.7818609E-02  0.1013843E+00
       -1   -1    0    0    0  501  0.00000000000E+00  0.00000000000E+00  0.59528649482E+03  0.59528649484E+03  0.50400001928E-02 0.  1.
        1   -1    0    0  501    0  0.00000000000E+00  0.00000000000E+00 -0.10488888936E+03  0.10488888948E+03  0.50400001928E-02 0. -1.
    10030    2    1    2    0    0  0.00000000000E+00  0.00000000000E+00  0.49039760546E+03  0.70017538432E+03  0.49975569768E+03 0.  0.
        1    1    3    3  502    0  0.20256763471E+03  0.12167555332E+03  0.13137511648E+03  0.27036643312E+03  0.50400001928E-02 0.  1.
       -1    1    3    3    0  502 -0.20256763471E+03 -0.12167555332E+03  0.35902248898E+03  0.42980895120E+03  0.50400001928E-02 0. -1.
</event>
<event>
 5   0  0.3211775E-03  0.5003458E+03  0.7818609E-02  0.1013689E+00
        1   -1    0    0  501    0  0.00000000000E+00  0.00000000000E+00  0.41263399371E+03  0.41263399374E+03  0.50400001928E-02 0.  1.
       -1   -1    0    0    0  501  0.00000000000E+00  0.00000000000E+00 -0.15167555669E+03  0.15167555677E+03  0.50400001928E-02 0. -1.
    10030    2    1    2    0    0  0.00000000000E+00  0.00000000000E+00  0.26095843702E+03  0.56430955051E+03  0.50034584334E+03 0.  0.
        4    1    3    3  502    0 -0.21439181965E+03 -0.12426172719E+03  0.91735878163E+02  0.26423836478E+03  0.12699999809E+01 0.  1.
       -4    1    3    3    0  502  0.21439181965E+03  0.12426172719E+03  0.16922255886E+03  0.30007118573E+03  0.12699999809E+01 0. -1.
</event>
<event>
 5   0  0.5095783E-03  0.4999642E+03  0.7818609E-02  0.1013788E+00
        2   -1    0    0  501    0  0.00000000000E+00  0.00000000000E+00  0.74680842996E+03  0.74680842997E+03  0.25500000920E-02 0.  1.
       -2   -1    0    0    0  501  0.00000000000E+00  0.00000000000E+00 -0.83677497468E+02  0.83677497507E+02  0.25500000920E-02 0. -1.
    10030    2    1    2    0    0  0.00000000000E+00  0.00000000000E+00  0.66313093250E+03  0.83048592748E+03  0.49996424082E+03 0.  0.
        4    1    3    3  502    0  0.24004557182E+03  0.49025058210E+02  0.24910917483E+03  0.34940281449E+03  0.12699999809E+01 0. -1.
       -4    1    3    3    0  502 -0.24004557182E+03 -0.49025058210E+02  0.41402175766E+03  0.48108311299E+03  0.12699999809E+01 0.  1.
</event>
<event>
 5   0  0.5095783E-03  0.4998946E+03  0.7818609E-02  0.1013806E+00
       -2   -1    0    0    0  501  0.00000000000E+00  0.00000000000E+00  0.37395679960E+02  0.37395680047E+02  0.25500000920E-02 0. -1.
        2   -1    0    0  501    0  0.00000000000E+00  0.00000000000E+00 -0.16706115607E+04  0.16706115607E+04  0.25500000920E-02 0.  1.
    10030    2    1    2    0    0  0.00000000000E+00  0.00000000000E+00 -0.16332158808E+04  0.17080072408E+04  0.49989461024E+03 0.  0.
        4    1    3    3  502    0 -0.10472604540E+03  0.10237674852E+03 -0.12457366622E+03  0.19227260449E+03  0.12699999809E+01 0. -1.
       -4    1    3    3    0  502  0.10472604540E+03 -0.10237674852E+03 -0.15086422145E+04  0.15157346363E+04  0.12699999809E+01 0.  1.
</event>
<event>
 5   0  0.3055293E-03  0.5002729E+03  0.7818609E-02  0.1013708E+00
        1   -1    0    0  501    0  0.00000000000E+00  0.00000000000E+00  0.76893607347E+03  0.76893607349E+03  0.50400001928E-02 0. -1.
       -1   -1    0    0    0  501  0.00000000000E+00  0.00000000000E+00 -0.81369894643E+02  0.81369894799E+02  0.50400001928E-02 0.  1.
    10030    2    1    2    0    0  0.00000000000E+00  0.00000000000E+00  0.68756617883E+03  0.85030596829E+03  0.50027291495E+03 0.  0.
        3    1    3    3  502    0 -0.15443710223E+03  0.17036652371E+03  0.51111927512E+03  0.56046275036E+03  0.10100000352E+00 0. -1.
       -3    1    3    3    0  502  0.15443710223E+03 -0.17036652371E+03  0.17644690371E+03  0.28984321792E+03  0.10100000352E+00 0.  1.
</event>
<event>
 5   0  0.4989875E-03  0.4997095E+03  0.7818609E-02  0.1013855E+00
       -2   -1    0    0    0  501  0.00000000000E+00  0.00000000000E+00  0.68615131511E+03  0.68615131511E+03  0.25500000920E-02 0.  1.
        2   -1    0    0  501    0  0.00000000000E+00  0.00000000000E+00 -0.90981956867E+02  0.90981956903E+02  0.25500000920E-02 0. -1.
    10030    2    1    2    0    0  0.00000000000E+00  0.00000000000E+00  0.59516935824E+03  0.77713327202E+03  0.49970947308E+03 0.  0.
        2    1    3    3  502    0 -0.13221844625E+03 -0.13449515373E+03  0.42723052593E+02  0.19338025529E+03  0.25500000920E-02 0. -1.
       -2    1    3    3    0  502  0.13221844625E+03  0.13449515373E+03  0.55244630565E+03  0.58375301673E+03  0.25500000920E-02 0.  1.
</event>
<event>
 5   0  0.3057783E-03  0.5000615E+03  0.7818609E-02  0.1013763E+00
       -1   -1    0    0    0  501  0.00000000000E+00  0.00000000000E+00  0.42900047165E+03  0.42900047168E+03  0.50400001928E-02 0.  1.
        1   -1    0    0  501    0  0.00000000000E+00  0.00000000000E+00 -0.14572333047E+03  0.14572333056E+03  0.50400001928E-02 0. -1.
    10030    2    1    2    0    0  0.00000000000E+00  0.00000000000E+00  0.28327714118E+03  0.57472380224E+03  0.50006150636E+03 0.  0.
        5    1    3    3  502    0 -0.17096232620E+03  0.12693310328E+03 -0.88861400874E+01  0.21316937673E+03  0.46999998093E+01 0.  1.
       -5    1    3    3    0  502  0.17096232620E+03 -0.12693310328E+03  0.29216328127E+03  0.36155442551E+03  0.46999998093E+01 0. -1.
</event>
<event>
 5   0  0.4978779E-03  0.5002092E+03  0.7818609E-02  0.1013724E+00
       -2   -1    0    0    0  501  0.00000000000E+00  0.00000000000E+00  0.25089201105E+03  0.25089201107E+03  0.25500000920E-02 0. -1.
        2   -1    0    0  501    0  0.00000000000E+00  0.00000000000E+00 -0.24931965548E+03  0.24931965549E+03  0.25500000920E-02 0.  1.
    10030    2    1    2    0    0  0.00000000000E+00  0.00000000000E+00  0.15723555721E+01  0.50021166656E+03  0.50020919530E+03 0.  0.
        1    1    3    3  502    0 -0.98206818402E+02  0.46285991916E+02 -0.22452658066E+03  0.24939758956E+03  0.50400001928E-02 0.  1.
       -1    1    3    3    0  502  0.98206818402E+02 -0.46285991916E+02  0.22609893624E+03  0.25081407700E+03  0.50400001928E-02 0. -1.
</event>
<event>
 5   0  0.5095783E-03  0.5001176E+03  0.7818609E-02  0.1013748E+00
       -2   -1    0    0    0  501  0.00000000000E+00  0.00000000000E+00  0.45044836538E+03  0.45044836538E+03  0.25500000920E-02 0.  1.
        2   -1    0    0  501    0  0.00000000000E+00  0.00000000000E+00 -0.13881590164E+03  0.13881590166E+03  0.25500000920E-02 0. -1.
    10030    2    1    2    0    0  0.00000000000E+00  0.00000000000E+00  0.31163246374E+03  0.58926426704E+03  0.50011757013E+03 0.  0.
        4    1    3    3  502    0 -0.21905817620E+03  0.38003887478E+02  0.20974612831E+02  0.22332113045E+03  0.12699999809E+01 0. -1.
       -4    1    3    3    0  502  0.21905817620E+03 -0.38003887478E+02  0.29065785091E+03  0.36594313659E+03  0.12699999809E+01 0.  1.
</event>
<event>
 5   0  0.3055293E-03  0.5000302E+03  0.7818609E-02  0.1013771E+00
        1   -1    0    0  501    0  0.00000000000E+00  0.00000000000E+00  0.52296402391E+03  0.52296402394E+03  0.50400001928E-02 0. -1.
       -1   -1    0    0    0  501  0.00000000000E+00  0.00000000000E+00 -0.11952552060E+03  0.11952552070E+03  0.50400001928E-02 0.  1.
    10030    2    1    2    0    0  0.00000000000E+00  0.00000000000E+00  0.40343850332E+03  0.64248954464E+03  0.50003018810E+03 0.  0.
        3    1    3    3  502    0  0.13872421046E+03  0.15739465860E+03  0.27000746416E+02  0.21153376948E+03  0.10100000352E+00 0.  1.
       -3    1    3    3    0  502 -0.13872421046E+03 -0.15739465860E+03  0.37643775690E+03  0.43095577516E+03  0.10100000352E+00 0. -1.
</event>
<event>
 5   0  0.5095783E-03  0.4999633E+03  0.7818609E-02  0.1013789E+00
       -2   -1    0    0    0  501  0.00000000000E+00  0.00000000000E+00  0.20184159286E+03  0.20184159287E+03  0.25500000920E-02 0.  1.
        2   -1    0    0  501    0  0.00000000000E+00  0.00000000000E+00 -0.30960325033E+03  0.30960325034E+03  0.25500000920E-02 0. -1.
    10030    2    1    2    0    0  0.00000000000E+00  0.00000000000E+00 -0.10776165747E+03  0.51144484321E+03  0.49996325148E+03 0.  0.
        4    1    3    3  502    0  0.51709625678E+02  0.93392250383E+02 -0.28510981899E+03  0.30444247339E+03  0.12699999809E+01 0. -1.
       -4    1    3    3    0  502 -0.51709625678E+02 -0.93392250383E+02  0.17734816152E+03  0.20700236982E+03  0.12699999809E+01 0.  1.
</event>
<event>
 5   0  0.4889251E-03  0.4998237E+03  0.7818609E-02  0.1013825E+00
        2   -1    0    0  501    0  0.00000000000E+00  0.00000000000E+00  0.70927949429E+03  0.70927949429E+03  0.25500000920E-02 0. -1.
       -2   -1    0    0    0  501  0.00000000000E+00  0.00000000000E+00 -0.88055457790E+02  0.88055457827E+02  0.25500000920E-02 0.  1.
    10030    2    1    2    0    0  0.00000000000E+00  0.00000000000E+00  0.62122403650E+03  0.79733495212E+03  0.49982369127E+03 0.  0.
        5    1    3    3  502    0  0.10833887498E+03 -0.18312390602E+03  0.51959454999E+03  0.56149110693E+03  0.46999998093E+01 0. -1.
       -5    1    3    3    0  502 -0.10833887498E+03  0.18312390602E+03  0.10162948651E+03  0.23584384519E+03  0.46999998093E+01 0.  1.
</event>
<event>
 5   0  0.4978779E-03  0.4999144E+03  0.7818609E-02  0.1013801E+00
        2   -1    0    0  501    0  0.00000000000E+00  0.00000000000E+00  0.11057464466E+04  0.11057464466E+04  0.25500000920E-02 0. -1.
       -2   -1    0    0    0  501  0.00000000000E+00  0.00000000000E+00 -0.56503559790E+02  0.56503559848E+02  0.25500000920E-02 0.  1.
    10030    2    1    2    0    0  0.00000000000E+00  0.00000000000E+00  0.10492428868E+04  0.11622500064E+04  0.49991443464E+03 0.  0.
        1    1    3    3  502    0 -0.16866892604E+03 -0.17027565133E+03  0.68960086228E+03  0.73006325297E+03  0.50400001928E-02 0. -1.
       -1    1    3    3    0  502  0.16866892604E+03  0.17027565133E+03  0.35964202449E+03  0.43218675345E+03  0.50400001928E-02 0.  1.
</event>
<event>
 5   0  0.3211775E-03  0.5000257E+03  0.7818609E-02  0.1013772E+00
       -1   -1    0    0    0  501  0.00000000000E+00  0.00000000000E+00  0.11342248569E+03  0.11342248580E+03  0.50400001928E-02 0. -1.
        1   -1    0    0  501    0  0.00000000000E+00  0.00000000000E+00 -0.55109368546E+03  0.55109368548E+03  0.50400001928E-02 0.  1.
    10030    2    1    2    0    0  0.00000000000E+00  0.00000000000E+00 -0.43767119977E+03  0.66451617128E+03  0.50002566213E+03 0.  0.
        4    1    3    3  502    0  0.19150198553E+03  0.10962754277E+03 -0.37503041284E+03  0.43513289011E+03  0.12699999809E+01 0.  1.
       -4    1    3    3    0  502 -0.19150198553E+03 -0.10962754277E+03 -0.62640786929E+02  0.22938328117E+03  0.12699999809E+01 0. -1.
</event>
<event>
 5   0  0.4978779E-03  0.4999646E+03  0.7818609E-02  0.1013788E+00
       -2   -1    0    0    0  501  0.00000000000E+00  0.00000000000E+00  0.19308028659E+03  0.19308028660E+03  0.25500000920E-02 0. -1.
        2   -1    0    0  501    0  0.00000000000E+00  0.00000000000E+00 -0.32365368306E+03  0.32365368307E+03  0.25500000920E-02 0.  1.
    10030    2    1    2    0    0  0.00000000000E+00  0.00000000000E+00 -0.13057339647E+03  0.51673396968E+03  0.49996458230E+03 0.  0.
        1    1    3    3  502    0 -0.18648115104E+03 -0.85265971168E+02 -0.21307094118E+03  0.29571055363E+03  0.50400001928E-02 0.  1.
       -1    1    3    3    0  502  0.18648115104E+03  0.85265971168E+02  0.82497544704E+02  0.22102341604E+03  0.50400001928E-02 0. -1.
</event>
<event>
 5   0  0.3013734E-03  0.4999495E+03  0.7818609E-02  0.1013792E+00
       -1   -1    0    0    0  501  0.00000000000E+00  0.00000000000E+00  0.19687013601E+03  0.19687013607E+03  0.50400001928E-02 0.  1.
        1   -1    0    0  501    0  0.00000000000E+00  0.00000000000E+00 -0.31740399441E+03  0.31740399445E+03  0.50400001928E-02 0. -1.
    10030    2    1    2    0    0  0.00000000000E+00  0.00000000000E+00 -0.12053385840E+03  0.51427413052E+03  0.49994946775E+03 0.  0.
        2    1    3    3  502    0 -0.12563482244E+03 -0.13166485358E+03  0.11601304706E+03  0.21582115136E+03  0.25500000920E-02 0.  1.
       -2    1    3    3    0  502  0.12563482244E+03  0.13166485358E+03 -0.23654690546E+03  0.29845297916E+03  0.25500000920E-02 0. -1.
</event>
<event>
 5   0  0.5118882E-03  0.4999513E+03  0.7818609E-02  0.1013792E+00
       -2   -1    0    0    0  501  0.00000000000E+00  0.00000000000E+00  0.79928239028E+02  0.79928239068E+02  0.25500000920E-02 0. -1.
        2   -1    0    0  501    0  0.00000000000E+00  0.00000000000E+00 -0.78179900922E+03  0.78179900922E+03  0.25500000920E-02 0.  1.
    10030    2    1    2    0    0  0.00000000000E+00  0.00000000000E+00 -0.70187077019E+03  0.86172724829E+03  0.49995127002E+03 0.  0.
        3    1    3    3  502    0 -0.77661806983E+02 -0.58840591144E+02 -0.74772150311E+03  0.75404312067E+03  0.10100000352E+00 0.  1.
       -3    1    3    3    0  502  0.77661806983E+02  0.58840591144E+02  0.45850732916E+02  0.10768412761E+03  0.10100000352E+00 0. -1.
</event>
<event>
 5   0  0.3211775E-03  0.5002296E+03  0.7818609E-02  0.1013719E+00
        1   -1    0    0  501    0  0.00000000000E+00  0.00000000000E+00  0.52446447757E+03  0.52446447759E+03  0.50400001928E-02 0.  1.
       -1   -1    0    0    0  501  0.00000000000E+00  0.00000000000E+00 -0.11927865242E+03  0.11927865252E+03  0.50400001928E-02 0. -1.
    10030    2    1    2    0    0  0.00000000000E+00  0.00000000000E+00  0.40518582515E+03  0.64374313012E+03  0.50022961195E+03 0.  0.
        4    1    3    3  502    0  0.12993450886E+03 -0.17040644534E+03  0.36856983031E+03  0.42634102068E+03  0.12699999809E+01 0.  1.
       -4    1    3    3    0  502 -0.12993450886E+03  0.17040644534E+03  0.36615994844E+02  0.21740210943E+03  0.12699999809E+01 0. -1.
</event>
<event>
 5   0  0.3211775E-03  0.4999872E+03  0.7818609E-02  0.1013782E+00
       -1   -1    0    0    0  501  0.00000000000E+00  0.00000000000E+00  0.54722847995E+02  0.54722848227E+02  0.50400001928E-02 0. -1.
        1   -1    0    0  501    0  0.00000000000E+00  0.00000000000E+00 -0.11420603192E+04  0.11420603192E+04  0.50400001928E-02 0.  1.
    10030    2    1    2    0    0  0.00000000000E+00  0.00000000000E+00 -0.10873374712E+04  0.11967831675E+04  0.49998717342E+03 0.  0.
        4    1    3    3  502    0  0.72106553515E-01  0.29632228317E+02 -0.11378339998E+04  0.11382204963E+04  0.12699999809E+01 0.  1.
       -4    1    3    3    0  502 -0.72106553515E-01 -0.29632228317E+02  0.50496528589E+02  0.58562671164E+02  0.12699999809E+01 0. -1.
</event>
<event>
 5   0  0.4978779E-03  0.4999931E+03  0.7818609E-02  0.1013781E+00
       -2   -1    0    0    0  501  0.00000000000E+00  0.00000000000E+00  0.54114731257E+02  0.54114731317E+02  0.25500000920E-02 0.  1.
        2   -1    0    0  501    0  0.00000000000E+00  0.00000000000E+00 -0.11549216815E+04  0.11549216815E+04  0.25500000920E-02 0. -1.
    10030    2    1    2    0    0  0.00000000000E+00  0.00000000000E+00 -0.11008069503E+04  0.12090364128E+04  0.49999310578E+03 0.  0.
        1    1    3    3  502    0  0.14327158167E+03  0.73008204814E+02 -0.10132755636E+04  0.10259553167E+04  0.50400001928E-02 0. -1.
       -1    1    3    3    0  502 -0.14327158167E+03 -0.73008204814E+02 -0.87531386678E+02  0.18308109614E+03  0.50400001928E-02 0.  1.
</event>
<event>
 5   0  0.5095783E-03  0.4996955E+03  0.7818609E-02  0.1013858E+00
       -2   -1    0    0    0  501  0.00000000000E+00  0.00000000000E+00  0.63485549032E+02  0.63485549083E+02  0.25500000920E-02 0. -1.
        2   -1    0    0  501    0  0.00000000000E+00  0.00000000000E+00 -0.98327728887E+03  0.98327728887E+03  0.25500000920E-02 0.  1.
    10030    2    1    2    0    0  0.00000000000E+00  0.00000000000E+00 -0.91979173983E+03  0.10467628380E+04  0.49969550153E+03 0.  0.
        4    1    3    3  502    0  0.20648993830E+03 -0.16323085093E+02 -0.75255205610E+03  0.78053875481E+03  0.12699999809E+01 0.  1.
       -4    1    3    3    0  502 -0.20648993830E+03  0.16323085093E+02 -0.16723968374E+03  0.26622408314E+03  0.12699999809E+01 0. -1.
</event>
<event>
 5   0  0.3057783E-03  0.5001432E+03  0.7818609E-02  0.1013742E+00
        1   -1    0    0  501    0  0.00000000000E+00  0.00000000000E+00  0.35599933201E+03  0.35599933204E+03  0.50400001928E-02 0. -1.
       -1   -1    0    0    0  501  0.00000000000E+00  0.00000000000E+00 -0.17566273689E+03  0.17566273696E+03  0.50400001928E-02 0.  1.
    10030    2    1    2    0    0  0.00000000000E+00  0.00000000000E+00  0.18033659512E+03  0.53166206901E+03  0.50014324756E+03 0.  0.
        5    1    3    3  502    0  0.44442126494E+02 -0.24413889623E+03  0.57666592957E+02  0.25480665062E+03  0.46999998093E+01 0.  1.
       -5    1    3    3    0  502 -0.44442126494E+02  0.24413889623E+03  0.12267000216E+03  0.27685541838E+03  0.46999998093E+01 0. -1.
</event>
<event>
 5   0  0.4978779E-03  0.5001382E+03  0.7818609E-02  0.1013743E+00
        2   -1    0    0  501    0  0.00000000000E+00  0.00000000000E+00  0.26154718765E+03  0.26154718766E+03  0.25500000920E-02 0. -1.
       -2   -1    0    0    0  501  0.00000000000E+00  0.00000000000E+00 -0.23909471007E+03  0.23909471008E+03  0.25500000920E-02 0.  1.
    10030    2    1    2    0    0  0.00000000000E+00  0.00000000000E+00  0.22452477578E+02  0.50064189774E+03  0.50013817693E+03 0.  0.
        1    1    3    3  502    0  0.33953821277E+02 -0.19830534585E+03 -0.13743824431E+03  0.24365373626E+03  0.50400001928E-02 0.  1.
       -1    1    3    3    0  502 -0.33953821277E+02  0.19830534585E+03  0.15989072188E+03  0.25698816148E+03  0.50400001928E-02 0. -1.
</event>
<event>
 5   0  0.5118882E-03  0.4989940E+03  0.7818609E-02  0.1014042E+00
       -2   -1    0    0    0  501  0.00000000000E+00  0.00000000000E+00  0.13313433209E+03  0.13313433212E+03  0.25500000920E-02 0. -1.
        2   -1    0    0  501    0  0.00000000000E+00  0.00000000000E+00 -0.46756345684E+03  0.46756345685E+03  0.25500000920E-02 0.  1.
    10030    2    1    2    0    0  0.00000000000E+00  0.00000000000E+00 -0.33442912475E+03  0.60069778896E+03  0.49899398211E+03 0.  0.
        3    1    3    3  502    0  0.20313862059E+03  0.10592448990E+03 -0.48265179827E+02  0.23412568104E+03  0.10100000352E+00 0. -1.
       -3    1    3    3    0  502 -0.20313862059E+03 -0.10592448990E+03 -0.28616394492E+03  0.36657210793E+03  0.10100000352E+00 0.  1.
</event>
<event>
 5   0  0.2863538E-03  0.5004370E+03  0.7818609E-02  0.1013665E+00
       -1   -1    0    0    0  501  0.00000000000E+00  0.00000000000E+00  0.35112574329E+02  0.35112574691E+02  0.50400001928E-02 0.  1.
        1   -1    0    0  501    0  0.00000000000E+00  0.00000000000E+00 -0.17831019429E+04  0.17831019429E+04  0.50400001928E-02 0. -1.
    10030    2    1    2    0    0  0.00000000000E+00  0.00000000000E+00 -0.17479893686E+04  0.18182145176E+04  0.50043700839E+03 0.  0.
        1    1    3    3  502    0 -0.83845544616E+02 -0.14002953675E+03 -0.18491146232E+03  0.24663859276E+03  0.50400001928E-02 0.  1.
       -1    1    3    3    0  502  0.83845544616E+02  0.14002953675E+03 -0.15630779063E+04  0.15715759248E+04  0.50400001928E-02 0. -1.
</event>
<event>
 5   0  0.3211775E-03  0.5002223E+03  0.7818609E-02  0.1013721E+00
        1   -1    0    0  501    0  0.00000000000E+00  0.00000000000E+00  0.10225691945E+04  0.10225691945E+04  0.50400001928E-02 0. -1.
       -1   -1    0    0    0  501  0.00000000000E+00  0.00000000000E+00 -0.61174906833E+02  0.61174907041E+02  0.50400001928E-02 0.  1.
    10030    2    1    2    0    0  0.00000000000E+00  0.00000000000E+00  0.96139428765E+03  0.10837441015E+04  0.50022225189E+03 0.  0.
        4    1    3    3  502    0  0.99772534254E+02  0.18142845117E+03  0.17674114412E+03  0.27223131048E+03  0.12699999809E+01 0.  1.
       -4    1    3    3    0  502 -0.99772534254E+02 -0.18142845117E+03  0.78465314354E+03  0.81151279105E+03  0.12699999809E+01 0. -1.
</event>
<event>
 5   0  0.2863538E-03  0.4999104E+03  0.7818609E-02  0.1013802E+00
        1   -1    0    0  501    0  0.00000000000E+00  0.00000000000E+00  0.35066033479E+03  0.35066033483E+03  0.50400001928E-02 0.  1.
       -1   -1    0    0    0  501  0.00000000000E+00  0.00000000000E+00 -0.17817128469E+03  0.17817128476E+03  0.50400001928E-02 0. -1.
    10030    2    1    2    0    0  0.00000000000E+00  0.00000000000E+00  0.17248905010E+03  0.52883161959E+03  0.49991040144E+03 0.  0.
        1    1    3    3  502    0  0.65375393010E+02  0.13125326095E+02 -0.16858908900E+03  0.18129671027E+03  0.50400001928E-02 0. -1.
       -1    1    3    3    0  502 -0.65375393010E+02 -0.13125326095E+02  0.34107813911E+03  0.34753490932E+03  0.50400001928E-02 0.  1.
</event>
<event>
 5   0  0.3057783E-03  0.5000757E+03  0.7818609E-02  0.1013759E+00
       -1   -1    0    0    0  501  0.00000000000E+00  0.00000000000E+00  0.46733129047E+02  0.46733129319E+02  0.50400001928E-02 0.  1.
        1   -1    0    0  501    0  0.00000000000E+00  0.00000000000E+00 -0.13377858383E+04  0.13377858383E+04  0.50400001928E-02 0. -1.
    10030    2    1    2    0    0  0.00000000000E+00  0.00000000000E+00 -0.12910527092E+04  0.13845189676E+04  0.50007566792E+03 0.  0.
        5    1    3    3  502    0  0.44340447605E+02 -0.50951316578E+02  0.20870025152E+02  0.70850263958E+02  0.46999998093E+01 0.  1.
       -5    1    3    3    0  502 -0.44340447605E+02  0.50951316578E+02 -0.13119227344E+04  0.13136687037E+04  0.46999998093E+01 0. -1.
</event>
<event>
 5   0  0.2005125E-03  0.5019655E+03  0.7818609E-02  0.1013267E+00
        3   -1    0    0  501    0  0.00000000000E+00  0.00000000000E+00  0.27213397660E+03  0.27213399534E+03  0.10100000352E+00 0.  1.
       -3   -1    0    0    0  501  0.00000000000E+00  0.00000000000E+00 -0.23147539085E+03  0.23147541288E+03  0.10100000352E+00 0. -1.
    10030    2    1    2    0    0  0.00000000000E+00  0.00000000000E+00  0.40658585751E+02  0.50360940822E+03  0.50196545245E+03 0.  0.
        3    1    3    3  502    0 -0.10748873002E+03 -0.12847351948E+03  0.20784525259E+03  0.26694368603E+03  0.10100000352E+00 0.  1.
       -3    1    3    3    0  502  0.10748873002E+03  0.12847351948E+03 -0.16718666684E+03  0.23666572219E+03  0.10100000352E+00 0. -1.
</event>
<event>
 5   0  0.2005125E-03  0.4997781E+03  0.7818609E-02  0.1013837E+00
       -3   -1    0    0    0  501  0.00000000000E+00  0.00000000000E+00  0.33175391523E+03  0.33175393060E+03  0.10100000352E+00 0. -1.
        3   -1    0    0  501    0  0.00000000000E+00  0.00000000000E+00 -0.18822541306E+03  0.18822544015E+03  0.10100000352E+00 0.  1.
    10030    2    1    2    0    0  0.00000000000E+00  0.00000000000E+00  0.14352850217E+03  0.51997937076E+03  0.49977806582E+03 0.  0.
        4    1    3    3  502    0  0.49401946926E+02  0.19894137625E+03 -0.76927434156E+02  0.21894672085E+03  0.12699999809E+01 0.  1.
       -4    1    3    3    0  502 -0.49401946926E+02 -0.19894137625E+03  0.22045593633E+03  0.30103264991E+03  0.12699999809E+01 0. -1.
</event>
<event>
 5   0  0.3055293E-03  0.5001841E+03  0.7818609E-02  0.1013731E+00
       -1   -1    0    0    0  501  0.00000000000E+00  0.00000000000E+00  0.12435398517E+03  0.12435398528E+03  0.50400001928E-02 0. -1.
        1   -1    0    0  501    0  0.00000000000E+00  0.00000000000E+00 -0.50296766355E+03  0.50296766357E+03  0.50400001928E-02 0.  1.
    10030    2    1    2    0    0  0.00000000000E+00  0.00000000000E+00 -0.37861367837E+03  0.62732164885E+03  0.50018409977E+03 0.  0.
        3    1    3    3  502    0  0.21486405997E+03 -0.95955902777E+02 -0.29551997296E+03  0.37776469417E+03  0.10100000352E+00 0. -1.
       -3    1    3    3    0  502 -0.21486405997E+03  0.95955902777E+02 -0.83093705416E+02  0.24955695468E+03  0.10100000352E+00 0.  1.
</event>
<event>
 5   0  0.5095783E-03  0.4999008E+03  0.7818609E-02  0.1013805E+00
       -2   -1    0    0    0  501  0.00000000000E+00  0.00000000000E+00  0.46835055140E+02  0.46835055209E+02  0.25500000920E-02 0.  1.
        2   -1    0    0  501    0  0.00000000000E+00  0.00000000000E+00 -0.13339409396E+04  0.13339409396E+04  0.25500000920E-02 0. -1.
    10030    2    1    2    0    0  0.00000000000E+00  0.00000000000E+00 -0.12871058845E+04  0.13807759948E+04  0.49990078019E+03 0.  0.
        4    1    3    3  502    0 -0.11607513069E+03 -0.14435607765E+03 -0.18003442836E+03  0.25831399771E+03  0.12699999809E+01 0.  1.
       -4    1    3    3    0  502  0.11607513069E+03  0.14435607765E+03 -0.11070714561E+04  0.11224619971E+04  0.12699999809E+01 0. -1.
</event>
<event>
 5   0  0.4978779E-03  0.4999511E+03  0.7818609E-02  0.1013792E+00
        2   -1    0    0  501    0  0.00000000000E+00  0.00000000000E+00  0.12762489863E+04  0.12762489863E+04  0.25500000920E-02 0.  1.
       -2   -1    0    0    0  501  0.00000000000E+00  0.00000000000E+00 -0.48962048282E+02  0.48962048348E+02  0.25500000920E-02 0. -1.
    10030    2    1    2    0    0  0.00000000000E+00  0.00000000000E+00  0.12272869381E+04  0.13252110347E+04  0.49995105574E+03 0.  0.
        1    1    3    3  502    0 -0.12577787179E+03  0.73075047943E+02  0.11525064179E+04  0.11616501534E+04  0.50400001928E-02 0.  1.
       -1    1    3    3    0  502  0.12577787179E+03 -0.73075047943E+02  0.74780520206E+02  0.16356088130E+03  0.50400001928E-02 0. -1.
</event>
<event>
 5   0  0.3013734E-03  0.5000764E+03  0.7818609E-02  0.1013759E+00
       -1   -1    0    0    0  501  0.00000000000E+00  0.00000000000E+00  0.49185945783E+03  0.49185945786E+03  0.50400001928E-02 0.  1.
        1   -1    0    0  501    0  0.00000000000E+00  0.00000000000E+00 -0.12710763762E+03  0.12710763772E+03  0.50400001928E-02 0. -1.
    10030    2    1    2    0    0  0.00000000000E+00  0.00000000000E+00  0.36475182022E+03  0.61896709557E+03  0.50007636922E+03 0.  0.
        2    1    3    3  502    0  0.85528488560E+02  0.13624344136E+03 -0.54553522207E+02  0.16986313449E+03  0.25500000920E-02 0. -1.
       -2    1    3    3    0  502 -0.85528488560E+02 -0.13624344136E+03  0.41930534242E+03  0.44910396108E+03  0.25500000920E-02 0.  1.
</event>
<event>
 5   0  0.4889251E-03  0.4992049E+03  0.7818609E-02  0.1013987E+00
       -2   -1    0    0    0  501  0.00000000000E+00  0.00000000000E+00  0.72351796116E+02  0.72351796161E+02  0.25500000920E-02 0.  1.
        2   -1    0    0  501    0  0.00000000000E+00  0.00000000000E+00 -0.86108980325E+03  0.86108980326E+03  0.25500000920E-02 0. -1.
    10030    2    1    2    0    0  0.00000000000E+00  0.00000000000E+00 -0.78873800714E+03  0.93344159942E+03  0.49920494351E+03 0.  0.
        5    1    3    3  502    0  0.49981337765E+02 -0.17961763501E+03 -0.84183116997E+02  0.20462041960E+03  0.46999998093E+01 0.  1.
       -5    1    3    3    0  502 -0.49981337765E+02  0.17961763501E+03 -0.70455489014E+03  0.72882117982E+03  0.46999998093E+01 0. -1.
</event>
<event>
 5   0  0.2005125E-03  0.5000863E+03  0.7818609E-02  0.1013756E+00
        3   -1    0    0  501    0  0.00000000000E+00  0.00000000000E+00  0.38409369262E+03  0.38409370590E+03  0.10100000352E+00 0.  1.
       -3   -1    0    0    0  501  0.00000000000E+00  0.00000000000E+00 -0.16277688371E+03  0.16277691504E+03  0.10100000352E+00 0. -1.
    10030    2    1    2    0    0  0.00000000000E+00  0.00000000000E+00  0.22131680891E+03  0.54687062094E+03  0.50008633868E+03 0.  0.
        3    1    3    3  502    0  0.24831130253E+03  0.28995159724E+02  0.10548807740E+03  0.27134289548E+03  0.10100000352E+00 0.  1.
       -3    1    3    3    0  502 -0.24831130253E+03 -0.28995159724E+02  0.11582873151E+03  0.27552772546E+03  0.10100000352E+00 0. -1.
</event>
<event>
 5   0  0.2005125E-03  0.4994370E+03  0.7818609E-02  0.1013926E+00
        3   -1    0    0  501    0  0.00000000000E+00  0.00000000000E+00  0.67488156644E+02  0.67488232220E+02  0.10100000352E+00 0.  1.
       -3   -1    0    0    0  501  0.00000000000E+00  0.00000000000E+00 -0.92400345403E+03  0.92400345955E+03  0.10100000352E+00 0. -1.
    10030    2    1    2    0    0  0.00000000000E+00  0.00000000000E+00 -0.85651529739E+03  0.99149169177E+03  0.49943700323E+03 0.  0.
        3    1    3    3  502    0 -0.26682825054E+02 -0.24819052563E+03 -0.44212716592E+03  0.50772724096E+03  0.10100000352E+00 0.  1.
       -3    1    3    3    0  502  0.26682825054E+02  0.24819052563E+03 -0.41438813147E+03  0.48376445082E+03  0.10100000352E+00 0. -1.
</event>
<event>
 5   0  0.3013734E-03  0.4996794E+03  0.7818609E-02  0.1013863E+00
       -1   -1    0    0    0  501  0.00000000000E+00  0.00000000000E+00  0.17804214282E+03  0.17804214289E+03  0.50400001928E-02 0. -1.
        1   -1    0    0  501    0  0.00000000000E+00  0.00000000000E+00 -0.35059039549E+03  0.35059039552E+03  0.50400001928E-02 0.  1.
    10030    2    1    2    0    0  0.00000000000E+00  0.00000000000E+00 -0.17254825267E+03  0.52863253842E+03  0.49967935836E+03 0.  0.
        2    1    3    3  502    0 -0.17698887090E+03 -0.13742124971E+03  0.30628416980E+02  0.22615870584E+03  0.25500000920E-02 0. -1.
       -2    1    3    3    0  502  0.17698887090E+03  0.13742124971E+03 -0.20317666965E+03  0.30247383257E+03  0.25500000920E-02 0.  1.
</event>
<event>
 5   0  0.4989875E-03  0.5000802E+03  0.7818609E-02  0.1013758E+00
        2   -1    0    0  501    0  0.00000000000E+00  0.00000000000E+00  0.52588065244E+03  0.52588065245E+03  0.25500000920E-02 0. -1.
       -2   -1    0    0    0  501  0.00000000000E+00  0.00000000000E+00 -0.11888638024E+03  0.11888638027E+03  0.25500000920E-02 0.  1.
    10030    2    1    2    0    0  0.00000000000E+00  0.00000000000E+00  0.40699427220E+03  0.64476703271E+03  0.50008018244E+03 0.  0.
        2    1    3    3  502    0  0.64049841886E+02 -0.22517522488E+03  0.90257910731E+02  0.25090387522E+03  0.25500000920E-02 0. -1.
       -2    1    3    3    0  502 -0.64049841886E+02  0.22517522488E+03  0.31673636147E+03  0.39386315749E+03  0.25500000920E-02 0.  1.
</event>
<event>
 5   0  0.5118882E-03  0.5000221E+03  0.7818609E-02  0.1013773E+00
       -2   -1    0    0    0  501  0.00000000000E+00  0.00000000000E+00  0.45218063922E+02  0.45218063994E+02  0.25500000920E-02 0. -1.
        2   -1    0    0  501    0  0.00000000000E+00  0.00000000000E+00 -0.13823133557E+04  0.13823133557E+04  0.25500000920E-02 0.  1.
    10030    2    1    2    0    0  0.00000000000E+00  0.00000000000E+00 -0.13370952918E+04  0.14275314197E+04  0.50002213443E+03 0.  0.
        3    1    3    3  502    0 -0.63645625074E+02 -0.20792032325E+03 -0.10208044303E+04  0.10437065304E+04  0.10100000352E+00 0.  1.
       -3    1    3    3    0  502  0.63645625074E+02  0.20792032325E+03 -0.31629086147E+03  0.38382488932E+03  0.10100000352E+00 0. -1.
</event>
<event>
 5   0  0.2005125E-03  0.4995022E+03  0.7818609E-02  0.1013909E+00
       -3   -1    0    0    0  501  0.00000000000E+00  0.00000000000E+00  0.57402585652E+03  0.57402586540E+03  0.10100000352E+00 0.  1.
        3   -1    0    0  501    0  0.00000000000E+00  0.00000000000E+00 -0.10866338044E+03  0.10866342738E+03  0.10100000352E+00 0. -1.
    10030    2    1    2    0    0  0.00000000000E+00  0.00000000000E+00  0.46536247607E+03  0.68268929279E+03  0.49950218853E+03 0.  0.
        2    1    3    3  502    0 -0.16410245792E+03 -0.14883609951E+03  0.75097864011E+02  0.23392624991E+03  0.25500000920E-02 0. -1.
       -2    1    3    3    0  502  0.16410245792E+03  0.14883609951E+03  0.39026461206E+03  0.44876304287E+03  0.25500000920E-02 0.  1.
</event>
<event>
 5   0  0.4978779E-03  0.4999367E+03  0.7818609E-02  0.1013795E+00
        2   -1    0    0  501    0  0.00000000000E+00  0.00000000000E+00  0.64760483537E+03  0.64760483538E+03  0.25500000920E-02 0. -1.
       -2   -1    0    0    0  501  0.00000000000E+00  0.00000000000E+00 -0.96485034043E+02  0.96485034077E+02  0.25500000920E-02 0.  1.
    10030    2    1    2    0    0  0.00000000000E+00  0.00000000000E+00  0.55111980133E+03  0.74408986945E+03  0.49993669440E+03 0.  0.
        1    1    3    3  502    0  0.47628024807E+02 -0.12624964821E+03  0.58874302605E+03  0.60400807376E+03  0.50400001928E-02 0. -1.
       -1    1    3    3    0  502 -0.47628024807E+02  0.12624964821E+03 -0.37623224726E+02  0.14008179569E+03  0.50400001928E-02 0.  1.
</event>
<event>
 5   0  0.5095783E-03  0.5002140E+03  0.7818609E-02  0.1013723E+00
       -2   -1    0    0    0  501  0.00000000000E+00  0.00000000000E+00  0.14305751966E+03  0.14305751968E+03  0.25500000920E-02 0.  1.
        2   -1    0    0  501    0  0.00000000000E+00  0.00000000000E+00 -0.43726120002E+03  0.43726120003E+03  0.25500000920E-02 0. -1.
    10030    2    1    2    0    0  0.00000000000E+00  0.00000000000E+00 -0.29420368037E+03  0.58031871971E+03  0.50021396512E+03 0.  0.
        4    1    3    3  502    0  0.11973092368E+03 -0.54712334643E+02 -0.39381382199E+03  0.41523472030E+03  0.12699999809E+01 0. -1.
       -4    1    3    3    0  502 -0.11973092368E+03  0.54712334643E+02  0.99610141625E+02  0.16508399941E+03  0.12699999809E+01 0.  1.
</event>
<event>
 5   0  0.3057783E-03  0.5000752E+03  0.7818609E-02  0.1013759E+00
        1   -1    0    0  501    0  0.00000000000E+00  0.00000000000E+00  0.81056144207E+02  0.81056144364E+02  0.50400001928E-02 0.  1.
       -1   -1    0    0    0  501  0.00000000000E+00  0.00000000000E+00 -0.77130258242E+03  0.77130258244E+03  0.50400001928E-02 0. -1.
    10030    2    1    2    0    0  0.00000000000E+00  0.00000000000E+00 -0.69024643821E+03  0.85235872680E+03  0.50007524802E+03 0.  0.
        5    1    3    3  502    0 -0.21180627798E+02  0.58311120837E+02  0.67651747743E+02  0.91911124344E+02  0.46999998093E+01 0.  1.
       -5    1    3    3    0  502  0.21180627798E+02 -0.58311120837E+02 -0.75789818596E+03  0.76044760246E+03  0.46999998093E+01 0. -1.
</event>
<event>
 5   0  0.3013734E-03  0.4998280E+03  0.7818609E-02  0.1013824E+00
        1   -1    0    0  501    0  0.00000000000E+00  0.00000000000E+00  0.74964136264E+03  0.74964136265E+03  0.50400001928E-02 0.  1.
       -1   -1    0    0    0  501  0.00000000000E+00  0.00000000000E+00 -0.83315855063E+02  0.83315855215E+02  0.50400001928E-02 0. -1.
    10030    2    1    2    0    0  0.00000000000E+00  0.00000000000E+00  0.66632550758E+03  0.83295721787E+03  0.49982801518E+03 0.  0.
        2    1    3    3  502    0  0.75612521211E+02 -0.15410162230E+03  0.63586062773E+03  0.65862227510E+03  0.25500000920E-02 0.  1.
       -2    1    3    3    0  502 -0.75612521211E+02  0.15410162230E+03  0.30464879850E+02  0.17433494277E+03  0.25500000920E-02 0. -1.
</event>
<event>
 5   0  0.3057783E-03  0.5000353E+03  0.7818609E-02  0.1013770E+00
       -1   -1    0    0    0  501  0.00000000000E+00  0.00000000000E+00  0.53305125814E+03  0.53305125817E+03  0.50400001928E-02 0.  1.
        1   -1    0    0  501    0  0.00000000000E+00  0.00000000000E+00 -0.11726608189E+03  0.11726608200E+03  0.50400001928E-02 0. -1.
    10030    2    1    2    0    0  0.00000000000E+00  0.00000000000E+00  0.41578517625E+03  0.65031734017E+03  0.50003532889E+03 0.  0.
        5    1    3    3  502    0  0.95132425737E+02 -0.18373410315E+03  0.39033210470E+03  0.44180271733E+03  0.46999998093E+01 0.  1.
       -5    1    3    3    0  502 -0.95132425737E+02  0.18373410315E+03  0.25453071553E+02  0.20851462284E+03  0.46999998093E+01 0. -1.
</event>
<event>
 5   0  0.5118882E-03  0.4999910E+03  0.7818609E-02  0.1013781E+00
        2   -1    0    0  501    0  0.00000000000E+00  0.00000000000E+00  0.17639004252E+03  0.17639004254E+03  0.25500000920E-02 0.  1.
       -2   -1    0    0    0  501  0.00000000000E+00  0.00000000000E+00 -0.35431564604E+03  0.35431564605E+03  0.25500000920E-02 0. -1.
    10030    2    1    2    0    0  0.00000000000E+00  0.00000000000E+00 -0.17792560352E+03  0.53070568859E+03  0.49999100743E+03 0.  0.
        3    1    3    3  502    0  0.62899624322E+02 -0.20370460577E+03 -0.22754275269E+03  0.31181347574E+03  0.10100000352E+00 0. -1.
       -3    1    3    3    0  502 -0.62899624322E+02  0.20370460577E+03  0.49617149164E+02  0.21889221285E+03  0.10100000352E+00 0.  1.
</event>
<event>
 5   0  0.4989875E-03  0.5000763E+03  0.7818609E-02  0.1013759E+00
       -2   -1    0    0    0  501  0.00000000000E+00  0.00000000000E+00  0.57208932520E+03  0.57208932521E+03  0.25500000920E-02 0. -1.
        2   -1    0    0  501    0  0.00000000000E+00  0.00000000000E+00 -0.10928203197E+03  0.10928203200E+03  0.25500000920E-02 0.  1.
    10030    2    1    2    0    0  0.00000000000E+00  0.00000000000E+00  0.46280729324E+03  0.68137135720E+03  0.50007632992E+03 0.  0.
        2    1    3    3  502    0  0.23376360498E+03 -0.60450180432E+02  0.31991007338E+03  0.40080182433E+03  0.25500000920E-02 0. -1.
       -2    1    3    3    0  502 -0.23376360498E+03  0.60450180432E+02  0.14289721985E+03  0.28056953287E+03  0.25500000920E-02 0.  1.
</event>
<event>
 5   0  0.4889251E-03  0.5028979E+03  0.7818609E-02  0.1013025E+00
       -2   -1    0    0    0  501  0.00000000000E+00  0.00000000000E+00  0.26130471343E+03  0.26130471344E+03  0.25500000920E-02 0.  1.
        2   -1    0    0  501    0  0.00000000000E+00  0.00000000000E+00 -0.24196488821E+03  0.24196488822E+03  0.25500000920E-02 0. -1.
    10030    2    1    2    0    0  0.00000000000E+00  0.00000000000E+00  0.19339825221E+02  0.50326960167E+03  0.50289786550E+03 0.  0.
        5    1    3    3  502    0  0.15005441888E+03 -0.58174878908E+02 -0.18361485168E+03  0.24420718441E+03  0.46999998093E+01 0. -1.
       -5    1    3    3    0  502 -0.15005441888E+03  0.58174878908E+02  0.20295467690E+03  0.25906241726E+03  0.46999998093E+01 0.  1.
</event>
<event>
 5   0  0.2005125E-03  0.4999455E+03  0.7818609E-02  0.1013793E+00
        3   -1    0    0  501    0  0.00000000000E+00  0.00000000000E+00  0.88320864577E+03  0.88320865154E+03  0.10100000352E+00 0.  1.
       -3   -1    0    0    0  501  0.00000000000E+00  0.00000000000E+00 -0.70749233940E+02  0.70749306033E+02  0.10100000352E+00 0. -1.
    10030    2    1    2    0    0  0.00000000000E+00  0.00000000000E+00  0.81245941183E+03  0.95395795757E+03  0.49994548598E+03 0.  0.
        5    1    3    3  502    0  0.17505964094E+03 -0.11638568253E+03  0.66416386661E+03  0.69665431649E+03  0.46999998093E+01 0.  1.
       -5    1    3    3    0  502 -0.17505964094E+03  0.11638568253E+03  0.14829554522E+03  0.25730364108E+03  0.46999998093E+01 0. -1.
</event>
<event>
 5   0  0.3211775E-03  0.5007728E+03  0.7818609E-02  0.1013577E+00
       -1   -1    0    0    0  501  0.00000000000E+00  0.00000000000E+00  0.69635792703E+03  0.69635792705E+03  0.50400001928E-02 0.  1.
        1   -1    0    0  501    0  0.00000000000E+00  0.00000000000E+00 -0.90030343100E+02  0.90030343241E+02  0.50400001928E-02 0. -1.
    10030    2    1    2    0    0  0.00000000000E+00  0.00000000000E+00  0.60632758393E+03  0.78638827029E+03  0.50077277543E+03 0.  0.
        4    1    3    3  502    0  0.84104602113E+02 -0.21546048281E+03  0.45374488585E+03  0.50929641476E+03  0.12699999809E+01 0. -1.
       -4    1    3    3    0  502 -0.84104602113E+02  0.21546048281E+03  0.15258269807E+03  0.27709185553E+03  0.12699999809E+01 0.  1.
</event>
<event>
 5   0  0.2863538E-03  0.5018111E+03  0.7818609E-02  0.1013307E+00
        1   -1    0    0  501    0  0.00000000000E+00  0.00000000000E+00  0.25161113540E+03  0.25161113545E+03  0.50400001928E-02 0.  1.
       -1   -1    0    0    0  501  0.00000000000E+00  0.00000000000E+00 -0.25020198179E+03  0.25020198184E+03  0.50400001928E-02 0. -1.
    10030    2    1    2    0    0  0.00000000000E+00  0.00000000000E+00  0.14091536086E+01  0.50181311730E+03  0.50181113875E+03 0.  0.
        1    1    3    3  502    0 -0.13553399591E+03 -0.17123007729E+03  0.12425424970E+03  0.25125350149E+03  0.50400001928E-02 0.  1.
       -1    1    3    3    0  502  0.13553399591E+03  0.17123007729E+03 -0.12284509609E+03  0.25055961581E+03  0.50400001928E-02 0. -1.
</event>
<event>
 5   0  0.4989875E-03  0.5000264E+03  0.7818609E-02  0.1013772E+00
        2   -1    0    0  501    0  0.00000000000E+00  0.00000000000E+00  0.11473048480E+04  0.11473048480E+04  0.25500000920E-02 0.  1.
       -2   -1    0    0    0  501  0.00000000000E+00  0.00000000000E+00 -0.54481245485E+02  0.54481245545E+02  0.25500000920E-02 0. -1.
    10030    2    1    2    0    0  0.00000000000E+00  0.00000000000E+00  0.10928236025E+04  0.12017860936E+04  0.50002638774E+03 0.  0.
        2    1    3    3  502    0 -0.56297787939E+02  0.18300277853E+02 -0.37394205681E+02  0.70019052560E+02  0.25500000920E-02 0. -1.
       -2    1    3    3    0  502  0.56297787939E+02 -0.18300277853E+02  0.11302178082E+04  0.11317670410E+04  0.25500000920E-02 0.  1.
</event>
<event>
 5   0  0.3057783E-03  0.5000835E+03  0.7818609E-02  0.1013757E+00
       -1   -1    0    0    0  501  0.00000000000E+00  0.00000000000E+00  0.49046033306E+02  0.49046033564E+02  0.50400001928E-02 0.  1.
        1   -1    0    0  501    0  0.00000000000E+00  0.00000000000E+00 -0.12747386362E+04  0.12747386362E+04  0.50400001928E-02 0. -1.
    10030    2    1    2    0    0  0.00000000000E+00  0.00000000000E+00 -0.12256926029E+04  0.13237846698E+04  0.50008348817E+03 0.  0.
        5    1    3    3  502    0  0.51909645199E+01  0.17135423292E+03 -0.10945184849E+04  0.11078727468E+04  0.46999998093E+01 0. -1.
       -5    1    3    3    0  502 -0.51909645199E+01 -0.17135423292E+03 -0.13117411793E+03  0.21591192294E+03  0.46999998093E+01 0.  1.
</event>
<event>
 5   0  0.3211775E-03  0.5000212E+03  0.7818609E-02  0.1013773E+00
        1   -1    0    0  501    0  0.00000000000E+00  0.00000000000E+00  0.10026815923E+04  0.10026815923E+04  0.50400001928E-02 0. -1.
       -1   -1    0    0    0  501  0.00000000000E+00  0.00000000000E+00 -0.62338129836E+02  0.62338130039E+02  0.50400001928E-02 0.  1.
    10030    2    1    2    0    0  0.00000000000E+00  0.00000000000E+00  0.94034346248E+03  0.10650197224E+04  0.50002118116E+03 0.  0.
        4    1    3    3  502    0  0.10092988119E+03 -0.14192193466E+03  0.85222908841E+03  0.86984177210E+03  0.12699999809E+01 0. -1.
       -4    1    3    3    0  502 -0.10092988119E+03  0.14192193466E+03  0.88114374073E+02  0.19517795027E+03  0.12699999809E+01 0.  1.
</event>
<event>
 5   0  0.5095783E-03  0.4997776E+03  0.7818609E-02  0.1013837E+00
       -2   -1    0    0    0  501  0.00000000000E+00  0.00000000000E+00  0.15374928319E+03  0.15374928321E+03  0.25500000920E-02 0. -1.
        2   -1    0    0  501    0  0.00000000000E+00  0.00000000000E+00 -0.40614446878E+03  0.40614446879E+03  0.25500000920E-02 0.  1.
    10030    2    1    2    0    0  0.00000000000E+00  0.00000000000E+00 -0.25239518559E+03  0.55989375200E+03  0.49977763437E+03 0.  0.
        4    1    3    3  502    0 -0.27735333550E+02 -0.77195804413E+02  0.13823342999E+03  0.16074369354E+03  0.12699999809E+01 0. -1.
       -4    1    3    3    0  502  0.27735333550E+02  0.77195804413E+02 -0.39062861559E+03  0.39915005845E+03  0.12699999809E+01 0.  1.
</event>
<event>
 5   0  0.3057783E-03  0.5001528E+03  0.7818609E-02  0.1013739E+00
        1   -1    0    0  501    0  0.00000000000E+00  0.00000000000E+00  0.36478041544E+03  0.36478041547E+03  0.50400001928E-02 0. -1.
       -1   -1    0    0    0  501  0.00000000000E+00  0.00000000000E+00 -0.17144066066E+03  0.17144066073E+03  0.50400001928E-02 0.  1.
    10030    2    1    2    0    0  0.00000000000E+00  0.00000000000E+00  0.19333975478E+03  0.53622107620E+03  0.50015275845E+03 0.  0.
        5    1    3    3  502    0 -0.24591336401E+03  0.40454725644E+02  0.75063695071E+02  0.26032021770E+03  0.46999998093E+01 0.  1.
       -5    1    3    3    0  502  0.24591336401E+03 -0.40454725644E+02  0.11827605971E+03  0.27590085851E+03  0.46999998093E+01 0. -1.
</event>
<event>
 5   0  0.4889251E-03  0.5006088E+03  0.7818609E-02  0.1013620E+00
       -2   -1    0    0    0  501  0.00000000000E+00  0.00000000000E+00  0.86118637160E+02  0.86118637198E+02  0.25500000920E-02 0.  1.
        2   -1    0    0  501    0  0.00000000000E+00  0.00000000000E+00 -0.72751151812E+03  0.72751151813E+03  0.25500000920E-02 0. -1.
    10030    2    1    2    0    0  0.00000000000E+00  0.00000000000E+00 -0.64139288096E+03  0.81363015532E+03  0.50060883123E+03 0.  0.
        5    1    3    3  502    0 -0.58967764409E+01  0.22831187897E+03 -0.48699317080E+03  0.53790847219E+03  0.46999998093E+01 0. -1.
       -5    1    3    3    0  502  0.58967764409E+01 -0.22831187897E+03 -0.15439971016E+03  0.27572168313E+03  0.46999998093E+01 0.  1.
</event>
<event>
 5   0  0.4978779E-03  0.5001479E+03  0.7818609E-02  0.1013740E+00
       -2   -1    0    0    0  501  0.00000000000E+00  0.00000000000E+00  0.24039108032E+03  0.24039108033E+03  0.25500000920E-02 0. -1.
        2   -1    0    0  501    0  0.00000000000E+00  0.00000000000E+00 -0.26014680340E+03  0.26014680341E+03  0.25500000920E-02 0.  1.
    10030    2    1    2    0    0  0.00000000000E+00  0.00000000000E+00 -0.19755723078E+02  0.50053788375E+03  0.50014786261E+03 0.  0.
        1    1    3    3  502    0  0.11142458422E+03 -0.22198170889E+03 -0.38980669978E+02  0.25141760023E+03  0.50400001928E-02 0. -1.
       -1    1    3    3    0  502 -0.11142458422E+03  0.22198170889E+03  0.19224946899E+02  0.24912028351E+03  0.50400001928E-02 0.  1.
</event>
<event>
 5   0  0.2863538E-03  0.4999056E+03  0.7818609E-02  0.1013804E+00
        1   -1    0    0  501    0  0.00000000000E+00  0.00000000000E+00  0.30372533039E+03  0.30372533043E+03  0.50400001928E-02 0. -1.
       -1   -1    0    0    0  501  0.00000000000E+00  0.00000000000E+00 -0.20570035196E+03  0.20570035202E+03  0.50400001928E-02 0.  1.
    10030    2    1    2    0    0  0.00000000000E+00  0.00000000000E+00  0.98024978426E+02  0.50942568245E+03  0.49990562064E+03 0.  0.
        1    1    3    3  502    0 -0.61281434953E+02 -0.13687135335E+03  0.25278868640E+03  0.29392397255E+03  0.50400001928E-02 0. -1.
       -1    1    3    3    0  502  0.61281434953E+02  0.13687135335E+03 -0.15476370798E+03  0.21550170990E+03  0.50400001928E-02 0.  1.
</event>
<event>
 5   0  0.2005125E-03  0.4999633E+03  0.7818609E-02  0.1013788E+00
       -3   -1    0    0    0  501  0.00000000000E+00  0.00000000000E+00  0.51139599917E+03  0.51139600915E+03  0.10100000352E+00 0.  1.
        3   -1    0    0  501    0  0.00000000000E+00  0.00000000000E+00 -0.12219652615E+03  0.12219656789E+03  0.10100000352E+00 0. -1.
    10030    2    1    2    0    0  0.00000000000E+00  0.00000000000E+00  0.38919947302E+03  0.63359257704E+03  0.49996332253E+03 0.  0.
        4    1    3    3  502    0  0.12635941496E+03  0.38757021008E+02  0.46349097794E+03  0.48196919814E+03  0.12699999809E+01 0.  1.
       -4    1    3    3    0  502 -0.12635941496E+03 -0.38757021008E+02 -0.74291504915E+02  0.15162337890E+03  0.12699999809E+01 0. -1.
</event>
<event>
 5   0  0.3013734E-03  0.4988200E+03  0.7818609E-02  0.1014087E+00
        1   -1    0    0  501    0  0.00000000000E+00  0.00000000000E+00  0.16141977104E+04  0.16141977104E+04  0.50400001928E-02 0.  1.
       -1   -1    0    0    0  501  0.00000000000E+00  0.00000000000E+00 -0.38536393930E+02  0.38536394260E+02  0.50400001928E-02 0. -1.
    10030    2    1    2    0    0  0.00000000000E+00  0.00000000000E+00  0.15756613164E+04  0.16527341046E+04  0.49882004421E+03 0.  0.
        2    1    3    3  502    0 -0.33301510843E+02  0.93667982094E+02  0.15457169868E+04  0.15489104832E+04  0.25500000920E-02 0.  1.
       -2    1    3    3    0  502  0.33301510843E+02 -0.93667982094E+02  0.29944329622E+02  0.10382362148E+03  0.25500000920E-02 0. -1.
</event>
<event>
 5   0  0.3211775E-03  0.5003774E+03  0.7818609E-02  0.1013680E+00
        1   -1    0    0  501    0  0.00000000000E+00  0.00000000000E+00  0.23418159993E+03  0.23418159999E+03  0.50400001928E-02 0.  1.
       -1   -1    0    0    0  501  0.00000000000E+00  0.00000000000E+00 -0.26728997219E+03  0.26728997224E+03  0.50400001928E-02 0. -1.
    10030    2    1    2    0    0  0.00000000000E+00  0.00000000000E+00 -0.33108372260E+02  0.50147157223E+03  0.50037743098E+03 0.  0.
        4    1    3    3  502    0  0.99149471602E+02  0.22911147060E+03 -0.83628281807E-01  0.24964835984E+03  0.12699999809E+01 0.  1.
       -4    1    3    3    0  502 -0.99149471602E+02 -0.22911147060E+03 -0.33024743978E+02  0.25182321238E+03  0.12699999809E+01 0. -1.
</event>
<event>
 5   0  0.3211775E-03  0.5000736E+03  0.7818609E-02  0.1013760E+00
       -1   -1    0    0    0  501  0.00000000000E+00  0.00000000000E+00  0.91547972866E+02  0.91547973005E+02  0.50400001928E-02 0. -1.
        1   -1    0    0  501    0  0.00000000000E+00  0.00000000000E+00 -0.68290313030E+03  0.68290313032E+03  0.50400001928E-02 0.  1.
    10030    2    1    2    0    0  0.00000000000E+00  0.00000000000E+00 -0.59135515744E+03  0.77445110333E+03  0.50007358380E+03 0.  0.
        4    1    3    3  502    0  0.22310267066E+03  0.11234287633E+03 -0.27863787592E+03  0.37421438015E+03  0.12699999809E+01 0.  1.
       -4    1    3    3    0  502 -0.22310267066E+03 -0.11234287633E+03 -0.31271728152E+03  0.40023672317E+03  0.12699999809E+01 0. -1.
</event>
<event>
 5   0  0.2863538E-03  0.5001335E+03  0.7818609E-02  0.1013744E+00
        1   -1    0    0  501    0  0.00000000000E+00  0.00000000000E+00  0.56479204505E+02  0.56479204730E+02  0.50400001928E-02 0.  1.
       -1   -1    0    0    0  501  0.00000000000E+00  0.00000000000E+00 -0.11071930173E+04  0.11071930173E+04  0.50400001928E-02 0. -1.
    10030    2    1    2    0    0  0.00000000000E+00  0.00000000000E+00 -0.10507138128E+04  0.11636722221E+04  0.50013350614E+03 0.  0.
        1    1    3    3  502    0  0.15556010952E+03 -0.17343519866E+03 -0.73675177802E+03  0.77271074682E+03  0.50400001928E-02 0. -1.
       -1    1    3    3    0  502 -0.15556010952E+03  0.17343519866E+03 -0.31396203481E+03  0.39096147526E+03  0.50400001928E-02 0.  1.
</event>
<event>
 5   0  0.4889251E-03  0.5000225E+03  0.7818609E-02  0.1013773E+00
       -2   -1    0    0    0  501  0.00000000000E+00  0.00000000000E+00  0.64385008195E+02  0.64385008245E+02  0.25500000920E-02 0.  1.
        2   -1    0    0  501    0  0.00000000000E+00  0.00000000000E+00 -0.97081019890E+03  0.97081019890E+03  0.25500000920E-02 0. -1.
    10030    2    1    2    0    0  0.00000000000E+00  0.00000000000E+00 -0.90642519071E+03  0.10351952071E+04  0.50002249005E+03 0.  0.
        5    1    3    3  502    0  0.11884158082E+03  0.75198330896E+02 -0.25379649757E+02  0.14298365963E+03  0.46999998093E+01 0.  1.
       -5    1    3    3    0  502 -0.11884158082E+03 -0.75198330896E+02 -0.88104554095E+03  0.89221154752E+03  0.46999998093E+01 0. -1.
</event>
<event>
 5   0  0.4989875E-03  0.4999150E+03  0.7818609E-02  0.1013801E+00
       -2   -1    0    0    0  501  0.00000000000E+00  0.00000000000E+00  0.44675565078E+02  0.44675565151E+02  0.25500000920E-02 0. -1.
        2   -1    0    0  501    0  0.00000000000E+00  0.00000000000E+00 -0.13984995719E+04  0.13984995719E+04  0.25500000920E-02 0.  1.
    10030    2    1    2    0    0  0.00000000000E+00  0.00000000000E+00 -0.13538240068E+04  0.14431751371E+04  0.49991502754E+03 0.  0.
        2    1    3    3  502    0  0.17712103990E+03 -0.17612108637E+03 -0.70403277032E+03  0.74702921063E+03  0.25500000920E-02 0. -1.
       -2    1    3    3    0  502 -0.17712103990E+03  0.17612108637E+03 -0.64979123650E+03  0.69614592642E+03  0.25500000920E-02 0.  1.
</event>
<event>
 5   0  0.3013734E-03  0.5000456E+03  0.7818609E-02  0.1013767E+00
        1   -1    0    0  501    0  0.00000000000E+00  0.00000000000E+00  0.48570408850E+03  0.48570408853E+03  0.50400001928E-02 0.  1.
       -1   -1    0    0    0  501  0.00000000000E+00  0.00000000000E+00 -0.12870263932E+03  0.12870263942E+03  0.50400001928E-02 0. -1.
    10030    2    1    2    0    0  0.00000000000E+00  0.00000000000E+00  0.35700144918E+03  0.61440672794E+03  0.50004559054E+03 0.  0.
        2    1    3    3  502    0 -0.58069984996E+02 -0.16665648446E+03 -0.39103966343E+02  0.18076400958E+03  0.25500000920E-02 0.  1.
       -2    1    3    3    0  502  0.58069984996E+02  0.16665648446E+03  0.39610541552E+03  0.43364271836E+03  0.25500000920E-02 0. -1.
</event>
<event>
 5   0  0.3211775E-03  0.4999485E+03  0.7818609E-02  0.1013792E+00
       -1   -1    0    0    0  501  0.00000000000E+00  0.00000000000E+00  0.77074698520E+03  0.77074698522E+03  0.50400001928E-02 0.  1.
        1   -1    0    0  501    0  0.00000000000E+00  0.00000000000E+00 -0.81073470514E+02  0.81073470671E+02  0.50400001928E-02 0. -1.
    10030    2    1    2    0    0  0.00000000000E+00  0.00000000000E+00  0.68967351469E+03  0.85182045589E+03  0.49994852956E+03 0.  0.
        4    1    3    3  502    0 -0.88982336890E+02  0.22016416379E+03  0.47785893345E+03  0.53361117723E+03  0.12699999809E+01 0.  1.
       -4    1    3    3    0  502  0.88982336890E+02 -0.22016416379E+03  0.21181458124E+03  0.31820927866E+03  0.12699999809E+01 0. -1.
</event>
<event>
 5   0  0.2863538E-03  0.5000140E+03  0.7818609E-02  0.1013775E+00
       -1   -1    0    0    0  501  0.00000000000E+00  0.00000000000E+00  0.53165605664E+03  0.53165605667E+03  0.50400001928E-02 0. -1.
        1   -1    0    0  501    0  0.00000000000E+00  0.00000000000E+00 -0.11756380750E+03  0.11756380761E+03  0.50400001928E-02 0.  1.
    10030    2    1    2    0    0  0.00000000000E+00  0.00000000000E+00  0.41409224914E+03  0.64921986427E+03  0.50001404117E+03 0.  0.
        1    1    3    3  502    0  0.17714278559E+03  0.22167978670E+02  0.43429460847E+03  0.46955595272E+03  0.50400001928E-02 0. -1.
       -1    1    3    3    0  502 -0.17714278559E+03 -0.22167978670E+02 -0.20202359327E+02  0.17966391155E+03  0.50400001928E-02 0.  1.
</event>
<event>
 5   0  0.2863538E-03  0.4999385E+03  0.7818609E-02  0.1013795E+00
       -1   -1    0    0    0  501  0.00000000000E+00  0.00000000000E+00  0.13715507427E+03  0.13715507436E+03  0.50400001928E-02 0. -1.
        1   -1    0    0  501    0  0.00000000000E+00  0.00000000000E+00 -0.45557639775E+03  0.45557639778E+03  0.50400001928E-02 0.  1.
    10030    2    1    2    0    0  0.00000000000E+00  0.00000000000E+00 -0.31842132348E+03  0.59273147214E+03  0.49993845503E+03 0.  0.
        1    1    3    3  502    0 -0.18761361545E+03  0.14678730500E+03 -0.24902969461E+03  0.34461742619E+03  0.50400001928E-02 0. -1.
       -1    1    3    3    0  502  0.18761361545E+03 -0.14678730500E+03 -0.69391628866E+02  0.24811404594E+03  0.50400001928E-02 0.  1.
</event>
<event>
 5   0  0.2005125E-03  0.4999613E+03  0.7818609E-02  0.1013789E+00
       -3   -1    0    0    0  501  0.00000000000E+00  0.00000000000E+00  0.17921072358E+03  0.17921075204E+03  0.10100000352E+00 0.  1.
        3   -1    0    0  501    0  0.00000000000E+00  0.00000000000E+00 -0.34869738463E+03  0.34869739926E+03  0.10100000352E+00 0. -1.
    10030    2    1    2    0    0  0.00000000000E+00  0.00000000000E+00 -0.16948666105E+03  0.52790815130E+03  0.49996128644E+03 0.  0.
        3    1    3    3  502    0  0.69357093477E+02  0.79518981040E+02  0.15454431673E+03  0.18712998369E+03  0.10100000352E+00 0.  1.
       -3    1    3    3    0  502 -0.69357093477E+02 -0.79518981040E+02 -0.32403097778E+03  0.34077816761E+03  0.10100000352E+00 0. -1.
</event>
<event>
 5   0  0.3013734E-03  0.5001122E+03  0.7818609E-02  0.1013750E+00
        1   -1    0    0  501    0  0.00000000000E+00  0.00000000000E+00  0.47295606832E+03  0.47295606835E+03  0.50400001928E-02 0. -1.
       -1   -1    0    0    0  501  0.00000000000E+00  0.00000000000E+00 -0.13220690797E+03  0.13220690807E+03  0.50400001928E-02 0.  1.
    10030    2    1    2    0    0  0.00000000000E+00  0.00000000000E+00  0.34074916035E+03  0.60516297642E+03  0.50011222515E+03 0.  0.
        2    1    3    3  502    0 -0.12409941076E+03 -0.95039235447E+02  0.40655208109E+03  0.43556597052E+03  0.25500000920E-02 0. -1.
       -2    1    3    3    0  502  0.12409941076E+03  0.95039235447E+02 -0.65802920738E+02  0.16959700590E+03  0.25500000920E-02 0.  1.
</event>
<event>
 5   0  0.3211775E-03  0.4999058E+03  0.7818609E-02  0.1013804E+00
        1   -1    0    0  501    0  0.00000000000E+00  0.00000000000E+00  0.34829752770E+03  0.34829752773E+03  0.50400001928E-02 0. -1.
       -1   -1    0    0    0  501  0.00000000000E+00  0.00000000000E+00 -0.17937666870E+03  0.17937666877E+03  0.50400001928E-02 0.  1.
    10030    2    1    2    0    0  0.00000000000E+00  0.00000000000E+00  0.16892085900E+03  0.52767419650E+03  0.49990579217E+03 0.  0.
        4    1    3    3  502    0 -0.14730333476E+03 -0.15697628432E+03  0.21853991132E+03  0.30675907813E+03  0.12699999809E+01 0. -1.
       -4    1    3    3    0  502  0.14730333476E+03  0.15697628432E+03 -0.49619052324E+02  0.22091511837E+03  0.12699999809E+01 0.  1.
</event>
<event>
 5   0  0.3055293E-03  0.5001409E+03  0.7818609E-02  0.1013742E+00
        1   -1    0    0  501    0  0.00000000000E+00  0.00000000000E+00  0.20984949934E+03  0.20984949940E+03  0.50400001928E-02 0. -1.
       -1   -1    0    0    0  501  0.00000000000E+00  0.00000000000E+00 -0.29800035926E+03  0.29800035930E+03  0.50400001928E-02 0.  1.
    10030    2    1    2    0    0  0.00000000000E+00  0.00000000000E+00 -0.88150859916E+02  0.50784985870E+03  0.50014088503E+03 0.  0.
        3    1    3    3  502    0 -0.17749093582E+03 -0.26229959698E+02 -0.22095620400E+03  0.28462729555E+03  0.10100000352E+00 0.  1.
       -3    1    3    3    0  502  0.17749093582E+03  0.26229959698E+02  0.13280534408E+03  0.22322256316E+03  0.10100000352E+00 0. -1.
</event>
<event>
 5   0  0.4989875E-03  0.5005948E+03  0.7818609E-02  0.1013624E+00
        2   -1    0    0  501    0  0.00000000000E+00  0.00000000000E+00  0.78402802608E+03  0.78402802608E+03  0.25500000920E-02 0. -1.
       -2   -1    0    0    0  501  0.00000000000E+00  0.00000000000E+00 -0.79906297355E+02  0.79906297396E+02  0.25500000920E-02 0.  1.
    10030    2    1    2    0    0  0.00000000000E+00  0.00000000000E+00  0.70412172872E+03  0.86393432348E+03  0.50059475269E+03 0.  0.
        2    1    3    3  502    0 -0.22536393140E+03  0.18727775199E+02  0.16691416462E+03  0.28106933219E+03  0.25500000920E-02 0.  1.
       -2    1    3    3    0  502  0.22536393140E+03 -0.18727775199E+02  0.53720756410E+03  0.58286499129E+03  0.25500000920E-02 0. -1.
</event>
<event>
 5   0  0.3057783E-03  0.5001442E+03  0.7818609E-02  0.1013741E+00
        1   -1    0    0  501    0  0.00000000000E+00  0.00000000000E+00  0.60177930498E+03  0.60177930500E+03  0.50400001928E-02 0. -1.
       -1   -1    0    0    0  501  0.00000000000E+00  0.00000000000E+00 -0.10391859447E+03  0.10391859459E+03  0.50400001928E-02 0.  1.
    10030    2    1    2    0    0  0.00000000000E+00  0.00000000000E+00  0.49786071051E+03  0.70569789960E+03  0.50014421762E+03 0.  0.
        5    1    3    3  502    0  0.99498186779E+02 -0.19958906689E+03  0.89430661095E+02  0.24032398535E+03  0.46999998093E+01 0.  1.
       -5    1    3    3    0  502 -0.99498186779E+02  0.19958906689E+03  0.40843004942E+03  0.46537391424E+03  0.46999998093E+01 0. -1.
</event>
<event>
 5   0  0.4978779E-03  0.5000497E+03  0.7818609E-02  0.1013766E+00
       -2   -1    0    0    0  501  0.00000000000E+00  0.00000000000E+00  0.31661512229E+02  0.31661512331E+02  0.25500000920E-02 0. -1.
        2   -1    0    0  501    0  0.00000000000E+00  0.00000000000E+00 -0.19743977650E+04  0.19743977650E+04  0.25500000920E-02 0.  1.
    10030    2    1    2    0    0  0.00000000000E+00  0.00000000000E+00 -0.19427362528E+04  0.20060592773E+04  0.50004967388E+03 0.  0.
        1    1    3    3  502    0  0.35287971012E+02 -0.13294661311E+02 -0.19629240310E+04  0.19632862095E+04  0.50400001928E-02 0.  1.
       -1    1    3    3    0  502 -0.35287971012E+02  0.13294661311E+02  0.20187778220E+02  0.42773067840E+02  0.50400001928E-02 0. -1.
</event>
<event>
 5   0  0.3055293E-03  0.4999728E+03  0.7818609E-02  0.1013786E+00
       -1   -1    0    0    0  501  0.00000000000E+00  0.00000000000E+00  0.39453018206E+03  0.39453018210E+03  0.50400001928E-02 0. -1.
        1   -1    0    0  501    0  0.00000000000E+00  0.00000000000E+00 -0.15839904839E+03  0.15839904847E+03  0.50400001928E-02 0.  1.
    10030    2    1    2    0    0  0.00000000000E+00  0.00000000000E+00  0.23613113368E+03  0.55292923057E+03  0.49997282099E+03 0.  0.
        3    1    3    3  502    0  0.19640686903E+03 -0.57221841658E+02 -0.40829948854E+02  0.20860750775E+03  0.10100000352E+00 0.  1.
       -3    1    3    3    0  502 -0.19640686903E+03  0.57221841658E+02  0.27696108253E+03  0.34432172282E+03  0.10100000352E+00 0. -1.
</event>
<event>
 5   0  0.4978779E-03  0.5003436E+03  0.7818609E-02  0.1013689E+00
        2   -1    0    0  501    0  0.00000000000E+00  0.00000000000E+00  0.12851816192E+04  0.12851816192E+04  0.25500000920E-02 0. -1.
       -2   -1    0    0    0  501  0.00000000000E+00  0.00000000000E+00 -0.48698112873E+02  0.48698112940E+02  0.25500000920E-02 0.  1.
    10030    2    1    2    0    0  0.00000000000E+00  0.00000000000E+00  0.12364835063E+04  0.13338797322E+04  0.50034356037E+03 0.  0.
        1    1    3    3  502    0  0.14577460237E+03 -0.84885442256E+02  0.11107544554E+04  0.11234906467E+04  0.50400001928E-02 0. -1.
       -1    1    3    3    0  502 -0.14577460237E+03  0.84885442256E+02  0.12572905093E+03  0.21038908545E+03  0.50400001928E-02 0.  1.
</event>
<event>
 5   0  0.2863538E-03  0.5000292E+03  0.7818609E-02  0.1013771E+00
       -1   -1    0    0    0  501  0.00000000000E+00  0.00000000000E+00  0.18274929731E+03  0.18274929738E+03  0.50400001928E-02 0.  1.
        1   -1    0    0  501    0  0.00000000000E+00  0.00000000000E+00 -0.34203855206E+03  0.34203855210E+03  0.50400001928E-02 0. -1.
    10030    2    1    2    0    0  0.00000000000E+00  0.00000000000E+00 -0.15928925475E+03  0.52478784947E+03  0.50002921942E+03 0.  0.
        1    1    3    3  502    0  0.91668756493E+02 -0.13344331822E+03  0.12030652106E+03  0.20170260070E+03  0.50400001928E-02 0.  1.
       -1    1    3    3    0  502 -0.91668756493E+02  0.13344331822E+03 -0.27959577582E+03  0.32308524877E+03  0.50400001928E-02 0. -1.
</event>
<event>
 5   0  0.4889251E-03  0.4994443E+03  0.7818609E-02  0.1013924E+00
       -2   -1    0    0    0  501  0.00000000000E+00  0.00000000000E+00  0.64295054794E+02  0.64295054845E+02  0.25500000920E-02 0. -1.
        2   -1    0    0  501    0  0.00000000000E+00  0.00000000000E+00 -0.96992125701E+03  0.96992125701E+03  0.25500000920E-02 0.  1.
    10030    2    1    2    0    0  0.00000000000E+00  0.00000000000E+00 -0.90562620222E+03  0.10342163119E+04  0.49944425272E+03 0.  0.
        5    1    3    3  502    0  0.25009817528E+02  0.37129081232E+02 -0.96145131859E+03  0.96250443514E+03  0.46999998093E+01 0.  1.
       -5    1    3    3    0  502 -0.25009817528E+02 -0.37129081232E+02  0.55825116375E+02  0.71711876718E+02  0.46999998093E+01 0. -1.
</event>
<event>
 5   0  0.3013734E-03  0.5001339E+03  0.7818609E-02  0.1013744E+00
       -1   -1    0    0    0  501  0.00000000000E+00  0.00000000000E+00  0.57816927143E+02  0.57816927363E+02  0.50400001928E-02 0.  1.
        1   -1    0    0  501    0  0.00000000000E+00  0.00000000000E+00 -0.10815773982E+04  0.10815773982E+04  0.50400001928E-02 0. -1.
    10030    2    1    2    0    0  0.00000000000E+00  0.00000000000E+00 -0.10237604711E+04  0.11393943256E+04  0.50013390912E+03 0.  0.
        2    1    3    3  502    0  0.83024274149E+02 -0.45565643602E+02 -0.10391406411E+04  0.10434474256E+04  0.25500000920E-02 0. -1.
       -2    1    3    3    0  502 -0.83024274149E+02  0.45565643602E+02  0.15380170066E+02  0.95946899963E+02  0.25500000920E-02 0.  1.
</event>
<event>
 5   0  0.5118882E-03  0.4999039E+03  0.7818609E-02  0.1013804E+00
       -2   -1    0    0    0  501  0.00000000000E+00  0.00000000000E+00  0.75020374160E+02  0.75020374204E+02  0.25500000920E-02 0. -1.
        2   -1    0    0  501    0  0.00000000000E+00  0.00000000000E+00 -0.83278668021E+03  0.83278668022E+03  0.25500000920E-02 0.  1.
    10030    2    1    2    0    0  0.00000000000E+00  0.00000000000E+00 -0.75776630605E+03  0.90780705442E+03  0.49990386422E+03 0.  0.
        3    1    3    3  502    0  0.45923088288E+02 -0.11855127492E+03 -0.76968512852E+03  0.78011444166E+03  0.10100000352E+00 0.  1.
       -3    1    3    3    0  502 -0.45923088288E+02  0.11855127492E+03  0.11918822468E+02  0.12769261276E+03  0.10100000352E+00 0. -1.
</event>
<event>
 5   0  0.4989875E-03  0.5001853E+03  0.7818609E-02  0.1013731E+00
       -2   -1    0    0    0  501  0.00000000000E+00  0.00000000000E+00  0.12644282929E+03  0.12644282932E+03  0.25500000920E-02 0. -1.
        2   -1    0    0  501    0  0.00000000000E+00  0.00000000000E+00 -0.49466103951E+03  0.49466103952E+03  0.25500000920E-02 0.  1.
    10030    2    1    2    0    0  0.00000000000E+00  0.00000000000E+00 -0.36821821022E+03  0.62110386883E+03  0.50018533120E+03 0.  0.
        2    1    3    3  502    0 -0.16153852015E+03  0.17965857911E+03 -0.10387989014E+03  0.26298846005E+03  0.25500000920E-02 0. -1.
       -2    1    3    3    0  502  0.16153852015E+03 -0.17965857911E+03 -0.26433832008E+03  0.35811540878E+03  0.25500000920E-02 0.  1.
</event>
<event>
 5   0  0.2005125E-03  0.5003949E+03  0.7818609E-02  0.1013676E+00
       -4   -1    0    0    0  501  0.00000000000E+00  0.00000000000E+00  0.18597138339E+04  0.18597142676E+04  0.12699999809E+01 0.  1.
        4   -1    0    0  501    0  0.00000000000E+00  0.00000000000E+00 -0.33648010642E+02  0.33671969353E+02  0.12699999809E+01 0. -1.
    10030    2    1    2    0    0  0.00000000000E+00  0.00000000000E+00  0.18260658233E+04  0.18933862369E+04  0.50039489526E+03 0.  0.
        1    1    3    3  502    0  0.14159821837E+03 -0.20089869618E+03  0.10900404662E+04  0.11174070697E+04  0.50400001928E-02 0. -1.
       -1    1    3    3    0  502 -0.14159821837E+03  0.20089869618E+03  0.73602535714E+03  0.77597916721E+03  0.50400001928E-02 0.  1.
</event>
<event>
 5   0  0.4889251E-03  0.5000450E+03  0.7818609E-02  0.1013767E+00
       -2   -1    0    0    0  501  0.00000000000E+00  0.00000000000E+00  0.56975470834E+02  0.56975470891E+02  0.25500000920E-02 0. -1.
        2   -1    0    0  501    0  0.00000000000E+00  0.00000000000E+00 -0.10971606836E+04  0.10971606836E+04  0.25500000920E-02 0.  1.
    10030    2    1    2    0    0  0.00000000000E+00  0.00000000000E+00 -0.10401852127E+04  0.11541361544E+04  0.50004498422E+03 0.  0.
        5    1    3    3  502    0  0.24417136205E+02  0.47832574915E+02 -0.10835866558E+04  0.10849268558E+04  0.46999998093E+01 0.  1.
       -5    1    3    3    0  502 -0.24417136205E+02 -0.47832574915E+02  0.43401443077E+02  0.69209298673E+02  0.46999998093E+01 0. -1.
</event>
<event>
 5   0  0.4889251E-03  0.4989902E+03  0.7818609E-02  0.1014043E+00
       -2   -1    0    0    0  501  0.00000000000E+00  0.00000000000E+00  0.25838036199E+02  0.25838036324E+02  0.25500000920E-02 0. -1.
        2   -1    0    0  501    0  0.00000000000E+00  0.00000000000E+00 -0.24091542305E+04  0.24091542305E+04  0.25500000920E-02 0.  1.
    10030    2    1    2    0    0  0.00000000000E+00  0.00000000000E+00 -0.23833161943E+04  0.24349922669E+04  0.49899023787E+03 0.  0.
        5    1    3    3  502    0  0.93235453875E+02  0.40413529808E+02 -0.23033581614E+04  0.23056033945E+04  0.46999998093E+01 0.  1.
       -5    1    3    3    0  502 -0.93235453875E+02 -0.40413529808E+02 -0.79958032946E+02  0.12938887233E+03  0.46999998093E+01 0. -1.
</event>
<event>
 5   0  0.5118882E-03  0.5000392E+03  0.7818609E-02  0.1013769E+00
        2   -1    0    0  501    0  0.00000000000E+00  0.00000000000E+00  0.12417131280E+04  0.12417131280E+04  0.25500000920E-02 0.  1.
       -2   -1    0    0    0  501  0.00000000000E+00  0.00000000000E+00 -0.50341581897E+02  0.50341581961E+02  0.25500000920E-02 0. -1.
    10030    2    1    2    0    0  0.00000000000E+00  0.00000000000E+00  0.11913715461E+04  0.12920547099E+04  0.50003921113E+03 0.  0.
        3    1    3    3  502    0  0.47215754540E+02  0.60239214556E+02 -0.19325852313E+02  0.78940415604E+02  0.10100000352E+00 0. -1.
       -3    1    3    3    0  502 -0.47215754540E+02 -0.60239214556E+02  0.12106973984E+04  0.12131142943E+04  0.10100000352E+00 0.  1.
</event>
<event>
 5   0  0.4978779E-03  0.4999204E+03  0.7818609E-02  0.1013800E+00
        2   -1    0    0  501    0  0.00000000000E+00  0.00000000000E+00  0.29383421257E+03  0.29383421258E+03  0.25500000920E-02 0.  1.
       -2   -1    0    0    0  501  0.00000000000E+00  0.00000000000E+00 -0.21263722080E+03  0.21263722082E+03  0.25500000920E-02 0. -1.
    10030    2    1    2    0    0  0.00000000000E+00  0.00000000000E+00  0.81196991766E+02  0.50647143339E+03  0.49992035503E+03 0.  0.
        1    1    3    3  502    0 -0.17027712479E+03  0.14195570710E+03  0.15758623772E+03  0.27199107403E+03  0.50400001928E-02 0.  1.
       -1    1    3    3    0  502  0.17027712479E+03 -0.14195570710E+03 -0.76389245959E+02  0.23448035937E+03  0.50400001928E-02 0. -1.
</event>
<event>
 5   0  0.3057783E-03  0.4998760E+03  0.7818609E-02  0.1013811E+00
       -1   -1    0    0    0  501  0.00000000000E+00  0.00000000000E+00  0.97026310712E+02  0.97026310843E+02  0.50400001928E-02 0.  1.
        1   -1    0    0  501    0  0.00000000000E+00  0.00000000000E+00 -0.64383579765E+03  0.64383579767E+03  0.50400001928E-02 0. -1.
    10030    2    1    2    0    0  0.00000000000E+00  0.00000000000E+00 -0.54680948694E+03  0.74086210851E+03  0.49987603346E+03 0.  0.
        5    1    3    3  502    0 -0.21421003180E+03  0.57812922418E+02 -0.44380436588E+03  0.49619822339E+03  0.46999998093E+01 0. -1.
       -5    1    3    3    0  502  0.21421003180E+03 -0.57812922418E+02 -0.10300512106E+03  0.24466388513E+03  0.46999998093E+01 0.  1.
</event>
<event>
 5   0  0.2863538E-03  0.5000956E+03  0.7818609E-02  0.1013754E+00
        1   -1    0    0  501    0  0.00000000000E+00  0.00000000000E+00  0.39880559383E+03  0.39880559386E+03  0.50400001928E-02 0. -1.
       -1   -1    0    0    0  501  0.00000000000E+00  0.00000000000E+00 -0.15677791830E+03  0.15677791838E+03  0.50400001928E-02 0.  1.
    10030    2    1    2    0    0  0.00000000000E+00  0.00000000000E+00  0.24202767553E+03  0.55558351224E+03  0.50009563420E+03 0.  0.
        1    1    3    3  502    0  0.20510802484E+02 -0.13291120761E+02 -0.15544773687E+03  0.15735738251E+03  0.50400001928E-02 0.  1.
       -1    1    3    3    0  502 -0.20510802484E+02  0.13291120761E+02  0.39747541240E+03  0.39822612972E+03  0.50400001928E-02 0. -1.
</event>
<event>
 5   0  0.2005125E-03  0.5003452E+03  0.7818609E-02  0.1013689E+00
       -3   -1    0    0    0  501  0.00000000000E+00  0.00000000000E+00  0.25798108327E+03  0.25798110304E+03  0.10100000352E+00 0.  1.
        3   -1    0    0  501    0  0.00000000000E+00  0.00000000000E+00 -0.24260042265E+03  0.24260044367E+03  0.10100000352E+00 0. -1.
    10030    2    1    2    0    0  0.00000000000E+00  0.00000000000E+00  0.15380660617E+02  0.50058154671E+03  0.50034520102E+03 0.  0.
        2    1    3    3  502    0 -0.16366134472E+03  0.58372074032E+02 -0.17237800695E+03  0.24475806844E+03  0.25500000920E-02 0. -1.
       -2    1    3    3    0  502  0.16366134472E+03 -0.58372074032E+02  0.18775866757E+03  0.25582347827E+03  0.25500000920E-02 0.  1.
</event>
<event>
 5   0  0.4989875E-03  0.4991469E+03  0.7818609E-02  0.1014002E+00
       -2   -1    0    0    0  501  0.00000000000E+00  0.00000000000E+00  0.16616323238E+03  0.16616323240E+03  0.25500000920E-02 0. -1.
        2   -1    0    0  501    0  0.00000000000E+00  0.00000000000E+00 -0.37485379332E+03  0.37485379333E+03  0.25500000920E-02 0.  1.
    10030    2    1    2    0    0  0.00000000000E+00  0.00000000000E+00 -0.20869056095E+03  0.54101702573E+03  0.49914694420E+03 0.  0.
        2    1    3    3  502    0 -0.18190795293E+03 -0.49338752448E+02  0.72968556471E+02  0.20211191472E+03  0.25500000920E-02 0. -1.
       -2    1    3    3    0  502  0.18190795293E+03  0.49338752448E+02 -0.28165911742E+03  0.33890511100E+03  0.25500000920E-02 0.  1.
</event>
<event>
 5   0  0.3013734E-03  0.5005288E+03  0.7818609E-02  0.1013641E+00
        1   -1    0    0  501    0  0.00000000000E+00  0.00000000000E+00  0.10637582759E+04  0.10637582759E+04  0.50400001928E-02 0.  1.
       -1   -1    0    0    0  501  0.00000000000E+00  0.00000000000E+00 -0.58878300627E+02  0.58878300843E+02  0.50400001928E-02 0. -1.
    10030    2    1    2    0    0  0.00000000000E+00  0.00000000000E+00  0.10048799753E+04  0.11226365767E+04  0.50052883909E+03 0.  0.
        2    1    3    3  502    0 -0.33025861262E+02  0.38365260824E+02  0.10521551778E+04  0.10533722603E+04  0.25500000920E-02 0.  1.
       -2    1    3    3    0  502  0.33025861262E+02 -0.38365260824E+02 -0.47275202496E+02  0.69264316410E+02  0.25500000920E-02 0. -1.
</event>
<event>
 5   0  0.5118882E-03  0.4999695E+03  0.7818609E-02  0.1013787E+00
        2   -1    0    0  501    0  0.00000000000E+00  0.00000000000E+00  0.20599054885E+04  0.20599054885E+04  0.25500000920E-02 0.  1.
       -2   -1    0    0    0  501  0.00000000000E+00  0.00000000000E+00 -0.30337490370E+02  0.30337490477E+02  0.25500000920E-02 0. -1.
    10030    2    1    2    0    0  0.00000000000E+00  0.00000000000E+00  0.20295679982E+04  0.20902429790E+04  0.49996945121E+03 0.  0.
        3    1    3    3  502    0 -0.58400933176E+02 -0.22982147068E+03  0.68390333065E+03  0.72384553135E+03  0.10100000352E+00 0. -1.
       -3    1    3    3    0  502  0.58400933176E+02  0.22982147068E+03  0.13456646675E+04  0.13663974477E+04  0.10100000352E+00 0.  1.
</event>
<event>
 5   0  0.4889251E-03  0.4998865E+03  0.7818609E-02  0.1013809E+00
       -2   -1    0    0    0  501  0.00000000000E+00  0.00000000000E+00  0.12974996289E+03  0.12974996291E+03  0.25500000920E-02 0. -1.
        2   -1    0    0  501    0  0.00000000000E+00  0.00000000000E+00 -0.48147703850E+03  0.48147703851E+03  0.25500000920E-02 0.  1.
    10030    2    1    2    0    0  0.00000000000E+00  0.00000000000E+00 -0.35172707561E+03  0.61122700142E+03  0.49988649866E+03 0.  0.
        5    1    3    3  502    0 -0.13709993241E+03 -0.45273376692E+02 -0.42526321679E+03  0.44912911691E+03  0.46999998093E+01 0.  1.
       -5    1    3    3    0  502  0.13709993241E+03  0.45273376692E+02  0.73536141175E+02  0.16209788451E+03  0.46999998093E+01 0. -1.
</event>
<event>
 5   0  0.2005125E-03  0.4998087E+03  0.7818609E-02  0.1013829E+00
        3   -1    0    0  501    0  0.00000000000E+00  0.00000000000E+00  0.53986495681E+03  0.53986496626E+03  0.10100000352E+00 0.  1.
       -3   -1    0    0    0  501  0.00000000000E+00  0.00000000000E+00 -0.11568110914E+03  0.11568115323E+03  0.10100000352E+00 0. -1.
    10030    2    1    2    0    0  0.00000000000E+00  0.00000000000E+00  0.42418384767E+03  0.65554611949E+03  0.49980874157E+03 0.  0.
        4    1    3    3  502    0 -0.13385914296E+03  0.20551647964E+03  0.27492929447E+03  0.36843320075E+03  0.12699999809E+01 0.  1.
       -4    1    3    3    0  502  0.13385914296E+03 -0.20551647964E+03  0.14925455320E+03  0.28711291874E+03  0.12699999809E+01 0. -1.
</event>
<event>
 5   0  0.3055293E-03  0.4972328E+03  0.7818609E-02  0.1014504E+00
        1   -1    0    0  501    0  0.00000000000E+00  0.00000000000E+00  0.16263604606E+03  0.16263604613E+03  0.50400001928E-02 0. -1.
       -1   -1    0    0    0  501  0.00000000000E+00  0.00000000000E+00 -0.38005173719E+03  0.38005173723E+03  0.50400001928E-02 0.  1.
    10030    2    1    2    0    0  0.00000000000E+00  0.00000000000E+00 -0.21741569114E+03  0.54268778336E+03  0.49723279001E+03 0.  0.
        3    1    3    3  502    0 -0.14300930753E+03 -0.19737517913E+03 -0.16219255207E+03  0.29277134000E+03  0.10100000352E+00 0. -1.
       -3    1    3    3    0  502  0.14300930753E+03  0.19737517913E+03 -0.55223139065E+02  0.24991644336E+03  0.10100000352E+00 0.  1.
</event>
<event>
 5   0  0.3057783E-03  0.5000170E+03  0.7818609E-02  0.1013774E+00
        1   -1    0    0  501    0  0.00000000000E+00  0.00000000000E+00  0.86460237591E+03  0.86460237593E+03  0.50400001928E-02 0.  1.
       -1   -1    0    0    0  501  0.00000000000E+00  0.00000000000E+00 -0.72292466909E+02  0.72292467085E+02  0.50400001928E-02 0. -1.
    10030    2    1    2    0    0  0.00000000000E+00  0.00000000000E+00  0.79230990901E+03  0.93689484301E+03  0.50001695467E+03 0.  0.
        5    1    3    3  502    0  0.21377305781E+03 -0.49297888465E+02  0.62063443759E+03  0.65828443485E+03  0.46999998093E+01 0.  1.
       -5    1    3    3    0  502 -0.21377305781E+03  0.49297888465E+02  0.17167547142E+03  0.27861040816E+03  0.46999998093E+01 0. -1.
</event>
<event>
 5   0  0.4978779E-03  0.4999896E+03  0.7818609E-02  0.1013782E+00
       -2   -1    0    0    0  501  0.00000000000E+00  0.00000000000E+00  0.11294640718E+03  0.11294640721E+03  0.25500000920E-02 0.  1.
        2   -1    0    0  501    0  0.00000000000E+00  0.00000000000E+00 -0.55333666907E+03  0.55333666908E+03  0.25500000920E-02 0. -1.
    10030    2    1    2    0    0  0.00000000000E+00  0.00000000000E+00 -0.44039026189E+03  0.66628307629E+03  0.49998955487E+03 0.  0.
        1    1    3    3  502    0  0.18836935117E+03 -0.81712697869E+02 -0.41023542165E+03  0.45875165248E+03  0.50400001928E-02 0. -1.
       -1    1    3    3    0  502 -0.18836935117E+03  0.81712697869E+02 -0.30154840243E+02  0.20753142381E+03  0.50400001928E-02 0.  1.
</event>
<event>
 5   0  0.5095783E-03  0.4999268E+03  0.7818609E-02  0.1013798E+00
       -2   -1    0    0    0  501  0.00000000000E+00  0.00000000000E+00  0.15154588860E+03  0.15154588862E+03  0.25500000920E-02 0. -1.
        2   -1    0    0  501    0  0.00000000000E+00  0.00000000000E+00 -0.41229557593E+03  0.41229557594E+03  0.25500000920E-02 0.  1.
    10030    2    1    2    0    0  0.00000000000E+00  0.00000000000E+00 -0.26074968733E+03  0.56384146456E+03  0.49992679236E+03 0.  0.
        4    1    3    3  502    0  0.16731946509E+02  0.10542081672E+03  0.12454521665E+03  0.16403240693E+03  0.12699999809E+01 0. -1.
       -4    1    3    3    0  502 -0.16731946509E+02 -0.10542081672E+03 -0.38529490398E+03  0.39980905764E+03  0.12699999809E+01 0.  1.
</event>
<event>
 5   0  0.2005125E-03  0.4997973E+03  0.7818609E-02  0.1013832E+00
        4   -1    0    0  501    0  0.00000000000E+00  0.00000000000E+00  0.11479036036E+03  0.11479738556E+03  0.12699999809E+01 0. -1.
       -4   -1    0    0    0  501  0.00000000000E+00  0.00000000000E+00 -0.54400498756E+03  0.54400646999E+03  0.12699999809E+01 0.  1.
    10030    2    1    2    0    0  0.00000000000E+00  0.00000000000E+00 -0.42921462720E+03  0.65880385555E+03  0.49979728280E+03 0.  0.
        1    1    3    3  502    0  0.21083201400E+03  0.11818954910E+03 -0.29829037734E+03  0.38392194114E+03  0.50400001928E-02 0.  1.
       -1    1    3    3    0  502 -0.21083201400E+03 -0.11818954910E+03 -0.13092424986E+03  0.27488191442E+03  0.50400001928E-02 0. -1.
</event>
<event>
 5   0  0.3013734E-03  0.5000513E+03  0.7818609E-02  0.1013766E+00
       -1   -1    0    0    0  501  0.00000000000E+00  0.00000000000E+00  0.97250917885E+02  0.97250918016E+02  0.50400001928E-02 0. -1.
        1   -1    0    0  501    0  0.00000000000E+00  0.00000000000E+00 -0.64279945147E+03  0.64279945149E+03  0.50400001928E-02 0.  1.
    10030    2    1    2    0    0  0.00000000000E+00  0.00000000000E+00 -0.54554853358E+03  0.74005036950E+03  0.50005134427E+03 0.  0.
        2    1    3    3  502    0  0.12743618889E+03 -0.10548264364E+03 -0.55022525679E+03  0.57455583154E+03  0.25500000920E-02 0.  1.
       -2    1    3    3    0  502 -0.12743618889E+03  0.10548264364E+03  0.46767232078E+01  0.16549453796E+03  0.25500000920E-02 0. -1.
</event>
<event>
 5   0  0.4889251E-03  0.5000025E+03  0.7818609E-02  0.1013778E+00
       -2   -1    0    0    0  501  0.00000000000E+00  0.00000000000E+00  0.33574264130E+03  0.33574264131E+03  0.25500000920E-02 0.  1.
        2   -1    0    0  501    0  0.00000000000E+00  0.00000000000E+00 -0.18615636939E+03  0.18615636940E+03  0.25500000920E-02 0. -1.
    10030    2    1    2    0    0  0.00000000000E+00  0.00000000000E+00  0.14958627192E+03  0.52189901071E+03  0.50000252463E+03 0.  0.
        5    1    3    3  502    0  0.15873639235E+03 -0.44389342052E+00 -0.12674565379E+03  0.20318462061E+03  0.46999998093E+01 0. -1.
       -5    1    3    3    0  502 -0.15873639235E+03  0.44389342052E+00  0.27633192571E+03  0.31871439011E+03  0.46999998093E+01 0.  1.
</event>
<event>
 5   0  0.3211775E-03  0.5005388E+03  0.7818609E-02  0.1013638E+00
       -1   -1    0    0    0  501  0.00000000000E+00  0.00000000000E+00  0.41887058777E+02  0.41887059081E+02  0.50400001928E-02 0. -1.
        1   -1    0    0  501    0  0.00000000000E+00  0.00000000000E+00 -0.14953249824E+04  0.14953249824E+04  0.50400001928E-02 0.  1.
    10030    2    1    2    0    0  0.00000000000E+00  0.00000000000E+00 -0.14534379236E+04  0.15372120414E+04  0.50053877239E+03 0.  0.
        4    1    3    3  502    0 -0.18071850364E+03 -0.98967693482E+01 -0.12575514453E+04  0.12705094939E+04  0.12699999809E+01 0.  1.
       -4    1    3    3    0  502  0.18071850364E+03  0.98967693482E+01 -0.19588647830E+03  0.26670254757E+03  0.12699999809E+01 0. -1.
</event>
<event>
 5   0  0.4889251E-03  0.4998398E+03  0.7818609E-02  0.1013821E+00
        2   -1    0    0  501    0  0.00000000000E+00  0.00000000000E+00  0.23868158010E+03  0.23868158012E+03  0.25500000920E-02 0.  1.
       -2   -1    0    0    0  501  0.00000000000E+00  0.00000000000E+00 -0.26168734632E+03  0.26168734633E+03  0.25500000920E-02 0. -1.
    10030    2    1    2    0    0  0.00000000000E+00  0.00000000000E+00 -0.23005766218E+02  0.50036892645E+03  0.49983977161E+03 0.  0.
        5    1    3    3  502    0 -0.16190446069E+03  0.14446859379E+03  0.11253806075E+03  0.24448135737E+03  0.46999998093E+01 0.  1.
       -5    1    3    3    0  502  0.16190446069E+03 -0.14446859379E+03 -0.13554382697E+03  0.25588756908E+03  0.46999998093E+01 0. -1.
</event>
<event>
 5   0  0.3013734E-03  0.4999242E+03  0.7818609E-02  0.1013799E+00
       -1   -1    0    0    0  501  0.00000000000E+00  0.00000000000E+00  0.67875355456E+02  0.67875355643E+02  0.50400001928E-02 0. -1.
        1   -1    0    0  501    0  0.00000000000E+00  0.00000000000E+00 -0.92052641983E+03  0.92052641984E+03  0.50400001928E-02 0.  1.
    10030    2    1    2    0    0  0.00000000000E+00  0.00000000000E+00 -0.85265106438E+03  0.98840177549E+03  0.49992422646E+03 0.  0.
        2    1    3    3  502    0  0.21069767045E+03 -0.13184171405E+03 -0.47883287187E+03  0.53949667755E+03  0.25500000920E-02 0.  1.
       -2    1    3    3    0  502 -0.21069767045E+03  0.13184171405E+03 -0.37381819251E+03  0.44890509794E+03  0.25500000920E-02 0. -1.
</event>
<event>
 5   0  0.4978779E-03  0.4998887E+03  0.7818609E-02  0.1013808E+00
       -2   -1    0    0    0  501  0.00000000000E+00  0.00000000000E+00  0.16437254977E+03  0.16437254979E+03  0.25500000920E-02 0.  1.
        2   -1    0    0  501    0  0.00000000000E+00  0.00000000000E+00 -0.38006457217E+03  0.38006457218E+03  0.25500000920E-02 0. -1.
    10030    2    1    2    0    0  0.00000000000E+00  0.00000000000E+00 -0.21569202240E+03  0.54443712197E+03  0.49988871887E+03 0.  0.
        1    1    3    3  502    0  0.13092920983E+03  0.19018970185E+03 -0.21206942122E+03  0.31350920261E+03  0.50400001928E-02 0. -1.
       -1    1    3    3    0  502 -0.13092920983E+03 -0.19018970185E+03 -0.36226011729E+01  0.23092791936E+03  0.50400001928E-02 0.  1.
</event>
<event>
 5   0  0.4989875E-03  0.4999738E+03  0.7818609E-02  0.1013786E+00
       -2   -1    0    0    0  501  0.00000000000E+00  0.00000000000E+00  0.92545569305E+02  0.92545569340E+02  0.25500000920E-02 0. -1.
        2   -1    0    0  501    0  0.00000000000E+00  0.00000000000E+00 -0.67527218084E+03  0.67527218084E+03  0.25500000920E-02 0.  1.
    10030    2    1    2    0    0  0.00000000000E+00  0.00000000000E+00 -0.58272661153E+03  0.76781775018E+03  0.49997379302E+03 0.  0.
        2    1    3    3  502    0  0.82750128268E+02 -0.22874829099E+03 -0.20287508825E+03  0.31675174159E+03  0.25500000920E-02 0. -1.
       -2    1    3    3    0  502 -0.82750128268E+02  0.22874829099E+03 -0.37985152328E+03  0.45106600859E+03  0.25500000920E-02 0.  1.
</event>
<event>
 5   0  0.3057783E-03  0.4999458E+03  0.7818609E-02  0.1013793E+00
        1   -1    0    0  501    0  0.00000000000E+00  0.00000000000E+00  0.15511370048E+04  0.15511370048E+04  0.50400001928E-02 0.  1.
       -1   -1    0    0    0  501  0.00000000000E+00  0.00000000000E+00 -0.40284281524E+02  0.40284281840E+02  0.50400001928E-02 0. -1.
    10030    2    1    2    0    0  0.00000000000E+00  0.00000000000E+00  0.15108527233E+04  0.15914212867E+04  0.49994575722E+03 0.  0.
        5    1    3    3  502    0 -0.20070518298E+03  0.13368692890E+03  0.54645826758E+03  0.59732193467E+03  0.46999998093E+01 0. -1.
       -5    1    3    3    0  502  0.20070518298E+03 -0.13368692890E+03  0.96439445570E+03  0.99409935198E+03  0.46999998093E+01 0.  1.
</event>
<event>
 5   0  0.3211775E-03  0.4998939E+03  0.7818609E-02  0.1013807E+00
       -1   -1    0    0    0  501  0.00000000000E+00  0.00000000000E+00  0.44979000557E+02  0.44979000839E+02  0.50400001928E-02 0.  1.
        1   -1    0    0  501    0  0.00000000000E+00  0.00000000000E+00 -0.13889478287E+04  0.13889478288E+04  0.50400001928E-02 0. -1.
    10030    2    1    2    0    0  0.00000000000E+00  0.00000000000E+00 -0.13439688282E+04  0.14339268296E+04  0.49989393024E+03 0.  0.
        4    1    3    3  502    0  0.13891084612E+03 -0.16602986022E+03 -0.10303669926E+04  0.10528627118E+04  0.12699999809E+01 0.  1.
       -4    1    3    3    0  502 -0.13891084612E+03  0.16602986022E+03 -0.31360183560E+03  0.38106411776E+03  0.12699999809E+01 0. -1.
</event>
<event>
 5   0  0.2005125E-03  0.4998972E+03  0.7818609E-02  0.1013806E+00
       -3   -1    0    0    0  501  0.00000000000E+00  0.00000000000E+00  0.24942726280E+03  0.24942728325E+03  0.10100000352E+00 0. -1.
        3   -1    0    0  501    0  0.00000000000E+00  0.00000000000E+00 -0.25047101805E+03  0.25047103841E+03  0.10100000352E+00 0.  1.
    10030    2    1    2    0    0  0.00000000000E+00  0.00000000000E+00 -0.10437552454E+01  0.49989832166E+03  0.49989723201E+03 0.  0.
        2    1    3    3  502    0  0.51955305552E+02 -0.83436171871E+02 -0.23033395808E+03  0.25042899354E+03  0.25500000920E-02 0.  1.
       -2    1    3    3    0  502 -0.51955305552E+02  0.83436171871E+02  0.22929020284E+03  0.24946932812E+03  0.25500000920E-02 0. -1.
</event>
<event>
 5   0  0.5095783E-03  0.5000155E+03  0.7818609E-02  0.1013775E+00
        2   -1    0    0  501    0  0.00000000000E+00  0.00000000000E+00  0.21407781257E+04  0.21407781257E+04  0.25500000920E-02 0.  1.
       -2   -1    0    0    0  501  0.00000000000E+00  0.00000000000E+00 -0.29196807069E+02  0.29196807181E+02  0.25500000920E-02 0. -1.
    10030    2    1    2    0    0  0.00000000000E+00  0.00000000000E+00  0.21115813186E+04  0.21699749328E+04  0.50001554390E+03 0.  0.
        4    1    3    3  502    0 -0.10922064263E+03 -0.11080613349E+03  0.20652618363E+03  0.25857653687E+03  0.12699999809E+01 0. -1.
       -4    1    3    3    0  502  0.10922064263E+03  0.11080613349E+03  0.19050551350E+04  0.19113983960E+04  0.12699999809E+01 0.  1.
</event>
<event>
 5   0  0.4889251E-03  0.4995210E+03  0.7818609E-02  0.1013904E+00
       -2   -1    0    0    0  501  0.00000000000E+00  0.00000000000E+00  0.14426083073E+03  0.14426083075E+03  0.25500000920E-02 0. -1.
        2   -1    0    0  501    0  0.00000000000E+00  0.00000000000E+00 -0.43241325664E+03  0.43241325665E+03  0.25500000920E-02 0.  1.
    10030    2    1    2    0    0  0.00000000000E+00  0.00000000000E+00 -0.28815242591E+03  0.57667408741E+03  0.49952095304E+03 0.  0.
        5    1    3    3  502    0 -0.53608336102E+02 -0.64493815589E+02 -0.41561823309E+03  0.42402112167E+03  0.46999998093E+01 0.  1.
       -5    1    3    3    0  502  0.53608336102E+02  0.64493815589E+02  0.12746580718E+03  0.15265296573E+03  0.46999998093E+01 0. -1.
</event>
<event>
 5   0  0.3211775E-03  0.4996328E+03  0.7818609E-02  0.1013875E+00
       -1   -1    0    0    0  501  0.00000000000E+00  0.00000000000E+00  0.83911099659E+02  0.83911099810E+02  0.50400001928E-02 0. -1.
        1   -1    0    0  501    0  0.00000000000E+00  0.00000000000E+00 -0.74374226617E+03  0.74374226619E+03  0.50400001928E-02 0.  1.
    10030    2    1    2    0    0  0.00000000000E+00  0.00000000000E+00 -0.65983116652E+03  0.82765336600E+03  0.49963279111E+03 0.  0.
        4    1    3    3  502    0  0.15410041246E+03 -0.18277943481E+02 -0.56192610356E+01  0.15528750540E+03  0.12699999809E+01 0. -1.
       -4    1    3    3    0  502 -0.15410041246E+03  0.18277943481E+02 -0.65421190548E+03  0.67236586061E+03  0.12699999809E+01 0.  1.
</event>
<event>
 5   0  0.5095783E-03  0.5002497E+03  0.7818609E-02  0.1013714E+00
        2   -1    0    0  501    0  0.00000000000E+00  0.00000000000E+00  0.99635709900E+03  0.99635709900E+03  0.25500000920E-02 0. -1.
       -2   -1    0    0    0  501  0.00000000000E+00  0.00000000000E+00 -0.62791171925E+02  0.62791171977E+02  0.25500000920E-02 0.  1.
    10030    2    1    2    0    0  0.00000000000E+00  0.00000000000E+00  0.93356592707E+03  0.10591482710E+04  0.50024965739E+03 0.  0.
        4    1    3    3  502    0  0.13377262270E+03  0.59234519820E+02  0.37254765032E+02  0.15097474405E+03  0.12699999809E+01 0.  1.
       -4    1    3    3    0  502 -0.13377262270E+03 -0.59234519820E+02  0.89631116204E+03  0.90817352693E+03  0.12699999809E+01 0. -1.
</event>
<event>
 5   0  0.2005125E-03  0.4999572E+03  0.7818609E-02  0.1013790E+00
       -3   -1    0    0    0  501  0.00000000000E+00  0.00000000000E+00  0.41977939164E+03  0.41977940379E+03  0.10100000352E+00 0. -1.
        3   -1    0    0  501    0  0.00000000000E+00  0.00000000000E+00 -0.14886219641E+03  0.14886223067E+03  0.10100000352E+00 0.  1.
    10030    2    1    2    0    0  0.00000000000E+00  0.00000000000E+00  0.27091719523E+03  0.56864163446E+03  0.49995717994E+03 0.  0.
        2    1    3    3  502    0 -0.11052375641E+03 -0.65632479652E+02  0.37930986388E+03  0.40049855925E+03  0.25500000920E-02 0. -1.
       -2    1    3    3    0  502  0.11052375641E+03  0.65632479652E+02 -0.10839266865E+03  0.16814307521E+03  0.25500000920E-02 0.  1.
</event>
<event>
 5   0  0.3055293E-03  0.5001226E+03  0.7818609E-02  0.1013747E+00
       -1   -1    0    0    0  501  0.00000000000E+00  0.00000000000E+00  0.51382886700E+03  0.51382886702E+03  0.50400001928E-02 0. -1.
        1   -1    0    0  501    0  0.00000000000E+00  0.00000000000E+00 -0.12169547737E+03  0.12169547747E+03  0.50400001928E-02 0.  1.
    10030    2    1    2    0    0  0.00000000000E+00  0.00000000000E+00  0.39213338963E+03  0.63552434449E+03  0.50012258216E+03 0.  0.
        3    1    3    3  502    0 -0.21280773688E+03  0.55406892706E+02  0.34735158136E+03  0.41110848679E+03  0.10100000352E+00 0. -1.
       -3    1    3    3    0  502  0.21280773688E+03 -0.55406892706E+02  0.44781808268E+02  0.22441585770E+03  0.10100000352E+00 0.  1.
</event>
<event>
 5   0  0.3013734E-03  0.5002778E+03  0.7818609E-02  0.1013706E+00
       -1   -1    0    0    0  501  0.00000000000E+00  0.00000000000E+00  0.61824008710E+02  0.61824008915E+02  0.50400001928E-02 0.  1.
        1   -1    0    0  501    0  0.00000000000E+00  0.00000000000E+00 -0.10120578446E+04  0.10120578446E+04  0.50400001928E-02 0. -1.
    10030    2    1    2    0    0  0.00000000000E+00  0.00000000000E+00 -0.95023383591E+03  0.10738818535E+04  0.50027781529E+03 0.  0.
        2    1    3    3  502    0 -0.19070058568E+03  0.14170592589E+03 -0.64307413563E+03  0.68555935318E+03  0.25500000920E-02 0. -1.
       -2    1    3    3    0  502  0.19070058568E+03 -0.14170592589E+03 -0.30715970029E+03  0.38832250037E+03  0.25500000920E-02 0.  1.
</event>
<event>
 5   0  0.3013734E-03  0.5000790E+03  0.7818609E-02  0.1013758E+00
       -1   -1    0    0    0  501  0.00000000000E+00  0.00000000000E+00  0.31184242929E+03  0.31184242933E+03  0.50400001928E-02 0. -1.
        1   -1    0    0  501    0  0.00000000000E+00  0.00000000000E+00 -0.20048509710E+03  0.20048509717E+03  0.50400001928E-02 0.  1.
    10030    2    1    2    0    0  0.00000000000E+00  0.00000000000E+00  0.11135733218E+03  0.51232752649E+03  0.50007903273E+03 0.  0.
        2    1    3    3  502    0  0.22470656967E+03 -0.93518463992E+02  0.11436177286E+03  0.26891887375E+03  0.25500000920E-02 0. -1.
       -2    1    3    3    0  502 -0.22470656967E+03  0.93518463992E+02 -0.30044406796E+01  0.24340865274E+03  0.25500000920E-02 0.  1.
</event>
<event>
 5   0  0.2863538E-03  0.5001185E+03  0.7818609E-02  0.1013748E+00
       -1   -1    0    0    0  501  0.00000000000E+00  0.00000000000E+00  0.71682075148E+03  0.71682075150E+03  0.50400001928E-02 0.  1.
        1   -1    0    0  501    0  0.00000000000E+00  0.00000000000E+00 -0.87231885128E+02  0.87231885273E+02  0.50400001928E-02 0. -1.
    10030    2    1    2    0    0  0.00000000000E+00  0.00000000000E+00  0.62958886636E+03  0.80405263678E+03  0.50011848803E+03 0.  0.
        1    1    3    3  502    0  0.14081768896E+03  0.29793607667E+02  0.64354297340E+03  0.65944282483E+03  0.50400001928E-02 0.  1.
       -1    1    3    3    0  502 -0.14081768896E+03 -0.29793607667E+02 -0.13954107041E+02  0.14460981195E+03  0.50400001928E-02 0. -1.
</event>
<event>
 5   0  0.3057783E-03  0.4998888E+03  0.7818609E-02  0.1013808E+00
        1   -1    0    0  501    0  0.00000000000E+00  0.00000000000E+00  0.16549578687E+04  0.16549578687E+04  0.50400001928E-02 0.  1.
       -1   -1    0    0    0  501  0.00000000000E+00  0.00000000000E+00 -0.37748516705E+02  0.37748517042E+02  0.50400001928E-02 0. -1.
    10030    2    1    2    0    0  0.00000000000E+00  0.00000000000E+00  0.16172093520E+04  0.16927063857E+04  0.49988880781E+03 0.  0.
        5    1    3    3  502    0  0.23473120880E+02  0.60305719407E+02 -0.87343015381E+01  0.65468658293E+02  0.46999998093E+01 0. -1.
       -5    1    3    3    0  502 -0.23473120880E+02 -0.60305719407E+02  0.16259436535E+04  0.16272377274E+04  0.46999998093E+01 0.  1.
</event>
<event>
 5   0  0.3013734E-03  0.5000400E+03  0.7818609E-02  0.1013768E+00
        1   -1    0    0  501    0  0.00000000000E+00  0.00000000000E+00  0.58051097605E+03  0.58051097608E+03  0.50400001928E-02 0. -1.
       -1   -1    0    0    0  501  0.00000000000E+00  0.00000000000E+00 -0.10768098456E+03  0.10768098468E+03  0.50400001928E-02 0.  1.
    10030    2    1    2    0    0  0.00000000000E+00  0.00000000000E+00  0.47282999149E+03  0.68819196076E+03  0.50003997240E+03 0.  0.
        2    1    3    3  502    0  0.69395111359E+02  0.22594714860E+03  0.34858087961E+03  0.42116080667E+03  0.25500000920E-02 0.  1.
       -2    1    3    3    0  502 -0.69395111359E+02 -0.22594714860E+03  0.12424911188E+03  0.26703115409E+03  0.25500000920E-02 0. -1.
</event>
<event>
 5   0  0.5095783E-03  0.5004817E+03  0.7818609E-02  0.1013653E+00
        2   -1    0    0  501    0  0.00000000000E+00  0.00000000000E+00  0.15758292620E+03  0.15758292623E+03  0.25500000920E-02 0. -1.
       -2   -1    0    0    0  501  0.00000000000E+00  0.00000000000E+00 -0.39738117180E+03  0.39738117181E+03  0.25500000920E-02 0.  1.
    10030    2    1    2    0    0  0.00000000000E+00  0.00000000000E+00 -0.23979824559E+03  0.55496409803E+03  0.50048171946E+03 0.  0.
        4    1    3    3  502    0 -0.15064356997E+03 -0.85913788590E+02 -0.31993760059E+03  0.36391804766E+03  0.12699999809E+01 0.  1.
       -4    1    3    3    0  502  0.15064356997E+03  0.85913788590E+02  0.80139354991E+02  0.19104605037E+03  0.12699999809E+01 0. -1.
</event>
<event>
 5   0  0.5095783E-03  0.5001683E+03  0.7818609E-02  0.1013735E+00
        2   -1    0    0  501    0  0.00000000000E+00  0.00000000000E+00  0.35928670254E+03  0.35928670255E+03  0.25500000920E-02 0. -1.
       -2   -1    0    0    0  501  0.00000000000E+00  0.00000000000E+00 -0.17407290196E+03  0.17407290197E+03  0.25500000920E-02 0.  1.
    10030    2    1    2    0    0  0.00000000000E+00  0.00000000000E+00  0.18521380058E+03  0.53335960452E+03  0.50016828749E+03 0.  0.
        4    1    3    3  502    0 -0.22734854207E+03 -0.10109462719E+03  0.11943561891E+03  0.27599631011E+03  0.12699999809E+01 0. -1.
       -4    1    3    3    0  502  0.22734854207E+03  0.10109462719E+03  0.65778181673E+02  0.25736329441E+03  0.12699999809E+01 0.  1.
</event>
<event>
 5   0  0.4978779E-03  0.5000564E+03  0.7818609E-02  0.1013764E+00
       -2   -1    0    0    0  501  0.00000000000E+00  0.00000000000E+00  0.11975810768E+03  0.11975810770E+03  0.25500000920E-02 0. -1.
        2   -1    0    0  501    0  0.00000000000E+00  0.00000000000E+00 -0.52200311495E+03  0.52200311496E+03  0.25500000920E-02 0.  1.
    10030    2    1    2    0    0  0.00000000000E+00  0.00000000000E+00 -0.40224500727E+03  0.64176122266E+03  0.50005641785E+03 0.  0.
        1    1    3    3  502    0 -0.21339403068E+03  0.12515117610E+03 -0.15459628477E+03  0.29171876953E+03  0.50400001928E-02 0.  1.
       -1    1    3    3    0  502  0.21339403068E+03 -0.12515117610E+03 -0.24764872250E+03  0.35004245313E+03  0.50400001928E-02 0. -1.
</event>
<event>
 5   0  0.3211775E-03  0.5001278E+03  0.7818609E-02  0.1013746E+00
        1   -1    0    0  501    0  0.00000000000E+00  0.00000000000E+00  0.25124655376E+04  0.25124655376E+04  0.50400001928E-02 0. -1.
       -1   -1    0    0    0  501  0.00000000000E+00  0.00000000000E+00 -0.24888685486E+02  0.24888685996E+02  0.50400001928E-02 0.  1.
    10030    2    1    2    0    0  0.00000000000E+00  0.00000000000E+00  0.24875768521E+04  0.25373542236E+04  0.50012784451E+03 0.  0.
        4    1    3    3  502    0  0.93721740932E+02 -0.13350209958E+03  0.22053809140E+04  0.22114052465E+04  0.12699999809E+01 0. -1.
       -4    1    3    3    0  502 -0.93721740932E+02  0.13350209958E+03  0.28219593814E+03  0.32594897717E+03  0.12699999809E+01 0.  1.
</event>
<event>
 5   0  0.3211775E-03  0.5000625E+03  0.7818609E-02  0.1013763E+00
       -1   -1    0    0    0  501  0.00000000000E+00  0.00000000000E+00  0.10516771344E+04  0.10516771345E+04  0.50400001928E-02 0. -1.
        1   -1    0    0  501    0  0.00000000000E+00  0.00000000000E+00 -0.59443746173E+02  0.59443746387E+02  0.50400001928E-02 0.  1.
    10030    2    1    2    0    0  0.00000000000E+00  0.00000000000E+00  0.99223338827E+03  0.11111208808E+04  0.50006251114E+03 0.  0.
        4    1    3    3  502    0 -0.21045402448E+03 -0.40151864413E+02  0.78249110647E+03  0.81129341994E+03  0.12699999809E+01 0. -1.
       -4    1    3    3    0  502  0.21045402448E+03  0.40151864413E+02  0.20974228180E+03  0.29982746090E+03  0.12699999809E+01 0.  1.
</event>
<event>
 5   0  0.4889251E-03  0.5000091E+03  0.7818609E-02  0.1013777E+00
        2   -1    0    0  501    0  0.00000000000E+00  0.00000000000E+00  0.12763757173E+04  0.12763757173E+04  0.25500000920E-02 0. -1.
       -2   -1    0    0    0  501  0.00000000000E+00  0.00000000000E+00 -0.48968554523E+02  0.48968554589E+02  0.25500000920E-02 0.  1.
    10030    2    1    2    0    0  0.00000000000E+00  0.00000000000E+00  0.12274071628E+04  0.13253442719E+04  0.50000909572E+03 0.  0.
        5    1    3    3  502    0  0.19880773464E+03  0.12035144440E+03  0.85766616736E+03  0.88860696044E+03  0.46999998093E+01 0. -1.
       -5    1    3    3    0  502 -0.19880773464E+03 -0.12035144440E+03  0.36974099544E+03  0.43673731147E+03  0.46999998093E+01 0.  1.
</event>
<event>
 5   0  0.3057783E-03  0.4971703E+03  0.7818609E-02  0.1014520E+00
        1   -1    0    0  501    0  0.00000000000E+00  0.00000000000E+00  0.35603982351E+03  0.35603982355E+03  0.50400001928E-02 0.  1.
       -1   -1    0    0    0  501  0.00000000000E+00  0.00000000000E+00 -0.17356084956E+03  0.17356084963E+03  0.50400001928E-02 0. -1.
    10030    2    1    2    0    0  0.00000000000E+00  0.00000000000E+00  0.18247897396E+03  0.52960067318E+03  0.49717028984E+03 0.  0.
        5    1    3    3  502    0  0.16023016190E+03  0.18920995144E+03  0.72839238789E+02  0.25846035520E+03  0.46999998093E+01 0.  1.
       -5    1    3    3    0  502 -0.16023016190E+03 -0.18920995144E+03  0.10963973517E+03  0.27114031798E+03  0.46999998093E+01 0. -1.
</event>
<event>
 5   0  0.3057783E-03  0.4998289E+03  0.7818609E-02  0.1013824E+00
        1   -1    0    0  501    0  0.00000000000E+00  0.00000000000E+00  0.41137100840E+03  0.41137100843E+03  0.50400001928E-02 0. -1.
       -1   -1    0    0    0  501  0.00000000000E+00  0.00000000000E+00 -0.15182701399E+03  0.15182701407E+03  0.50400001928E-02 0.  1.
    10030    2    1    2    0    0  0.00000000000E+00  0.00000000000E+00  0.25954399441E+03  0.56319802251E+03  0.49982889824E+03 0.  0.
        5    1    3    3  502    0 -0.20089244820E+02  0.16704599086E+03  0.33792855380E+03  0.37752581142E+03  0.46999998093E+01 0. -1.
       -5    1    3    3    0  502  0.20089244820E+02 -0.16704599086E+03 -0.78384559381E+02  0.18567221108E+03  0.46999998093E+01 0.  1.
</event>
<event>
 5   0  0.4989875E-03  0.5004848E+03  0.7818609E-02  0.1013652E+00
       -2   -1    0    0    0  501  0.00000000000E+00  0.00000000000E+00  0.90086153606E+02  0.90086153642E+02  0.25500000920E-02 0.  1.
        2   -1    0    0  501    0  0.00000000000E+00  0.00000000000E+00 -0.69512628765E+03  0.69512628765E+03  0.25500000920E-02 0. -1.
    10030    2    1    2    0    0  0.00000000000E+00  0.00000000000E+00 -0.60504013404E+03  0.78521244130E+03  0.50048477915E+03 0.  0.
        2    1    3    3  502    0  0.19686030004E+02 -0.63484339403E+01 -0.69378280227E+03  0.69409107409E+03  0.25500000920E-02 0. -1.
       -2    1    3    3    0  502 -0.19686030004E+02  0.63484339403E+01  0.88742668230E+02  0.91121367208E+02  0.25500000920E-02 0.  1.
</event>
<event>
 5   0  0.3055293E-03  0.5000685E+03  0.7818609E-02  0.1013761E+00
        1   -1    0    0  501    0  0.00000000000E+00  0.00000000000E+00  0.14343491892E+03  0.14343491901E+03  0.50400001928E-02 0. -1.
       -1   -1    0    0    0  501  0.00000000000E+00  0.00000000000E+00 -0.43585702293E+03  0.43585702296E+03  0.50400001928E-02 0.  1.
    10030    2    1    2    0    0  0.00000000000E+00  0.00000000000E+00 -0.29242210401E+03  0.57929194197E+03  0.50006846243E+03 0.  0.
        3    1    3    3  502    0  0.16438001394E+03 -0.15659727261E+03 -0.26756190066E+03  0.35090294336E+03  0.10100000352E+00 0.  1.
       -3    1    3    3    0  502 -0.16438001394E+03  0.15659727261E+03 -0.24860203350E+02  0.22838899861E+03  0.10100000352E+00 0. -1.
</event>
<event>
 5   0  0.5118882E-03  0.5003518E+03  0.7818609E-02  0.1013687E+00
       -2   -1    0    0    0  501  0.00000000000E+00  0.00000000000E+00  0.47909433464E+02  0.47909433531E+02  0.25500000920E-02 0.  1.
        2   -1    0    0  501    0  0.00000000000E+00  0.00000000000E+00 -0.13063811949E+04  0.13063811949E+04  0.25500000920E-02 0. -1.
    10030    2    1    2    0    0  0.00000000000E+00  0.00000000000E+00 -0.12584717614E+04  0.13542906284E+04  0.50035180816E+03 0.  0.
        3    1    3    3  502    0 -0.17895975507E+03  0.47364798746E+02 -0.17375794799E+03  0.25389338863E+03  0.10100000352E+00 0.  1.
       -3    1    3    3    0  502  0.17895975507E+03 -0.47364798746E+02 -0.10847138134E+04  0.11003972398E+04  0.10100000352E+00 0. -1.
</event>
<event>
 5   0  0.2005125E-03  0.4999833E+03  0.7818609E-02  0.1013783E+00
       -3   -1    0    0    0  501  0.00000000000E+00  0.00000000000E+00  0.76385278048E+02  0.76385344821E+02  0.10100000352E+00 0. -1.
        3   -1    0    0  501    0  0.00000000000E+00  0.00000000000E+00 -0.81816532029E+03  0.81816532653E+03  0.10100000352E+00 0.  1.
    10030    2    1    2    0    0  0.00000000000E+00  0.00000000000E+00 -0.74178004225E+03  0.89455067135E+03  0.49998327226E+03 0.  0.
        2    1    3    3  502    0  0.76412123204E+02  0.97519181501E+02  0.17597051131E+02  0.12513376662E+03  0.25500000920E-02 0. -1.
       -2    1    3    3    0  502 -0.76412123204E+02 -0.97519181501E+02 -0.75937709338E+03  0.76941690473E+03  0.25500000920E-02 0.  1.
</event>
<event>
 5   0  0.5095783E-03  0.4999222E+03  0.7818609E-02  0.1013799E+00
       -2   -1    0    0    0  501  0.00000000000E+00  0.00000000000E+00  0.76470659311E+03  0.76470659311E+03  0.25500000920E-02 0.  1.
        2   -1    0    0  501    0  0.00000000000E+00  0.00000000000E+00 -0.81705260791E+02  0.81705260831E+02  0.25500000920E-02 0. -1.
    10030    2    1    2    0    0  0.00000000000E+00  0.00000000000E+00  0.68300133232E+03  0.84641185394E+03  0.49992220050E+03 0.  0.
        4    1    3    3  502    0 -0.21008547217E+03 -0.87258660499E+02  0.51687180101E+03  0.56471944453E+03  0.12699999809E+01 0.  1.
       -4    1    3    3    0  502  0.21008547217E+03  0.87258660499E+02  0.16612953131E+03  0.28169240942E+03  0.12699999809E+01 0. -1.
</event>
<event>
 5   0  0.5095783E-03  0.4998299E+03  0.7818609E-02  0.1013823E+00
       -2   -1    0    0    0  501  0.00000000000E+00  0.00000000000E+00  0.49523290644E+03  0.49523290645E+03  0.25500000920E-02 0. -1.
        2   -1    0    0  501    0  0.00000000000E+00  0.00000000000E+00 -0.12611737014E+03  0.12611737017E+03  0.25500000920E-02 0.  1.
    10030    2    1    2    0    0  0.00000000000E+00  0.00000000000E+00  0.36911553630E+03  0.62135027662E+03  0.49982985817E+03 0.  0.
        4    1    3    3  502    0 -0.81042634036E+02  0.10074981167E+03 -0.81300492501E+02  0.15274100976E+03  0.12699999809E+01 0.  1.
       -4    1    3    3    0  502  0.81042634036E+02 -0.10074981167E+03  0.45041602880E+03  0.46860926686E+03  0.12699999809E+01 0. -1.
</event>
<event>
 5   0  0.3013734E-03  0.5000625E+03  0.7818609E-02  0.1013763E+00
        1   -1    0    0  501    0  0.00000000000E+00  0.00000000000E+00  0.11265537553E+03  0.11265537565E+03  0.50400001928E-02 0.  1.
       -1   -1    0    0    0  501  0.00000000000E+00  0.00000000000E+00 -0.55492796998E+03  0.55492797000E+03  0.50400001928E-02 0. -1.
    10030    2    1    2    0    0  0.00000000000E+00  0.00000000000E+00 -0.44227259445E+03  0.66758334565E+03  0.50006247169E+03 0.  0.
        2    1    3    3  502    0 -0.57538708645E+02 -0.15151329303E+03 -0.47530792877E+03  0.50217985634E+03  0.25500000920E-02 0. -1.
       -2    1    3    3    0  502  0.57538708645E+02  0.15151329303E+03  0.33035334321E+02  0.16540348931E+03  0.25500000920E-02 0.  1.
</event>
<event>
 5   0  0.4978779E-03  0.5000799E+03  0.7818609E-02  0.1013758E+00
       -2   -1    0    0    0  501  0.00000000000E+00  0.00000000000E+00  0.36841828846E+02  0.36841828934E+02  0.25500000920E-02 0. -1.
        2   -1    0    0  501    0  0.00000000000E+00  0.00000000000E+00 -0.16969835766E+04  0.16969835766E+04  0.25500000920E-02 0.  1.
    10030    2    1    2    0    0  0.00000000000E+00  0.00000000000E+00 -0.16601417477E+04  0.17338254055E+04  0.50007990786E+03 0.  0.
        1    1    3    3  502    0 -0.14394580060E+03  0.36145444961E+02 -0.13239062940E+03  0.19888229051E+03  0.50400001928E-02 0. -1.
       -1    1    3    3    0  502  0.14394580060E+03 -0.36145444961E+02 -0.15277511183E+04  0.15349431150E+04  0.50400001928E-02 0.  1.
</event>
<event>
 5   0  0.2863538E-03  0.5000071E+03  0.7818609E-02  0.1013777E+00
       -1   -1    0    0    0  501  0.00000000000E+00  0.00000000000E+00  0.84333431114E+02  0.84333431265E+02  0.50400001928E-02 0.  1.
        1   -1    0    0  501    0  0.00000000000E+00  0.00000000000E+00 -0.74112683537E+03  0.74112683538E+03  0.50400001928E-02 0. -1.
    10030    2    1    2    0    0  0.00000000000E+00  0.00000000000E+00 -0.65679340425E+03  0.82546026665E+03  0.50000707590E+03 0.  0.
        1    1    3    3  502    0 -0.18851462175E+03  0.14382807820E+03 -0.45919829934E+03  0.51680495047E+03  0.50400001928E-02 0.  1.
       -1    1    3    3    0  502  0.18851462175E+03 -0.14382807820E+03 -0.19759510492E+03  0.30865531618E+03  0.50400001928E-02 0. -1.
</event>
<event>
 5   0  0.3057783E-03  0.5004693E+03  0.7818609E-02  0.1013656E+00
        1   -1    0    0  501    0  0.00000000000E+00  0.00000000000E+00  0.74175717082E+03  0.74175717083E+03  0.50400001928E-02 0.  1.
       -1   -1    0    0    0  501  0.00000000000E+00  0.00000000000E+00 -0.84417629810E+02  0.84417629961E+02  0.50400001928E-02 0. -1.
    10030    2    1    2    0    0  0.00000000000E+00  0.00000000000E+00  0.65733954101E+03  0.82617480079E+03  0.50046930905E+03 0.  0.
        5    1    3    3  502    0 -0.18893813277E+03  0.75589929529E+02  0.88401287554E+02  0.22191965460E+03  0.46999998093E+01 0. -1.
       -5    1    3    3    0  502  0.18893813277E+03 -0.75589929529E+02  0.56893825345E+03  0.60425514619E+03  0.46999998093E+01 0.  1.
</event>
<event>
 5   0  0.4978779E-03  0.5000678E+03  0.7818609E-02  0.1013761E+00
       -2   -1    0    0    0  501  0.00000000000E+00  0.00000000000E+00  0.13625621002E+03  0.13625621004E+03  0.25500000920E-02 0. -1.
        2   -1    0    0  501    0  0.00000000000E+00  0.00000000000E+00 -0.45881911557E+03  0.45881911557E+03  0.25500000920E-02 0.  1.
    10030    2    1    2    0    0  0.00000000000E+00  0.00000000000E+00 -0.32256290555E+03  0.59507532561E+03  0.50006781052E+03 0.  0.
        1    1    3    3  502    0 -0.12926236142E+02  0.53450080628E+02 -0.45153384891E+03  0.45487010832E+03  0.50400001928E-02 0.  1.
       -1    1    3    3    0  502  0.12926236142E+02 -0.53450080628E+02  0.12897094336E+03  0.14020521730E+03  0.50400001928E-02 0. -1.
</event>
<event>
 5   0  0.3057783E-03  0.4999400E+03  0.7818609E-02  0.1013795E+00
        1   -1    0    0  501    0  0.00000000000E+00  0.00000000000E+00  0.11895792859E+04  0.11895792859E+04  0.50400001928E-02 0. -1.
       -1   -1    0    0    0  501  0.00000000000E+00  0.00000000000E+00 -0.52526965979E+02  0.52526966221E+02  0.50400001928E-02 0.  1.
    10030    2    1    2    0    0  0.00000000000E+00  0.00000000000E+00  0.11370523199E+04  0.12421062521E+04  0.49993995973E+03 0.  0.
        5    1    3    3  502    0 -0.56973543698E+02  0.16980779303E+03  0.13546352154E+03  0.22461773510E+03  0.46999998093E+01 0. -1.
       -5    1    3    3    0  502  0.56973543698E+02 -0.16980779303E+03  0.10015887983E+04  0.10174885170E+04  0.46999998093E+01 0.  1.
</event>
<event>
 5   0  0.3055293E-03  0.5009879E+03  0.7818609E-02  0.1013521E+00
        1   -1    0    0  501    0  0.00000000000E+00  0.00000000000E+00  0.19478119239E+03  0.19478119245E+03  0.50400001928E-02 0. -1.
       -1   -1    0    0    0  501  0.00000000000E+00  0.00000000000E+00 -0.32214211498E+03  0.32214211502E+03  0.50400001928E-02 0.  1.
    10030    2    1    2    0    0  0.00000000000E+00  0.00000000000E+00 -0.12736092259E+03  0.51692330747E+03  0.50098792521E+03 0.  0.
        3    1    3    3  502    0 -0.24751130354E+03  0.37651682829E+02 -0.72171463072E+02  0.26055368906E+03  0.10100000352E+00 0.  1.
       -3    1    3    3    0  502  0.24751130354E+03 -0.37651682829E+02 -0.55189459520E+02  0.25636961841E+03  0.10100000352E+00 0. -1.
</event>
<event>
 5   0  0.3211775E-03  0.5003643E+03  0.7818609E-02  0.1013684E+00
        1   -1    0    0  501    0  0.00000000000E+00  0.00000000000E+00  0.17901189593E+04  0.17901189593E+04  0.50400001928E-02 0. -1.
       -1   -1    0    0    0  501  0.00000000000E+00  0.00000000000E+00 -0.34964776165E+02  0.34964776528E+02  0.50400001928E-02 0.  1.
    10030    2    1    2    0    0  0.00000000000E+00  0.00000000000E+00  0.17551541831E+04  0.18250837358E+04  0.50036430352E+03 0.  0.
        4    1    3    3  502    0  0.21063694684E+03 -0.75347634051E+02  0.12861031933E+04  0.13054149631E+04  0.12699999809E+01 0. -1.
       -4    1    3    3    0  502 -0.21063694684E+03  0.75347634051E+02  0.46905098988E+03  0.51966877271E+03  0.12699999809E+01 0.  1.
</event>
<event>
 5   0  0.4889251E-03  0.4997708E+03  0.7818609E-02  0.1013839E+00
       -2   -1    0    0    0  501  0.00000000000E+00  0.00000000000E+00  0.34906693295E+02  0.34906693388E+02  0.25500000920E-02 0. -1.
        2   -1    0    0  501    0  0.00000000000E+00  0.00000000000E+00 -0.17888464194E+04  0.17888464194E+04  0.25500000920E-02 0.  1.
    10030    2    1    2    0    0  0.00000000000E+00  0.00000000000E+00 -0.17539397261E+04  0.18237531128E+04  0.49977080108E+03 0.  0.
        5    1    3    3  502    0 -0.47069645939E+02  0.75542229891E+02 -0.25072613888E+02  0.92589988828E+02  0.46999998093E+01 0. -1.
       -5    1    3    3    0  502  0.47069645939E+02 -0.75542229891E+02 -0.17288671123E+04  0.17311631240E+04  0.46999998093E+01 0.  1.
</event>
<event>
 5   0  0.4978779E-03  0.4999148E+03  0.7818609E-02  0.1013801E+00
        2   -1    0    0  501    0  0.00000000000E+00  0.00000000000E+00  0.83077963203E+03  0.83077963204E+03  0.25500000920E-02 0.  1.
       -2   -1    0    0    0  501  0.00000000000E+00  0.00000000000E+00 -0.75204912555E+02  0.75204912598E+02  0.25500000920E-02 0. -1.
    10030    2    1    2    0    0  0.00000000000E+00  0.00000000000E+00  0.75557471948E+03  0.90598454464E+03  0.49991483115E+03 0.  0.
        1    1    3    3  502    0  0.25464360934E+02  0.14452836111E+03  0.74448522889E+03  0.75881166103E+03  0.50400001928E-02 0.  1.
       -1    1    3    3    0  502 -0.25464360934E+02 -0.14452836111E+03  0.11089490587E+02  0.14717288361E+03  0.50400001928E-02 0. -1.
</event>
<event>
 5   0  0.3013734E-03  0.5004526E+03  0.7818609E-02  0.1013661E+00
       -1   -1    0    0    0  501  0.00000000000E+00  0.00000000000E+00  0.62647492316E+02  0.62647492518E+02  0.50400001928E-02 0.  1.
        1   -1    0    0  501    0  0.00000000000E+00  0.00000000000E+00 -0.99945262562E+03  0.99945262563E+03  0.50400001928E-02 0. -1.
    10030    2    1    2    0    0  0.00000000000E+00  0.00000000000E+00 -0.93680513330E+03  0.10621001181E+04  0.50045259835E+03 0.  0.
        2    1    3    3  502    0  0.69584502806E+01 -0.71492733863E+02 -0.97710172333E+03  0.97973843895E+03  0.25500000920E-02 0. -1.
       -2    1    3    3    0  502 -0.69584502806E+01  0.71492733863E+02  0.40296590027E+02  0.82361679195E+02  0.25500000920E-02 0.  1.
</event>
<event>
 5   0  0.3057783E-03  0.4999381E+03  0.7818609E-02  0.1013795E+00
        1   -1    0    0  501    0  0.00000000000E+00  0.00000000000E+00  0.58236281989E+03  0.58236281992E+03  0.50400001928E-02 0.  1.
       -1   -1    0    0    0  501  0.00000000000E+00  0.00000000000E+00 -0.10729482744E+03  0.10729482756E+03  0.50400001928E-02 0. -1.
    10030    2    1    2    0    0  0.00000000000E+00  0.00000000000E+00  0.47506799245E+03  0.68965764748E+03  0.49993806943E+03 0.  0.
        5    1    3    3  502    0 -0.17749360628E+03 -0.63229623483E+02  0.46404067846E+03  0.50085707225E+03  0.46999998093E+01 0.  1.
       -5    1    3    3    0  502  0.17749360628E+03  0.63229623483E+02  0.11027313993E+02  0.18880057523E+03  0.46999998093E+01 0. -1.
</event>
<event>
 5   0  0.5118882E-03  0.4999312E+03  0.7818609E-02  0.1013797E+00
        2   -1    0    0  501    0  0.00000000000E+00  0.00000000000E+00  0.12075219232E+04  0.12075219232E+04  0.25500000920E-02 0.  1.
       -2   -1    0    0    0  501  0.00000000000E+00  0.00000000000E+00 -0.51744652293E+02  0.51744652355E+02  0.25500000920E-02 0. -1.
    10030    2    1    2    0    0  0.00000000000E+00  0.00000000000E+00  0.11557772709E+04  0.12592665756E+04  0.49993120364E+03 0.  0.
        3    1    3    3  502    0 -0.25306621183E+02 -0.11945806089E+03  0.11272824544E+04  0.11338767109E+04  0.10100000352E+00 0.  1.
       -3    1    3    3    0  502  0.25306621183E+02  0.11945806089E+03  0.28494816536E+02  0.12538986466E+03  0.10100000352E+00 0. -1.
</event>
<event>
 5   0  0.4978779E-03  0.4970342E+03  0.7818609E-02  0.1014556E+00
        2   -1    0    0  501    0  0.00000000000E+00  0.00000000000E+00  0.33949222324E+03  0.33949222325E+03  0.25500000920E-02 0.  1.
       -2   -1    0    0    0  501  0.00000000000E+00  0.00000000000E+00 -0.18192094932E+03  0.18192094934E+03  0.25500000920E-02 0. -1.
    10030    2    1    2    0    0  0.00000000000E+00  0.00000000000E+00  0.15757127392E+03  0.52141317259E+03  0.49703419418E+03 0.  0.
        1    1    3    3  502    0  0.31317919400E+02  0.24628409886E+03  0.67100244969E+02  0.25717525606E+03  0.50400001928E-02 0. -1.
       -1    1    3    3    0  502 -0.31317919400E+02 -0.24628409886E+03  0.90471028948E+02  0.26423791653E+03  0.50400001928E-02 0.  1.
</event>
<event>
 5   0  0.2005125E-03  0.4999932E+03  0.7818609E-02  0.1013781E+00
       -3   -1    0    0    0  501  0.00000000000E+00  0.00000000000E+00  0.46526661507E+03  0.46526662603E+03  0.10100000352E+00 0.  1.
        3   -1    0    0  501    0  0.00000000000E+00  0.00000000000E+00 -0.13432791889E+03  0.13432795686E+03  0.10100000352E+00 0. -1.
    10030    2    1    2    0    0  0.00000000000E+00  0.00000000000E+00  0.33093869618E+03  0.59959458289E+03  0.49999324316E+03 0.  0.
        4    1    3    3  502    0  0.66520634858E+02 -0.20019756900E+03  0.46119768656E+01  0.21101408656E+03  0.12699999809E+01 0. -1.
       -4    1    3    3    0  502 -0.66520634858E+02  0.20019756900E+03  0.32632671931E+03  0.38858049633E+03  0.12699999809E+01 0.  1.
</event>
<event>
 5   0  0.3057783E-03  0.5009393E+03  0.7818609E-02  0.1013534E+00
       -1   -1    0    0    0  501  0.00000000000E+00  0.00000000000E+00  0.25111112132E+03  0.25111112137E+03  0.50400001928E-02 0.  1.
        1   -1    0    0  501    0  0.00000000000E+00  0.00000000000E+00 -0.24982977552E+03  0.24982977557E+03  0.50400001928E-02 0. -1.
    10030    2    1    2    0    0  0.00000000000E+00  0.00000000000E+00  0.12813458025E+01  0.50094089694E+03  0.50093925817E+03 0.  0.
        5    1    3    3  502    0 -0.24477766591E+03 -0.48621537175E+02 -0.20162892292E+02  0.25041723548E+03  0.46999998093E+01 0.  1.
       -5    1    3    3    0  502  0.24477766591E+03  0.48621537175E+02  0.21444238095E+02  0.25052366146E+03  0.46999998093E+01 0. -1.
</event>
<event>
 5   0  0.3013734E-03  0.5000208E+03  0.7818609E-02  0.1013773E+00
        1   -1    0    0  501    0  0.00000000000E+00  0.00000000000E+00  0.43445289608E+03  0.43445289611E+03  0.50400001928E-02 0. -1.
       -1   -1    0    0    0  501  0.00000000000E+00  0.00000000000E+00 -0.14387109118E+03  0.14387109127E+03  0.50400001928E-02 0.  1.
    10030    2    1    2    0    0  0.00000000000E+00  0.00000000000E+00  0.29058180490E+03  0.57832398738E+03  0.50002084860E+03 0.  0.
        2    1    3    3  502    0  0.14005028232E+03  0.20667712145E+03  0.12996003677E+03  0.28145892289E+03  0.25500000920E-02 0. -1.
       -2    1    3    3    0  502 -0.14005028232E+03 -0.20667712145E+03  0.16062176813E+03  0.29686506449E+03  0.25500000920E-02 0.  1.
</event>
<event>
 5   0  0.3057783E-03  0.4998940E+03  0.7818609E-02  0.1013807E+00
       -1   -1    0    0    0  501  0.00000000000E+00  0.00000000000E+00  0.17078537423E+03  0.17078537431E+03  0.50400001928E-02 0. -1.
        1   -1    0    0  501    0  0.00000000000E+00  0.00000000000E+00 -0.36580129756E+03  0.36580129760E+03  0.50400001928E-02 0.  1.
    10030    2    1    2    0    0  0.00000000000E+00  0.00000000000E+00 -0.19501592333E+03  0.53658667191E+03  0.49989403489E+03 0.  0.
        5    1    3    3  502    0 -0.89610134361E+01 -0.15764337415E+02  0.17003083208E+03  0.17105960351E+03  0.46999998093E+01 0. -1.
       -5    1    3    3    0  502  0.89610134361E+01  0.15764337415E+02 -0.36504675541E+03  0.36552706840E+03  0.46999998093E+01 0.  1.
</event>
<event>
 5   0  0.3013734E-03  0.4985438E+03  0.7818609E-02  0.1014160E+00
        1   -1    0    0  501    0  0.00000000000E+00  0.00000000000E+00  0.77641104245E+03  0.77641104247E+03  0.50400001928E-02 0. -1.
       -1   -1    0    0    0  501  0.00000000000E+00  0.00000000000E+00 -0.80030394037E+02  0.80030394196E+02  0.50400001928E-02 0.  1.
    10030    2    1    2    0    0  0.00000000000E+00  0.00000000000E+00  0.69638064842E+03  0.85644143667E+03  0.49854380645E+03 0.  0.
        2    1    3    3  502    0 -0.15068136212E+03 -0.19818572423E+02  0.87661582173E+01  0.15223171233E+03  0.25500000920E-02 0.  1.
       -2    1    3    3    0  502  0.15068136212E+03  0.19818572423E+02  0.68761449020E+03  0.70420972433E+03  0.25500000920E-02 0. -1.
</event>
<event>
 5   0  0.3057783E-03  0.5000385E+03  0.7818609E-02  0.1013769E+00
        1   -1    0    0  501    0  0.00000000000E+00  0.00000000000E+00  0.33104919389E+03  0.33104919392E+03  0.50400001928E-02 0.  1.
       -1   -1    0    0    0  501  0.00000000000E+00  0.00000000000E+00 -0.18882280313E+03  0.18882280320E+03  0.50400001928E-02 0. -1.
    10030    2    1    2    0    0  0.00000000000E+00  0.00000000000E+00  0.14222639076E+03  0.51987199712E+03  0.50003854567E+03 0.  0.
        5    1    3    3  502    0  0.13063680220E+03 -0.15770439020E+03  0.22015508340E+03  0.30071082375E+03  0.46999998093E+01 0.  1.
       -5    1    3    3    0  502 -0.13063680220E+03  0.15770439020E+03 -0.77928692640E+02  0.21916117337E+03  0.46999998093E+01 0. -1.
</event>
<event>
 5   0  0.2005125E-03  0.4998388E+03  0.7818609E-02  0.1013821E+00
        4   -1    0    0  501    0  0.00000000000E+00  0.00000000000E+00  0.12903002252E+04  0.12903008502E+04  0.12699999809E+01 0.  1.
       -4   -1    0    0    0  501  0.00000000000E+00  0.00000000000E+00 -0.48398143113E+02  0.48414803075E+02  0.12699999809E+01 0. -1.
    10030    2    1    2    0    0  0.00000000000E+00  0.00000000000E+00  0.12419020821E+04  0.13387156533E+04  0.49983879287E+03 0.  0.
        1    1    3    3  502    0  0.38643022579E+02  0.33201555650E+00  0.12822583794E+04  0.12828405766E+04  0.50400001928E-02 0.  1.
       -1    1    3    3    0  502 -0.38643022579E+02 -0.33201555650E+00 -0.40356297349E+02  0.55875076640E+02  0.50400001928E-02 0. -1.
</event>
<event>
 5   0  0.5118882E-03  0.5000326E+03  0.7818609E-02  0.1013770E+00
        2   -1    0    0  501    0  0.00000000000E+00  0.00000000000E+00  0.72963264985E+03  0.72963264985E+03  0.25500000920E-02 0.  1.
       -2   -1    0    0    0  501  0.00000000000E+00  0.00000000000E+00 -0.85670729536E+02  0.85670729574E+02  0.25500000920E-02 0. -1.
    10030    2    1    2    0    0  0.00000000000E+00  0.00000000000E+00  0.64396192031E+03  0.81530337942E+03  0.50003264463E+03 0.  0.
        3    1    3    3  502    0 -0.25735076603E+02  0.22428797775E+03  0.14681968794E+03  0.26930173059E+03  0.10100000352E+00 0. -1.
       -3    1    3    3    0  502  0.25735076603E+02 -0.22428797775E+03  0.49714223237E+03  0.54600164884E+03  0.10100000352E+00 0.  1.
</event>
<event>
 5   0  0.4989875E-03  0.5000490E+03  0.7818609E-02  0.1013766E+00
        2   -1    0    0  501    0  0.00000000000E+00  0.00000000000E+00  0.28173794749E+03  0.28173794750E+03  0.25500000920E-02 0.  1.
       -2   -1    0    0    0  501  0.00000000000E+00  0.00000000000E+00 -0.22188083810E+03  0.22188083811E+03  0.25500000920E-02 0. -1.
    10030    2    1    2    0    0  0.00000000000E+00  0.00000000000E+00  0.59857109396E+02  0.50361878561E+03  0.50004900528E+03 0.  0.
        2    1    3    3  502    0 -0.19409484823E+03 -0.13123667650E+03  0.11782343058E+03  0.26225605078E+03  0.25500000920E-02 0. -1.
       -2    1    3    3    0  502  0.19409484823E+03  0.13123667650E+03 -0.57966321185E+02  0.24136273484E+03  0.25500000920E-02 0.  1.
</event>
<event>
 5   0  0.4978779E-03  0.4998956E+03  0.7818609E-02  0.1013806E+00
        2   -1    0    0  501    0  0.00000000000E+00  0.00000000000E+00  0.12230966908E+04  0.12230966908E+04  0.25500000920E-02 0.  1.
       -2   -1    0    0    0  501  0.00000000000E+00  0.00000000000E+00 -0.51078474822E+02  0.51078474886E+02  0.25500000920E-02 0. -1.
    10030    2    1    2    0    0  0.00000000000E+00  0.00000000000E+00  0.11720182160E+04  0.12741751657E+04  0.49989564339E+03 0.  0.
        1    1    3    3  502    0 -0.97147907740E+02 -0.19967166494E+03  0.87849181327E+03  0.90612049737E+03  0.50400001928E-02 0.  1.
       -1    1    3    3    0  502  0.97147907740E+02  0.19967166494E+03  0.29352640274E+03  0.36805466835E+03  0.50400001928E-02 0. -1.
</event>
<event>
 5   0  0.3013734E-03  0.5001195E+03  0.7818609E-02  0.1013748E+00
        1   -1    0    0  501    0  0.00000000000E+00  0.00000000000E+00  0.27226417517E+03  0.27226417522E+03  0.50400001928E-02 0. -1.
       -1   -1    0    0    0  501  0.00000000000E+00  0.00000000000E+00 -0.22966616317E+03  0.22966616322E+03  0.50400001928E-02 0.  1.
    10030    2    1    2    0    0  0.00000000000E+00  0.00000000000E+00  0.42598012007E+02  0.50193033844E+03  0.50011945975E+03 0.  0.
        2    1    3    3  502    0  0.12280550885E+03 -0.10639679339E+03 -0.16946395056E+03  0.23477542716E+03  0.25500000920E-02 0.  1.
       -2    1    3    3    0  502 -0.12280550885E+03  0.10639679339E+03  0.21206196257E+03  0.26715491129E+03  0.25500000920E-02 0. -1.
</event>
<event>
 5   0  0.5095783E-03  0.5003452E+03  0.7818609E-02  0.1013689E+00
       -2   -1    0    0    0  501  0.00000000000E+00  0.00000000000E+00  0.34152519776E+03  0.34152519777E+03  0.25500000920E-02 0.  1.
        2   -1    0    0  501    0  0.00000000000E+00  0.00000000000E+00 -0.18325539214E+03  0.18325539216E+03  0.25500000920E-02 0. -1.
    10030    2    1    2    0    0  0.00000000000E+00  0.00000000000E+00  0.15826980563E+03  0.52478058993E+03  0.50034521702E+03 0.  0.
        4    1    3    3  502    0  0.25107380593E+02 -0.14494426098E+03  0.29136702158E+03  0.32639787609E+03  0.12699999809E+01 0.  1.
       -4    1    3    3    0  502 -0.25107380593E+02  0.14494426098E+03 -0.13309721596E+03  0.19838271383E+03  0.12699999809E+01 0. -1.
</event>
<event>
 5   0  0.3211775E-03  0.4999245E+03  0.7818609E-02  0.1013799E+00
        1   -1    0    0  501    0  0.00000000000E+00  0.00000000000E+00  0.99763196317E+03  0.99763196318E+03  0.50400001928E-02 0. -1.
       -1   -1    0    0    0  501  0.00000000000E+00  0.00000000000E+00 -0.62629434037E+02  0.62629434240E+02  0.50400001928E-02 0.  1.
    10030    2    1    2    0    0  0.00000000000E+00  0.00000000000E+00  0.93500252913E+03  0.10602613974E+04  0.49992449568E+03 0.  0.
        4    1    3    3  502    0  0.13874687260E+02  0.95438808302E+02  0.95657723626E+03  0.96142742571E+03  0.12699999809E+01 0. -1.
       -4    1    3    3    0  502 -0.13874687260E+02 -0.95438808302E+02 -0.21574707128E+02  0.98833971712E+02  0.12699999809E+01 0.  1.
</event>
<event>
 5   0  0.3013734E-03  0.5000084E+03  0.7818609E-02  0.1013777E+00
       -1   -1    0    0    0  501  0.00000000000E+00  0.00000000000E+00  0.14009671235E+03  0.14009671244E+03  0.50400001928E-02 0. -1.
        1   -1    0    0  501    0  0.00000000000E+00  0.00000000000E+00 -0.44613536766E+03  0.44613536769E+03  0.50400001928E-02 0.  1.
    10030    2    1    2    0    0  0.00000000000E+00  0.00000000000E+00 -0.30603865532E+03  0.58623208013E+03  0.50000839315E+03 0.  0.
        2    1    3    3  502    0  0.12566357913E+02 -0.30736556930E+02 -0.44353831585E+03  0.44477959364E+03  0.25500000920E-02 0.  1.
       -2    1    3    3    0  502 -0.12566357913E+02  0.30736556930E+02  0.13749966053E+03  0.14145248649E+03  0.25500000920E-02 0. -1.
</event>
<event>
 5   0  0.5118882E-03  0.5001253E+03  0.7818609E-02  0.1013746E+00
        2   -1    0    0  501    0  0.00000000000E+00  0.00000000000E+00  0.77231941845E+03  0.77231941845E+03  0.25500000920E-02 0. -1.
       -2   -1    0    0    0  501  0.00000000000E+00  0.00000000000E+00 -0.80965620018E+02  0.80965620059E+02  0.25500000920E-02 0.  1.
    10030    2    1    2    0    0  0.00000000000E+00  0.00000000000E+00  0.69135379843E+03  0.85328503851E+03  0.50012526665E+03 0.  0.
        3    1    3    3  502    0 -0.22081813782E+03 -0.13826052643E+02  0.54449560168E+03  0.58773061871E+03  0.10100000352E+00 0. -1.
       -3    1    3    3    0  502  0.22081813782E+03  0.13826052643E+02  0.14685819675E+03  0.26555441980E+03  0.10100000352E+00 0.  1.
</event>
<event>
 5   0  0.3055293E-03  0.5002264E+03  0.7818609E-02  0.1013720E+00
        1   -1    0    0  501    0  0.00000000000E+00  0.00000000000E+00  0.24415453568E+03  0.24415453573E+03  0.50400001928E-02 0.  1.
       -1   -1    0    0    0  501  0.00000000000E+00  0.00000000000E+00 -0.25621724939E+03  0.25621724944E+03  0.50400001928E-02 0. -1.
    10030    2    1    2    0    0  0.00000000000E+00  0.00000000000E+00 -0.12062713709E+02  0.50037178517E+03  0.50022636309E+03 0.  0.
        3    1    3    3  502    0  0.10465257598E+03 -0.20819150036E+02 -0.23230718662E+03  0.25564083756E+03  0.10100000352E+00 0. -1.
       -3    1    3    3    0  502 -0.10465257598E+03  0.20819150036E+02  0.22024447292E+03  0.24473094761E+03  0.10100000352E+00 0.  1.
</event>
<event>
 5   0  0.5118882E-03  0.5000076E+03  0.7818609E-02  0.1013777E+00
        2   -1    0    0  501    0  0.00000000000E+00  0.00000000000E+00  0.14276357297E+03  0.14276357300E+03  0.25500000920E-02 0. -1.
       -2   -1    0    0    0  501  0.00000000000E+00  0.00000000000E+00 -0.43780000034E+03  0.43780000035E+03  0.25500000920E-02 0.  1.
    10030    2    1    2    0    0  0.00000000000E+00  0.00000000000E+00 -0.29503642736E+03  0.58056357334E+03  0.50000756916E+03 0.  0.
        3    1    3    3  502    0  0.22277108108E+03  0.95069181539E+02 -0.75597074984E+02  0.25373220487E+03  0.10100000352E+00 0. -1.
       -3    1    3    3    0  502 -0.22277108108E+03 -0.95069181539E+02 -0.21943935238E+03  0.32683136847E+03  0.10100000352E+00 0.  1.
</event>
<event>
 5   0  0.2005125E-03  0.5000409E+03  0.7818609E-02  0.1013768E+00
        3   -1    0    0  501    0  0.00000000000E+00  0.00000000000E+00  0.96995419475E+02  0.96995472059E+02  0.10100000352E+00 0.  1.
       -3   -1    0    0    0  501  0.00000000000E+00  0.00000000000E+00 -0.64446541397E+03  0.64446542188E+03  0.10100000352E+00 0. -1.
    10030    2    1    2    0    0  0.00000000000E+00  0.00000000000E+00 -0.54746999449E+03  0.74146089394E+03  0.50004086070E+03 0.  0.
        4    1    3    3  502    0 -0.30855579059E+01  0.20003294131E+03 -0.51384586265E+02  0.20655431945E+03  0.12699999809E+01 0.  1.
       -4    1    3    3    0  502  0.30855579059E+01 -0.20003294131E+03 -0.49608540823E+03  0.53490657449E+03  0.12699999809E+01 0. -1.
</event>
<event>
 5   0  0.3211775E-03  0.5001937E+03  0.7818609E-02  0.1013728E+00
        1   -1    0    0  501    0  0.00000000000E+00  0.00000000000E+00  0.13702014497E+03  0.13702014507E+03  0.50400001928E-02 0.  1.
       -1   -1    0    0    0  501  0.00000000000E+00  0.00000000000E+00 -0.45649075571E+03  0.45649075574E+03  0.50400001928E-02 0. -1.
    10030    2    1    2    0    0  0.00000000000E+00  0.00000000000E+00 -0.31947061073E+03  0.59351090080E+03  0.50019368074E+03 0.  0.
        4    1    3    3  502    0  0.19230327458E+03 -0.15300124428E+03 -0.21484197242E+03  0.32641785518E+03  0.12699999809E+01 0. -1.
       -4    1    3    3    0  502 -0.19230327458E+03  0.15300124428E+03 -0.10462863832E+03  0.26709304563E+03  0.12699999809E+01 0.  1.
</event>
<event>
 5   0  0.3057783E-03  0.4999747E+03  0.7818609E-02  0.1013786E+00
        1   -1    0    0  501    0  0.00000000000E+00  0.00000000000E+00  0.11364192869E+04  0.11364192869E+04  0.50400001928E-02 0.  1.
       -1   -1    0    0    0  501  0.00000000000E+00  0.00000000000E+00 -0.54991736798E+02  0.54991737029E+02  0.50400001928E-02 0. -1.
    10030    2    1    2    0    0  0.00000000000E+00  0.00000000000E+00  0.10814275501E+04  0.11914110239E+04  0.49997468120E+03 0.  0.
        5    1    3    3  502    0 -0.14025491518E+03  0.15451275891E+03  0.21288852066E+03  0.29814299610E+03  0.46999998093E+01 0. -1.
       -5    1    3    3    0  502  0.14025491518E+03 -0.15451275891E+03  0.86853902942E+03  0.89326802782E+03  0.46999998093E+01 0.  1.
</event>
<event>
 5   0  0.4889251E-03  0.4983191E+03  0.7818609E-02  0.1014219E+00
       -2   -1    0    0    0  501  0.00000000000E+00  0.00000000000E+00  0.83949377049E+03  0.83949377050E+03  0.25500000920E-02 0. -1.
        2   -1    0    0  501    0  0.00000000000E+00  0.00000000000E+00 -0.73949908970E+02  0.73949909014E+02  0.25500000920E-02 0.  1.
    10030    2    1    2    0    0  0.00000000000E+00  0.00000000000E+00  0.76554386152E+03  0.91344367951E+03  0.49831912639E+03 0.  0.
        5    1    3    3  502    0 -0.16578371072E+03  0.15284134520E+03  0.57688212501E+03  0.61940277017E+03  0.46999998093E+01 0. -1.
       -5    1    3    3    0  502  0.16578371072E+03 -0.15284134520E+03  0.18866173652E+03  0.29404090934E+03  0.46999998093E+01 0.  1.
</event>
<event>
 5   0  0.2863538E-03  0.4993485E+03  0.7818609E-02  0.1013949E+00
       -1   -1    0    0    0  501  0.00000000000E+00  0.00000000000E+00  0.95365504961E+02  0.95365505094E+02  0.50400001928E-02 0.  1.
        1   -1    0    0  501    0  0.00000000000E+00  0.00000000000E+00 -0.65366657820E+03  0.65366657822E+03  0.50400001928E-02 0. -1.
    10030    2    1    2    0    0  0.00000000000E+00  0.00000000000E+00 -0.55830107324E+03  0.74903208331E+03  0.49934854906E+03 0.  0.
        1    1    3    3  502    0 -0.84182144044E+02  0.16897121928E+03 -0.52425254314E+03  0.55720609772E+03  0.50400001928E-02 0. -1.
       -1    1    3    3    0  502  0.84182144044E+02 -0.16897121928E+03 -0.34048530101E+02  0.19182598560E+03  0.50400001928E-02 0.  1.
</event>
<event>
 5   0  0.4889251E-03  0.5008018E+03  0.7818609E-02  0.1013570E+00
       -2   -1    0    0    0  501  0.00000000000E+00  0.00000000000E+00  0.47197663874E+02  0.47197663943E+02  0.25500000920E-02 0. -1.
        2   -1    0    0  501    0  0.00000000000E+00  0.00000000000E+00 -0.13284685174E+04  0.13284685174E+04  0.25500000920E-02 0.  1.
    10030    2    1    2    0    0  0.00000000000E+00  0.00000000000E+00 -0.12812708535E+04  0.13756661813E+04  0.50080179952E+03 0.  0.
        5    1    3    3  502    0 -0.13976567072E+03  0.10862228161E+03 -0.15430298391E+03  0.23487175993E+03  0.46999998093E+01 0. -1.
       -5    1    3    3    0  502  0.13976567072E+03 -0.10862228161E+03 -0.11269678696E+04  0.11407944214E+04  0.46999998093E+01 0.  1.
</event>
<event>
 5   0  0.3013734E-03  0.5000039E+03  0.7818609E-02  0.1013778E+00
        1   -1    0    0  501    0  0.00000000000E+00  0.00000000000E+00  0.15167008491E+03  0.15167008499E+03  0.50400001928E-02 0. -1.
       -1   -1    0    0    0  501  0.00000000000E+00  0.00000000000E+00 -0.41208506546E+03  0.41208506550E+03  0.50400001928E-02 0.  1.
    10030    2    1    2    0    0  0.00000000000E+00  0.00000000000E+00 -0.26041498056E+03  0.56375515049E+03  0.50000390759E+03 0.  0.
        2    1    3    3  502    0  0.16455860495E+03  0.12611999498E+03 -0.28771581356E+03  0.35463527317E+03  0.25500000920E-02 0.  1.
       -2    1    3    3    0  502 -0.16455860495E+03 -0.12611999498E+03  0.27300833006E+02  0.20911987731E+03  0.25500000920E-02 0. -1.
</event>
<event>
 5   0  0.3055293E-03  0.5003250E+03  0.7818609E-02  0.1013694E+00
        1   -1    0    0  501    0  0.00000000000E+00  0.00000000000E+00  0.14223545526E+03  0.14223545535E+03  0.50400001928E-02 0.  1.
       -1   -1    0    0    0  501  0.00000000000E+00  0.00000000000E+00 -0.43998365465E+03  0.43998365468E+03  0.50400001928E-02 0. -1.
    10030    2    1    2    0    0  0.00000000000E+00  0.00000000000E+00 -0.29774819939E+03  0.58221911003E+03  0.50032499622E+03 0.  0.
        3    1    3    3  502    0  0.12068359612E+03  0.20686846252E+03 -0.64781083696E+02  0.24810419215E+03  0.10100000352E+00 0.  1.
       -3    1    3    3    0  502 -0.12068359612E+03 -0.20686846252E+03 -0.23296711570E+03  0.33411491789E+03  0.10100000352E+00 0. -1.
</event>
<event>
 5   0  0.2005125E-03  0.5001163E+03  0.7818609E-02  0.1013749E+00
       -3   -1    0    0    0  501  0.00000000000E+00  0.00000000000E+00  0.55638252197E+02  0.55638343870E+02  0.10100000352E+00 0. -1.
        3   -1    0    0  501    0  0.00000000000E+00  0.00000000000E+00 -0.11238493439E+04  0.11238493484E+04  0.10100000352E+00 0.  1.
    10030    2    1    2    0    0  0.00000000000E+00  0.00000000000E+00 -0.10682110917E+04  0.11794876923E+04  0.50011626635E+03 0.  0.
        4    1    3    3  502    0 -0.98404561891E+01 -0.58588028202E+02 -0.11069560753E+04  0.11085498443E+04  0.12699999809E+01 0.  1.
       -4    1    3    3    0  502  0.98404561891E+01  0.58588028202E+02  0.38744983632E+02  0.70937848031E+02  0.12699999809E+01 0. -1.
</event>
<event>
 5   0  0.3057783E-03  0.4999903E+03  0.7818609E-02  0.1013781E+00
        1   -1    0    0  501    0  0.00000000000E+00  0.00000000000E+00  0.75010654358E+02  0.75010654527E+02  0.50400001928E-02 0. -1.
       -1   -1    0    0    0  501  0.00000000000E+00  0.00000000000E+00 -0.83318263089E+03  0.83318263091E+03  0.50400001928E-02 0.  1.
    10030    2    1    2    0    0  0.00000000000E+00  0.00000000000E+00 -0.75817197653E+03  0.90819328543E+03  0.49999029761E+03 0.  0.
        5    1    3    3  502    0  0.13205033947E+03  0.20640629348E+03 -0.28946007859E+03  0.37927572719E+03  0.46999998093E+01 0. -1.
       -5    1    3    3    0  502 -0.13205033947E+03 -0.20640629348E+03 -0.46871189794E+03  0.52891755824E+03  0.46999998093E+01 0.  1.
</event>
<event>
 5   0  0.4989875E-03  0.5001103E+03  0.7818609E-02  0.1013750E+00
        2   -1    0    0  501    0  0.00000000000E+00  0.00000000000E+00  0.35987803197E+03  0.35987803198E+03  0.25500000920E-02 0.  1.
       -2   -1    0    0    0  501  0.00000000000E+00  0.00000000000E+00 -0.17374658158E+03  0.17374658159E+03  0.25500000920E-02 0. -1.
    10030    2    1    2    0    0  0.00000000000E+00  0.00000000000E+00  0.18613145039E+03  0.53362461357E+03  0.50011029922E+03 0.  0.
        2    1    3    3  502    0 -0.45094770186E+02 -0.17196564419E+03 -0.94564516016E+02  0.20136575870E+03  0.25500000920E-02 0. -1.
       -2    1    3    3    0  502  0.45094770186E+02  0.17196564419E+03  0.28069596641E+03  0.33225885488E+03  0.25500000920E-02 0.  1.
</event>
<event>
 5   0  0.4978779E-03  0.4998072E+03  0.7818609E-02  0.1013829E+00
        2   -1    0    0  501    0  0.00000000000E+00  0.00000000000E+00  0.49079590802E+03  0.49079590802E+03  0.25500000920E-02 0. -1.
       -2   -1    0    0    0  501  0.00000000000E+00  0.00000000000E+00 -0.12724597465E+03  0.12724597467E+03  0.25500000920E-02 0.  1.
    10030    2    1    2    0    0  0.00000000000E+00  0.00000000000E+00  0.36354993337E+03  0.61804188270E+03  0.49980717753E+03 0.  0.
        1    1    3    3  502    0 -0.22660352846E+03  0.64035719237E+02  0.78301576222E+02  0.24815493006E+03  0.50400001928E-02 0.  1.
       -1    1    3    3    0  502  0.22660352846E+03 -0.64035719237E+02  0.28524835715E+03  0.36988695263E+03  0.50400001928E-02 0. -1.
</event>
<event>
 5   0  0.3211775E-03  0.5000074E+03  0.7818609E-02  0.1013777E+00
       -1   -1    0    0    0  501  0.00000000000E+00  0.00000000000E+00  0.29571747268E+03  0.29571747273E+03  0.50400001928E-02 0. -1.
        1   -1    0    0  501    0  0.00000000000E+00  0.00000000000E+00 -0.21135667517E+03  0.21135667523E+03  0.50400001928E-02 0.  1.
    10030    2    1    2    0    0  0.00000000000E+00  0.00000000000E+00  0.84360797509E+02  0.50707414796E+03  0.50000744732E+03 0.  0.
        4    1    3    3  502    0  0.17957624928E+02 -0.20295113448E+03  0.18910239890E+03  0.27798016017E+03  0.12699999809E+01 0. -1.
       -4    1    3    3    0  502 -0.17957624928E+02  0.20295113448E+03 -0.10474160139E+03  0.22909398779E+03  0.12699999809E+01 0.  1.
</event>
<event>
 5   0  0.3055293E-03  0.5001118E+03  0.7818609E-02  0.1013750E+00
       -1   -1    0    0    0  501  0.00000000000E+00  0.00000000000E+00  0.71517244033E+02  0.71517244210E+02  0.50400001928E-02 0. -1.
        1   -1    0    0  501    0  0.00000000000E+00  0.00000000000E+00 -0.87430595616E+03  0.87430595617E+03  0.50400001928E-02 0.  1.
    10030    2    1    2    0    0  0.00000000000E+00  0.00000000000E+00 -0.80278871212E+03  0.94582320038E+03  0.50011179757E+03 0.  0.
        3    1    3    3  502    0  0.24822783113E+03  0.25803759975E+02 -0.43099983650E+03  0.49803991751E+03  0.10100000352E+00 0. -1.
       -3    1    3    3    0  502 -0.24822783113E+03 -0.25803759975E+02 -0.37178887563E+03  0.44778328287E+03  0.10100000352E+00 0.  1.
</event>
<event>
 5   0  0.2863538E-03  0.5001351E+03  0.7818609E-02  0.1013744E+00
       -1   -1    0    0    0  501  0.00000000000E+00  0.00000000000E+00  0.32067837095E+02  0.32067837491E+02  0.50400001928E-02 0. -1.
        1   -1    0    0  501    0  0.00000000000E+00  0.00000000000E+00 -0.19500467079E+04  0.19500467079E+04  0.50400001928E-02 0.  1.
    10030    2    1    2    0    0  0.00000000000E+00  0.00000000000E+00 -0.19179788708E+04  0.19821145454E+04  0.50013510396E+03 0.  0.
        1    1    3    3  502    0 -0.23868690977E+03  0.67628195654E+02 -0.83436926388E+03  0.87046946086E+03  0.50400001928E-02 0. -1.
       -1    1    3    3    0  502  0.23868690977E+03 -0.67628195654E+02 -0.10836096069E+04  0.11116450845E+04  0.50400001928E-02 0.  1.
</event>
<event>
 5   0  0.3013734E-03  0.5000426E+03  0.7818609E-02  0.1013768E+00
       -1   -1    0    0    0  501  0.00000000000E+00  0.00000000000E+00  0.23075855143E+03  0.23075855149E+03  0.50400001928E-02 0. -1.
        1   -1    0    0  501    0  0.00000000000E+00  0.00000000000E+00 -0.27089200888E+03  0.27089200893E+03  0.50400001928E-02 0.  1.
    10030    2    1    2    0    0  0.00000000000E+00  0.00000000000E+00 -0.40133457449E+02  0.50165056042E+03  0.50004258855E+03 0.  0.
        2    1    3    3  502    0  0.15130657737E+03 -0.18251121099E+03  0.59602903841E+02  0.24445148526E+03  0.25500000920E-02 0. -1.
       -2    1    3    3    0  502 -0.15130657737E+03  0.18251121099E+03 -0.99736361290E+02  0.25719907516E+03  0.25500000920E-02 0.  1.
</event>
<event>
 5   0  0.4978779E-03  0.4998852E+03  0.7818609E-02  0.1013809E+00
        2   -1    0    0  501    0  0.00000000000E+00  0.00000000000E+00  0.54457874208E+03  0.54457874209E+03  0.25500000920E-02 0. -1.
       -2   -1    0    0    0  501  0.00000000000E+00  0.00000000000E+00 -0.11471491865E+03  0.11471491868E+03  0.25500000920E-02 0.  1.
    10030    2    1    2    0    0  0.00000000000E+00  0.00000000000E+00  0.42986382343E+03  0.65929366076E+03  0.49988521125E+03 0.  0.
        1    1    3    3  502    0 -0.18325390649E+03 -0.14308053107E+03  0.33593440796E+03  0.40854125752E+03  0.50400001928E-02 0. -1.
       -1    1    3    3    0  502  0.18325390649E+03  0.14308053107E+03  0.93929415468E+02  0.25075240324E+03  0.50400001928E-02 0.  1.
</event>
<event>
 5   0  0.5118882E-03  0.4998484E+03  0.7818609E-02  0.1013819E+00
       -2   -1    0    0    0  501  0.00000000000E+00  0.00000000000E+00  0.20624924047E+02  0.20624924204E+02  0.25500000920E-02 0.  1.
        2   -1    0    0  501    0  0.00000000000E+00  0.00000000000E+00 -0.30284764107E+04  0.30284764107E+04  0.25500000920E-02 0. -1.
    10030    2    1    2    0    0  0.00000000000E+00  0.00000000000E+00 -0.30078514866E+04  0.30491013349E+04  0.49984836176E+03 0.  0.
        3    1    3    3  502    0 -0.16906221197E+03  0.15988634696E+03 -0.94763536954E+03  0.97578608274E+03  0.10100000352E+00 0.  1.
       -3    1    3    3    0  502  0.16906221197E+03 -0.15988634696E+03 -0.20602161171E+04  0.20733152521E+04  0.10100000352E+00 0. -1.
</event>
<event>
 5   0  0.3055293E-03  0.5004245E+03  0.7818609E-02  0.1013668E+00
       -1   -1    0    0    0  501  0.00000000000E+00  0.00000000000E+00  0.99516374071E+02  0.99516374199E+02  0.50400001928E-02 0.  1.
        1   -1    0    0  501    0  0.00000000000E+00  0.00000000000E+00 -0.62910431562E+03  0.62910431564E+03  0.50400001928E-02 0. -1.
    10030    2    1    2    0    0  0.00000000000E+00  0.00000000000E+00 -0.52958794155E+03  0.72862068984E+03  0.50042454159E+03 0.  0.
        3    1    3    3  502    0 -0.18613980733E+03 -0.16002362224E+03 -0.33538518752E+03  0.41561860131E+03  0.10100000352E+00 0. -1.
       -3    1    3    3    0  502  0.18613980733E+03  0.16002362224E+03 -0.19420275403E+03  0.31300208853E+03  0.10100000352E+00 0.  1.
</event>
<event>
 5   0  0.5095783E-03  0.4998608E+03  0.7818609E-02  0.1013815E+00
       -2   -1    0    0    0  501  0.00000000000E+00  0.00000000000E+00  0.21770370401E+03  0.21770370403E+03  0.25500000920E-02 0.  1.
        2   -1    0    0  501    0  0.00000000000E+00  0.00000000000E+00 -0.28692765261E+03  0.28692765262E+03  0.25500000920E-02 0. -1.
    10030    2    1    2    0    0  0.00000000000E+00  0.00000000000E+00 -0.69223948597E+02  0.50463135664E+03  0.49986083168E+03 0.  0.
        4    1    3    3  502    0 -0.85081465623E+02  0.74886408356E+01 -0.27173370733E+03  0.28484338878E+03  0.12699999809E+01 0. -1.
       -4    1    3    3    0  502  0.85081465623E+02 -0.74886408356E+01  0.20250975873E+03  0.21978796786E+03  0.12699999809E+01 0.  1.
</event>
<event>
 5   0  0.3055293E-03  0.4999626E+03  0.7818609E-02  0.1013789E+00
       -1   -1    0    0    0  501  0.00000000000E+00  0.00000000000E+00  0.19792679046E+03  0.19792679052E+03  0.50400001928E-02 0. -1.
        1   -1    0    0  501    0  0.00000000000E+00  0.00000000000E+00 -0.31572605129E+03  0.31572605133E+03  0.50400001928E-02 0.  1.
    10030    2    1    2    0    0  0.00000000000E+00  0.00000000000E+00 -0.11779926084E+03  0.51365284185E+03  0.49996257469E+03 0.  0.
        3    1    3    3  502    0 -0.14973471823E+02  0.24948912508E+03 -0.63675073540E+02  0.25792160356E+03  0.10100000352E+00 0.  1.
       -3    1    3    3    0  502  0.14973471823E+02 -0.24948912508E+03 -0.54124187296E+02  0.25573123830E+03  0.10100000352E+00 0. -1.
</event>
<event>
 5   0  0.3055293E-03  0.4981400E+03  0.7818609E-02  0.1014266E+00
       -1   -1    0    0    0  501  0.00000000000E+00  0.00000000000E+00  0.64167789105E+02  0.64167789303E+02  0.50400001928E-02 0.  1.
        1   -1    0    0  501    0  0.00000000000E+00  0.00000000000E+00 -0.96677565270E+03  0.96677565271E+03  0.50400001928E-02 0. -1.
    10030    2    1    2    0    0  0.00000000000E+00  0.00000000000E+00 -0.90260786359E+03  0.10309434420E+04  0.49813996548E+03 0.  0.
        3    1    3    3  502    0  0.10335129006E+03  0.22487405213E+03 -0.50932685379E+03  0.56627173925E+03  0.10100000352E+00 0. -1.
       -3    1    3    3    0  502 -0.10335129006E+03 -0.22487405213E+03 -0.39328100980E+03  0.46467170276E+03  0.10100000352E+00 0.  1.
</event>
<event>
 5   0  0.4889251E-03  0.5005324E+03  0.7818609E-02  0.1013640E+00
       -2   -1    0    0    0  501  0.00000000000E+00  0.00000000000E+00  0.83172882609E+02  0.83172882648E+02  0.25500000920E-02 0. -1.
        2   -1    0    0  501    0  0.00000000000E+00  0.00000000000E+00 -0.75304801079E+03  0.75304801079E+03  0.25500000920E-02 0.  1.
    10030    2    1    2    0    0  0.00000000000E+00  0.00000000000E+00 -0.66987512818E+03  0.83622089344E+03  0.50053241181E+03 0.  0.
        5    1    3    3  502    0  0.21918118613E+03  0.76131617422E+02 -0.49143389619E+03  0.54347564789E+03  0.46999998093E+01 0.  1.
       -5    1    3    3    0  502 -0.21918118613E+03 -0.76131617422E+02 -0.17844123199E+03  0.29274524556E+03  0.46999998093E+01 0. -1.
</event>
<event>
 5   0  0.3211775E-03  0.5002445E+03  0.7818609E-02  0.1013715E+00
        1   -1    0    0  501    0  0.00000000000E+00  0.00000000000E+00  0.57642251766E+03  0.57642251768E+03  0.50400001928E-02 0. -1.
       -1   -1    0    0    0  501  0.00000000000E+00  0.00000000000E+00 -0.10853346315E+03  0.10853346327E+03  0.50400001928E-02 0.  1.
    10030    2    1    2    0    0  0.00000000000E+00  0.00000000000E+00  0.46788905451E+03  0.68495598094E+03  0.50024446874E+03 0.  0.
        4    1    3    3  502    0 -0.14330201955E+03 -0.86153636836E+02  0.48864424613E+03  0.51646174120E+03  0.12699999809E+01 0. -1.
       -4    1    3    3    0  502  0.14330201955E+03  0.86153636836E+02 -0.20755191622E+02  0.16849423974E+03  0.12699999809E+01 0.  1.
</event>
<event>
 5   0  0.3055293E-03  0.4999589E+03  0.7818609E-02  0.1013790E+00
        1   -1    0    0  501    0  0.00000000000E+00  0.00000000000E+00  0.28902852782E+03  0.28902852786E+03  0.50400001928E-02 0. -1.
       -1   -1    0    0    0  501  0.00000000000E+00  0.00000000000E+00 -0.21620605389E+03  0.21620605395E+03  0.50400001928E-02 0.  1.
    10030    2    1    2    0    0  0.00000000000E+00  0.00000000000E+00  0.72822473923E+02  0.50523458181E+03  0.49995886826E+03 0.  0.
        3    1    3    3  502    0 -0.10413051830E+03 -0.22725709764E+03  0.37288740996E+02  0.25274377080E+03  0.10100000352E+00 0.  1.
       -3    1    3    3    0  502  0.10413051830E+03  0.22725709764E+03  0.35533732927E+02  0.25249081102E+03  0.10100000352E+00 0. -1.
</event>
<event>
 5   0  0.4989875E-03  0.4999984E+03  0.7818609E-02  0.1013779E+00
        2   -1    0    0  501    0  0.00000000000E+00  0.00000000000E+00  0.42900808027E+03  0.42900808027E+03  0.25500000920E-02 0. -1.
       -2   -1    0    0    0  501  0.00000000000E+00  0.00000000000E+00 -0.14568399196E+03  0.14568399198E+03  0.25500000920E-02 0.  1.
    10030    2    1    2    0    0  0.00000000000E+00  0.00000000000E+00  0.28332408831E+03  0.57469207226E+03  0.49999843890E+03 0.  0.
        2    1    3    3  502    0  0.64153803709E+02  0.23927662592E+03  0.18030943505E+03  0.30639926014E+03  0.25500000920E-02 0. -1.
       -2    1    3    3    0  502 -0.64153803709E+02 -0.23927662592E+03  0.10301465326E+03  0.26829281212E+03  0.25500000920E-02 0.  1.
</event>
<event>
 5   0  0.3211775E-03  0.5001591E+03  0.7818609E-02  0.1013737E+00
        1   -1    0    0  501    0  0.00000000000E+00  0.00000000000E+00  0.46139060226E+03  0.46139060229E+03  0.50400001928E-02 0.  1.
       -1   -1    0    0    0  501  0.00000000000E+00  0.00000000000E+00 -0.13554627413E+03  0.13554627423E+03  0.50400001928E-02 0. -1.
    10030    2    1    2    0    0  0.00000000000E+00  0.00000000000E+00  0.32584432813E+03  0.59693687652E+03  0.50015908306E+03 0.  0.
        4    1    3    3  502    0  0.17511938518E+03  0.10375857891E+03 -0.10465542466E+02  0.20382291883E+03  0.12699999809E+01 0. -1.
       -4    1    3    3    0  502 -0.17511938518E+03 -0.10375857891E+03  0.33630987060E+03  0.39311395768E+03  0.12699999809E+01 0.  1.
</event>
<event>
 5   0  0.4978779E-03  0.5003283E+03  0.7818609E-02  0.1013693E+00
       -2   -1    0    0    0  501  0.00000000000E+00  0.00000000000E+00  0.51207445565E+02  0.51207445628E+02  0.25500000920E-02 0.  1.
        2   -1    0    0  501    0  0.00000000000E+00  0.00000000000E+00 -0.12221288686E+04  0.12221288686E+04  0.25500000920E-02 0. -1.
    10030    2    1    2    0    0  0.00000000000E+00  0.00000000000E+00 -0.11709214230E+04  0.12733363142E+04  0.50032828245E+03 0.  0.
        1    1    3    3  502    0  0.21133384998E+03 -0.58015774452E+02 -0.89249247328E+03  0.91900524543E+03  0.50400001928E-02 0. -1.
       -1    1    3    3    0  502 -0.21133384998E+03  0.58015774452E+02 -0.27842894975E+03  0.35433106880E+03  0.50400001928E-02 0.  1.
</event>
<event>
 5   0  0.2005125E-03  0.5000017E+03  0.7818609E-02  0.1013778E+00
       -4   -1    0    0    0  501  0.00000000000E+00  0.00000000000E+00  0.53378740747E+02  0.53393846684E+02  0.12699999809E+01 0.  1.
        4   -1    0    0  501    0  0.00000000000E+00  0.00000000000E+00 -0.11707047745E+04  0.11707054633E+04  0.12699999809E+01 0. -1.
    10030    2    1    2    0    0  0.00000000000E+00  0.00000000000E+00 -0.11173260337E+04  0.12240993100E+04  0.50000165514E+03 0.  0.
        3    1    3    3  502    0 -0.88116864765E+02  0.80868639372E+02 -0.10961291350E+04  0.11026347580E+04  0.10100000352E+00 0. -1.
       -3    1    3    3    0  502  0.88116864765E+02 -0.80868639372E+02 -0.21196898741E+02  0.12146455206E+03  0.10100000352E+00 0.  1.
</event>
<event>
 5   0  0.3211775E-03  0.5001431E+03  0.7818609E-02  0.1013742E+00
       -1   -1    0    0    0  501  0.00000000000E+00  0.00000000000E+00  0.29229307718E+03  0.29229307723E+03  0.50400001928E-02 0.  1.
        1   -1    0    0  501    0  0.00000000000E+00  0.00000000000E+00 -0.21394891892E+03  0.21394891898E+03  0.50400001928E-02 0. -1.
    10030    2    1    2    0    0  0.00000000000E+00  0.00000000000E+00  0.78344158261E+02  0.50624199621E+03  0.50014313110E+03 0.  0.
        4    1    3    3  502    0  0.12238488405E+03  0.18003204189E+03  0.16373605580E+03  0.27239806317E+03  0.12699999809E+01 0.  1.
       -4    1    3    3    0  502 -0.12238488405E+03 -0.18003204189E+03 -0.85391897541E+02  0.23384393303E+03  0.12699999809E+01 0. -1.
</event>
<event>
 5   0  0.5118882E-03  0.5000464E+03  0.7818609E-02  0.1013767E+00
        2   -1    0    0  501    0  0.00000000000E+00  0.00000000000E+00  0.14124903037E+04  0.14124903037E+04  0.25500000920E-02 0. -1.
       -2   -1    0    0    0  501  0.00000000000E+00  0.00000000000E+00 -0.44256309638E+02  0.44256309712E+02  0.25500000920E-02 0.  1.
    10030    2    1    2    0    0  0.00000000000E+00  0.00000000000E+00  0.13682339941E+04  0.14567466134E+04  0.50004643103E+03 0.  0.
        3    1    3    3  502    0  0.17903779601E+03 -0.13797842169E+03  0.99542344634E+03  0.10207646276E+04  0.10100000352E+00 0. -1.
       -3    1    3    3    0  502 -0.17903779601E+03  0.13797842169E+03  0.37281054772E+03  0.43598198580E+03  0.10100000352E+00 0.  1.
</event>
<event>
 5   0  0.3055293E-03  0.5000088E+03  0.7818609E-02  0.1013777E+00
       -1   -1    0    0    0  501  0.00000000000E+00  0.00000000000E+00  0.18011514312E+03  0.18011514319E+03  0.50400001928E-02 0. -1.
        1   -1    0    0  501    0  0.00000000000E+00  0.00000000000E+00 -0.34701243129E+03  0.34701243133E+03  0.50400001928E-02 0.  1.
    10030    2    1    2    0    0  0.00000000000E+00  0.00000000000E+00 -0.16689728818E+03  0.52712757452E+03  0.50000877494E+03 0.  0.
        3    1    3    3  502    0 -0.21042083347E+02  0.13381213927E+03 -0.30497315508E+03  0.33370210280E+03  0.10100000352E+00 0.  1.
       -3    1    3    3    0  502  0.21042083347E+02 -0.13381213927E+03  0.13807586691E+03  0.19342547172E+03  0.10100000352E+00 0. -1.
</event>
<event>
 5   0  0.4989875E-03  0.5001111E+03  0.7818609E-02  0.1013750E+00
       -2   -1    0    0    0  501  0.00000000000E+00  0.00000000000E+00  0.44711539241E+03  0.44711539242E+03  0.25500000920E-02 0.  1.
        2   -1    0    0  501    0  0.00000000000E+00  0.00000000000E+00 -0.13984706594E+03  0.13984706597E+03  0.25500000920E-02 0. -1.
    10030    2    1    2    0    0  0.00000000000E+00  0.00000000000E+00  0.30726832647E+03  0.58696245838E+03  0.50011109076E+03 0.  0.
        2    1    3    3  502    0 -0.35249343999E+02  0.15610578872E+03  0.37913729765E+03  0.41152961497E+03  0.25500000920E-02 0.  1.
       -2    1    3    3    0  502  0.35249343999E+02 -0.15610578872E+03 -0.71868971182E+02  0.17543284341E+03  0.25500000920E-02 0. -1.
</event>
<event>
 5   0  0.5118882E-03  0.4999481E+03  0.7818609E-02  0.1013792E+00
        2   -1    0    0  501    0  0.00000000000E+00  0.00000000000E+00  0.47466407603E+03  0.47466407604E+03  0.25500000920E-02 0.  1.
       -2   -1    0    0    0  501  0.00000000000E+00  0.00000000000E+00 -0.13164471043E+03  0.13164471045E+03  0.25500000920E-02 0. -1.
    10030    2    1    2    0    0  0.00000000000E+00  0.00000000000E+00  0.34301936560E+03  0.60630878649E+03  0.49994805669E+03 0.  0.
        3    1    3    3  502    0 -0.10201946082E+03  0.20156816337E+03  0.41744366298E+02  0.22973962912E+03  0.10100000352E+00 0. -1.
       -3    1    3    3    0  502  0.10201946082E+03 -0.20156816337E+03  0.30127499930E+03  0.37656915736E+03  0.10100000352E+00 0.  1.
</event>
<event>
 5   0  0.4989875E-03  0.4999337E+03  0.7818609E-02  0.1013796E+00
       -2   -1    0    0    0  501  0.00000000000E+00  0.00000000000E+00  0.36779514335E+02  0.36779514423E+02  0.25500000920E-02 0. -1.
        2   -1    0    0  501    0  0.00000000000E+00  0.00000000000E+00 -0.16988651941E+04  0.16988651941E+04  0.25500000920E-02 0.  1.
    10030    2    1    2    0    0  0.00000000000E+00  0.00000000000E+00 -0.16620856797E+04  0.17356447085E+04  0.49993374295E+03 0.  0.
        2    1    3    3  502    0  0.19115034932E+03 -0.60541065135E+02 -0.31283541117E+03  0.37157727473E+03  0.25500000920E-02 0. -1.
       -2    1    3    3    0  502 -0.19115034932E+03  0.60541065135E+02 -0.13492502686E+04  0.13640674338E+04  0.25500000920E-02 0.  1.
</event>
<event>
 5   0  0.4989875E-03  0.5000560E+03  0.7818609E-02  0.1013764E+00
        2   -1    0    0  501    0  0.00000000000E+00  0.00000000000E+00  0.99017417573E+03  0.99017417574E+03  0.25500000920E-02 0.  1.
       -2   -1    0    0    0  501  0.00000000000E+00  0.00000000000E+00 -0.63134336247E+02  0.63134336298E+02  0.25500000920E-02 0. -1.
    10030    2    1    2    0    0  0.00000000000E+00  0.00000000000E+00  0.92703983949E+03  0.10533085120E+04  0.50005595440E+03 0.  0.
        2    1    3    3  502    0  0.22624944939E+01 -0.10118681028E+03  0.94509461224E+03  0.95049866678E+03  0.25500000920E-02 0.  1.
       -2    1    3    3    0  502 -0.22624944939E+01  0.10118681028E+03 -0.18054772750E+02  0.10280984526E+03  0.25500000920E-02 0. -1.
</event>
<event>
 5   0  0.3057783E-03  0.5000939E+03  0.7818609E-02  0.1013754E+00
       -1   -1    0    0    0  501  0.00000000000E+00  0.00000000000E+00  0.39917751307E+03  0.39917751310E+03  0.50400001928E-02 0.  1.
        1   -1    0    0  501    0  0.00000000000E+00  0.00000000000E+00 -0.15663077183E+03  0.15663077191E+03  0.50400001928E-02 0. -1.
    10030    2    1    2    0    0  0.00000000000E+00  0.00000000000E+00  0.24254674124E+03  0.55580828501E+03  0.50009391918E+03 0.  0.
        5    1    3    3  502    0  0.15222716662E+03 -0.39707488117E+00  0.34168020552E+03  0.37408651509E+03  0.46999998093E+01 0.  1.
       -5    1    3    3    0  502 -0.15222716662E+03  0.39707488117E+00 -0.99133464280E+02  0.18172176992E+03  0.46999998093E+01 0. -1.
</event>
<event>
 5   0  0.3211775E-03  0.4998922E+03  0.7818609E-02  0.1013807E+00
       -1   -1    0    0    0  501  0.00000000000E+00  0.00000000000E+00  0.78398641537E+03  0.78398641539E+03  0.50400001928E-02 0. -1.
        1   -1    0    0  501    0  0.00000000000E+00  0.00000000000E+00 -0.79686391600E+02  0.79686391759E+02  0.50400001928E-02 0.  1.
    10030    2    1    2    0    0  0.00000000000E+00  0.00000000000E+00  0.70430002377E+03  0.86367280715E+03  0.49989218270E+03 0.  0.
        4    1    3    3  502    0  0.10758513268E+03  0.22528795390E+03  0.37275356623E+03  0.44863800216E+03  0.12699999809E+01 0.  1.
       -4    1    3    3    0  502 -0.10758513268E+03 -0.22528795390E+03  0.33154645754E+03  0.41503480499E+03  0.12699999809E+01 0. -1.
</event>
<event>
 5   0  0.4989875E-03  0.4999378E+03  0.7818609E-02  0.1013795E+00
       -2   -1    0    0    0  501  0.00000000000E+00  0.00000000000E+00  0.19376276793E+03  0.19376276794E+03  0.25500000920E-02 0.  1.
        2   -1    0    0  501    0  0.00000000000E+00  0.00000000000E+00 -0.32247918273E+03  0.32247918274E+03  0.25500000920E-02 0. -1.
    10030    2    1    2    0    0  0.00000000000E+00  0.00000000000E+00 -0.12871641481E+03  0.51624195068E+03  0.49993783234E+03 0.  0.
        2    1    3    3  502    0 -0.17142672910E+02 -0.24154005428E+03 -0.29470460046E+00  0.24214779767E+03  0.25500000920E-02 0.  1.
       -2    1    3    3    0  502  0.17142672910E+02  0.24154005428E+03 -0.12842171021E+03  0.27409415301E+03  0.25500000920E-02 0. -1.
</event>
<event>
 5   0  0.4989875E-03  0.5000227E+03  0.7818609E-02  0.1013773E+00
       -2   -1    0    0    0  501  0.00000000000E+00  0.00000000000E+00  0.98967370944E+02  0.98967370976E+02  0.25500000920E-02 0.  1.
        2   -1    0    0  501    0  0.00000000000E+00  0.00000000000E+00 -0.63157859096E+03  0.63157859096E+03  0.25500000920E-02 0. -1.
    10030    2    1    2    0    0  0.00000000000E+00  0.00000000000E+00 -0.53261122001E+03  0.73054596194E+03  0.50002269031E+03 0.  0.
        2    1    3    3  502    0 -0.20709419620E+03 -0.13134780542E+03 -0.19524776698E+03  0.31346761014E+03  0.25500000920E-02 0. -1.
       -2    1    3    3    0  502  0.20709419620E+03  0.13134780542E+03 -0.33736345304E+03  0.41707835180E+03  0.25500000920E-02 0.  1.
</event>
<event>
 5   0  0.3057783E-03  0.4999872E+03  0.7818609E-02  0.1013782E+00
        1   -1    0    0  501    0  0.00000000000E+00  0.00000000000E+00  0.22692094969E+03  0.22692094975E+03  0.50400001928E-02 0.  1.
       -1   -1    0    0    0  501  0.00000000000E+00  0.00000000000E+00 -0.27541224424E+03  0.27541224429E+03  0.50400001928E-02 0. -1.
    10030    2    1    2    0    0  0.00000000000E+00  0.00000000000E+00 -0.48491294552E+02  0.50233319403E+03  0.49998723202E+03 0.  0.
        5    1    3    3  502    0  0.57340509384E+02  0.18838093916E+03  0.13042278791E+03  0.23623612310E+03  0.46999998093E+01 0.  1.
       -5    1    3    3    0  502 -0.57340509384E+02 -0.18838093916E+03 -0.17891408246E+03  0.26609707093E+03  0.46999998093E+01 0. -1.
</event>
<event>
 5   0  0.5118882E-03  0.4997814E+03  0.7818609E-02  0.1013836E+00
        2   -1    0    0  501    0  0.00000000000E+00  0.00000000000E+00  0.74844056681E+03  0.74844056682E+03  0.25500000920E-02 0. -1.
       -2   -1    0    0    0  501  0.00000000000E+00  0.00000000000E+00 -0.83433977257E+02  0.83433977296E+02  0.25500000920E-02 0.  1.
    10030    2    1    2    0    0  0.00000000000E+00  0.00000000000E+00  0.66500658956E+03  0.83187454411E+03  0.49978144522E+03 0.  0.
        3    1    3    3  502    0  0.13588307014E+02  0.15461149643E+03  0.65848587723E+03  0.67653013062E+03  0.10100000352E+00 0. -1.
       -3    1    3    3    0  502 -0.13588307014E+02 -0.15461149643E+03  0.65207123222E+01  0.15534441350E+03  0.10100000352E+00 0.  1.
</event>
<event>
 5   0  0.2005125E-03  0.4996863E+03  0.7818609E-02  0.1013861E+00
        4   -1    0    0  501    0  0.00000000000E+00  0.00000000000E+00  0.96411822730E+02  0.96420187005E+02  0.12699999809E+01 0.  1.
       -4   -1    0    0    0  501  0.00000000000E+00  0.00000000000E+00 -0.64741061140E+03  0.64741185706E+03  0.12699999809E+01 0. -1.
    10030    2    1    2    0    0  0.00000000000E+00  0.00000000000E+00 -0.55099878867E+03  0.74383204406E+03  0.49968634627E+03 0.  0.
        1    1    3    3  502    0  0.68176052763E+02  0.12025544618E+03 -0.58530041695E+03  0.60140329614E+03  0.50400001928E-02 0. -1.
       -1    1    3    3    0  502 -0.68176052763E+02 -0.12025544618E+03  0.34301628276E+02  0.14242874792E+03  0.50400001928E-02 0.  1.
</event>
<event>
 5   0  0.2863538E-03  0.4998780E+03  0.7818609E-02  0.1013811E+00
       -1   -1    0    0    0  501  0.00000000000E+00  0.00000000000E+00  0.18019359464E+03  0.18019359471E+03  0.50400001928E-02 0.  1.
        1   -1    0    0  501    0  0.00000000000E+00  0.00000000000E+00 -0.34667995316E+03  0.34667995320E+03  0.50400001928E-02 0. -1.
    10030    2    1    2    0    0  0.00000000000E+00  0.00000000000E+00 -0.16648635852E+03  0.52687354792E+03  0.49987801304E+03 0.  0.
        1    1    3    3  502    0 -0.14913504537E+03 -0.91210149366E+02  0.10503441616E+03  0.20394308448E+03  0.50400001928E-02 0.  1.
       -1    1    3    3    0  502  0.14913504537E+03  0.91210149366E+02 -0.27152077468E+03  0.32293046343E+03  0.50400001928E-02 0. -1.
</event>
<event>
 5   0  0.4989875E-03  0.5001160E+03  0.7818609E-02  0.1013749E+00
       -2   -1    0    0    0  501  0.00000000000E+00  0.00000000000E+00  0.63431169113E+02  0.63431169164E+02  0.25500000920E-02 0.  1.
        2   -1    0    0  501    0  0.00000000000E+00  0.00000000000E+00 -0.98577728163E+03  0.98577728164E+03  0.25500000920E-02 0. -1.
    10030    2    1    2    0    0  0.00000000000E+00  0.00000000000E+00 -0.92234611252E+03  0.10492084508E+04  0.50011600849E+03 0.  0.
        2    1    3    3  502    0 -0.17907891363E+03  0.16813995611E+03 -0.55932173856E+03  0.61088551250E+03  0.25500000920E-02 0.  1.
       -2    1    3    3    0  502  0.17907891363E+03 -0.16813995611E+03 -0.36302437396E+03  0.43832293830E+03  0.25500000920E-02 0. -1.
</event>
<event>
 5   0  0.4889251E-03  0.5000247E+03  0.7818609E-02  0.1013772E+00
        2   -1    0    0  501    0  0.00000000000E+00  0.00000000000E+00  0.37910449767E+03  0.37910449768E+03  0.25500000920E-02 0. -1.
       -2   -1    0    0    0  501  0.00000000000E+00  0.00000000000E+00 -0.16487850805E+03  0.16487850807E+03  0.25500000920E-02 0.  1.
    10030    2    1    2    0    0  0.00000000000E+00  0.00000000000E+00  0.21422598963E+03  0.54398300575E+03  0.50002473530E+03 0.  0.
        5    1    3    3  502    0 -0.14412212191E+03  0.10736601002E+03 -0.81900431848E+02  0.19755611068E+03  0.46999998093E+01 0.  1.
       -5    1    3    3    0  502  0.14412212191E+03 -0.10736601002E+03  0.29612642148E+03  0.34642689507E+03  0.46999998093E+01 0. -1.
</event>
<event>
 5   0  0.2005125E-03  0.5000475E+03  0.7818609E-02  0.1013767E+00
       -4   -1    0    0    0  501  0.00000000000E+00  0.00000000000E+00  0.38600232538E+03  0.38600441461E+03  0.12699999809E+01 0. -1.
        4   -1    0    0  501    0  0.00000000000E+00  0.00000000000E+00 -0.16194186178E+03  0.16194684158E+03  0.12699999809E+01 0.  1.
    10030    2    1    2    0    0  0.00000000000E+00  0.00000000000E+00  0.22406046360E+03  0.54795125619E+03  0.50004748555E+03 0.  0.
        4    1    3    3  502    0 -0.33298910620E+01  0.20176811732E+03 -0.49720894166E+02  0.20783464956E+03  0.12699999809E+01 0.  1.
       -4    1    3    3    0  502  0.33298910620E+01 -0.20176811732E+03  0.27378135777E+03  0.34011660663E+03  0.12699999809E+01 0. -1.
</event>
<event>
 5   0  0.3057783E-03  0.5001667E+03  0.7818609E-02  0.1013735E+00
       -1   -1    0    0    0  501  0.00000000000E+00  0.00000000000E+00  0.75843877896E+02  0.75843878064E+02  0.50400001928E-02 0. -1.
        1   -1    0    0  501    0  0.00000000000E+00  0.00000000000E+00 -0.82461086922E+03  0.82461086924E+03  0.50400001928E-02 0.  1.
    10030    2    1    2    0    0  0.00000000000E+00  0.00000000000E+00 -0.74876699133E+03  0.90045474730E+03  0.50016671684E+03 0.  0.
        5    1    3    3  502    0  0.16024125100E+03 -0.21939296330E+02 -0.31090421179E+02  0.16476436366E+03  0.46999998093E+01 0. -1.
       -5    1    3    3    0  502 -0.16024125100E+03  0.21939296330E+02 -0.71767657015E+03  0.73569038364E+03  0.46999998093E+01 0.  1.
</event>
<event>
 5   0  0.5095783E-03  0.4999582E+03  0.7818609E-02  0.1013790E+00
        2   -1    0    0  501    0  0.00000000000E+00  0.00000000000E+00  0.18230540223E+03  0.18230540224E+03  0.25500000920E-02 0.  1.
       -2   -1    0    0    0  501  0.00000000000E+00  0.00000000000E+00 -0.34277399241E+03  0.34277399242E+03  0.25500000920E-02 0. -1.
    10030    2    1    2    0    0  0.00000000000E+00  0.00000000000E+00 -0.16046859019E+03  0.52507939467E+03  0.49995820052E+03 0.  0.
        4    1    3    3  502    0 -0.33446820249E+02  0.73952195807E+02 -0.32854670741E+03  0.33842601688E+03  0.12699999809E+01 0. -1.
       -4    1    3    3    0  502  0.33446820249E+02 -0.73952195807E+02  0.16807811723E+03  0.18665337779E+03  0.12699999809E+01 0.  1.
</event>
<event>
 5   0  0.3055293E-03  0.4995459E+03  0.7818609E-02  0.1013898E+00
       -1   -1    0    0    0  501  0.00000000000E+00  0.00000000000E+00  0.79666811935E+02  0.79666812094E+02  0.50400001928E-02 0. -1.
        1   -1    0    0  501    0  0.00000000000E+00  0.00000000000E+00 -0.78309304160E+03  0.78309304162E+03  0.50400001928E-02 0.  1.
    10030    2    1    2    0    0  0.00000000000E+00  0.00000000000E+00 -0.70342622967E+03  0.86275985371E+03  0.49954589838E+03 0.  0.
        3    1    3    3  502    0  0.48043789342E+02 -0.15932382368E+03 -0.67340725786E+03  0.69366391835E+03  0.10100000352E+00 0.  1.
       -3    1    3    3    0  502 -0.48043789342E+02  0.15932382368E+03 -0.30018971807E+02  0.16909593536E+03  0.10100000352E+00 0. -1.
</event>
<event>
 5   0  0.3013734E-03  0.4997449E+03  0.7818609E-02  0.1013846E+00
       -1   -1    0    0    0  501  0.00000000000E+00  0.00000000000E+00  0.83879609637E+03  0.83879609639E+03  0.50400001928E-02 0.  1.
        1   -1    0    0  501    0  0.00000000000E+00  0.00000000000E+00 -0.74435548723E+02  0.74435548894E+02  0.50400001928E-02 0. -1.
    10030    2    1    2    0    0  0.00000000000E+00  0.00000000000E+00  0.76436054765E+03  0.91323164528E+03  0.49974492608E+03 0.  0.
        2    1    3    3  502    0 -0.16371915900E+03  0.18864068229E+03  0.36965524837E+03  0.44613257300E+03  0.25500000920E-02 0.  1.
       -2    1    3    3    0  502  0.16371915900E+03 -0.18864068229E+03  0.39470529928E+03  0.46709907228E+03  0.25500000920E-02 0. -1.
</event>
<event>
 5   0  0.4989875E-03  0.4997613E+03  0.7818609E-02  0.1013841E+00
        2   -1    0    0  501    0  0.00000000000E+00  0.00000000000E+00  0.74187022082E+03  0.74187022082E+03  0.25500000920E-02 0. -1.
       -2   -1    0    0    0  501  0.00000000000E+00  0.00000000000E+00 -0.84166123785E+02  0.84166123823E+02  0.25500000920E-02 0.  1.
    10030    2    1    2    0    0  0.00000000000E+00  0.00000000000E+00  0.65770409703E+03  0.82603634464E+03  0.49976130645E+03 0.  0.
        2    1    3    3  502    0  0.47389230565E+02  0.55709649262E+01  0.73427031555E+03  0.73581904781E+03  0.25500000920E-02 0. -1.
       -2    1    3    3    0  502 -0.47389230565E+02 -0.55709649262E+01 -0.76566218514E+02  0.90217296833E+02  0.25500000920E-02 0.  1.
</event>
<event>
 5   0  0.4889251E-03  0.4988079E+03  0.7818609E-02  0.1014091E+00
       -2   -1    0    0    0  501  0.00000000000E+00  0.00000000000E+00  0.52823707728E+03  0.52823707728E+03  0.25500000920E-02 0.  1.
        2   -1    0    0  501    0  0.00000000000E+00  0.00000000000E+00 -0.11775458084E+03  0.11775458087E+03  0.25500000920E-02 0. -1.
    10030    2    1    2    0    0  0.00000000000E+00  0.00000000000E+00  0.41048249643E+03  0.64599165815E+03  0.49880792147E+03 0.  0.
        5    1    3    3  502    0  0.83175264256E+01  0.75259823768E+01 -0.11737032453E+03  0.11799874887E+03  0.46999998093E+01 0. -1.
       -5    1    3    3    0  502 -0.83175264256E+01 -0.75259823768E+01  0.52785282096E+03  0.52799290928E+03  0.46999998093E+01 0.  1.
</event>
<event>
 5   0  0.3211775E-03  0.5000878E+03  0.7818609E-02  0.1013756E+00
        1   -1    0    0  501    0  0.00000000000E+00  0.00000000000E+00  0.12170303770E+04  0.12170303770E+04  0.50400001928E-02 0.  1.
       -1   -1    0    0    0  501  0.00000000000E+00  0.00000000000E+00 -0.51372552992E+02  0.51372553239E+02  0.50400001928E-02 0. -1.
    10030    2    1    2    0    0  0.00000000000E+00  0.00000000000E+00  0.11656578240E+04  0.12684029302E+04  0.50008782307E+03 0.  0.
        4    1    3    3  502    0 -0.20471475864E+02  0.75214198495E+02 -0.19758682108E+02  0.80425589198E+02  0.12699999809E+01 0. -1.
       -4    1    3    3    0  502  0.20471475864E+02 -0.75214198495E+02  0.11854165061E+04  0.11879773410E+04  0.12699999809E+01 0.  1.
</event>
<event>
 5   0  0.4889251E-03  0.4998229E+03  0.7818609E-02  0.1013825E+00
        2   -1    0    0  501    0  0.00000000000E+00  0.00000000000E+00  0.14167196824E+04  0.14167196824E+04  0.25500000920E-02 0.  1.
       -2   -1    0    0    0  501  0.00000000000E+00  0.00000000000E+00 -0.44084742810E+02  0.44084742883E+02  0.25500000920E-02 0. -1.
    10030    2    1    2    0    0  0.00000000000E+00  0.00000000000E+00  0.13726349396E+04  0.14608044253E+04  0.49982286017E+03 0.  0.
        5    1    3    3  502    0 -0.12832921376E+03 -0.17206427845E+03  0.31250304113E+03  0.37915002801E+03  0.46999998093E+01 0. -1.
       -5    1    3    3    0  502  0.12832921376E+03  0.17206427845E+03  0.10601318985E+04  0.10816543973E+04  0.46999998093E+01 0.  1.
</event>
<event>
 5   0  0.2005125E-03  0.5000106E+03  0.7818609E-02  0.1013776E+00
       -3   -1    0    0    0  501  0.00000000000E+00  0.00000000000E+00  0.15632629745E+03  0.15632633008E+03  0.10100000352E+00 0. -1.
        3   -1    0    0  501    0  0.00000000000E+00  0.00000000000E+00 -0.39982166025E+03  0.39982167301E+03  0.10100000352E+00 0.  1.
    10030    2    1    2    0    0  0.00000000000E+00  0.00000000000E+00 -0.24349536280E+03  0.55614800309E+03  0.50001060952E+03 0.  0.
        1    1    3    3  502    0 -0.76427531251E+02  0.65623452216E+02  0.13275387410E+03  0.16664692054E+03  0.50400001928E-02 0. -1.
       -1    1    3    3    0  502  0.76427531251E+02 -0.65623452216E+02 -0.37624923690E+03  0.38950108255E+03  0.50400001928E-02 0.  1.
</event>
<event>
 5   0  0.2863538E-03  0.4999374E+03  0.7818609E-02  0.1013795E+00
       -1   -1    0    0    0  501  0.00000000000E+00  0.00000000000E+00  0.26312401468E+03  0.26312401472E+03  0.50400001928E-02 0.  1.
        1   -1    0    0  501    0  0.00000000000E+00  0.00000000000E+00 -0.23747109193E+03  0.23747109199E+03  0.50400001928E-02 0. -1.
    10030    2    1    2    0    0  0.00000000000E+00  0.00000000000E+00  0.25652922740E+02  0.50059510671E+03  0.49993738450E+03 0.  0.
        1    1    3    3  502    0 -0.48667847527E+02 -0.63158920127E+02 -0.22439604464E+03  0.23814112087E+03  0.50400001928E-02 0. -1.
       -1    1    3    3    0  502  0.48667847527E+02  0.63158920127E+02  0.25004896738E+03  0.26245398584E+03  0.50400001928E-02 0.  1.
</event>
<event>
 5   0  0.4989875E-03  0.5000592E+03  0.7818609E-02  0.1013763E+00
        2   -1    0    0  501    0  0.00000000000E+00  0.00000000000E+00  0.10148569360E+04  0.10148569360E+04  0.25500000920E-02 0.  1.
       -2   -1    0    0    0  501  0.00000000000E+00  0.00000000000E+00 -0.61599613160E+02  0.61599613213E+02  0.25500000920E-02 0. -1.
    10030    2    1    2    0    0  0.00000000000E+00  0.00000000000E+00  0.95325732286E+03  0.10764565492E+04  0.50005917531E+03 0.  0.
        2    1    3    3  502    0  0.88553892057E+02  0.23246427503E+03  0.53080400818E+03  0.58620331462E+03  0.25500000920E-02 0.  1.
       -2    1    3    3    0  502 -0.88553892057E+02 -0.23246427503E+03  0.42245331468E+03  0.49025323462E+03  0.25500000920E-02 0. -1.
</event>
<event>
 5   0  0.5118882E-03  0.4999695E+03  0.7818609E-02  0.1013787E+00
        2   -1    0    0  501    0  0.00000000000E+00  0.00000000000E+00  0.48387295432E+03  0.48387295432E+03  0.25500000920E-02 0.  1.
       -2   -1    0    0    0  501  0.00000000000E+00  0.00000000000E+00 -0.12915036679E+03  0.12915036681E+03  0.25500000920E-02 0. -1.
    10030    2    1    2    0    0  0.00000000000E+00  0.00000000000E+00  0.35472258753E+03  0.61302332114E+03  0.49996947723E+03 0.  0.
        3    1    3    3  502    0 -0.16568591523E+03  0.13096523933E+03  0.13369467482E+02  0.21161868840E+03  0.10100000352E+00 0.  1.
       -3    1    3    3    0  502  0.16568591523E+03 -0.13096523933E+03  0.34135312004E+03  0.40140463274E+03  0.10100000352E+00 0. -1.
</event>
<event>
 5   0  0.4978779E-03  0.4998711E+03  0.7818609E-02  0.1013813E+00
        2   -1    0    0  501    0  0.00000000000E+00  0.00000000000E+00  0.13659809096E+04  0.13659809096E+04  0.25500000920E-02 0. -1.
       -2   -1    0    0    0  501  0.00000000000E+00  0.00000000000E+00 -0.45731070505E+02  0.45731070576E+02  0.25500000920E-02 0.  1.
    10030    2    1    2    0    0  0.00000000000E+00  0.00000000000E+00  0.13202498391E+04  0.14117119801E+04  0.49987106071E+03 0.  0.
        1    1    3    3  502    0  0.17593125098E+03 -0.13782479523E+03  0.97613089922E+03  0.10013885418E+04  0.50400001928E-02 0. -1.
       -1    1    3    3    0  502 -0.17593125098E+03  0.13782479523E+03  0.34411893983E+03  0.41032343831E+03  0.50400001928E-02 0.  1.
</event>
<event>
 5   0  0.3211775E-03  0.5005178E+03  0.7818609E-02  0.1013644E+00
       -1   -1    0    0    0  501  0.00000000000E+00  0.00000000000E+00  0.35049115972E+03  0.35049115975E+03  0.50400001928E-02 0. -1.
        1   -1    0    0  501    0  0.00000000000E+00  0.00000000000E+00 -0.17869072626E+03  0.17869072633E+03  0.50400001928E-02 0.  1.
    10030    2    1    2    0    0  0.00000000000E+00  0.00000000000E+00  0.17180043346E+03  0.52918188608E+03  0.50051781149E+03 0.  0.
        4    1    3    3  502    0 -0.37492176417E+02  0.86483010939E+02 -0.15920136454E+03  0.18501800411E+03  0.12699999809E+01 0.  1.
       -4    1    3    3    0  502  0.37492176417E+02 -0.86483010939E+02  0.33100179800E+03  0.34416388197E+03  0.12699999809E+01 0. -1.
</event>
<event>
 5   0  0.5118882E-03  0.5005712E+03  0.7818609E-02  0.1013630E+00
       -2   -1    0    0    0  501  0.00000000000E+00  0.00000000000E+00  0.44910069614E+02  0.44910069687E+02  0.25500000920E-02 0.  1.
        2   -1    0    0  501    0  0.00000000000E+00  0.00000000000E+00 -0.13948514072E+04  0.13948514072E+04  0.25500000920E-02 0. -1.
    10030    2    1    2    0    0  0.00000000000E+00  0.00000000000E+00 -0.13499413376E+04  0.14397614769E+04  0.50057116918E+03 0.  0.
        3    1    3    3  502    0 -0.23427168313E+03  0.80688355461E+02 -0.57331972865E+03  0.62457133595E+03  0.10100000352E+00 0.  1.
       -3    1    3    3    0  502  0.23427168313E+03 -0.80688355461E+02 -0.77662160893E+03  0.81519014094E+03  0.10100000352E+00 0. -1.
</event>
<event>
 5   0  0.3211775E-03  0.5000088E+03  0.7818609E-02  0.1013777E+00
       -1   -1    0    0    0  501  0.00000000000E+00  0.00000000000E+00  0.72195689674E+03  0.72195689676E+03  0.50400001928E-02 0. -1.
        1   -1    0    0  501    0  0.00000000000E+00  0.00000000000E+00 -0.86573297953E+02  0.86573298100E+02  0.50400001928E-02 0.  1.
    10030    2    1    2    0    0  0.00000000000E+00  0.00000000000E+00  0.63538359879E+03  0.80853019486E+03  0.50000875831E+03 0.  0.
        4    1    3    3  502    0  0.13205922682E+03 -0.72974245935E+02 -0.46443755891E+01  0.15095715645E+03  0.12699999809E+01 0.  1.
       -4    1    3    3    0  502 -0.13205922682E+03  0.72974245935E+02  0.64002797438E+03  0.65757303841E+03  0.12699999809E+01 0. -1.
</event>
<event>
 5   0  0.4889251E-03  0.4999738E+03  0.7818609E-02  0.1013786E+00
        2   -1    0    0  501    0  0.00000000000E+00  0.00000000000E+00  0.11094869488E+04  0.11094869488E+04  0.25500000920E-02 0.  1.
       -2   -1    0    0    0  501  0.00000000000E+00  0.00000000000E+00 -0.56326429703E+02  0.56326429760E+02  0.25500000920E-02 0. -1.
    10030    2    1    2    0    0  0.00000000000E+00  0.00000000000E+00  0.10531605191E+04  0.11658133785E+04  0.49997375395E+03 0.  0.
        5    1    3    3  502    0 -0.17484353344E+03  0.17815650634E+03  0.49696183839E+03  0.55615030410E+03  0.46999998093E+01 0. -1.
       -5    1    3    3    0  502  0.17484353344E+03 -0.17815650634E+03  0.55619868066E+03  0.60966307441E+03  0.46999998093E+01 0.  1.
</event>
<event>
 5   0  0.3211775E-03  0.4999255E+03  0.7818609E-02  0.1013798E+00
        1   -1    0    0  501    0  0.00000000000E+00  0.00000000000E+00  0.28387984127E+03  0.28387984132E+03  0.50400001928E-02 0. -1.
       -1   -1    0    0    0  501  0.00000000000E+00  0.00000000000E+00 -0.22009796965E+03  0.22009796971E+03  0.50400001928E-02 0.  1.
    10030    2    1    2    0    0  0.00000000000E+00  0.00000000000E+00  0.63781871624E+02  0.50397781103E+03  0.49992550131E+03 0.  0.
        4    1    3    3  502    0  0.12051320642E+03 -0.21106834988E+03  0.90729113124E+02  0.25943528309E+03  0.12699999809E+01 0. -1.
       -4    1    3    3    0  502 -0.12051320642E+03  0.21106834988E+03 -0.26947241500E+02  0.24454252794E+03  0.12699999809E+01 0.  1.
</event>
<event>
 5   0  0.3055293E-03  0.5000284E+03  0.7818609E-02  0.1013772E+00
        1   -1    0    0  501    0  0.00000000000E+00  0.00000000000E+00  0.19280820517E+04  0.19280820517E+04  0.50400001928E-02 0.  1.
       -1   -1    0    0    0  501  0.00000000000E+00  0.00000000000E+00 -0.32419315877E+02  0.32419316268E+02  0.50400001928E-02 0. -1.
    10030    2    1    2    0    0  0.00000000000E+00  0.00000000000E+00  0.18956627358E+04  0.19605013680E+04  0.50002840503E+03 0.  0.
        3    1    3    3  502    0 -0.15720797681E+03  0.19421085288E+03  0.91390179994E+03  0.94744325080E+03  0.10100000352E+00 0. -1.
       -3    1    3    3    0  502  0.15720797681E+03 -0.19421085288E+03  0.98176093587E+03  0.10130581172E+04  0.10100000352E+00 0.  1.
</event>
<event>
 5   0  0.4978779E-03  0.4999772E+03  0.7818609E-02  0.1013785E+00
        2   -1    0    0  501    0  0.00000000000E+00  0.00000000000E+00  0.26735148758E+03  0.26735148760E+03  0.25500000920E-02 0. -1.
       -2   -1    0    0    0  501  0.00000000000E+00  0.00000000000E+00 -0.23375335459E+03  0.23375335461E+03  0.25500000920E-02 0.  1.
    10030    2    1    2    0    0  0.00000000000E+00  0.00000000000E+00  0.33598132989E+02  0.50110484220E+03  0.49997722782E+03 0.  0.
        1    1    3    3  502    0  0.10085412500E+03 -0.61785143703E+02  0.23753507749E+03  0.26535235363E+03  0.50400001928E-02 0. -1.
       -1    1    3    3    0  502 -0.10085412500E+03  0.61785143703E+02 -0.20393694450E+03  0.23575248858E+03  0.50400001928E-02 0.  1.
</event>
<event>
 5   0  0.5095783E-03  0.5000538E+03  0.7818609E-02  0.1013765E+00
        2   -1    0    0  501    0  0.00000000000E+00  0.00000000000E+00  0.18462872066E+03  0.18462872068E+03  0.25500000920E-02 0. -1.
       -2   -1    0    0    0  501  0.00000000000E+00  0.00000000000E+00 -0.33859012445E+03  0.33859012446E+03  0.25500000920E-02 0.  1.
    10030    2    1    2    0    0  0.00000000000E+00  0.00000000000E+00 -0.15396140379E+03  0.52321884514E+03  0.50005384315E+03 0.  0.
        4    1    3    3  502    0  0.24594993965E+03 -0.38967662256E+02 -0.53537484705E+02  0.25471106510E+03  0.12699999809E+01 0.  1.
       -4    1    3    3    0  502 -0.24594993965E+03  0.38967662256E+02 -0.10042391909E+03  0.26850778004E+03  0.12699999809E+01 0. -1.
</event>
<event>
 5   0  0.5118882E-03  0.4999181E+03  0.7818609E-02  0.1013800E+00
        2   -1    0    0  501    0  0.00000000000E+00  0.00000000000E+00  0.81611159116E+03  0.81611159116E+03  0.25500000920E-02 0. -1.
       -2   -1    0    0    0  501  0.00000000000E+00  0.00000000000E+00 -0.76557585757E+02  0.76557585799E+02  0.25500000920E-02 0.  1.
    10030    2    1    2    0    0  0.00000000000E+00  0.00000000000E+00  0.73955400540E+03  0.89266917696E+03  0.49991812589E+03 0.  0.
        3    1    3    3  502    0  0.21517886269E+02 -0.24137632144E+03  0.26037195953E+03  0.35569525649E+03  0.10100000352E+00 0.  1.
       -3    1    3    3    0  502 -0.21517886269E+02  0.24137632144E+03  0.47918204587E+03  0.53697392047E+03  0.10100000352E+00 0. -1.
</event>
<event>
 5   0  0.3013734E-03  0.4995631E+03  0.7818609E-02  0.1013893E+00
       -1   -1    0    0    0  501  0.00000000000E+00  0.00000000000E+00  0.14431137092E+03  0.14431137101E+03  0.50400001928E-02 0.  1.
        1   -1    0    0  501    0  0.00000000000E+00  0.00000000000E+00 -0.43233480447E+03  0.43233480450E+03  0.50400001928E-02 0. -1.
    10030    2    1    2    0    0  0.00000000000E+00  0.00000000000E+00 -0.28802343354E+03  0.57664617551E+03  0.49956312259E+03 0.  0.
        2    1    3    3  502    0  0.16263525023E+03 -0.13172122940E+03 -0.30139556429E+03  0.36693322699E+03  0.25500000920E-02 0. -1.
       -2    1    3    3    0  502 -0.16263525023E+03  0.13172122940E+03  0.13372130742E+02  0.20971294852E+03  0.25500000920E-02 0.  1.
</event>
<event>
 5   0  0.3013734E-03  0.4998850E+03  0.7818609E-02  0.1013809E+00
        1   -1    0    0  501    0  0.00000000000E+00  0.00000000000E+00  0.14837165847E+03  0.14837165856E+03  0.50400001928E-02 0.  1.
       -1   -1    0    0    0  501  0.00000000000E+00  0.00000000000E+00 -0.42104578925E+03  0.42104578928E+03  0.50400001928E-02 0. -1.
    10030    2    1    2    0    0  0.00000000000E+00  0.00000000000E+00 -0.27267413078E+03  0.56941744784E+03  0.49988503509E+03 0.  0.
        2    1    3    3  502    0 -0.18469106552E+03  0.21963376478E+02  0.53854864035E+02  0.19363245073E+03  0.25500000920E-02 0.  1.
       -2    1    3    3    0  502  0.18469106552E+03 -0.21963376478E+02 -0.32652899481E+03  0.37578499711E+03  0.25500000920E-02 0. -1.
</event>
<event>
 5   0  0.4889251E-03  0.4999496E+03  0.7818609E-02  0.1013792E+00
        2   -1    0    0  501    0  0.00000000000E+00  0.00000000000E+00  0.24732743472E+03  0.24732743473E+03  0.25500000920E-02 0. -1.
       -2   -1    0    0    0  501  0.00000000000E+00  0.00000000000E+00 -0.25265053109E+03  0.25265053111E+03  0.25500000920E-02 0.  1.
    10030    2    1    2    0    0  0.00000000000E+00  0.00000000000E+00 -0.53230963751E+01  0.49997796584E+03  0.49994962843E+03 0.  0.
        5    1    3    3  502    0  0.17239554081E+03 -0.13326703787E+03  0.11975859164E+03  0.24868561708E+03  0.46999998093E+01 0. -1.
       -5    1    3    3    0  502 -0.17239554081E+03  0.13326703787E+03 -0.12508168801E+03  0.25129234876E+03  0.46999998093E+01 0.  1.
</event>
<event>
 5   0  0.2863538E-03  0.4999435E+03  0.7818609E-02  0.1013794E+00
        1   -1    0    0  501    0  0.00000000000E+00  0.00000000000E+00  0.35094622610E+03  0.35094622614E+03  0.50400001928E-02 0.  1.
       -1   -1    0    0    0  501  0.00000000000E+00  0.00000000000E+00 -0.17804972899E+03  0.17804972906E+03  0.50400001928E-02 0. -1.
    10030    2    1    2    0    0  0.00000000000E+00  0.00000000000E+00  0.17289649711E+03  0.52899595520E+03  0.49994351872E+03 0.  0.
        1    1    3    3  502    0  0.10758416708E+02 -0.54231017048E+02 -0.17149912407E+03  0.18019072208E+03  0.50400001928E-02 0. -1.
       -1    1    3    3    0  502 -0.10758416708E+02  0.54231017048E+02  0.34439562118E+03  0.34880523312E+03  0.50400001928E-02 0.  1.
</event>
<event>
 5   0  0.5118882E-03  0.4999838E+03  0.7818609E-02  0.1013783E+00
        2   -1    0    0  501    0  0.00000000000E+00  0.00000000000E+00  0.11722780941E+03  0.11722780944E+03  0.25500000920E-02 0.  1.
       -2   -1    0    0    0  501  0.00000000000E+00  0.00000000000E+00 -0.53311549823E+03  0.53311549824E+03  0.25500000920E-02 0. -1.
    10030    2    1    2    0    0  0.00000000000E+00  0.00000000000E+00 -0.41588768882E+03  0.65034330767E+03  0.49998384786E+03 0.  0.
        3    1    3    3  502    0  0.20961940727E+03  0.12363932314E+03 -0.13357476351E+03  0.27761341066E+03  0.10100000352E+00 0. -1.
       -3    1    3    3    0  502 -0.20961940727E+03 -0.12363932314E+03 -0.28231292531E+03  0.37272989701E+03  0.10100000352E+00 0.  1.
</event>
<event>
 5   0  0.2005125E-03  0.5001725E+03  0.7818609E-02  0.1013734E+00
        4   -1    0    0  501    0  0.00000000000E+00  0.00000000000E+00  0.13925275328E+03  0.13925854443E+03  0.12699999809E+01 0.  1.
       -4   -1    0    0    0  501  0.00000000000E+00  0.00000000000E+00 -0.44911795869E+03  0.44911975432E+03  0.12699999809E+01 0. -1.
    10030    2    1    2    0    0  0.00000000000E+00  0.00000000000E+00 -0.30986520541E+03  0.58837829875E+03  0.50017254714E+03 0.  0.
        3    1    3    3  502    0  0.71505674481E+02  0.20113505980E+03 -0.30819606063E+03  0.37490424878E+03  0.10100000352E+00 0. -1.
       -3    1    3    3    0  502 -0.71505674481E+02 -0.20113505980E+03 -0.16691447775E+01  0.21347404997E+03  0.10100000352E+00 0.  1.
</event>
<event>
 5   0  0.3211775E-03  0.5000842E+03  0.7818609E-02  0.1013757E+00
        1   -1    0    0  501    0  0.00000000000E+00  0.00000000000E+00  0.38673298502E+03  0.38673298506E+03  0.50400001928E-02 0.  1.
       -1   -1    0    0    0  501  0.00000000000E+00  0.00000000000E+00 -0.16166465545E+03  0.16166465553E+03  0.50400001928E-02 0. -1.
    10030    2    1    2    0    0  0.00000000000E+00  0.00000000000E+00  0.22506832957E+03  0.54839764059E+03  0.50008421213E+03 0.  0.
        4    1    3    3  502    0  0.14895304971E+03  0.60590791135E+02  0.32250341353E+03  0.36037247346E+03  0.12699999809E+01 0.  1.
       -4    1    3    3    0  502 -0.14895304971E+03 -0.60590791135E+02 -0.97435083960E+02  0.18802516713E+03  0.12699999809E+01 0. -1.
</event>
<event>
 5   0  0.3057783E-03  0.4998842E+03  0.7818609E-02  0.1013809E+00
        1   -1    0    0  501    0  0.00000000000E+00  0.00000000000E+00  0.81073164262E+03  0.81073164263E+03  0.50400001928E-02 0. -1.
       -1   -1    0    0    0  501  0.00000000000E+00  0.00000000000E+00 -0.77055150934E+02  0.77055151099E+02  0.50400001928E-02 0.  1.
    10030    2    1    2    0    0  0.00000000000E+00  0.00000000000E+00  0.73367649168E+03  0.88778679373E+03  0.49988418326E+03 0.  0.
        5    1    3    3  502    0 -0.19118470077E+03  0.70421803895E+01  0.81308811850E+02  0.20792882195E+03  0.46999998093E+01 0.  1.
       -5    1    3    3    0  502  0.19118470077E+03 -0.70421803895E+01  0.65236767983E+03  0.67985797179E+03  0.46999998093E+01 0. -1.
</event>
<event>
 5   0  0.5095783E-03  0.4999595E+03  0.7818609E-02  0.1013789E+00
        2   -1    0    0  501    0  0.00000000000E+00  0.00000000000E+00  0.55170982596E+03  0.55170982596E+03  0.25500000920E-02 0. -1.
       -2   -1    0    0    0  501  0.00000000000E+00  0.00000000000E+00 -0.11326581593E+03  0.11326581596E+03  0.25500000920E-02 0.  1.
    10030    2    1    2    0    0  0.00000000000E+00  0.00000000000E+00  0.43844401003E+03  0.66497564192E+03  0.49995945277E+03 0.  0.
        4    1    3    3  502    0  0.16446073013E+03 -0.16070863387E+03  0.88810713481E+02  0.24650264194E+03  0.12699999809E+01 0. -1.
       -4    1    3    3    0  502 -0.16446073013E+03  0.16070863387E+03  0.34963329655E+03  0.41847299998E+03  0.12699999809E+01 0.  1.
</event>
<event>
 5   0  0.3057783E-03  0.5000888E+03  0.7818609E-02  0.1013756E+00
        1   -1    0    0  501    0  0.00000000000E+00  0.00000000000E+00  0.21967205836E+03  0.21967205841E+03  0.50400001928E-02 0.  1.
       -1   -1    0    0    0  501  0.00000000000E+00  0.00000000000E+00 -0.28461608806E+03  0.28461608811E+03  0.50400001928E-02 0. -1.
    10030    2    1    2    0    0  0.00000000000E+00  0.00000000000E+00 -0.64944029706E+02  0.50428814652E+03  0.50008879984E+03 0.  0.
        5    1    3    3  502    0  0.51017409773E+01  0.16695635845E+03 -0.22004381155E+03  0.27630023957E+03  0.46999998093E+01 0. -1.
       -5    1    3    3    0  502 -0.51017409773E+01 -0.16695635845E+03  0.15509978184E+03  0.22798790695E+03  0.46999998093E+01 0.  1.
</event>
<event>
 5   0  0.4989875E-03  0.4997678E+03  0.7818609E-02  0.1013840E+00
        2   -1    0    0  501    0  0.00000000000E+00  0.00000000000E+00  0.69426497597E+03  0.69426497597E+03  0.25500000920E-02 0. -1.
       -2   -1    0    0    0  501  0.00000000000E+00  0.00000000000E+00 -0.89939683854E+02  0.89939683890E+02  0.25500000920E-02 0.  1.
    10030    2    1    2    0    0  0.00000000000E+00  0.00000000000E+00  0.60432529211E+03  0.78420465986E+03  0.49976783596E+03 0.  0.
        2    1    3    3  502    0 -0.38996817458E+02  0.19741035556E+03  0.53464075307E+03  0.57125505258E+03  0.25500000920E-02 0. -1.
       -2    1    3    3    0  502  0.38996817458E+02 -0.19741035556E+03  0.69684539047E+02  0.21294960728E+03  0.25500000920E-02 0.  1.
</event>
<event>
 5   0  0.3013734E-03  0.4999299E+03  0.7818609E-02  0.1013797E+00
        1   -1    0    0  501    0  0.00000000000E+00  0.00000000000E+00  0.21146671107E+03  0.21146671113E+03  0.50400001928E-02 0.  1.
       -1   -1    0    0    0  501  0.00000000000E+00  0.00000000000E+00 -0.29547190091E+03  0.29547190095E+03  0.50400001928E-02 0. -1.
    10030    2    1    2    0    0  0.00000000000E+00  0.00000000000E+00 -0.84005189837E+02  0.50693861209E+03  0.49992987959E+03 0.  0.
        2    1    3    3  502    0 -0.18439202157E+02 -0.69739601051E+02  0.20068268843E+03  0.21325373988E+03  0.25500000920E-02 0.  1.
       -2    1    3    3    0  502  0.18439202157E+02  0.69739601051E+02 -0.28468787826E+03  0.29368487221E+03  0.25500000920E-02 0. -1.
</event>
<event>
 5   0  0.3211775E-03  0.5000664E+03  0.7818609E-02  0.1013762E+00
        1   -1    0    0  501    0  0.00000000000E+00  0.00000000000E+00  0.53682077405E+03  0.53682077408E+03  0.50400001928E-02 0.  1.
       -1   -1    0    0    0  501  0.00000000000E+00  0.00000000000E+00 -0.11645710210E+03  0.11645710221E+03  0.50400001928E-02 0. -1.
    10030    2    1    2    0    0  0.00000000000E+00  0.00000000000E+00  0.42036367195E+03  0.65327787629E+03  0.50006636254E+03 0.  0.
        4    1    3    3  502    0  0.19769318391E+03  0.60096882194E+02  0.26261252834E+02  0.20829185418E+03  0.12699999809E+01 0. -1.
       -4    1    3    3    0  502 -0.19769318391E+03 -0.60096882194E+02  0.39410241912E+03  0.44498602211E+03  0.12699999809E+01 0.  1.
</event>
<event>
 5   0  0.4989875E-03  0.5000372E+03  0.7818609E-02  0.1013769E+00
        2   -1    0    0  501    0  0.00000000000E+00  0.00000000000E+00  0.60582952838E+03  0.60582952839E+03  0.25500000920E-02 0.  1.
       -2   -1    0    0    0  501  0.00000000000E+00  0.00000000000E+00 -0.10317966556E+03  0.10317966559E+03  0.25500000920E-02 0. -1.
    10030    2    1    2    0    0  0.00000000000E+00  0.00000000000E+00  0.50264986282E+03  0.70900919398E+03  0.50003715118E+03 0.  0.
        2    1    3    3  502    0  0.61249785826E+02 -0.24149187673E+03  0.22160196551E+03  0.33343259276E+03  0.25500000920E-02 0. -1.
       -2    1    3    3    0  502 -0.61249785826E+02  0.24149187673E+03  0.28104789731E+03  0.37557660122E+03  0.25500000920E-02 0.  1.
</event>
<event>
 5   0  0.4978779E-03  0.5000062E+03  0.7818609E-02  0.1013777E+00
       -2   -1    0    0    0  501  0.00000000000E+00  0.00000000000E+00  0.54325609547E+02  0.54325609607E+02  0.25500000920E-02 0. -1.
        2   -1    0    0  501    0  0.00000000000E+00  0.00000000000E+00 -0.11504988558E+04  0.11504988558E+04  0.25500000920E-02 0.  1.
    10030    2    1    2    0    0  0.00000000000E+00  0.00000000000E+00 -0.10961732462E+04  0.12048244654E+04  0.50000620661E+03 0.  0.
        1    1    3    3  502    0 -0.24981921958E+03 -0.66478410661E+01 -0.53144186304E+03  0.58726849914E+03  0.50400001928E-02 0.  1.
       -1    1    3    3    0  502  0.24981921958E+03  0.66478410661E+01 -0.56473138320E+03  0.61755596625E+03  0.50400001928E-02 0. -1.
</event>
<event>
 5   0  0.2005125E-03  0.5008901E+03  0.7818609E-02  0.1013547E+00
        3   -1    0    0  501    0  0.00000000000E+00  0.00000000000E+00  0.64551205600E+02  0.64551284615E+02  0.10100000352E+00 0.  1.
       -3   -1    0    0    0  501  0.00000000000E+00  0.00000000000E+00 -0.97167309169E+03  0.97167309694E+03  0.10100000352E+00 0. -1.
    10030    2    1    2    0    0  0.00000000000E+00  0.00000000000E+00 -0.90712188609E+03  0.10362243816E+04  0.50089006050E+03 0.  0.
        3    1    3    3  502    0 -0.20447767084E+02  0.11823999870E+03  0.12096318455E+01  0.12000117450E+03  0.10100000352E+00 0.  1.
       -3    1    3    3    0  502  0.20447767084E+02 -0.11823999870E+03 -0.90833151794E+03  0.91622320706E+03  0.10100000352E+00 0. -1.
</event>
<event>
 5   0  0.3013734E-03  0.4998568E+03  0.7818609E-02  0.1013816E+00
        1   -1    0    0  501    0  0.00000000000E+00  0.00000000000E+00  0.12175211171E+04  0.12175211171E+04  0.50400001928E-02 0. -1.
       -1   -1    0    0    0  501  0.00000000000E+00  0.00000000000E+00 -0.51304415804E+02  0.51304416052E+02  0.50400001928E-02 0.  1.
    10030    2    1    2    0    0  0.00000000000E+00  0.00000000000E+00  0.11662167013E+04  0.12688255332E+04  0.49985681872E+03 0.  0.
        2    1    3    3  502    0 -0.79516138391E+02  0.20393349693E+03  0.88932262128E+03  0.91586375196E+03  0.25500000920E-02 0. -1.
       -2    1    3    3    0  502  0.79516138391E+02 -0.20393349693E+03  0.27689408003E+03  0.35296178121E+03  0.25500000920E-02 0.  1.
</event>
<event>
 5   0  0.2863538E-03  0.5002351E+03  0.7818609E-02  0.1013718E+00
       -1   -1    0    0    0  501  0.00000000000E+00  0.00000000000E+00  0.12932740120E+03  0.12932740129E+03  0.50400001928E-02 0.  1.
        1   -1    0    0  501    0  0.00000000000E+00  0.00000000000E+00 -0.48372407491E+03  0.48372407494E+03  0.50400001928E-02 0. -1.
    10030    2    1    2    0    0  0.00000000000E+00  0.00000000000E+00 -0.35439667372E+03  0.61305147623E+03  0.50023505492E+03 0.  0.
        1    1    3    3  502    0 -0.10765054860E+03  0.20096020768E+03 -0.30328552387E+03  0.37941501644E+03  0.50400001928E-02 0. -1.
       -1    1    3    3    0  502  0.10765054860E+03 -0.20096020768E+03 -0.51111149846E+02  0.23363645980E+03  0.50400001928E-02 0.  1.
</event>
<event>
 5   0  0.3211775E-03  0.4999919E+03  0.7818609E-02  0.1013781E+00
        1   -1    0    0  501    0  0.00000000000E+00  0.00000000000E+00  0.27415060985E+03  0.27415060989E+03  0.50400001928E-02 0.  1.
       -1   -1    0    0    0  501  0.00000000000E+00  0.00000000000E+00 -0.22796947596E+03  0.22796947601E+03  0.50400001928E-02 0. -1.
    10030    2    1    2    0    0  0.00000000000E+00  0.00000000000E+00  0.46181133889E+02  0.50212008590E+03  0.49999188348E+03 0.  0.
        4    1    3    3  502    0 -0.16973249205E+03 -0.95865399271E+01  0.20716104639E+03  0.26798942637E+03  0.12699999809E+01 0.  1.
       -4    1    3    3    0  502  0.16973249205E+03  0.95865399271E+01 -0.16097991250E+03  0.23413065953E+03  0.12699999809E+01 0. -1.
</event>
<event>
 5   0  0.5095783E-03  0.5001539E+03  0.7818609E-02  0.1013739E+00
       -2   -1    0    0    0  501  0.00000000000E+00  0.00000000000E+00  0.49399405120E+02  0.49399405186E+02  0.25500000920E-02 0. -1.
        2   -1    0    0  501    0  0.00000000000E+00  0.00000000000E+00 -0.12659765018E+04  0.12659765018E+04  0.25500000920E-02 0.  1.
    10030    2    1    2    0    0  0.00000000000E+00  0.00000000000E+00 -0.12165770967E+04  0.13153759070E+04  0.50015392083E+03 0.  0.
        4    1    3    3  502    0  0.49591298943E+02 -0.22080842747E+03 -0.88811754658E+03  0.91649879870E+03  0.12699999809E+01 0.  1.
       -4    1    3    3    0  502 -0.49591298943E+02  0.22080842747E+03 -0.32845955013E+03  0.39887710832E+03  0.12699999809E+01 0. -1.
</event>
<event>
 5   0  0.3055293E-03  0.4999355E+03  0.7818609E-02  0.1013796E+00
       -1   -1    0    0    0  501  0.00000000000E+00  0.00000000000E+00  0.29070730578E+02  0.29070731014E+02  0.50400001928E-02 0. -1.
        1   -1    0    0  501    0  0.00000000000E+00  0.00000000000E+00 -0.21493740458E+04  0.21493740459E+04  0.50400001928E-02 0.  1.
    10030    2    1    2    0    0  0.00000000000E+00  0.00000000000E+00 -0.21203033153E+04  0.21784447769E+04  0.49993549296E+03 0.  0.
        3    1    3    3  502    0  0.24518181732E+03 -0.18808746133E+02 -0.12557993770E+04  0.12796483806E+04  0.10100000352E+00 0.  1.
       -3    1    3    3    0  502 -0.24518181732E+03  0.18808746133E+02 -0.86450393825E+03  0.89879639626E+03  0.10100000352E+00 0. -1.
</event>
<event>
 5   0  0.2863538E-03  0.4989911E+03  0.7818609E-02  0.1014043E+00
       -1   -1    0    0    0  501  0.00000000000E+00  0.00000000000E+00  0.12106795493E+03  0.12106795504E+03  0.50400001928E-02 0. -1.
        1   -1    0    0  501    0  0.00000000000E+00  0.00000000000E+00 -0.51415782129E+03  0.51415782131E+03  0.50400001928E-02 0.  1.
    10030    2    1    2    0    0  0.00000000000E+00  0.00000000000E+00 -0.39308986635E+03  0.63522577635E+03  0.49899112608E+03 0.  0.
        1    1    3    3  502    0  0.12939678879E+03  0.10562649904E+03  0.39385068444E+02  0.17161488831E+03  0.50400001928E-02 0. -1.
       -1    1    3    3    0  502 -0.12939678879E+03 -0.10562649904E+03 -0.43247493480E+03  0.46361088803E+03  0.50400001928E-02 0.  1.
</event>
<event>
 5   0  0.2863538E-03  0.4999173E+03  0.7818609E-02  0.1013800E+00
       -1   -1    0    0    0  501  0.00000000000E+00  0.00000000000E+00  0.12459524026E+03  0.12459524036E+03  0.50400001928E-02 0.  1.
        1   -1    0    0  501    0  0.00000000000E+00  0.00000000000E+00 -0.50145840515E+03  0.50145840517E+03  0.50400001928E-02 0. -1.
    10030    2    1    2    0    0  0.00000000000E+00  0.00000000000E+00 -0.37686316488E+03  0.62605364554E+03  0.49991731521E+03 0.  0.
        1    1    3    3  502    0 -0.32112756976E+02 -0.22595634705E+03 -0.31609292219E+03  0.38987464064E+03  0.50400001928E-02 0.  1.
       -1    1    3    3    0  502  0.32112756976E+02  0.22595634705E+03 -0.60770242696E+02  0.23617900490E+03  0.50400001928E-02 0. -1.
</event>
<event>
 5   0  0.5095783E-03  0.5001256E+03  0.7818609E-02  0.1013746E+00
       -2   -1    0    0    0  501  0.00000000000E+00  0.00000000000E+00  0.51857953094E+02  0.51857953157E+02  0.25500000920E-02 0.  1.
        2   -1    0    0  501    0  0.00000000000E+00  0.00000000000E+00 -0.12058207636E+04  0.12058207636E+04  0.25500000920E-02 0. -1.
    10030    2    1    2    0    0  0.00000000000E+00  0.00000000000E+00 -0.11539628105E+04  0.12576787168E+04  0.50012557080E+03 0.  0.
        4    1    3    3  502    0 -0.55178798124E+02 -0.12625787044E+02  0.35526911616E+02  0.66842236720E+02  0.12699999809E+01 0.  1.
       -4    1    3    3    0  502  0.55178798124E+02  0.12625787044E+02 -0.11894897222E+04  0.11908364801E+04  0.12699999809E+01 0. -1.
</event>
<event>
 5   0  0.5118882E-03  0.5000257E+03  0.7818609E-02  0.1013772E+00
       -2   -1    0    0    0  501  0.00000000000E+00  0.00000000000E+00  0.31691342374E+02  0.31691342477E+02  0.25500000920E-02 0.  1.
        2   -1    0    0  501    0  0.00000000000E+00  0.00000000000E+00 -0.19723498695E+04  0.19723498695E+04  0.25500000920E-02 0. -1.
    10030    2    1    2    0    0  0.00000000000E+00  0.00000000000E+00 -0.19406585271E+04  0.20040412120E+04  0.50002565975E+03 0.  0.
        3    1    3    3  502    0  0.14075892708E+03 -0.87505668527E+02 -0.17205207942E+04  0.17284855021E+04  0.10100000352E+00 0. -1.
       -3    1    3    3    0  502 -0.14075892708E+03  0.87505668527E+02 -0.22013773295E+03  0.27555570988E+03  0.10100000352E+00 0.  1.
</event>
<event>
 5   0  0.2005125E-03  0.4999050E+03  0.7818609E-02  0.1013804E+00
       -3   -1    0    0    0  501  0.00000000000E+00  0.00000000000E+00  0.17648960239E+03  0.17648963129E+03  0.10100000352E+00 0.  1.
        3   -1    0    0  501    0  0.00000000000E+00  0.00000000000E+00 -0.35399393290E+03  0.35399394731E+03  0.10100000352E+00 0. -1.
    10030    2    1    2    0    0  0.00000000000E+00  0.00000000000E+00 -0.17750433051E+03  0.53048357859E+03  0.49990503079E+03 0.  0.
        1    1    3    3  502    0 -0.17770895992E+03 -0.97111127108E+02 -0.24422411805E+03  0.31726403090E+03  0.50400001928E-02 0. -1.
       -1    1    3    3    0  502  0.17770895992E+03  0.97111127108E+02  0.66719787538E+02  0.21321954769E+03  0.50400001928E-02 0.  1.
</event>
<event>
 5   0  0.4889251E-03  0.4999711E+03  0.7818609E-02  0.1013786E+00
       -2   -1    0    0    0  501  0.00000000000E+00  0.00000000000E+00  0.16567702026E+03  0.16567702028E+03  0.25500000920E-02 0. -1.
        2   -1    0    0  501    0  0.00000000000E+00  0.00000000000E+00 -0.37719635422E+03  0.37719635423E+03  0.25500000920E-02 0.  1.
    10030    2    1    2    0    0  0.00000000000E+00  0.00000000000E+00 -0.21151933396E+03  0.54287337451E+03  0.49997107128E+03 0.  0.
        5    1    3    3  502    0 -0.57515452647E+02  0.21998438950E+03  0.69216258822E+01  0.22753276208E+03  0.46999998093E+01 0. -1.
       -5    1    3    3    0  502  0.57515452647E+02 -0.21998438950E+03 -0.21844095984E+03  0.31534061243E+03  0.46999998093E+01 0.  1.
</event>
<event>
 5   0  0.5118882E-03  0.4983700E+03  0.7818609E-02  0.1014205E+00
       -2   -1    0    0    0  501  0.00000000000E+00  0.00000000000E+00  0.15138566808E+03  0.15138566810E+03  0.25500000920E-02 0.  1.
        2   -1    0    0  501    0  0.00000000000E+00  0.00000000000E+00 -0.41016533178E+03  0.41016533179E+03  0.25500000920E-02 0. -1.
    10030    2    1    2    0    0  0.00000000000E+00  0.00000000000E+00 -0.25877966370E+03  0.56155099990E+03  0.49836995409E+03 0.  0.
        3    1    3    3  502    0  0.16934467987E+03 -0.78528608300E+02  0.56609284908E+02  0.19506148841E+03  0.10100000352E+00 0.  1.
       -3    1    3    3    0  502 -0.16934467987E+03  0.78528608300E+02 -0.31538894861E+03  0.36648951149E+03  0.10100000352E+00 0. -1.
</event>
<event>
 5   0  0.3055293E-03  0.4997798E+03  0.7818609E-02  0.1013836E+00
        1   -1    0    0  501    0  0.00000000000E+00  0.00000000000E+00  0.96514512848E+03  0.96514512850E+03  0.50400001928E-02 0.  1.
       -1   -1    0    0    0  501  0.00000000000E+00  0.00000000000E+00 -0.64700066200E+02  0.64700066396E+02  0.50400001928E-02 0. -1.
    10030    2    1    2    0    0  0.00000000000E+00  0.00000000000E+00  0.90044506228E+03  0.10298451949E+04  0.49977976675E+03 0.  0.
        3    1    3    3  502    0  0.51030040264E+02 -0.74577576756E+02  0.93029792904E+03  0.93467648250E+03  0.10100000352E+00 0.  1.
       -3    1    3    3    0  502 -0.51030040264E+02  0.74577576756E+02 -0.29852866755E+02  0.95168712393E+02  0.10100000352E+00 0. -1.
</event>
<event>
 5   0  0.4889251E-03  0.4989531E+03  0.7818609E-02  0.1014053E+00
        2   -1    0    0  501    0  0.00000000000E+00  0.00000000000E+00  0.84536485423E+03  0.84536485423E+03  0.25500000920E-02 0. -1.
       -2   -1    0    0    0  501  0.00000000000E+00  0.00000000000E+00 -0.73623285335E+02  0.73623285379E+02  0.25500000920E-02 0.  1.
    10030    2    1    2    0    0  0.00000000000E+00  0.00000000000E+00  0.77174156889E+03  0.91898813961E+03  0.49895305550E+03 0.  0.
        5    1    3    3  502    0  0.13006464087E+03 -0.16080765973E+03  0.64267627882E+03  0.67515242989E+03  0.46999998093E+01 0. -1.
       -5    1    3    3    0  502 -0.13006464087E+03  0.16080765973E+03  0.12906529008E+03  0.24383570972E+03  0.46999998093E+01 0.  1.
</event>
<event>
 5   0  0.4989875E-03  0.4998984E+03  0.7818609E-02  0.1013805E+00
        2   -1    0    0  501    0  0.00000000000E+00  0.00000000000E+00  0.24276601370E+04  0.24276601370E+04  0.25500000920E-02 0. -1.
       -2   -1    0    0    0  501  0.00000000000E+00  0.00000000000E+00 -0.25734496669E+02  0.25734496795E+02  0.25500000920E-02 0.  1.
    10030    2    1    2    0    0  0.00000000000E+00  0.00000000000E+00  0.24019256403E+04  0.24533946338E+04  0.49989843715E+03 0.  0.
        2    1    3    3  502    0  0.18581109329E+03 -0.91310228720E+02  0.18882507718E+04  0.18995668710E+04  0.25500000920E-02 0. -1.
       -2    1    3    3    0  502 -0.18581109329E+03  0.91310228720E+02  0.51367486854E+03  0.55382776279E+03  0.25500000920E-02 0.  1.
</event>
<event>
 5   0  0.4889251E-03  0.4978278E+03  0.7818609E-02  0.1014347E+00
        2   -1    0    0  501    0  0.00000000000E+00  0.00000000000E+00  0.17733537485E+03  0.17733537486E+03  0.25500000920E-02 0. -1.
       -2   -1    0    0    0  501  0.00000000000E+00  0.00000000000E+00 -0.34938398894E+03  0.34938398895E+03  0.25500000920E-02 0.  1.
    10030    2    1    2    0    0  0.00000000000E+00  0.00000000000E+00 -0.17204861410E+03  0.52671936381E+03  0.49782784434E+03 0.  0.
        5    1    3    3  502    0 -0.24758029113E+03  0.25201334614E+02 -0.83672032690E+02  0.26259133054E+03  0.46999998093E+01 0. -1.
       -5    1    3    3    0  502  0.24758029113E+03 -0.25201334614E+02 -0.88376581407E+02  0.26412803327E+03  0.46999998093E+01 0.  1.
</event>
<event>
 5   0  0.2863538E-03  0.5001536E+03  0.7818609E-02  0.1013739E+00
        1   -1    0    0  501    0  0.00000000000E+00  0.00000000000E+00  0.12926560496E+03  0.12926560506E+03  0.50400001928E-02 0.  1.
       -1   -1    0    0    0  501  0.00000000000E+00  0.00000000000E+00 -0.48379777216E+03  0.48379777218E+03  0.50400001928E-02 0. -1.
    10030    2    1    2    0    0  0.00000000000E+00  0.00000000000E+00 -0.35453216720E+03  0.61306337724E+03  0.50015362333E+03 0.  0.
        1    1    3    3  502    0  0.12697249338E+03  0.17553205781E+03 -0.33038624204E+03  0.39508048085E+03  0.50400001928E-02 0. -1.
       -1    1    3    3    0  502 -0.12697249338E+03 -0.17553205781E+03 -0.24145925161E+02  0.21798289639E+03  0.50400001928E-02 0.  1.
</event>
<event>
 5   0  0.2005125E-03  0.4999054E+03  0.7818609E-02  0.1013804E+00
        3   -1    0    0  501    0  0.00000000000E+00  0.00000000000E+00  0.71925369202E+02  0.71925440116E+02  0.10100000352E+00 0.  1.
       -3   -1    0    0    0  501  0.00000000000E+00  0.00000000000E+00 -0.86862698481E+03  0.86862699068E+03  0.10100000352E+00 0. -1.
    10030    2    1    2    0    0  0.00000000000E+00  0.00000000000E+00 -0.79670161560E+03  0.94055243079E+03  0.49990540182E+03 0.  0.
        3    1    3    3  502    0  0.10503718239E+03 -0.96626162137E+02 -0.78442600837E+03  0.79730395566E+03  0.10100000352E+00 0. -1.
       -3    1    3    3    0  502 -0.10503718239E+03  0.96626162137E+02 -0.12275607230E+02  0.14324847513E+03  0.10100000352E+00 0.  1.
</event>
<event>
 5   0  0.4989875E-03  0.5006775E+03  0.7818609E-02  0.1013602E+00
        2   -1    0    0  501    0  0.00000000000E+00  0.00000000000E+00  0.71365490216E+03  0.71365490217E+03  0.25500000920E-02 0.  1.
       -2   -1    0    0    0  501  0.00000000000E+00  0.00000000000E+00 -0.87814840809E+02  0.87814840846E+02  0.25500000920E-02 0. -1.
    10030    2    1    2    0    0  0.00000000000E+00  0.00000000000E+00  0.62584006135E+03  0.80146974301E+03  0.50067750755E+03 0.  0.
        2    1    3    3  502    0  0.17257702005E+03  0.72869014285E+02  0.57874804839E+03  0.60831079607E+03  0.25500000920E-02 0.  1.
       -2    1    3    3    0  502 -0.17257702005E+03 -0.72869014285E+02  0.47092012966E+02  0.19315894695E+03  0.25500000920E-02 0. -1.
</event>
<event>
 5   0  0.3057783E-03  0.4995589E+03  0.7818609E-02  0.1013894E+00
        1   -1    0    0  501    0  0.00000000000E+00  0.00000000000E+00  0.20334346953E+03  0.20334346960E+03  0.50400001928E-02 0. -1.
       -1   -1    0    0    0  501  0.00000000000E+00  0.00000000000E+00 -0.30681960105E+03  0.30681960109E+03  0.50400001928E-02 0.  1.
    10030    2    1    2    0    0  0.00000000000E+00  0.00000000000E+00 -0.10347613152E+03  0.51016307069E+03  0.49955885429E+03 0.  0.
        5    1    3    3  502    0 -0.13884516426E+03 -0.16073784347E+03  0.82400960641E+02  0.22787418080E+03  0.46999998093E+01 0. -1.
       -5    1    3    3    0  502  0.13884516426E+03  0.16073784347E+03 -0.18587709216E+03  0.28228888988E+03  0.46999998093E+01 0.  1.
</event>
<event>
 5   0  0.3055293E-03  0.5011408E+03  0.7818609E-02  0.1013482E+00
        1   -1    0    0  501    0  0.00000000000E+00  0.00000000000E+00  0.23904665458E+03  0.23904665463E+03  0.50400001928E-02 0. -1.
       -1   -1    0    0    0  501  0.00000000000E+00  0.00000000000E+00 -0.26264966407E+03  0.26264966411E+03  0.50400001928E-02 0.  1.
    10030    2    1    2    0    0  0.00000000000E+00  0.00000000000E+00 -0.23603009484E+02  0.50169631875E+03  0.50114079278E+03 0.  0.
        3    1    3    3  502    0 -0.41242408543E+02  0.35197546577E+02  0.23310350541E+03  0.23932625845E+03  0.10100000352E+00 0. -1.
       -3    1    3    3    0  502  0.41242408543E+02 -0.35197546577E+02 -0.25670651490E+03  0.26237006030E+03  0.10100000352E+00 0.  1.
</event>
<event>
 5   0  0.5095783E-03  0.4991744E+03  0.7818609E-02  0.1013995E+00
       -2   -1    0    0    0  501  0.00000000000E+00  0.00000000000E+00  0.48915988163E+02  0.48915988229E+02  0.25500000920E-02 0. -1.
        2   -1    0    0  501    0  0.00000000000E+00  0.00000000000E+00 -0.12734846196E+04  0.12734846196E+04  0.25500000920E-02 0.  1.
    10030    2    1    2    0    0  0.00000000000E+00  0.00000000000E+00 -0.12245686314E+04  0.13224006078E+04  0.49917435280E+03 0.  0.
        4    1    3    3  502    0 -0.98484793484E+02 -0.63133855703E+02 -0.28220611312E+02  0.12034597661E+03  0.12699999809E+01 0. -1.
       -4    1    3    3    0  502  0.98484793484E+02  0.63133855703E+02 -0.11963480201E+04  0.12020546312E+04  0.12699999809E+01 0.  1.
</event>
<event>
 5   0  0.3055293E-03  0.5000829E+03  0.7818609E-02  0.1013757E+00
        1   -1    0    0  501    0  0.00000000000E+00  0.00000000000E+00  0.10373611023E+04  0.10373611023E+04  0.50400001928E-02 0.  1.
       -1   -1    0    0    0  501  0.00000000000E+00  0.00000000000E+00 -0.60269013370E+02  0.60269013581E+02  0.50400001928E-02 0. -1.
    10030    2    1    2    0    0  0.00000000000E+00  0.00000000000E+00  0.97709208896E+03  0.10976301159E+04  0.50008291420E+03 0.  0.
        3    1    3    3  502    0  0.82475545489E+02 -0.21725947926E+03  0.28598645325E+03  0.36849987595E+03  0.10100000352E+00 0. -1.
       -3    1    3    3    0  502 -0.82475545489E+02  0.21725947926E+03  0.69110563571E+03  0.72913023997E+03  0.10100000352E+00 0.  1.
</event>
<event>
 5   0  0.3211775E-03  0.4999088E+03  0.7818609E-02  0.1013803E+00
        1   -1    0    0  501    0  0.00000000000E+00  0.00000000000E+00  0.10529810374E+04  0.10529810374E+04  0.50400001928E-02 0.  1.
       -1   -1    0    0    0  501  0.00000000000E+00  0.00000000000E+00 -0.59333650208E+02  0.59333650422E+02  0.50400001928E-02 0. -1.
    10030    2    1    2    0    0  0.00000000000E+00  0.00000000000E+00  0.99364738719E+03  0.11123146878E+04  0.49990882639E+03 0.  0.
        4    1    3    3  502    0 -0.38455494529E+02 -0.21108258305E+03  0.78212242734E+03  0.81101898016E+03  0.12699999809E+01 0.  1.
       -4    1    3    3    0  502  0.38455494529E+02  0.21108258305E+03  0.21152495985E+03  0.30129570768E+03  0.12699999809E+01 0. -1.
</event>
<event>
 5   0  0.3055293E-03  0.5000149E+03  0.7818609E-02  0.1013775E+00
        1   -1    0    0  501    0  0.00000000000E+00  0.00000000000E+00  0.35489241039E+03  0.35489241042E+03  0.50400001928E-02 0. -1.
       -1   -1    0    0    0  501  0.00000000000E+00  0.00000000000E+00 -0.17612021934E+03  0.17612021942E+03  0.50400001928E-02 0.  1.
    10030    2    1    2    0    0  0.00000000000E+00  0.00000000000E+00  0.17877219104E+03  0.53101262984E+03  0.50001491654E+03 0.  0.
        3    1    3    3  502    0  0.22669450503E+03 -0.72183705388E+02  0.77932384937E+01  0.23803703640E+03  0.10100000352E+00 0.  1.
       -3    1    3    3    0  502 -0.22669450503E+03  0.72183705388E+02  0.17097895255E+03  0.29297559344E+03  0.10100000352E+00 0. -1.
</event>
<event>
 5   0  0.4889251E-03  0.4999997E+03  0.7818609E-02  0.1013779E+00
        2   -1    0    0  501    0  0.00000000000E+00  0.00000000000E+00  0.75412485572E+03  0.75412485572E+03  0.25500000920E-02 0. -1.
       -2   -1    0    0    0  501  0.00000000000E+00  0.00000000000E+00 -0.82877428729E+02  0.82877428769E+02  0.25500000920E-02 0.  1.
    10030    2    1    2    0    0  0.00000000000E+00  0.00000000000E+00  0.67124742699E+03  0.83700228449E+03  0.49999971600E+03 0.  0.
        5    1    3    3  502    0  0.59240189466E+02 -0.21247309194E+03  0.53244308670E+03  0.57634360014E+03  0.46999998093E+01 0. -1.
       -5    1    3    3    0  502 -0.59240189466E+02  0.21247309194E+03  0.13880434029E+03  0.26065868435E+03  0.46999998093E+01 0.  1.
</event>
<event>
 5   0  0.3211775E-03  0.5000064E+03  0.7818609E-02  0.1013777E+00
        1   -1    0    0  501    0  0.00000000000E+00  0.00000000000E+00  0.62360119986E+02  0.62360120190E+02  0.50400001928E-02 0. -1.
       -1   -1    0    0    0  501  0.00000000000E+00  0.00000000000E+00 -0.10022689515E+04  0.10022689516E+04  0.50400001928E-02 0.  1.
    10030    2    1    2    0    0  0.00000000000E+00  0.00000000000E+00 -0.93990883155E+03  0.10646290717E+04  0.50000644872E+03 0.  0.
        4    1    3    3  502    0 -0.11451105272E+03  0.16410828257E+03 -0.15088445808E+03  0.25062330736E+03  0.12699999809E+01 0. -1.
       -4    1    3    3    0  502  0.11451105272E+03 -0.16410828257E+03 -0.78902437348E+03  0.81400576438E+03  0.12699999809E+01 0.  1.
</event>
<event>
 5   0  0.3057783E-03  0.5004001E+03  0.7818609E-02  0.1013675E+00
       -1   -1    0    0    0  501  0.00000000000E+00  0.00000000000E+00  0.92685921758E+02  0.92685921895E+02  0.50400001928E-02 0. -1.
        1   -1    0    0  501    0  0.00000000000E+00  0.00000000000E+00 -0.67540005019E+03  0.67540005021E+03  0.50400001928E-02 0.  1.
    10030    2    1    2    0    0  0.00000000000E+00  0.00000000000E+00 -0.58271412843E+03  0.76808597211E+03  0.50040014495E+03 0.  0.
        5    1    3    3  502    0 -0.90616086186E+02 -0.18552544613E+03 -0.74570971162E+02  0.21957660617E+03  0.46999998093E+01 0. -1.
       -5    1    3    3    0  502  0.90616086186E+02  0.18552544613E+03 -0.50814315727E+03  0.54850936594E+03  0.46999998093E+01 0.  1.
</event>
<event>
 5   0  0.4889251E-03  0.4999820E+03  0.7818609E-02  0.1013784E+00
        2   -1    0    0  501    0  0.00000000000E+00  0.00000000000E+00  0.11922439902E+04  0.11922439902E+04  0.25500000920E-02 0. -1.
       -2   -1    0    0    0  501  0.00000000000E+00  0.00000000000E+00 -0.52418387204E+02  0.52418387266E+02  0.25500000920E-02 0.  1.
    10030    2    1    2    0    0  0.00000000000E+00  0.00000000000E+00  0.11398256030E+04  0.12446623775E+04  0.49998202832E+03 0.  0.
        5    1    3    3  502    0 -0.36758061672E+02 -0.67600648410E+02 -0.22088612113E+02  0.80193513121E+02  0.46999998093E+01 0.  1.
       -5    1    3    3    0  502  0.36758061672E+02  0.67600648410E+02  0.11619142151E+04  0.11644688644E+04  0.46999998093E+01 0. -1.
</event>
<event>
 5   0  0.3057783E-03  0.4999927E+03  0.7818609E-02  0.1013781E+00
        1   -1    0    0  501    0  0.00000000000E+00  0.00000000000E+00  0.65800933810E+03  0.65800933812E+03  0.50400001928E-02 0. -1.
       -1   -1    0    0    0  501  0.00000000000E+00  0.00000000000E+00 -0.94980687527E+02  0.94980687661E+02  0.50400001928E-02 0.  1.
    10030    2    1    2    0    0  0.00000000000E+00  0.00000000000E+00  0.56302865057E+03  0.75299002578E+03  0.49999271751E+03 0.  0.
        5    1    3    3  502    0 -0.50028837765E+02 -0.23668275018E+02 -0.85570430776E+02  0.10201696169E+03  0.46999998093E+01 0.  1.
       -5    1    3    3    0  502  0.50028837765E+02  0.23668275018E+02  0.64859908135E+03  0.65097306409E+03  0.46999998093E+01 0. -1.
</event>
<event>
 5   0  0.5095783E-03  0.5001379E+03  0.7818609E-02  0.1013743E+00
       -2   -1    0    0    0  501  0.00000000000E+00  0.00000000000E+00  0.69893438633E+02  0.69893438679E+02  0.25500000920E-02 0.  1.
        2   -1    0    0  501    0  0.00000000000E+00  0.00000000000E+00 -0.89471182713E+03  0.89471182714E+03  0.25500000920E-02 0. -1.
    10030    2    1    2    0    0  0.00000000000E+00  0.00000000000E+00 -0.82481838850E+03  0.96460526582E+03  0.50013792581E+03 0.  0.
        4    1    3    3  502    0  0.37825728569E+02 -0.23810554919E+03 -0.54045710737E+03  0.59179433598E+03  0.12699999809E+01 0. -1.
       -4    1    3    3    0  502 -0.37825728569E+02  0.23810554919E+03 -0.28436128113E+03  0.37281092983E+03  0.12699999809E+01 0.  1.
</event>
<event>
 5   0  0.3013734E-03  0.4995653E+03  0.7818609E-02  0.1013892E+00
       -1   -1    0    0    0  501  0.00000000000E+00  0.00000000000E+00  0.57421379566E+02  0.57421379787E+02  0.50400001928E-02 0.  1.
        1   -1    0    0  501    0  0.00000000000E+00  0.00000000000E+00 -0.10865529835E+04  0.10865529836E+04  0.50400001928E-02 0. -1.
    10030    2    1    2    0    0  0.00000000000E+00  0.00000000000E+00 -0.10291316040E+04  0.11439743633E+04  0.49956529671E+03 0.  0.
        2    1    3    3  502    0  0.19380174134E+03 -0.15755322106E+03 -0.52152623837E+03  0.57824886488E+03  0.25500000920E-02 0.  1.
       -2    1    3    3    0  502 -0.19380174134E+03  0.15755322106E+03 -0.50760536561E+03  0.56572549847E+03  0.25500000920E-02 0. -1.
</event>
<event>
 5   0  0.3013734E-03  0.4999496E+03  0.7818609E-02  0.1013792E+00
       -1   -1    0    0    0  501  0.00000000000E+00  0.00000000000E+00  0.24032968453E+03  0.24032968458E+03  0.50400001928E-02 0.  1.
        1   -1    0    0  501    0  0.00000000000E+00  0.00000000000E+00 -0.26000695714E+03  0.26000695719E+03  0.50400001928E-02 0. -1.
    10030    2    1    2    0    0  0.00000000000E+00  0.00000000000E+00 -0.19677272616E+02  0.50033664177E+03  0.49994955750E+03 0.  0.
        2    1    3    3  502    0 -0.22156087727E+03  0.24968054168E+02 -0.12295164721E+03  0.25461683688E+03  0.25500000920E-02 0. -1.
       -2    1    3    3    0  502  0.22156087727E+03 -0.24968054168E+02  0.10327437459E+03  0.24571980489E+03  0.25500000920E-02 0.  1.
</event>
<event>
 5   0  0.2863538E-03  0.4998717E+03  0.7818609E-02  0.1013812E+00
        1   -1    0    0  501    0  0.00000000000E+00  0.00000000000E+00  0.83552198035E+03  0.83552198036E+03  0.50400001928E-02 0.  1.
       -1   -1    0    0    0  501  0.00000000000E+00  0.00000000000E+00 -0.74765161363E+02  0.74765161533E+02  0.50400001928E-02 0. -1.
    10030    2    1    2    0    0  0.00000000000E+00  0.00000000000E+00  0.76075681898E+03  0.91028714189E+03  0.49987172661E+03 0.  0.
        1    1    3    3  502    0  0.21261860996E+03 -0.12188675481E+03  0.46968153734E+03  0.52977712375E+03  0.50400001928E-02 0.  1.
       -1    1    3    3    0  502 -0.21261860996E+03  0.12188675481E+03  0.29107528164E+03  0.38051001815E+03  0.50400001928E-02 0. -1.
</event>
<event>
 5   0  0.5118882E-03  0.5006053E+03  0.7818609E-02  0.1013621E+00
       -2   -1    0    0    0  501  0.00000000000E+00  0.00000000000E+00  0.77396166180E+02  0.77396166222E+02  0.25500000920E-02 0. -1.
        2   -1    0    0  501    0  0.00000000000E+00  0.00000000000E+00 -0.80948994309E+03  0.80948994309E+03  0.25500000920E-02 0.  1.
    10030    2    1    2    0    0  0.00000000000E+00  0.00000000000E+00 -0.73209377690E+03  0.88688610931E+03  0.50060530631E+03 0.  0.
        3    1    3    3  502    0  0.14623333762E+03  0.44713223953E+02 -0.14978682640E+02  0.15364840566E+03  0.10100000352E+00 0. -1.
       -3    1    3    3    0  502 -0.14623333762E+03 -0.44713223953E+02 -0.71711509426E+03  0.73323770365E+03  0.10100000352E+00 0.  1.
</event>
<event>
 5   0  0.3013734E-03  0.5000405E+03  0.7818609E-02  0.1013768E+00
        1   -1    0    0  501    0  0.00000000000E+00  0.00000000000E+00  0.10490100058E+03  0.10490100070E+03  0.50400001928E-02 0.  1.
       -1   -1    0    0    0  501  0.00000000000E+00  0.00000000000E+00 -0.59589638618E+03  0.59589638620E+03  0.50400001928E-02 0. -1.
    10030    2    1    2    0    0  0.00000000000E+00  0.00000000000E+00 -0.49099538560E+03  0.70079738690E+03  0.50004050716E+03 0.  0.
        2    1    3    3  502    0 -0.10941557791E+03 -0.13921078516E+03  0.18894141530E+01  0.17707337825E+03  0.25500000920E-02 0.  1.
       -2    1    3    3    0  502  0.10941557791E+03  0.13921078516E+03 -0.49288479976E+03  0.52372400865E+03  0.25500000920E-02 0. -1.
</event>
<event>
 5   0  0.2005125E-03  0.5000703E+03  0.7818609E-02  0.1013761E+00
       -3   -1    0    0    0  501  0.00000000000E+00  0.00000000000E+00  0.52402149027E+03  0.52402150000E+03  0.10100000352E+00 0.  1.
        3   -1    0    0  501    0  0.00000000000E+00  0.00000000000E+00 -0.11930341897E+03  0.11930346172E+03  0.10100000352E+00 0. -1.
    10030    2    1    2    0    0  0.00000000000E+00  0.00000000000E+00  0.40471807130E+03  0.64332496172E+03  0.50007028420E+03 0.  0.
        4    1    3    3  502    0  0.27813522772E+02 -0.23898978514E+03  0.28986021380E+03  0.37670979002E+03  0.12699999809E+01 0.  1.
       -4    1    3    3    0  502 -0.27813522772E+02  0.23898978514E+03  0.11485785750E+03  0.26661517170E+03  0.12699999809E+01 0. -1.
</event>
<event>
 5   0  0.3013734E-03  0.4998061E+03  0.7818609E-02  0.1013830E+00
       -1   -1    0    0    0  501  0.00000000000E+00  0.00000000000E+00  0.88063696098E+02  0.88063696242E+02  0.50400001928E-02 0. -1.
        1   -1    0    0  501    0  0.00000000000E+00  0.00000000000E+00 -0.70916332713E+03  0.70916332715E+03  0.50400001928E-02 0.  1.
    10030    2    1    2    0    0  0.00000000000E+00  0.00000000000E+00 -0.62109963103E+03  0.79722702339E+03  0.49980613757E+03 0.  0.
        2    1    3    3  502    0  0.20669955616E+03  0.70098441008E+02 -0.11641536544E+03  0.24736821798E+03  0.25500000920E-02 0. -1.
       -2    1    3    3    0  502 -0.20669955616E+03 -0.70098441008E+02 -0.50468426559E+03  0.54985880541E+03  0.25500000920E-02 0.  1.
</event>
<event>
 5   0  0.4889251E-03  0.5000216E+03  0.7818609E-02  0.1013773E+00
       -2   -1    0    0    0  501  0.00000000000E+00  0.00000000000E+00  0.32899669498E+02  0.32899669597E+02  0.25500000920E-02 0.  1.
        2   -1    0    0  501    0  0.00000000000E+00  0.00000000000E+00 -0.18998790107E+04  0.18998790107E+04  0.25500000920E-02 0. -1.
    10030    2    1    2    0    0  0.00000000000E+00  0.00000000000E+00 -0.18669793412E+04  0.19327786803E+04  0.50002156607E+03 0.  0.
        5    1    3    3  502    0 -0.31558045801E+02 -0.99783418201E+02 -0.18109474857E+04  0.18139750624E+04  0.46999998093E+01 0. -1.
       -5    1    3    3    0  502  0.31558045801E+02  0.99783418201E+02 -0.56031855421E+02  0.11880361789E+03  0.46999998093E+01 0.  1.
</event>
<event>
 5   0  0.5095783E-03  0.4999549E+03  0.7818609E-02  0.1013791E+00
       -2   -1    0    0    0  501  0.00000000000E+00  0.00000000000E+00  0.41377473950E+02  0.41377474029E+02  0.25500000920E-02 0. -1.
        2   -1    0    0  501    0  0.00000000000E+00  0.00000000000E+00 -0.15102112254E+04  0.15102112254E+04  0.25500000920E-02 0.  1.
    10030    2    1    2    0    0  0.00000000000E+00  0.00000000000E+00 -0.14688337515E+04  0.15515886994E+04  0.49995490077E+03 0.  0.
        4    1    3    3  502    0  0.99136299988E+02  0.91482481934E+02 -0.81287941695E+02  0.15750045346E+03  0.12699999809E+01 0. -1.
       -4    1    3    3    0  502 -0.99136299988E+02 -0.91482481934E+02 -0.13875458098E+04  0.13940882460E+04  0.12699999809E+01 0.  1.
</event>
<event>
 5   0  0.3013734E-03  0.5017083E+03  0.7818609E-02  0.1013334E+00
       -1   -1    0    0    0  501  0.00000000000E+00  0.00000000000E+00  0.28068804348E+03  0.28068804352E+03  0.50400001928E-02 0.  1.
        1   -1    0    0  501    0  0.00000000000E+00  0.00000000000E+00 -0.22419123485E+03  0.22419123491E+03  0.50400001928E-02 0. -1.
    10030    2    1    2    0    0  0.00000000000E+00  0.00000000000E+00  0.56496808631E+02  0.50487927843E+03  0.50170827819E+03 0.  0.
        2    1    3    3  502    0 -0.36617783594E+02 -0.20836350949E+03 -0.10740562049E+03  0.23725973422E+03  0.25500000920E-02 0. -1.
       -2    1    3    3    0  502  0.36617783594E+02  0.20836350949E+03  0.16390242913E+03  0.26761954421E+03  0.25500000920E-02 0.  1.
</event>
<event>
 5   0  0.2863538E-03  0.5001153E+03  0.7818609E-02  0.1013749E+00
       -1   -1    0    0    0  501  0.00000000000E+00  0.00000000000E+00  0.29655716501E+02  0.29655716930E+02  0.50400001928E-02 0.  1.
        1   -1    0    0  501    0  0.00000000000E+00  0.00000000000E+00 -0.21084919215E+04  0.21084919215E+04  0.50400001928E-02 0. -1.
    10030    2    1    2    0    0  0.00000000000E+00  0.00000000000E+00 -0.20788362050E+04  0.21381476385E+04  0.50011534323E+03 0.  0.
        1    1    3    3  502    0  0.18403013556E+03 -0.15302719451E+03 -0.13490291826E+04  0.13700964012E+04  0.50400001928E-02 0.  1.
       -1    1    3    3    0  502 -0.18403013556E+03  0.15302719451E+03 -0.72980702246E+03  0.76805123730E+03  0.50400001928E-02 0. -1.
</event>
<event>
 5   0  0.3055293E-03  0.4998381E+03  0.7818609E-02  0.1013821E+00
       -1   -1    0    0    0  501  0.00000000000E+00  0.00000000000E+00  0.10349847757E+04  0.10349847757E+04  0.50400001928E-02 0. -1.
        1   -1    0    0  501    0  0.00000000000E+00  0.00000000000E+00 -0.60348258175E+02  0.60348258385E+02  0.50400001928E-02 0.  1.
    10030    2    1    2    0    0  0.00000000000E+00  0.00000000000E+00  0.97463651753E+03  0.10953330341E+04  0.49983808808E+03 0.  0.
        3    1    3    3  502    0 -0.77259910698E+02 -0.14692516018E+03  0.89672109063E+03  0.91195658947E+03  0.10100000352E+00 0. -1.
       -3    1    3    3    0  502  0.77259910698E+02  0.14692516018E+03  0.77915426898E+02  0.18337644463E+03  0.10100000352E+00 0.  1.
</event>
<event>
 5   0  0.4989875E-03  0.4997690E+03  0.7818609E-02  0.1013839E+00
       -2   -1    0    0    0  501  0.00000000000E+00  0.00000000000E+00  0.41960260532E+03  0.41960260533E+03  0.25500000920E-02 0.  1.
        2   -1    0    0  501    0  0.00000000000E+00  0.00000000000E+00 -0.14881287854E+03  0.14881287857E+03  0.25500000920E-02 0. -1.
    10030    2    1    2    0    0  0.00000000000E+00  0.00000000000E+00  0.27078972677E+03  0.56841548389E+03  0.49976903286E+03 0.  0.
        2    1    3    3  502    0  0.33623192638E+02 -0.24731230983E+03  0.12154086078E+03  0.27760777821E+03  0.25500000920E-02 0. -1.
       -2    1    3    3    0  502 -0.33623192638E+02  0.24731230983E+03  0.14924886599E+03  0.29080770568E+03  0.25500000920E-02 0.  1.
</event>
<event>
 5   0  0.2863538E-03  0.5027000E+03  0.7818609E-02  0.1013077E+00
       -1   -1    0    0    0  501  0.00000000000E+00  0.00000000000E+00  0.10122903052E+04  0.10122903052E+04  0.50400001928E-02 0.  1.
        1   -1    0    0  501    0  0.00000000000E+00  0.00000000000E+00 -0.62409784881E+02  0.62409785085E+02  0.50400001928E-02 0. -1.
    10030    2    1    2    0    0  0.00000000000E+00  0.00000000000E+00  0.94988052033E+03  0.10747000903E+04  0.50269999126E+03 0.  0.
        1    1    3    3  502    0  0.15369129533E+03 -0.25943062512E+01  0.90009456042E+03  0.91312538154E+03  0.50400001928E-02 0.  1.
       -1    1    3    3    0  502 -0.15369129533E+03  0.25943062512E+01  0.49785959911E+02  0.16157470877E+03  0.50400001928E-02 0. -1.
</event>
<event>
 5   0  0.4889251E-03  0.5000294E+03  0.7818609E-02  0.1013771E+00
        2   -1    0    0  501    0  0.00000000000E+00  0.00000000000E+00  0.11174238677E+04  0.11174238677E+04  0.25500000920E-02 0. -1.
       -2   -1    0    0    0  501  0.00000000000E+00  0.00000000000E+00 -0.55938801327E+02  0.55938801385E+02  0.25500000920E-02 0.  1.
    10030    2    1    2    0    0  0.00000000000E+00  0.00000000000E+00  0.10614850664E+04  0.11733626691E+04  0.50002940621E+03 0.  0.
        5    1    3    3  502    0 -0.12694108829E+03  0.16159091893E+03  0.19673818528E+03  0.28452358166E+03  0.46999998093E+01 0. -1.
       -5    1    3    3    0  502  0.12694108829E+03 -0.16159091893E+03  0.86474688107E+03  0.88883908740E+03  0.46999998093E+01 0.  1.
</event>
<event>
 5   0  0.2863538E-03  0.4998407E+03  0.7818609E-02  0.1013821E+00
       -1   -1    0    0    0  501  0.00000000000E+00  0.00000000000E+00  0.31942421202E+03  0.31942421206E+03  0.50400001928E-02 0. -1.
        1   -1    0    0  501    0  0.00000000000E+00  0.00000000000E+00 -0.19553987222E+03  0.19553987229E+03  0.50400001928E-02 0.  1.
    10030    2    1    2    0    0  0.00000000000E+00  0.00000000000E+00  0.12388433980E+03  0.51496408435E+03  0.49984065314E+03 0.  0.
        1    1    3    3  502    0  0.33050258905E+02 -0.24018181579E+03  0.12444525471E+03  0.27251834011E+03  0.50400001928E-02 0. -1.
       -1    1    3    3    0  502 -0.33050258905E+02  0.24018181579E+03 -0.56091491166E+00  0.24244574424E+03  0.50400001928E-02 0.  1.
</event>
<event>
 5   0  0.4989875E-03  0.4992514E+03  0.7818609E-02  0.1013974E+00
       -2   -1    0    0    0  501  0.00000000000E+00  0.00000000000E+00  0.61120114045E+02  0.61120114098E+02  0.25500000920E-02 0. -1.
        2   -1    0    0  501    0  0.00000000000E+00  0.00000000000E+00 -0.10195170139E+04  0.10195170139E+04  0.25500000920E-02 0.  1.
    10030    2    1    2    0    0  0.00000000000E+00  0.00000000000E+00 -0.95839689981E+03  0.10806371280E+04  0.49925142439E+03 0.  0.
        2    1    3    3  502    0  0.86363219380E+02 -0.44505576302E+02 -0.97691283636E+03  0.98173216400E+03  0.25500000920E-02 0.  1.
       -2    1    3    3    0  502 -0.86363219380E+02  0.44505576302E+02  0.18515936544E+02  0.98904963961E+02  0.25500000920E-02 0. -1.
</event>
<event>
 5   0  0.3057783E-03  0.5001168E+03  0.7818609E-02  0.1013748E+00
        1   -1    0    0  501    0  0.00000000000E+00  0.00000000000E+00  0.17642574138E+03  0.17642574145E+03  0.50400001928E-02 0. -1.
       -1   -1    0    0    0  501  0.00000000000E+00  0.00000000000E+00 -0.35442221502E+03  0.35442221505E+03  0.50400001928E-02 0.  1.
    10030    2    1    2    0    0  0.00000000000E+00  0.00000000000E+00 -0.17799647363E+03  0.53084795651E+03  0.50011679466E+03 0.  0.
        5    1    3    3  502    0  0.91246561207E+02 -0.23139488882E+03 -0.62196253651E+02  0.25643711406E+03  0.46999998093E+01 0.  1.
       -5    1    3    3    0  502 -0.91246561207E+02  0.23139488882E+03 -0.11580021998E+03  0.27441084244E+03  0.46999998093E+01 0. -1.
</event>
<event>
 5   0  0.4889251E-03  0.5002478E+03  0.7818609E-02  0.1013714E+00
       -2   -1    0    0    0  501  0.00000000000E+00  0.00000000000E+00  0.85136658443E+02  0.85136658481E+02  0.25500000920E-02 0. -1.
        2   -1    0    0  501    0  0.00000000000E+00  0.00000000000E+00 -0.73484168452E+03  0.73484168452E+03  0.25500000920E-02 0.  1.
    10030    2    1    2    0    0  0.00000000000E+00  0.00000000000E+00 -0.64970502607E+03  0.81997834300E+03  0.50024780068E+03 0.  0.
        5    1    3    3  502    0  0.11384876679E+03  0.11960070922E+03 -0.63270635306E+03  0.65391535426E+03  0.46999998093E+01 0.  1.
       -5    1    3    3    0  502 -0.11384876679E+03 -0.11960070922E+03 -0.16998673017E+02  0.16606298874E+03  0.46999998093E+01 0. -1.
</event>
<event>
 5   0  0.2863538E-03  0.5000521E+03  0.7818609E-02  0.1013765E+00
       -1   -1    0    0    0  501  0.00000000000E+00  0.00000000000E+00  0.10128671254E+03  0.10128671267E+03  0.50400001928E-02 0. -1.
        1   -1    0    0  501    0  0.00000000000E+00  0.00000000000E+00 -0.61718879944E+03  0.61718879946E+03  0.50400001928E-02 0.  1.
    10030    2    1    2    0    0  0.00000000000E+00  0.00000000000E+00 -0.51590208690E+03  0.71847551213E+03  0.50005209555E+03 0.  0.
        1    1    3    3  502    0 -0.44349021608E+02  0.65814284872E+01  0.95463746442E+02  0.10546789952E+03  0.50400001928E-02 0. -1.
       -1    1    3    3    0  502  0.44349021608E+02 -0.65814284872E+01 -0.61136583334E+03  0.61300761261E+03  0.50400001928E-02 0.  1.
</event>
<event>
 5   0  0.3013734E-03  0.5005479E+03  0.7818609E-02  0.1013636E+00
        1   -1    0    0  501    0  0.00000000000E+00  0.00000000000E+00  0.69458164493E+03  0.69458164495E+03  0.50400001928E-02 0. -1.
       -1   -1    0    0    0  501  0.00000000000E+00  0.00000000000E+00 -0.90179523137E+02  0.90179523278E+02  0.50400001928E-02 0.  1.
    10030    2    1    2    0    0  0.00000000000E+00  0.00000000000E+00  0.60440212179E+03  0.78476116822E+03  0.50054786617E+03 0.  0.
        2    1    3    3  502    0 -0.47258576631E+02  0.11279982102E+03 -0.40140334823E+02  0.12871837155E+03  0.25500000920E-02 0.  1.
       -2    1    3    3    0  502  0.47258576631E+02 -0.11279982102E+03  0.64454245661E+03  0.65604279668E+03  0.25500000920E-02 0. -1.
</event>
<event>
 5   0  0.5118882E-03  0.5001266E+03  0.7818609E-02  0.1013746E+00
        2   -1    0    0  501    0  0.00000000000E+00  0.00000000000E+00  0.59784565265E+03  0.59784565265E+03  0.25500000920E-02 0. -1.
       -2   -1    0    0    0  501  0.00000000000E+00  0.00000000000E+00 -0.10459496539E+03  0.10459496543E+03  0.25500000920E-02 0.  1.
    10030    2    1    2    0    0  0.00000000000E+00  0.00000000000E+00  0.49325068725E+03  0.70244061808E+03  0.50012656543E+03 0.  0.
        3    1    3    3  502    0 -0.99880145068E+02  0.22093885013E+03  0.33253842903E+03  0.41154809666E+03  0.10100000352E+00 0. -1.
       -3    1    3    3    0  502  0.99880145068E+02 -0.22093885013E+03  0.16071225822E+03  0.29089252142E+03  0.10100000352E+00 0.  1.
</event>
<event>
 5   0  0.3055293E-03  0.5003307E+03  0.7818609E-02  0.1013693E+00
        1   -1    0    0  501    0  0.00000000000E+00  0.00000000000E+00  0.60651889070E+03  0.60651889072E+03  0.50400001928E-02 0. -1.
       -1   -1    0    0    0  501  0.00000000000E+00  0.00000000000E+00 -0.10318343387E+03  0.10318343400E+03  0.50400001928E-02 0.  1.
    10030    2    1    2    0    0  0.00000000000E+00  0.00000000000E+00  0.50333545682E+03  0.70970232472E+03  0.50033069825E+03 0.  0.
        3    1    3    3  502    0 -0.19059401836E+03 -0.16235381212E+02  0.48035789123E+03  0.51704292017E+03  0.10100000352E+00 0. -1.
       -3    1    3    3    0  502  0.19059401836E+03  0.16235381212E+02  0.22977565594E+02  0.19265940454E+03  0.10100000352E+00 0.  1.
</event>
<event>
 5   0  0.2005125E-03  0.5000227E+03  0.7818609E-02  0.1013773E+00
       -3   -1    0    0    0  501  0.00000000000E+00  0.00000000000E+00  0.23177716418E+03  0.23177718618E+03  0.10100000352E+00 0. -1.
        3   -1    0    0  501    0  0.00000000000E+00  0.00000000000E+00 -0.26967998712E+03  0.26968000604E+03  0.10100000352E+00 0.  1.
    10030    2    1    2    0    0  0.00000000000E+00  0.00000000000E+00 -0.37902822945E+02  0.50145719222E+03  0.50002269113E+03 0.  0.
        5    1    3    3  502    0  0.12722077742E+03  0.15898639995E+03  0.12645344386E+03  0.23973811762E+03  0.46999998093E+01 0. -1.
       -5    1    3    3    0  502 -0.12722077742E+03 -0.15898639995E+03 -0.16435626681E+03  0.26171907461E+03  0.46999998093E+01 0.  1.
</event>
<event>
 5   0  0.4978779E-03  0.4998427E+03  0.7818609E-02  0.1013820E+00
       -2   -1    0    0    0  501  0.00000000000E+00  0.00000000000E+00  0.13111746900E+03  0.13111746902E+03  0.25500000920E-02 0.  1.
        2   -1    0    0  501    0  0.00000000000E+00  0.00000000000E+00 -0.47637197502E+03  0.47637197503E+03  0.25500000920E-02 0. -1.
    10030    2    1    2    0    0  0.00000000000E+00  0.00000000000E+00 -0.34525450602E+03  0.60748944405E+03  0.49984272597E+03 0.  0.
        1    1    3    3  502    0  0.23220581695E+02  0.24435987805E+03 -0.22975882419E+03  0.33621431072E+03  0.50400001928E-02 0. -1.
       -1    1    3    3    0  502 -0.23220581695E+02 -0.24435987805E+03 -0.11549568183E+03  0.27127513333E+03  0.50400001928E-02 0.  1.
</event>
<event>
 5   0  0.2863538E-03  0.4998938E+03  0.7818609E-02  0.1013807E+00
        1   -1    0    0  501    0  0.00000000000E+00  0.00000000000E+00  0.19561856045E+03  0.19561856052E+03  0.50400001928E-02 0.  1.
       -1   -1    0    0    0  501  0.00000000000E+00  0.00000000000E+00 -0.31936365367E+03  0.31936365371E+03  0.50400001928E-02 0. -1.
    10030    2    1    2    0    0  0.00000000000E+00  0.00000000000E+00 -0.12374509321E+03  0.51498221423E+03  0.49989382160E+03 0.  0.
        1    1    3    3  502    0 -0.36941278361E+02  0.10945134779E+03  0.16646867426E+03  0.20262298763E+03  0.50400001928E-02 0.  1.
       -1    1    3    3    0  502  0.36941278361E+02 -0.10945134779E+03 -0.29021376748E+03  0.31235922660E+03  0.50400001928E-02 0. -1.
</event>
<event>
 5   0  0.4989875E-03  0.4999962E+03  0.7818609E-02  0.1013780E+00
        2   -1    0    0  501    0  0.00000000000E+00  0.00000000000E+00  0.23611495028E+04  0.23611495028E+04  0.25500000920E-02 0.  1.
       -2   -1    0    0    0  501  0.00000000000E+00  0.00000000000E+00 -0.26469760396E+02  0.26469760519E+02  0.25500000920E-02 0. -1.
    10030    2    1    2    0    0  0.00000000000E+00  0.00000000000E+00  0.23346797424E+04  0.23876192633E+04  0.49999624697E+03 0.  0.
        2    1    3    3  502    0  0.24794714419E+03 -0.80953236502E+01  0.13149677825E+04  0.13381642610E+04  0.25500000920E-02 0.  1.
       -2    1    3    3    0  502 -0.24794714419E+03  0.80953236502E+01  0.10197119600E+04  0.10494550023E+04  0.25500000920E-02 0. -1.
</event>
<event>
 5   0  0.3055293E-03  0.5000898E+03  0.7818609E-02  0.1013755E+00
        1   -1    0    0  501    0  0.00000000000E+00  0.00000000000E+00  0.34585274270E+03  0.34585274274E+03  0.50400001928E-02 0.  1.
       -1   -1    0    0    0  501  0.00000000000E+00  0.00000000000E+00 -0.18077765642E+03  0.18077765649E+03  0.50400001928E-02 0. -1.
    10030    2    1    2    0    0  0.00000000000E+00  0.00000000000E+00  0.16507508628E+03  0.52663039923E+03  0.50008978522E+03 0.  0.
        3    1    3    3  502    0 -0.21856938763E+03  0.11988530337E+03  0.10299466220E+03  0.26972759187E+03  0.10100000352E+00 0.  1.
       -3    1    3    3    0  502  0.21856938763E+03 -0.11988530337E+03  0.62080424079E+02  0.25690280736E+03  0.10100000352E+00 0. -1.
</event>
<event>
 5   0  0.5095783E-03  0.4964709E+03  0.7818609E-02  0.1014704E+00
        2   -1    0    0  501    0  0.00000000000E+00  0.00000000000E+00  0.86739339563E+03  0.86739339563E+03  0.25500000920E-02 0.  1.
       -2   -1    0    0    0  501  0.00000000000E+00  0.00000000000E+00 -0.71041399782E+02  0.71041399828E+02  0.25500000920E-02 0. -1.
    10030    2    1    2    0    0  0.00000000000E+00  0.00000000000E+00  0.79635199584E+03  0.93843479546E+03  0.49647090956E+03 0.  0.
        4    1    3    3  502    0  0.22230763804E+03 -0.10460522250E+03  0.33117902532E+03  0.41236403604E+03  0.12699999809E+01 0. -1.
       -4    1    3    3    0  502 -0.22230763804E+03  0.10460522250E+03  0.46517297052E+03  0.52607075941E+03  0.12699999809E+01 0.  1.
</event>
<event>
 5   0  0.4978779E-03  0.5009459E+03  0.7818609E-02  0.1013532E+00
        2   -1    0    0  501    0  0.00000000000E+00  0.00000000000E+00  0.18245178003E+04  0.18245178003E+04  0.25500000920E-02 0.  1.
       -2   -1    0    0    0  501  0.00000000000E+00  0.00000000000E+00 -0.34385352078E+02  0.34385352172E+02  0.25500000920E-02 0. -1.
    10030    2    1    2    0    0  0.00000000000E+00  0.00000000000E+00  0.17901324482E+04  0.18589031524E+04  0.50094585346E+03 0.  0.
        1    1    3    3  502    0  0.21342756073E+03  0.11531014545E+03  0.11264757572E+04  0.11523000412E+04  0.50400001928E-02 0.  1.
       -1    1    3    3    0  502 -0.21342756073E+03 -0.11531014545E+03  0.66365669095E+03  0.70660311122E+03  0.50400001928E-02 0. -1.
</event>
<event>
 5   0  0.3055293E-03  0.5000658E+03  0.7818609E-02  0.1013762E+00
        1   -1    0    0  501    0  0.00000000000E+00  0.00000000000E+00  0.86834256825E+03  0.86834256827E+03  0.50400001928E-02 0. -1.
       -1   -1    0    0    0  501  0.00000000000E+00  0.00000000000E+00 -0.71995157683E+02  0.71995157859E+02  0.50400001928E-02 0.  1.
    10030    2    1    2    0    0  0.00000000000E+00  0.00000000000E+00  0.79634741057E+03  0.94033772613E+03  0.50006583652E+03 0.  0.
        3    1    3    3  502    0 -0.11600046887E+03 -0.21516690846E+02 -0.16363077634E+02  0.11910851050E+03  0.10100000352E+00 0.  1.
       -3    1    3    3    0  502  0.11600046887E+03  0.21516690846E+02  0.81271048821E+03  0.82122921563E+03  0.10100000352E+00 0. -1.
</event>
<event>
 5   0  0.3057783E-03  0.4998889E+03  0.7818609E-02  0.1013808E+00
       -1   -1    0    0    0  501  0.00000000000E+00  0.00000000000E+00  0.27845703177E+03  0.27845703182E+03  0.50400001928E-02 0. -1.
        1   -1    0    0  501    0  0.00000000000E+00  0.00000000000E+00 -0.22435138781E+03  0.22435138786E+03  0.50400001928E-02 0.  1.
    10030    2    1    2    0    0  0.00000000000E+00  0.00000000000E+00  0.54105643967E+02  0.50280841968E+03  0.49988887384E+03 0.  0.
        5    1    3    3  502    0 -0.82406720334E+02 -0.23208811797E+03 -0.15554575637E+02  0.24681936083E+03  0.46999998093E+01 0.  1.
       -5    1    3    3    0  502  0.82406720334E+02  0.23208811797E+03  0.69660219604E+02  0.25598905885E+03  0.46999998093E+01 0. -1.
</event>
<event>
 5   0  0.3055293E-03  0.4999468E+03  0.7818609E-02  0.1013793E+00
        1   -1    0    0  501    0  0.00000000000E+00  0.00000000000E+00  0.29776024379E+03  0.29776024384E+03  0.50400001928E-02 0.  1.
       -1   -1    0    0    0  501  0.00000000000E+00  0.00000000000E+00 -0.20985575439E+03  0.20985575445E+03  0.50400001928E-02 0. -1.
    10030    2    1    2    0    0  0.00000000000E+00  0.00000000000E+00  0.87904489407E+02  0.50761599828E+03  0.49994679962E+03 0.  0.
        3    1    3    3  502    0 -0.83986652701E+02  0.12616007687E+03  0.24578939964E+03  0.28876038856E+03  0.10100000352E+00 0.  1.
       -3    1    3    3    0  502  0.83986652701E+02 -0.12616007687E+03 -0.15788491023E+03  0.21885560972E+03  0.10100000352E+00 0. -1.
</event>
<event>
 5   0  0.3057783E-03  0.5009012E+03  0.7818609E-02  0.1013544E+00
       -1   -1    0    0    0  501  0.00000000000E+00  0.00000000000E+00  0.21739923263E+03  0.21739923268E+03  0.50400001928E-02 0. -1.
        1   -1    0    0  501    0  0.00000000000E+00  0.00000000000E+00 -0.28852680729E+03  0.28852680734E+03  0.50400001928E-02 0.  1.
    10030    2    1    2    0    0  0.00000000000E+00  0.00000000000E+00 -0.71127574665E+02  0.50592604002E+03  0.50090121391E+03 0.  0.
        5    1    3    3  502    0  0.10183946724E+03 -0.94216836106E+02  0.17498680196E+03  0.22336194875E+03  0.46999998093E+01 0. -1.
       -5    1    3    3    0  502 -0.10183946724E+03  0.94216836106E+02 -0.24611437662E+03  0.28256409127E+03  0.46999998093E+01 0.  1.
</event>
<event>
 5   0  0.4989875E-03  0.5001721E+03  0.7818609E-02  0.1013734E+00
       -2   -1    0    0    0  501  0.00000000000E+00  0.00000000000E+00  0.17750559527E+03  0.17750559528E+03  0.25500000920E-02 0. -1.
        2   -1    0    0  501    0  0.00000000000E+00  0.00000000000E+00 -0.35234399827E+03  0.35234399828E+03  0.25500000920E-02 0.  1.
    10030    2    1    2    0    0  0.00000000000E+00  0.00000000000E+00 -0.17483840300E+03  0.52984959356E+03  0.50017209502E+03 0.  0.
        2    1    3    3  502    0 -0.22146421742E+03 -0.58009969678E+02 -0.19404676490E+03  0.30010948528E+03  0.25500000920E-02 0.  1.
       -2    1    3    3    0  502  0.22146421742E+03  0.58009969678E+02  0.19208361898E+02  0.22974010828E+03  0.25500000920E-02 0. -1.
</event>
<event>
 5   0  0.2863538E-03  0.5004654E+03  0.7818609E-02  0.1013658E+00
       -1   -1    0    0    0  501  0.00000000000E+00  0.00000000000E+00  0.57965025692E+02  0.57965025911E+02  0.50400001928E-02 0. -1.
        1   -1    0    0  501    0  0.00000000000E+00  0.00000000000E+00 -0.10802444789E+04  0.10802444789E+04  0.50400001928E-02 0.  1.
    10030    2    1    2    0    0  0.00000000000E+00  0.00000000000E+00 -0.10222794532E+04  0.11382095048E+04  0.50046537983E+03 0.  0.
        1    1    3    3  502    0  0.19270647431E+03 -0.79115633849E+02 -0.19582816975E+03  0.28590862326E+03  0.50400001928E-02 0. -1.
       -1    1    3    3    0  502 -0.19270647431E+03  0.79115633849E+02 -0.82645128341E+03  0.85230088152E+03  0.50400001928E-02 0.  1.
</event>
<event>
 5   0  0.4978779E-03  0.4998486E+03  0.7818609E-02  0.1013818E+00
       -2   -1    0    0    0  501  0.00000000000E+00  0.00000000000E+00  0.10195898549E+03  0.10195898552E+03  0.25500000920E-02 0. -1.
        2   -1    0    0  501    0  0.00000000000E+00  0.00000000000E+00 -0.61262034283E+03  0.61262034284E+03  0.25500000920E-02 0.  1.
    10030    2    1    2    0    0  0.00000000000E+00  0.00000000000E+00 -0.51066135734E+03  0.71457932836E+03  0.49984857171E+03 0.  0.
        1    1    3    3  502    0  0.44518341388E+02 -0.32390233192E+02 -0.60384370786E+03  0.60634827737E+03  0.50400001928E-02 0.  1.
       -1    1    3    3    0  502 -0.44518341388E+02  0.32390233192E+02  0.93182350513E+02  0.10823105099E+03  0.50400001928E-02 0. -1.
</event>
<event>
 5   0  0.5095783E-03  0.4982472E+03  0.7818609E-02  0.1014237E+00
        2   -1    0    0  501    0  0.00000000000E+00  0.00000000000E+00  0.16198885291E+04  0.16198885291E+04  0.25500000920E-02 0.  1.
       -2   -1    0    0    0  501  0.00000000000E+00  0.00000000000E+00 -0.38312858183E+02  0.38312858267E+02  0.25500000920E-02 0. -1.
    10030    2    1    2    0    0  0.00000000000E+00  0.00000000000E+00  0.15815756709E+04  0.16582013874E+04  0.49824716581E+03 0.  0.
        4    1    3    3  502    0  0.17770944686E+03 -0.28895455035E+02  0.21776656701E+03  0.28255881765E+03  0.12699999809E+01 0. -1.
       -4    1    3    3    0  502 -0.17770944686E+03  0.28895455035E+02  0.13638091039E+04  0.13756425697E+04  0.12699999809E+01 0.  1.
</event>
<event>
 5   0  0.3055293E-03  0.5002252E+03  0.7818609E-02  0.1013720E+00
       -1   -1    0    0    0  501  0.00000000000E+00  0.00000000000E+00  0.26553947169E+03  0.26553947174E+03  0.50400001928E-02 0.  1.
        1   -1    0    0  501    0  0.00000000000E+00  0.00000000000E+00 -0.23558193899E+03  0.23558193904E+03  0.50400001928E-02 0. -1.
    10030    2    1    2    0    0  0.00000000000E+00  0.00000000000E+00  0.29957532699E+02  0.50112141078E+03  0.50022516388E+03 0.  0.
        3    1    3    3  502    0 -0.22375008550E+03 -0.46138691787E+02  0.11696201525E+03  0.25665736470E+03  0.10100000352E+00 0. -1.
       -3    1    3    3    0  502  0.22375008550E+03  0.46138691787E+02 -0.87004482554E+02  0.24446404608E+03  0.10100000352E+00 0.  1.
</event>
<event>
 5   0  0.5118882E-03  0.4999902E+03  0.7818609E-02  0.1013781E+00
       -2   -1    0    0    0  501  0.00000000000E+00  0.00000000000E+00  0.57152300064E+02  0.57152300121E+02  0.25500000920E-02 0.  1.
        2   -1    0    0  501    0  0.00000000000E+00  0.00000000000E+00 -0.10935262112E+04  0.10935262112E+04  0.25500000920E-02 0. -1.
    10030    2    1    2    0    0  0.00000000000E+00  0.00000000000E+00 -0.10363739111E+04  0.11506785113E+04  0.49999015264E+03 0.  0.
        3    1    3    3  502    0 -0.34079101057E+02 -0.23184917417E+03 -0.31779171618E+03  0.39485061703E+03  0.10100000352E+00 0.  1.
       -3    1    3    3    0  502  0.34079101057E+02  0.23184917417E+03 -0.71858219493E+03  0.75582789427E+03  0.10100000352E+00 0. -1.
</event>
<event>
 5   0  0.5118882E-03  0.5003323E+03  0.7818609E-02  0.1013692E+00
        2   -1    0    0  501    0  0.00000000000E+00  0.00000000000E+00  0.71858299006E+03  0.71858299006E+03  0.25500000920E-02 0.  1.
       -2   -1    0    0    0  501  0.00000000000E+00  0.00000000000E+00 -0.87092390339E+02  0.87092390376E+02  0.25500000920E-02 0. -1.
    10030    2    1    2    0    0  0.00000000000E+00  0.00000000000E+00  0.63149059972E+03  0.80567538044E+03  0.50033233067E+03 0.  0.
        3    1    3    3  502    0  0.24345279775E+03 -0.37714797653E+02  0.38577730986E+03  0.45772897406E+03  0.10100000352E+00 0. -1.
       -3    1    3    3    0  502 -0.24345279775E+03  0.37714797653E+02  0.24571328986E+03  0.34794640637E+03  0.10100000352E+00 0.  1.
</event>
<event>
 5   0  0.3013734E-03  0.4999118E+03  0.7818609E-02  0.1013802E+00
        1   -1    0    0  501    0  0.00000000000E+00  0.00000000000E+00  0.10152841308E+04  0.10152841308E+04  0.50400001928E-02 0.  1.
       -1   -1    0    0    0  501  0.00000000000E+00  0.00000000000E+00 -0.61537410330E+02  0.61537410537E+02  0.50400001928E-02 0. -1.
    10030    2    1    2    0    0  0.00000000000E+00  0.00000000000E+00  0.95374672049E+03  0.10768215414E+04  0.49991181734E+03 0.  0.
        2    1    3    3  502    0  0.10197981925E+03  0.14293036347E+03  0.93669197913E+02  0.19900475115E+03  0.25500000920E-02 0. -1.
       -2    1    3    3    0  502 -0.10197981925E+03 -0.14293036347E+03  0.86007752258E+03  0.87781679022E+03  0.25500000920E-02 0.  1.
</event>
<event>
 5   0  0.3055293E-03  0.4999460E+03  0.7818609E-02  0.1013793E+00
        1   -1    0    0  501    0  0.00000000000E+00  0.00000000000E+00  0.80077900862E+03  0.80077900864E+03  0.50400001928E-02 0. -1.
       -1   -1    0    0    0  501  0.00000000000E+00  0.00000000000E+00 -0.78032148755E+02  0.78032148918E+02  0.50400001928E-02 0.  1.
    10030    2    1    2    0    0  0.00000000000E+00  0.00000000000E+00  0.72274685987E+03  0.87881115755E+03  0.49994602428E+03 0.  0.
        3    1    3    3  502    0  0.10084037367E+02  0.10395583112E+03 -0.37839562111E+02  0.11108710679E+03  0.10100000352E+00 0.  1.
       -3    1    3    3    0  502 -0.10084037367E+02 -0.10395583112E+03  0.76058642198E+03  0.76772405077E+03  0.10100000352E+00 0. -1.
</event>
<event>
 5   0  0.2863538E-03  0.5000736E+03  0.7818609E-02  0.1013760E+00
        1   -1    0    0  501    0  0.00000000000E+00  0.00000000000E+00  0.37763491592E+03  0.37763491595E+03  0.50400001928E-02 0.  1.
       -1   -1    0    0    0  501  0.00000000000E+00  0.00000000000E+00 -0.16555248166E+03  0.16555248174E+03  0.50400001928E-02 0. -1.
    10030    2    1    2    0    0  0.00000000000E+00  0.00000000000E+00  0.21208243426E+03  0.54318739769E+03  0.50007358468E+03 0.  0.
        1    1    3    3  502    0  0.34246642542E+02  0.58719078016E+02  0.36740546649E+03  0.37364092319E+03  0.50400001928E-02 0.  1.
       -1    1    3    3    0  502 -0.34246642542E+02 -0.58719078016E+02 -0.15532303224E+03  0.16954647450E+03  0.50400001928E-02 0. -1.
</event>
<event>
 5   0  0.4889251E-03  0.5003646E+03  0.7818609E-02  0.1013684E+00
        2   -1    0    0  501    0  0.00000000000E+00  0.00000000000E+00  0.72064181436E+03  0.72064181437E+03  0.25500000920E-02 0. -1.
       -2   -1    0    0    0  501  0.00000000000E+00  0.00000000000E+00 -0.86854764817E+02  0.86854764854E+02  0.25500000920E-02 0.  1.
    10030    2    1    2    0    0  0.00000000000E+00  0.00000000000E+00  0.63378704955E+03  0.80749657922E+03  0.50036456837E+03 0.  0.
        5    1    3    3  502    0 -0.20023489252E+03  0.80591189880E+02  0.52090018232E+03  0.56386881631E+03  0.46999998093E+01 0. -1.
       -5    1    3    3    0  502  0.20023489252E+03 -0.80591189880E+02  0.11288686723E+03  0.24362776291E+03  0.46999998093E+01 0.  1.
</event>
<event>
 5   0  0.5118882E-03  0.5001375E+03  0.7818609E-02  0.1013743E+00
        2   -1    0    0  501    0  0.00000000000E+00  0.00000000000E+00  0.40771630415E+03  0.40771630416E+03  0.25500000920E-02 0.  1.
       -2   -1    0    0    0  501  0.00000000000E+00  0.00000000000E+00 -0.15337718354E+03  0.15337718356E+03  0.25500000920E-02 0. -1.
    10030    2    1    2    0    0  0.00000000000E+00  0.00000000000E+00  0.25433912061E+03  0.56109348772E+03  0.50013749479E+03 0.  0.
        3    1    3    3  502    0  0.12321717741E+03  0.19415487344E+03  0.23740963702E+03  0.33051767523E+03  0.10100000352E+00 0.  1.
       -3    1    3    3    0  502 -0.12321717741E+03 -0.19415487344E+03  0.16929483590E+02  0.23057581249E+03  0.10100000352E+00 0. -1.
</event>
<event>
 5   0  0.5095783E-03  0.5000687E+03  0.7818609E-02  0.1013761E+00
        2   -1    0    0  501    0  0.00000000000E+00  0.00000000000E+00  0.28376976272E+04  0.28376976272E+04  0.25500000920E-02 0. -1.
       -2   -1    0    0    0  501  0.00000000000E+00  0.00000000000E+00 -0.22030949899E+02  0.22030950046E+02  0.25500000920E-02 0.  1.
    10030    2    1    2    0    0  0.00000000000E+00  0.00000000000E+00  0.28156666773E+04  0.28597285773E+04  0.50006869315E+03 0.  0.
        4    1    3    3  502    0 -0.13520597996E+03  0.80094909996E+02  0.25199599833E+04  0.25248555962E+04  0.12699999809E+01 0. -1.
       -4    1    3    3    0  502  0.13520597996E+03 -0.80094909996E+02  0.29570669406E+03  0.33487298105E+03  0.12699999809E+01 0.  1.
</event>
<event>
 5   0  0.5118882E-03  0.4998136E+03  0.7818609E-02  0.1013828E+00
       -2   -1    0    0    0  501  0.00000000000E+00  0.00000000000E+00  0.50689254961E+02  0.50689255025E+02  0.25500000920E-02 0. -1.
        2   -1    0    0  501    0  0.00000000000E+00  0.00000000000E+00 -0.12320839548E+04  0.12320839548E+04  0.25500000920E-02 0.  1.
    10030    2    1    2    0    0  0.00000000000E+00  0.00000000000E+00 -0.11813946998E+04  0.12827732098E+04  0.49981363631E+03 0.  0.
        3    1    3    3  502    0  0.14818749560E+03 -0.99580893547E+02 -0.10394870751E+04  0.10547081481E+04  0.10100000352E+00 0.  1.
       -3    1    3    3    0  502 -0.14818749560E+03  0.99580893547E+02 -0.14190762475E+03  0.22806506172E+03  0.10100000352E+00 0. -1.
</event>
<event>
 5   0  0.3057783E-03  0.4999237E+03  0.7818609E-02  0.1013799E+00
       -1   -1    0    0    0  501  0.00000000000E+00  0.00000000000E+00  0.14273421268E+03  0.14273421277E+03  0.50400001928E-02 0. -1.
        1   -1    0    0  501    0  0.00000000000E+00  0.00000000000E+00 -0.43774314043E+03  0.43774314046E+03  0.50400001928E-02 0.  1.
    10030    2    1    2    0    0  0.00000000000E+00  0.00000000000E+00 -0.29500892775E+03  0.58047735323E+03  0.49992368433E+03 0.  0.
        5    1    3    3  502    0  0.47811403320E+02 -0.16454510283E+02  0.13668160108E+03  0.14581025776E+03  0.46999998093E+01 0. -1.
       -5    1    3    3    0  502 -0.47811403320E+02  0.16454510283E+02 -0.43169052883E+03  0.43466709547E+03  0.46999998093E+01 0.  1.
</event>
<event>
 5   0  0.3211775E-03  0.5000181E+03  0.7818609E-02  0.1013774E+00
       -1   -1    0    0    0  501  0.00000000000E+00  0.00000000000E+00  0.66706197617E+03  0.66706197618E+03  0.50400001928E-02 0.  1.
        1   -1    0    0  501    0  0.00000000000E+00  0.00000000000E+00 -0.93701209138E+02  0.93701209274E+02  0.50400001928E-02 0. -1.
    10030    2    1    2    0    0  0.00000000000E+00  0.00000000000E+00  0.57336076703E+03  0.76076318546E+03  0.50001805486E+03 0.  0.
        4    1    3    3  502    0 -0.24517261496E+03 -0.43119270150E+01  0.36082300008E+03  0.43626030547E+03  0.12699999809E+01 0.  1.
       -4    1    3    3    0  502  0.24517261496E+03  0.43119270150E+01  0.21253776695E+03  0.32450287999E+03  0.12699999809E+01 0. -1.
</event>
<event>
 5   0  0.3057783E-03  0.5001975E+03  0.7818609E-02  0.1013727E+00
        1   -1    0    0  501    0  0.00000000000E+00  0.00000000000E+00  0.94160401020E+03  0.94160401021E+03  0.50400001928E-02 0. -1.
       -1   -1    0    0    0  501  0.00000000000E+00  0.00000000000E+00 -0.66428542846E+02  0.66428543037E+02  0.50400001928E-02 0.  1.
    10030    2    1    2    0    0  0.00000000000E+00  0.00000000000E+00  0.87517546735E+03  0.10080325532E+04  0.50019749075E+03 0.  0.
        5    1    3    3  502    0  0.23717361946E+03  0.23910405355E+02  0.28538141786E+03  0.37187051094E+03  0.46999998093E+01 0.  1.
       -5    1    3    3    0  502 -0.23717361946E+03 -0.23910405355E+02  0.58979404949E+03  0.63616204230E+03  0.46999998093E+01 0. -1.
</event>
<event>
 5   0  0.3211775E-03  0.5005481E+03  0.7818609E-02  0.1013636E+00
        1   -1    0    0  501    0  0.00000000000E+00  0.00000000000E+00  0.11607437176E+04  0.11607437177E+04  0.50400001928E-02 0.  1.
       -1   -1    0    0    0  501  0.00000000000E+00  0.00000000000E+00 -0.53962907672E+02  0.53962907908E+02  0.50400001928E-02 0. -1.
    10030    2    1    2    0    0  0.00000000000E+00  0.00000000000E+00  0.11067808100E+04  0.12147066256E+04  0.50054812442E+03 0.  0.
        4    1    3    3  502    0  0.25177344318E+01  0.11956269968E+03  0.10869114434E+04  0.10934713882E+04  0.12699999809E+01 0.  1.
       -4    1    3    3    0  502 -0.25177344318E+01 -0.11956269968E+03  0.19869366540E+02  0.12123523732E+03  0.12699999809E+01 0. -1.
</event>
<event>
 5   0  0.5118882E-03  0.5001602E+03  0.7818609E-02  0.1013737E+00
       -2   -1    0    0    0  501  0.00000000000E+00  0.00000000000E+00  0.19665302036E+03  0.19665302037E+03  0.25500000920E-02 0. -1.
        2   -1    0    0  501    0  0.00000000000E+00  0.00000000000E+00 -0.31802240898E+03  0.31802240899E+03  0.25500000920E-02 0.  1.
    10030    2    1    2    0    0  0.00000000000E+00  0.00000000000E+00 -0.12136938862E+03  0.51467542936E+03  0.50016024341E+03 0.  0.
        3    1    3    3  502    0 -0.54617060991E+02 -0.24321234811E+03 -0.39981479559E+02  0.25245553773E+03  0.10100000352E+00 0. -1.
       -3    1    3    3    0  502  0.54617060991E+02  0.24321234811E+03 -0.81387909061E+02  0.26221989163E+03  0.10100000352E+00 0.  1.
</event>
<event>
 5   0  0.3055293E-03  0.4999437E+03  0.7818609E-02  0.1013794E+00
       -1   -1    0    0    0  501  0.00000000000E+00  0.00000000000E+00  0.50811146296E+03  0.50811146299E+03  0.50400001928E-02 0. -1.
        1   -1    0    0  501    0  0.00000000000E+00  0.00000000000E+00 -0.12297682035E+03  0.12297682045E+03  0.50400001928E-02 0.  1.
    10030    2    1    2    0    0  0.00000000000E+00  0.00000000000E+00  0.38513464261E+03  0.63108828344E+03  0.49994372539E+03 0.  0.
        3    1    3    3  502    0 -0.10121831286E+03  0.33578660013E+02 -0.92820698212E+02  0.14138021603E+03  0.10100000352E+00 0.  1.
       -3    1    3    3    0  502  0.10121831286E+03 -0.33578660013E+02  0.47795534082E+03  0.48970806741E+03  0.10100000352E+00 0. -1.
</event>
<event>
 5   0  0.2005125E-03  0.4999886E+03  0.7818609E-02  0.1013782E+00
       -4   -1    0    0    0  501  0.00000000000E+00  0.00000000000E+00  0.89745471385E+02  0.89754456904E+02  0.12699999809E+01 0. -1.
        4   -1    0    0  501    0  0.00000000000E+00  0.00000000000E+00 -0.69633771460E+03  0.69633887273E+03  0.12699999809E+01 0.  1.
    10030    2    1    2    0    0  0.00000000000E+00  0.00000000000E+00 -0.60659224321E+03  0.78609332963E+03  0.49998857323E+03 0.  0.
        2    1    3    3  502    0 -0.12948043929E+03  0.21357791754E+03 -0.32026100203E+03  0.40613768656E+03  0.25500000920E-02 0.  1.
       -2    1    3    3    0  502  0.12948043929E+03 -0.21357791754E+03 -0.28633124118E+03  0.37995564307E+03  0.25500000920E-02 0. -1.
</event>
<event>
 5   0  0.5118882E-03  0.4999111E+03  0.7818609E-02  0.1013802E+00
       -2   -1    0    0    0  501  0.00000000000E+00  0.00000000000E+00  0.16714228217E+03  0.16714228219E+03  0.25500000920E-02 0.  1.
        2   -1    0    0  501    0  0.00000000000E+00  0.00000000000E+00 -0.37379989372E+03  0.37379989373E+03  0.25500000920E-02 0. -1.
    10030    2    1    2    0    0  0.00000000000E+00  0.00000000000E+00 -0.20665761156E+03  0.54094217592E+03  0.49991106136E+03 0.  0.
        3    1    3    3  502    0 -0.61948418760E+02  0.77694986751E+02  0.14485074490E+03  0.17565837883E+03  0.10100000352E+00 0.  1.
       -3    1    3    3    0  502  0.61948418760E+02 -0.77694986751E+02 -0.35150835646E+03  0.36528379709E+03  0.10100000352E+00 0. -1.
</event>
<event>
 5   0  0.3055293E-03  0.5003567E+03  0.7818609E-02  0.1013686E+00
       -1   -1    0    0    0  501  0.00000000000E+00  0.00000000000E+00  0.10650102537E+04  0.10650102537E+04  0.50400001928E-02 0.  1.
        1   -1    0    0  501    0  0.00000000000E+00  0.00000000000E+00 -0.58768647176E+02  0.58768647392E+02  0.50400001928E-02 0. -1.
    10030    2    1    2    0    0  0.00000000000E+00  0.00000000000E+00  0.10062416065E+04  0.11237789011E+04  0.50035672061E+03 0.  0.
        3    1    3    3  502    0 -0.18823886623E+03  0.81784131554E+02  0.82443129639E+03  0.84959371914E+03  0.10100000352E+00 0.  1.
       -3    1    3    3    0  502  0.18823886623E+03 -0.81784131554E+02  0.18181031013E+03  0.27418518196E+03  0.10100000352E+00 0. -1.
</event>
<event>
 5   0  0.5095783E-03  0.5000885E+03  0.7818609E-02  0.1013756E+00
        2   -1    0    0  501    0  0.00000000000E+00  0.00000000000E+00  0.28294511973E+03  0.28294511974E+03  0.25500000920E-02 0.  1.
       -2   -1    0    0    0  501  0.00000000000E+00  0.00000000000E+00 -0.22096909852E+03  0.22096909854E+03  0.25500000920E-02 0. -1.
    10030    2    1    2    0    0  0.00000000000E+00  0.00000000000E+00  0.61976021208E+02  0.50391421828E+03  0.50008850435E+03 0.  0.
        4    1    3    3  502    0  0.87595378909E+02 -0.10607325141E+03 -0.17940592268E+03  0.22608092149E+03  0.12699999809E+01 0. -1.
       -4    1    3    3    0  502 -0.87595378909E+02  0.10607325141E+03  0.24138194389E+03  0.27783329679E+03  0.12699999809E+01 0.  1.
</event>
<event>
 5   0  0.2005125E-03  0.4999834E+03  0.7818609E-02  0.1013783E+00
       -4   -1    0    0    0  501  0.00000000000E+00  0.00000000000E+00  0.75267200814E+02  0.75277914546E+02  0.12699999809E+01 0.  1.
        4   -1    0    0  501    0  0.00000000000E+00  0.00000000000E+00 -0.83024964066E+03  0.83025061199E+03  0.12699999809E+01 0. -1.
    10030    2    1    2    0    0  0.00000000000E+00  0.00000000000E+00 -0.75498243984E+03  0.90552852653E+03  0.49998342762E+03 0.  0.
        2    1    3    3  502    0  0.20745170396E+03  0.10628935733E+03 -0.54111660257E+03  0.58918657023E+03  0.25500000920E-02 0. -1.
       -2    1    3    3    0  502 -0.20745170396E+03 -0.10628935733E+03 -0.21386583727E+03  0.31634195630E+03  0.25500000920E-02 0.  1.
</event>
<event>
 5   0  0.3013734E-03  0.5000494E+03  0.7818609E-02  0.1013766E+00
       -1   -1    0    0    0  501  0.00000000000E+00  0.00000000000E+00  0.58040113498E+02  0.58040113717E+02  0.50400001928E-02 0. -1.
        1   -1    0    0  501    0  0.00000000000E+00  0.00000000000E+00 -0.10770542394E+04  0.10770542394E+04  0.50400001928E-02 0.  1.
    10030    2    1    2    0    0  0.00000000000E+00  0.00000000000E+00 -0.10190141259E+04  0.11350943531E+04  0.50004939926E+03 0.  0.
        2    1    3    3  502    0 -0.49763528053E+02 -0.24473158059E+03 -0.48241970382E+03  0.54322990151E+03  0.25500000920E-02 0. -1.
       -2    1    3    3    0  502  0.49763528053E+02  0.24473158059E+03 -0.53659442204E+03  0.59186445157E+03  0.25500000920E-02 0.  1.
</event>
<event>
 5   0  0.3211775E-03  0.4997650E+03  0.7818609E-02  0.1013840E+00
        1   -1    0    0  501    0  0.00000000000E+00  0.00000000000E+00  0.87360696621E+03  0.87360696622E+03  0.50400001928E-02 0. -1.
       -1   -1    0    0    0  501  0.00000000000E+00  0.00000000000E+00 -0.71475243643E+02  0.71475243821E+02  0.50400001928E-02 0.  1.
    10030    2    1    2    0    0  0.00000000000E+00  0.00000000000E+00  0.80213172257E+03  0.94508221004E+03  0.49976502818E+03 0.  0.
        4    1    3    3  502    0 -0.16112372899E+03 -0.10976435409E+03  0.10548882520E+03  0.22167222337E+03  0.12699999809E+01 0.  1.
       -4    1    3    3    0  502  0.16112372899E+03  0.10976435409E+03  0.69664289737E+03  0.72340998668E+03  0.12699999809E+01 0. -1.
</event>
<event>
 5   0  0.3055293E-03  0.5000498E+03  0.7818609E-02  0.1013766E+00
       -1   -1    0    0    0  501  0.00000000000E+00  0.00000000000E+00  0.59768116763E+02  0.59768116976E+02  0.50400001928E-02 0. -1.
        1   -1    0    0  501    0  0.00000000000E+00  0.00000000000E+00 -0.10459165263E+04  0.10459165264E+04  0.50400001928E-02 0.  1.
    10030    2    1    2    0    0  0.00000000000E+00  0.00000000000E+00 -0.98614840958E+03  0.11056846433E+04  0.50004984230E+03 0.  0.
        3    1    3    3  502    0  0.76168327210E+02  0.42365036974E+02  0.25090218890E+02  0.90696966392E+02  0.10100000352E+00 0. -1.
       -3    1    3    3    0  502 -0.76168327210E+02 -0.42365036974E+02 -0.10112386285E+04  0.10149876769E+04  0.10100000352E+00 0.  1.
</event>
<event>
 5   0  0.3057783E-03  0.4999380E+03  0.7818609E-02  0.1013795E+00
        1   -1    0    0  501    0  0.00000000000E+00  0.00000000000E+00  0.16417907339E+03  0.16417907347E+03  0.50400001928E-02 0.  1.
       -1   -1    0    0    0  501  0.00000000000E+00  0.00000000000E+00 -0.38058751624E+03  0.38058751627E+03  0.50400001928E-02 0. -1.
    10030    2    1    2    0    0  0.00000000000E+00  0.00000000000E+00 -0.21640844285E+03  0.54476658974E+03  0.49993801932E+03 0.  0.
        5    1    3    3  502    0  0.18228402583E+03 -0.15497465528E+03 -0.18691573447E+03  0.30365143116E+03  0.46999998093E+01 0.  1.
       -5    1    3    3    0  502 -0.18228402583E+03  0.15497465528E+03 -0.29492708378E+02  0.24111515858E+03  0.46999998093E+01 0. -1.
</event>
<event>
 5   0  0.5118882E-03  0.4999520E+03  0.7818609E-02  0.1013791E+00
        2   -1    0    0  501    0  0.00000000000E+00  0.00000000000E+00  0.57745344419E+03  0.57745344419E+03  0.25500000920E-02 0.  1.
       -2   -1    0    0    0  501  0.00000000000E+00  0.00000000000E+00 -0.10821305441E+03  0.10821305444E+03  0.25500000920E-02 0. -1.
    10030    2    1    2    0    0  0.00000000000E+00  0.00000000000E+00  0.46924038978E+03  0.68566649864E+03  0.49995200165E+03 0.  0.
        3    1    3    3  502    0 -0.60485111525E+02  0.12234736735E+03  0.52184518224E+03  0.53939756344E+03  0.10100000352E+00 0.  1.
       -3    1    3    3    0  502  0.60485111525E+02 -0.12234736735E+03 -0.52604792464E+02  0.14626893520E+03  0.10100000352E+00 0. -1.
</event>
<event>
 5   0  0.2863538E-03  0.4992486E+03  0.7818609E-02  0.1013975E+00
       -1   -1    0    0    0  501  0.00000000000E+00  0.00000000000E+00  0.14850996177E+04  0.14850996177E+04  0.50400001928E-02 0.  1.
        1   -1    0    0  501    0  0.00000000000E+00  0.00000000000E+00 -0.41958319478E+02  0.41958319781E+02  0.50400001928E-02 0. -1.
    10030    2    1    2    0    0  0.00000000000E+00  0.00000000000E+00  0.14431412982E+04  0.15270579375E+04  0.49924857318E+03 0.  0.
        1    1    3    3  502    0  0.70732867958E+02 -0.18674416310E+03  0.26341915437E+03  0.33055434043E+03  0.50400001928E-02 0.  1.
       -1    1    3    3    0  502 -0.70732867958E+02  0.18674416310E+03  0.11797221439E+04  0.11965035971E+04  0.50400001928E-02 0. -1.
</event>
<event>
 5   0  0.4978779E-03  0.5000384E+03  0.7818609E-02  0.1013769E+00
       -2   -1    0    0    0  501  0.00000000000E+00  0.00000000000E+00  0.41664511773E+03  0.41664511774E+03  0.25500000920E-02 0. -1.
        2   -1    0    0  501    0  0.00000000000E+00  0.00000000000E+00 -0.15003078519E+03  0.15003078521E+03  0.25500000920E-02 0.  1.
    10030    2    1    2    0    0  0.00000000000E+00  0.00000000000E+00  0.26661433254E+03  0.56667590295E+03  0.50003837520E+03 0.  0.
        1    1    3    3  502    0  0.93562882884E+02  0.23185181082E+03  0.13394714145E+03  0.28363905225E+03  0.50400001928E-02 0. -1.
       -1    1    3    3    0  502 -0.93562882884E+02 -0.23185181082E+03  0.13266719109E+03  0.28303685070E+03  0.50400001928E-02 0.  1.
</event>
<event>
 5   0  0.3055293E-03  0.5002611E+03  0.7818609E-02  0.1013711E+00
        1   -1    0    0  501    0  0.00000000000E+00  0.00000000000E+00  0.60157280731E+03  0.60157280733E+03  0.50400001928E-02 0.  1.
       -1   -1    0    0    0  501  0.00000000000E+00  0.00000000000E+00 -0.10400286110E+03  0.10400286122E+03  0.50400001928E-02 0. -1.
    10030    2    1    2    0    0  0.00000000000E+00  0.00000000000E+00  0.49756994621E+03  0.70557566855E+03  0.50026110450E+03 0.  0.
        3    1    3    3  502    0  0.71830190895E+02 -0.66627465687E+02  0.57338417290E+03  0.58169426285E+03  0.10100000352E+00 0.  1.
       -3    1    3    3    0  502 -0.71830190895E+02  0.66627465687E+02 -0.75814226685E+02  0.12388140569E+03  0.10100000352E+00 0. -1.
</event>
<event>
 5   0  0.3013734E-03  0.4996272E+03  0.7818609E-02  0.1013876E+00
       -1   -1    0    0    0  501  0.00000000000E+00  0.00000000000E+00  0.27454309584E+03  0.27454309589E+03  0.50400001928E-02 0. -1.
        1   -1    0    0  501    0  0.00000000000E+00  0.00000000000E+00 -0.22731159078E+03  0.22731159084E+03  0.50400001928E-02 0.  1.
    10030    2    1    2    0    0  0.00000000000E+00  0.00000000000E+00  0.47231505059E+02  0.50185468672E+03  0.49962717251E+03 0.  0.
        2    1    3    3  502    0  0.12861782257E+03 -0.59187347575E+02  0.23035158714E+03  0.27038406037E+03  0.25500000920E-02 0. -1.
       -2    1    3    3    0  502 -0.12861782257E+03  0.59187347575E+02 -0.18312008208E+03  0.23147062635E+03  0.25500000920E-02 0.  1.
</event>
<event>
 5   0  0.3057783E-03  0.5002093E+03  0.7818609E-02  0.1013724E+00
       -1   -1    0    0    0  501  0.00000000000E+00  0.00000000000E+00  0.14898932081E+03  0.14898932090E+03  0.50400001928E-02 0.  1.
        1   -1    0    0  501    0  0.00000000000E+00  0.00000000000E+00 -0.41984441055E+03  0.41984441058E+03  0.50400001928E-02 0. -1.
    10030    2    1    2    0    0  0.00000000000E+00  0.00000000000E+00 -0.27085508974E+03  0.56883373148E+03  0.50020929063E+03 0.  0.
        5    1    3    3  502    0  0.13373562277E+03 -0.20908481383E+03 -0.17008050294E+03  0.30091717075E+03  0.46999998093E+01 0.  1.
       -5    1    3    3    0  502 -0.13373562277E+03  0.20908481383E+03 -0.10077458680E+03  0.26791656073E+03  0.46999998093E+01 0. -1.
</event>
<event>
 5   0  0.4889251E-03  0.5000263E+03  0.7818609E-02  0.1013772E+00
        2   -1    0    0  501    0  0.00000000000E+00  0.00000000000E+00  0.20124161550E+04  0.20124161550E+04  0.25500000920E-02 0.  1.
       -2   -1    0    0    0  501  0.00000000000E+00  0.00000000000E+00 -0.31060466861E+02  0.31060466966E+02  0.25500000920E-02 0. -1.
    10030    2    1    2    0    0  0.00000000000E+00  0.00000000000E+00  0.19813556881E+04  0.20434766220E+04  0.50002634091E+03 0.  0.
        5    1    3    3  502    0 -0.99329253595E+02 -0.96173525862E+02  0.13960696209E+03  0.19653966917E+03  0.46999998093E+01 0. -1.
       -5    1    3    3    0  502  0.99329253595E+02  0.96173525862E+02  0.18417487260E+04  0.18469369528E+04  0.46999998093E+01 0.  1.
</event>
<event>
 5   0  0.4889251E-03  0.4996956E+03  0.7818609E-02  0.1013858E+00
       -2   -1    0    0    0  501  0.00000000000E+00  0.00000000000E+00  0.50892262623E+03  0.50892262623E+03  0.25500000920E-02 0.  1.
        2   -1    0    0  501    0  0.00000000000E+00  0.00000000000E+00 -0.12265894746E+03  0.12265894749E+03  0.25500000920E-02 0. -1.
    10030    2    1    2    0    0  0.00000000000E+00  0.00000000000E+00  0.38626367877E+03  0.63158157372E+03  0.49969556204E+03 0.  0.
        5    1    3    3  502    0  0.16133995799E+03 -0.16940734533E+03  0.82421195010E+02  0.24808219219E+03  0.46999998093E+01 0. -1.
       -5    1    3    3    0  502 -0.16133995799E+03  0.16940734533E+03  0.30384248376E+03  0.38349938153E+03  0.46999998093E+01 0.  1.
</event>
<event>
 5   0  0.4889251E-03  0.5001025E+03  0.7818609E-02  0.1013752E+00
       -2   -1    0    0    0  501  0.00000000000E+00  0.00000000000E+00  0.77490800271E+02  0.77490800313E+02  0.25500000920E-02 0. -1.
        2   -1    0    0  501    0  0.00000000000E+00  0.00000000000E+00 -0.80687802766E+03  0.80687802767E+03  0.25500000920E-02 0.  1.
    10030    2    1    2    0    0  0.00000000000E+00  0.00000000000E+00 -0.72938722739E+03  0.88436882798E+03  0.50010248592E+03 0.  0.
        5    1    3    3  502    0  0.87099265692E+02  0.18102405982E+01 -0.77908989925E+03  0.78395964193E+03  0.46999998093E+01 0.  1.
       -5    1    3    3    0  502 -0.87099265692E+02 -0.18102405982E+01  0.49702671862E+02  0.10040918605E+03  0.46999998093E+01 0. -1.
</event>
<event>
 5   0  0.3211775E-03  0.5003626E+03  0.7818609E-02  0.1013684E+00
       -1   -1    0    0    0  501  0.00000000000E+00  0.00000000000E+00  0.87839029216E+02  0.87839029361E+02  0.50400001928E-02 0.  1.
        1   -1    0    0  501    0  0.00000000000E+00  0.00000000000E+00 -0.71256114654E+03  0.71256114656E+03  0.50400001928E-02 0. -1.
    10030    2    1    2    0    0  0.00000000000E+00  0.00000000000E+00 -0.62472211732E+03  0.80040017592E+03  0.50036258627E+03 0.  0.
        4    1    3    3  502    0 -0.18611720996E+03  0.10898617323E+03 -0.51515271231E+03  0.55848145152E+03  0.12699999809E+01 0. -1.
       -4    1    3    3    0  502  0.18611720996E+03 -0.10898617323E+03 -0.10956940501E+03  0.24191872439E+03  0.12699999809E+01 0.  1.
</event>
<event>
 5   0  0.4989875E-03  0.5007824E+03  0.7818609E-02  0.1013575E+00
       -2   -1    0    0    0  501  0.00000000000E+00  0.00000000000E+00  0.11375244585E+04  0.11375244585E+04  0.25500000920E-02 0.  1.
        2   -1    0    0  501    0  0.00000000000E+00  0.00000000000E+00 -0.55115960607E+02  0.55115960666E+02  0.25500000920E-02 0. -1.
    10030    2    1    2    0    0  0.00000000000E+00  0.00000000000E+00  0.10824084979E+04  0.11926404192E+04  0.50078240098E+03 0.  0.
        2    1    3    3  502    0  0.14610490611E+03  0.13945273606E+03  0.18874996782E+03  0.27644214501E+03  0.25500000920E-02 0. -1.
       -2    1    3    3    0  502 -0.14610490611E+03 -0.13945273606E+03  0.89365853011E+03  0.91619827419E+03  0.25500000920E-02 0.  1.
</event>
<event>
 5   0  0.5118882E-03  0.4999698E+03  0.7818609E-02  0.1013787E+00
       -2   -1    0    0    0  501  0.00000000000E+00  0.00000000000E+00  0.20254443830E+03  0.20254443831E+03  0.25500000920E-02 0.  1.
        2   -1    0    0  501    0  0.00000000000E+00  0.00000000000E+00 -0.30853693241E+03  0.30853693242E+03  0.25500000920E-02 0. -1.
    10030    2    1    2    0    0  0.00000000000E+00  0.00000000000E+00 -0.10599249412E+03  0.51108137074E+03  0.49996975779E+03 0.  0.
        3    1    3    3  502    0  0.23875044863E+03  0.32777494698E+02  0.14935852669E+02  0.24145233644E+03  0.10100000352E+00 0. -1.
       -3    1    3    3    0  502 -0.23875044863E+03 -0.32777494698E+02 -0.12092834678E+03  0.26962903429E+03  0.10100000352E+00 0.  1.
</event>
<event>
 5   0  0.2863538E-03  0.5000753E+03  0.7818609E-02  0.1013759E+00
        1   -1    0    0  501    0  0.00000000000E+00  0.00000000000E+00  0.64607522415E+03  0.64607522417E+03  0.50400001928E-02 0. -1.
       -1   -1    0    0    0  501  0.00000000000E+00  0.00000000000E+00 -0.96767107119E+02  0.96767107250E+02  0.50400001928E-02 0.  1.
    10030    2    1    2    0    0  0.00000000000E+00  0.00000000000E+00  0.54930811703E+03  0.74284233142E+03  0.50007531624E+03 0.  0.
        1    1    3    3  502    0 -0.22213636842E+02 -0.22095983692E+03  0.10397379092E+03  0.24520857329E+03  0.50400001928E-02 0.  1.
       -1    1    3    3    0  502  0.22213636842E+02  0.22095983692E+03  0.44533432611E+03  0.49763375813E+03  0.50400001928E-02 0. -1.
</event>
<event>
 5   0  0.5118882E-03  0.5006637E+03  0.7818609E-02  0.1013606E+00
       -2   -1    0    0    0  501  0.00000000000E+00  0.00000000000E+00  0.18876660425E+03  0.18876660427E+03  0.25500000920E-02 0. -1.
        2   -1    0    0  501    0  0.00000000000E+00  0.00000000000E+00 -0.33197624793E+03  0.33197624794E+03  0.25500000920E-02 0.  1.
    10030    2    1    2    0    0  0.00000000000E+00  0.00000000000E+00 -0.14320964368E+03  0.52074285222E+03  0.50066367563E+03 0.  0.
        3    1    3    3  502    0 -0.89758613227E+02  0.65622790084E+02 -0.30488317170E+03  0.32452537315E+03  0.10100000352E+00 0.  1.
       -3    1    3    3    0  502  0.89758613227E+02 -0.65622790084E+02  0.16167352803E+03  0.19621747907E+03  0.10100000352E+00 0. -1.
</event>
<event>
 5   0  0.3211775E-03  0.5000858E+03  0.7818609E-02  0.1013757E+00
       -1   -1    0    0    0  501  0.00000000000E+00  0.00000000000E+00  0.10317364295E+03  0.10317364308E+03  0.50400001928E-02 0.  1.
        1   -1    0    0  501    0  0.00000000000E+00  0.00000000000E+00 -0.60598283651E+03  0.60598283653E+03  0.50400001928E-02 0. -1.
    10030    2    1    2    0    0  0.00000000000E+00  0.00000000000E+00 -0.50280919355E+03  0.70915647961E+03  0.50008582008E+03 0.  0.
        4    1    3    3  502    0 -0.12047823401E+03  0.99725752879E+02  0.25244795692E+02  0.15842709133E+03  0.12699999809E+01 0.  1.
       -4    1    3    3    0  502  0.12047823401E+03 -0.99725752879E+02 -0.52805398925E+03  0.55072938828E+03  0.12699999809E+01 0. -1.
</event>
<event>
 5   0  0.4889251E-03  0.5000712E+03  0.7818609E-02  0.1013760E+00
        2   -1    0    0  501    0  0.00000000000E+00  0.00000000000E+00  0.10474920450E+04  0.10474920450E+04  0.25500000920E-02 0.  1.
       -2   -1    0    0    0  501  0.00000000000E+00  0.00000000000E+00 -0.59683311681E+02  0.59683311735E+02  0.25500000920E-02 0. -1.
    10030    2    1    2    0    0  0.00000000000E+00  0.00000000000E+00  0.98780873333E+03  0.11071753568E+04  0.50007117188E+03 0.  0.
        5    1    3    3  502    0  0.13590871104E+03 -0.93892515198E+01  0.29820286673E+02  0.13953736157E+03  0.46999998093E+01 0. -1.
       -5    1    3    3    0  502 -0.13590871104E+03  0.93892515198E+01  0.95798844666E+03  0.96763799518E+03  0.46999998093E+01 0.  1.
</event>
<event>
 5   0  0.3055293E-03  0.5001746E+03  0.7818609E-02  0.1013733E+00
       -1   -1    0    0    0  501  0.00000000000E+00  0.00000000000E+00  0.11484822900E+03  0.11484822911E+03  0.50400001928E-02 0. -1.
        1   -1    0    0  501    0  0.00000000000E+00  0.00000000000E+00 -0.54457651898E+03  0.54457651900E+03  0.50400001928E-02 0.  1.
    10030    2    1    2    0    0  0.00000000000E+00  0.00000000000E+00 -0.42972828998E+03  0.65942474811E+03  0.50017456474E+03 0.  0.
        3    1    3    3  502    0 -0.58693497682E+02 -0.40223430350E+02  0.10122166117E+03  0.12372827450E+03  0.10100000352E+00 0. -1.
       -3    1    3    3    0  502  0.58693497682E+02  0.40223430350E+02 -0.53094995115E+03  0.53569647362E+03  0.10100000352E+00 0.  1.
</event>
<event>
 5   0  0.4989875E-03  0.5000863E+03  0.7818609E-02  0.1013756E+00
        2   -1    0    0  501    0  0.00000000000E+00  0.00000000000E+00  0.93956887509E+03  0.93956887510E+03  0.25500000920E-02 0. -1.
       -2   -1    0    0    0  501  0.00000000000E+00  0.00000000000E+00 -0.66542824390E+02  0.66542824439E+02  0.25500000920E-02 0.  1.
    10030    2    1    2    0    0  0.00000000000E+00  0.00000000000E+00  0.87302605070E+03  0.10061116995E+04  0.50008625930E+03 0.  0.
        2    1    3    3  502    0  0.15080716995E+03  0.17069530138E+03  0.22896891165E+03  0.32296509244E+03  0.25500000920E-02 0.  1.
       -2    1    3    3    0  502 -0.15080716995E+03 -0.17069530138E+03  0.64405713905E+03  0.68314660710E+03  0.25500000920E-02 0. -1.
</event>
<event>
 5   0  0.3057783E-03  0.5000558E+03  0.7818609E-02  0.1013764E+00
       -1   -1    0    0    0  501  0.00000000000E+00  0.00000000000E+00  0.48190356199E+03  0.48190356202E+03  0.50400001928E-02 0. -1.
        1   -1    0    0  501    0  0.00000000000E+00  0.00000000000E+00 -0.12972295692E+03  0.12972295702E+03  0.50400001928E-02 0.  1.
    10030    2    1    2    0    0  0.00000000000E+00  0.00000000000E+00  0.35218060507E+03  0.61162651904E+03  0.50005581708E+03 0.  0.
        5    1    3    3  502    0 -0.61381775016E+02  0.16307822932E+02 -0.11963639562E+03  0.13553089887E+03  0.46999998093E+01 0.  1.
       -5    1    3    3    0  502  0.61381775016E+02 -0.16307822932E+02  0.47181700070E+03  0.47609562016E+03  0.46999998093E+01 0. -1.
</event>
<event>
 5   0  0.3013734E-03  0.5002998E+03  0.7818609E-02  0.1013701E+00
        1   -1    0    0  501    0  0.00000000000E+00  0.00000000000E+00  0.28640146523E+03  0.28640146527E+03  0.50400001928E-02 0.  1.
       -1   -1    0    0    0  501  0.00000000000E+00  0.00000000000E+00 -0.21848693542E+03  0.21848693548E+03  0.50400001928E-02 0. -1.
    10030    2    1    2    0    0  0.00000000000E+00  0.00000000000E+00  0.67914529811E+02  0.50488840075E+03  0.50029982396E+03 0.  0.
        2    1    3    3  502    0 -0.11114313826E+03 -0.92200719991E+02 -0.17217381724E+03  0.22471669564E+03  0.25500000920E-02 0. -1.
       -2    1    3    3    0  502  0.11114313826E+03  0.92200719991E+02  0.24008834705E+03  0.28017170511E+03  0.25500000920E-02 0.  1.
</event>
<event>
 5   0  0.3057783E-03  0.4998271E+03  0.7818609E-02  0.1013824E+00
        1   -1    0    0  501    0  0.00000000000E+00  0.00000000000E+00  0.48280230009E+03  0.48280230012E+03  0.50400001928E-02 0.  1.
       -1   -1    0    0    0  501  0.00000000000E+00  0.00000000000E+00 -0.12936306020E+03  0.12936306030E+03  0.50400001928E-02 0. -1.
    10030    2    1    2    0    0  0.00000000000E+00  0.00000000000E+00  0.35343923989E+03  0.61216536042E+03  0.49982710231E+03 0.  0.
        5    1    3    3  502    0  0.75213638724E+01 -0.16431298312E+03 -0.53649345108E+02  0.17307706250E+03  0.46999998093E+01 0. -1.
       -5    1    3    3    0  502 -0.75213638724E+01  0.16431298312E+03  0.40708858500E+03  0.43908829792E+03  0.46999998093E+01 0.  1.
</event>
<event>
 5   0  0.4889251E-03  0.4998150E+03  0.7818609E-02  0.1013827E+00
       -2   -1    0    0    0  501  0.00000000000E+00  0.00000000000E+00  0.20730554442E+02  0.20730554599E+02  0.25500000920E-02 0. -1.
        2   -1    0    0  501    0  0.00000000000E+00  0.00000000000E+00 -0.30126431197E+04  0.30126431197E+04  0.25500000920E-02 0.  1.
    10030    2    1    2    0    0  0.00000000000E+00  0.00000000000E+00 -0.29919125652E+04  0.30333736743E+04  0.49981501557E+03 0.  0.
        5    1    3    3  502    0  0.12856380602E+02 -0.25558118690E+02  0.10489083287E+02  0.30832042092E+02  0.46999998093E+01 0. -1.
       -5    1    3    3    0  502 -0.12856380602E+02  0.25558118690E+02 -0.30024016485E+04  0.30025416322E+04  0.46999998093E+01 0.  1.
</event>
<event>
 5   0  0.3057783E-03  0.5001171E+03  0.7818609E-02  0.1013748E+00
       -1   -1    0    0    0  501  0.00000000000E+00  0.00000000000E+00  0.16599535468E+03  0.16599535476E+03  0.50400001928E-02 0. -1.
        1   -1    0    0  501    0  0.00000000000E+00  0.00000000000E+00 -0.37669293111E+03  0.37669293114E+03  0.50400001928E-02 0.  1.
    10030    2    1    2    0    0  0.00000000000E+00  0.00000000000E+00 -0.21069757643E+03  0.54268828591E+03  0.50011709324E+03 0.  0.
        5    1    3    3  502    0  0.19275734143E+03 -0.14593190885E+03 -0.36243678079E+02  0.24451423046E+03  0.46999998093E+01 0. -1.
       -5    1    3    3    0  502 -0.19275734143E+03  0.14593190885E+03 -0.17445389835E+03  0.29817405545E+03  0.46999998093E+01 0.  1.
</event>
<event>
 5   0  0.4978779E-03  0.4998374E+03  0.7818609E-02  0.1013821E+00
        2   -1    0    0  501    0  0.00000000000E+00  0.00000000000E+00  0.42663828577E+03  0.42663828577E+03  0.25500000920E-02 0. -1.
       -2   -1    0    0    0  501  0.00000000000E+00  0.00000000000E+00 -0.14639882864E+03  0.14639882866E+03  0.25500000920E-02 0.  1.
    10030    2    1    2    0    0  0.00000000000E+00  0.00000000000E+00  0.28023945713E+03  0.57303711444E+03  0.49983735474E+03 0.  0.
        1    1    3    3  502    0  0.66903103473E+02  0.13159411743E+03  0.37131099076E+03  0.39958089154E+03  0.50400001928E-02 0. -1.
       -1    1    3    3    0  502 -0.66903103473E+02 -0.13159411743E+03 -0.91071533637E+02  0.17345622290E+03  0.50400001928E-02 0.  1.
</event>
<event>
 5   0  0.4889251E-03  0.5001143E+03  0.7818609E-02  0.1013749E+00
        2   -1    0    0  501    0  0.00000000000E+00  0.00000000000E+00  0.10418094659E+04  0.10418094659E+04  0.25500000920E-02 0. -1.
       -2   -1    0    0    0  501  0.00000000000E+00  0.00000000000E+00 -0.60019199145E+02  0.60019199199E+02  0.25500000920E-02 0.  1.
    10030    2    1    2    0    0  0.00000000000E+00  0.00000000000E+00  0.98179026680E+03  0.11018286651E+04  0.50011426630E+03 0.  0.
        5    1    3    3  502    0 -0.13117336034E+03  0.19057233913E+03  0.69969801917E+03  0.73696924965E+03  0.46999998093E+01 0. -1.
       -5    1    3    3    0  502  0.13117336034E+03 -0.19057233913E+03  0.28209224763E+03  0.36485941549E+03  0.46999998093E+01 0.  1.
</event>
<event>
 5   0  0.4889251E-03  0.4996223E+03  0.7818609E-02  0.1013878E+00
        2   -1    0    0  501    0  0.00000000000E+00  0.00000000000E+00  0.21388563836E+04  0.21388563836E+04  0.25500000920E-02 0.  1.
       -2   -1    0    0    0  501  0.00000000000E+00  0.00000000000E+00 -0.29177094152E+02  0.29177094263E+02  0.25500000920E-02 0. -1.
    10030    2    1    2    0    0  0.00000000000E+00  0.00000000000E+00  0.21096792895E+04  0.21680334779E+04  0.49962231417E+03 0.  0.
        5    1    3    3  502    0 -0.55582554897E+02 -0.60274334392E+02  0.20786041844E+04  0.20802259159E+04  0.46999998093E+01 0.  1.
       -5    1    3    3    0  502  0.55582554897E+02  0.60274334392E+02  0.31075105133E+02  0.87807562046E+02  0.46999998093E+01 0. -1.
</event>
<event>
 5   0  0.3055293E-03  0.4996750E+03  0.7818609E-02  0.1013864E+00
       -1   -1    0    0    0  501  0.00000000000E+00  0.00000000000E+00  0.24850876270E+03  0.24850876275E+03  0.50400001928E-02 0. -1.
        1   -1    0    0  501    0  0.00000000000E+00  0.00000000000E+00 -0.25117331577E+03  0.25117331582E+03  0.50400001928E-02 0.  1.
    10030    2    1    2    0    0  0.00000000000E+00  0.00000000000E+00 -0.26645530747E+01  0.49968207857E+03  0.49967497416E+03 0.  0.
        3    1    3    3  502    0  0.26344942621E+02 -0.44045399512E+02 -0.24584486637E+03  0.25114490188E+03  0.10100000352E+00 0.  1.
       -3    1    3    3    0  502 -0.26344942621E+02  0.44045399512E+02  0.24318031330E+03  0.24853717669E+03  0.10100000352E+00 0. -1.
</event>
<event>
 5   0  0.3057783E-03  0.4999991E+03  0.7818609E-02  0.1013779E+00
       -1   -1    0    0    0  501  0.00000000000E+00  0.00000000000E+00  0.28542871424E+03  0.28542871429E+03  0.50400001928E-02 0.  1.
        1   -1    0    0  501    0  0.00000000000E+00  0.00000000000E+00 -0.21896809433E+03  0.21896809438E+03  0.50400001928E-02 0. -1.
    10030    2    1    2    0    0  0.00000000000E+00  0.00000000000E+00  0.66460619915E+02  0.50439680867E+03  0.49999912660E+03 0.  0.
        5    1    3    3  502    0  0.31356217877E+01  0.18745018611E+03  0.20000309547E+03  0.27417281520E+03  0.46999998093E+01 0.  1.
       -5    1    3    3    0  502 -0.31356217877E+01 -0.18745018611E+03 -0.13354247556E+03  0.23022399347E+03  0.46999998093E+01 0. -1.
</event>
<event>
 5   0  0.4889251E-03  0.5000796E+03  0.7818609E-02  0.1013758E+00
        2   -1    0    0  501    0  0.00000000000E+00  0.00000000000E+00  0.16041930177E+03  0.16041930180E+03  0.25500000920E-02 0.  1.
       -2   -1    0    0    0  501  0.00000000000E+00  0.00000000000E+00 -0.38972800300E+03  0.38972800300E+03  0.25500000920E-02 0. -1.
    10030    2    1    2    0    0  0.00000000000E+00  0.00000000000E+00 -0.22930870122E+03  0.55014730480E+03  0.50007957019E+03 0.  0.
        5    1    3    3  502    0  0.13703584143E+03  0.64216978785E+02 -0.33356200059E+03  0.36631726746E+03  0.46999998093E+01 0. -1.
       -5    1    3    3    0  502 -0.13703584143E+03 -0.64216978785E+02  0.10425329937E+03  0.18383003734E+03  0.46999998093E+01 0.  1.
</event>
<event>
 5   0  0.3013734E-03  0.5002340E+03  0.7818609E-02  0.1013718E+00
        1   -1    0    0  501    0  0.00000000000E+00  0.00000000000E+00  0.12447344467E+04  0.12447344467E+04  0.50400001928E-02 0. -1.
       -1   -1    0    0    0  501  0.00000000000E+00  0.00000000000E+00 -0.50258516752E+02  0.50258517004E+02  0.50400001928E-02 0.  1.
    10030    2    1    2    0    0  0.00000000000E+00  0.00000000000E+00  0.11944759300E+04  0.12949929637E+04  0.50023397411E+03 0.  0.
        2    1    3    3  502    0 -0.70131555179E+02 -0.23816782080E+03  0.67559539772E+03  0.71977183004E+03  0.25500000920E-02 0.  1.
       -2    1    3    3    0  502  0.70131555179E+02  0.23816782080E+03  0.51888053227E+03  0.57522113371E+03  0.25500000920E-02 0. -1.
</event>
<event>
 5   0  0.4978779E-03  0.5000935E+03  0.7818609E-02  0.1013755E+00
       -2   -1    0    0    0  501  0.00000000000E+00  0.00000000000E+00  0.18348456171E+03  0.18348456173E+03  0.25500000920E-02 0.  1.
        2   -1    0    0  501    0  0.00000000000E+00  0.00000000000E+00 -0.34075557647E+03  0.34075557648E+03  0.25500000920E-02 0. -1.
    10030    2    1    2    0    0  0.00000000000E+00  0.00000000000E+00 -0.15727101476E+03  0.52424013821E+03  0.50009354168E+03 0.  0.
        1    1    3    3  502    0 -0.84221202751E+02 -0.22950563145E+03 -0.13368132408E+03  0.27863370631E+03  0.50400001928E-02 0.  1.
       -1    1    3    3    0  502  0.84221202751E+02  0.22950563145E+03 -0.23589690685E+02  0.24560643190E+03  0.50400001928E-02 0. -1.
</event>
<event>
 5   0  0.3057783E-03  0.4999392E+03  0.7818609E-02  0.1013795E+00
       -1   -1    0    0    0  501  0.00000000000E+00  0.00000000000E+00  0.32803019760E+02  0.32803020147E+02  0.50400001928E-02 0.  1.
        1   -1    0    0  501    0  0.00000000000E+00  0.00000000000E+00 -0.19048487550E+04  0.19048487550E+04  0.50400001928E-02 0. -1.
    10030    2    1    2    0    0  0.00000000000E+00  0.00000000000E+00 -0.18720457353E+04  0.19376517752E+04  0.49993916323E+03 0.  0.
        5    1    3    3  502    0  0.14197795853E+03 -0.66822960514E+02 -0.16899548104E+04  0.16972308034E+04  0.46999998093E+01 0. -1.
       -5    1    3    3    0  502 -0.14197795853E+03  0.66822960514E+02 -0.18209092483E+03  0.24042097177E+03  0.46999998093E+01 0.  1.
</event>
<event>
 5   0  0.2863538E-03  0.4999788E+03  0.7818609E-02  0.1013784E+00
        1   -1    0    0  501    0  0.00000000000E+00  0.00000000000E+00  0.33012905035E+03  0.33012905039E+03  0.50400001928E-02 0.  1.
       -1   -1    0    0    0  501  0.00000000000E+00  0.00000000000E+00 -0.18930386657E+03  0.18930386663E+03  0.50400001928E-02 0. -1.
    10030    2    1    2    0    0  0.00000000000E+00  0.00000000000E+00  0.14082518378E+03  0.51943291702E+03  0.49997882245E+03 0.  0.
        1    1    3    3  502    0 -0.82610613141E+02 -0.19344984380E+03 -0.69926209308E+02  0.22166873989E+03  0.50400001928E-02 0. -1.
       -1    1    3    3    0  502  0.82610613141E+02  0.19344984380E+03  0.21075139309E+03  0.29776417713E+03  0.50400001928E-02 0.  1.
</event>
<event>
 5   0  0.2863538E-03  0.4995605E+03  0.7818609E-02  0.1013894E+00
       -1   -1    0    0    0  501  0.00000000000E+00  0.00000000000E+00  0.15047713483E+03  0.15047713491E+03  0.50400001928E-02 0.  1.
        1   -1    0    0  501    0  0.00000000000E+00  0.00000000000E+00 -0.41461559844E+03  0.41461559847E+03  0.50400001928E-02 0. -1.
    10030    2    1    2    0    0  0.00000000000E+00  0.00000000000E+00 -0.26413846361E+03  0.56509273338E+03  0.49956047618E+03 0.  0.
        1    1    3    3  502    0 -0.21010050057E+03 -0.62838799385E+02  0.31965702619E+01  0.21931975090E+03  0.50400001928E-02 0.  1.
       -1    1    3    3    0  502  0.21010050057E+03  0.62838799385E+02 -0.26733503387E+03  0.34577298248E+03  0.50400001928E-02 0. -1.
</event>
<event>
 5   0  0.3013734E-03  0.5002553E+03  0.7818609E-02  0.1013712E+00
       -1   -1    0    0    0  501  0.00000000000E+00  0.00000000000E+00  0.34502549088E+03  0.34502549092E+03  0.50400001928E-02 0.  1.
        1   -1    0    0  501    0  0.00000000000E+00  0.00000000000E+00 -0.18133108684E+03  0.18133108691E+03  0.50400001928E-02 0. -1.
    10030    2    1    2    0    0  0.00000000000E+00  0.00000000000E+00  0.16369440404E+03  0.52635657783E+03  0.50025532392E+03 0.  0.
        2    1    3    3  502    0 -0.19679025980E+03 -0.22075515961E+02  0.24262749813E+03  0.31318019990E+03  0.25500000920E-02 0. -1.
       -2    1    3    3    0  502  0.19679025980E+03  0.22075515961E+02 -0.78933094087E+02  0.21317637793E+03  0.25500000920E-02 0.  1.
</event>
<event>
 5   0  0.5095783E-03  0.5000771E+03  0.7818609E-02  0.1013759E+00
        2   -1    0    0  501    0  0.00000000000E+00  0.00000000000E+00  0.39625905966E+03  0.39625905967E+03  0.25500000920E-02 0. -1.
       -2   -1    0    0    0  501  0.00000000000E+00  0.00000000000E+00 -0.15777375275E+03  0.15777375277E+03  0.25500000920E-02 0.  1.
    10030    2    1    2    0    0  0.00000000000E+00  0.00000000000E+00  0.23848530691E+03  0.55403281244E+03  0.50007710970E+03 0.  0.
        4    1    3    3  502    0  0.41744264063E+02 -0.50673731207E+02  0.38653533721E+03  0.39207345029E+03  0.12699999809E+01 0. -1.
       -4    1    3    3    0  502 -0.41744264063E+02  0.50673731207E+02 -0.14805003029E+03  0.16195936214E+03  0.12699999809E+01 0.  1.
</event>
<event>
 5   0  0.5118882E-03  0.5000699E+03  0.7818609E-02  0.1013761E+00
        2   -1    0    0  501    0  0.00000000000E+00  0.00000000000E+00  0.51865435647E+03  0.51865435647E+03  0.25500000920E-02 0. -1.
       -2   -1    0    0    0  501  0.00000000000E+00  0.00000000000E+00 -0.12053782728E+03  0.12053782731E+03  0.25500000920E-02 0.  1.
    10030    2    1    2    0    0  0.00000000000E+00  0.00000000000E+00  0.39811652918E+03  0.63919218378E+03  0.50006987212E+03 0.  0.
        3    1    3    3  502    0 -0.22193064972E+03 -0.46476993588E+02  0.33375067615E+03  0.40348834958E+03  0.10100000352E+00 0. -1.
       -3    1    3    3    0  502  0.22193064972E+03  0.46476993588E+02  0.64365853032E+02  0.23570383420E+03  0.10100000352E+00 0.  1.
</event>
<event>
 5   0  0.3211775E-03  0.4999794E+03  0.7818609E-02  0.1013784E+00
        1   -1    0    0  501    0  0.00000000000E+00  0.00000000000E+00  0.54649792760E+03  0.54649792762E+03  0.50400001928E-02 0.  1.
       -1   -1    0    0    0  501  0.00000000000E+00  0.00000000000E+00 -0.11435516012E+03  0.11435516023E+03  0.50400001928E-02 0. -1.
    10030    2    1    2    0    0  0.00000000000E+00  0.00000000000E+00  0.43214276748E+03  0.66085308786E+03  0.49997943183E+03 0.  0.
        4    1    3    3  502    0  0.27034410481E+02  0.13485609503E+02 -0.11192909340E+03  0.11594160540E+03  0.12699999809E+01 0. -1.
       -4    1    3    3    0  502 -0.27034410481E+02 -0.13485609503E+02  0.54407186088E+03  0.54491148246E+03  0.12699999809E+01 0.  1.
</event>
<event>
 5   0  0.4889251E-03  0.4999775E+03  0.7818609E-02  0.1013785E+00
        2   -1    0    0  501    0  0.00000000000E+00  0.00000000000E+00  0.16949679946E+04  0.16949679946E+04  0.25500000920E-02 0.  1.
       -2   -1    0    0    0  501  0.00000000000E+00  0.00000000000E+00 -0.36870528903E+02  0.36870528991E+02  0.25500000920E-02 0. -1.
    10030    2    1    2    0    0  0.00000000000E+00  0.00000000000E+00  0.16580974657E+04  0.17318385236E+04  0.49997746554E+03 0.  0.
        5    1    3    3  502    0 -0.47971216463E+02  0.19801886457E+03  0.32757506804E+03  0.38579816424E+03  0.46999998093E+01 0. -1.
       -5    1    3    3    0  502  0.47971216463E+02 -0.19801886457E+03  0.13305223976E+04  0.13460403593E+04  0.46999998093E+01 0.  1.
</event>
<event>
 5   0  0.5118882E-03  0.4999529E+03  0.7818609E-02  0.1013791E+00
        2   -1    0    0  501    0  0.00000000000E+00  0.00000000000E+00  0.85440752777E+03  0.85440752778E+03  0.25500000920E-02 0. -1.
       -2   -1    0    0    0  501  0.00000000000E+00  0.00000000000E+00 -0.73136317509E+02  0.73136317554E+02  0.25500000920E-02 0.  1.
    10030    2    1    2    0    0  0.00000000000E+00  0.00000000000E+00  0.78127121026E+03  0.92754384533E+03  0.49995287880E+03 0.  0.
        3    1    3    3  502    0 -0.23652346572E+03 -0.80517644766E+02  0.40521672922E+03  0.47605361967E+03  0.10100000352E+00 0. -1.
       -3    1    3    3    0  502  0.23652346572E+03  0.80517644766E+02  0.37605448104E+03  0.45149022566E+03  0.10100000352E+00 0.  1.
</event>
<event>
 5   0  0.5095783E-03  0.4999873E+03  0.7818609E-02  0.1013782E+00
        2   -1    0    0  501    0  0.00000000000E+00  0.00000000000E+00  0.31758712594E+03  0.31758712595E+03  0.25500000920E-02 0. -1.
       -2   -1    0    0    0  501  0.00000000000E+00  0.00000000000E+00 -0.19678639358E+03  0.19678639359E+03  0.25500000920E-02 0.  1.
    10030    2    1    2    0    0  0.00000000000E+00  0.00000000000E+00  0.12080073236E+03  0.51437351954E+03  0.49998730051E+03 0.  0.
        4    1    3    3  502    0 -0.14435295259E+03  0.16159283110E+02  0.26971542309E+03  0.30634444618E+03  0.12699999809E+01 0. -1.
       -4    1    3    3    0  502  0.14435295259E+03 -0.16159283110E+02 -0.14891469073E+03  0.20802907337E+03  0.12699999809E+01 0.  1.
</event>
<event>
 5   0  0.4989875E-03  0.5011697E+03  0.7818609E-02  0.1013474E+00
        2   -1    0    0  501    0  0.00000000000E+00  0.00000000000E+00  0.58552003639E+03  0.58552003640E+03  0.25500000920E-02 0.  1.
       -2   -1    0    0    0  501  0.00000000000E+00  0.00000000000E+00 -0.10724274079E+03  0.10724274082E+03  0.25500000920E-02 0. -1.
    10030    2    1    2    0    0  0.00000000000E+00  0.00000000000E+00  0.47827729560E+03  0.69276277722E+03  0.50116972576E+03 0.  0.
        2    1    3    3  502    0 -0.17894980023E+01 -0.19900375136E+03  0.28652883471E+02  0.20106387815E+03  0.25500000920E-02 0. -1.
       -2    1    3    3    0  502  0.17894980023E+01  0.19900375136E+03  0.44962441213E+03  0.49169889907E+03  0.25500000920E-02 0.  1.
</event>
<event>
 5   0  0.4989875E-03  0.4998071E+03  0.7818609E-02  0.1013829E+00
        2   -1    0    0  501    0  0.00000000000E+00  0.00000000000E+00  0.58441465296E+03  0.58441465297E+03  0.25500000920E-02 0. -1.
       -2   -1    0    0    0  501  0.00000000000E+00  0.00000000000E+00 -0.10686211631E+03  0.10686211634E+03  0.25500000920E-02 0.  1.
    10030    2    1    2    0    0  0.00000000000E+00  0.00000000000E+00  0.47755253666E+03  0.69127676930E+03  0.49980710930E+03 0.  0.
        2    1    3    3  502    0 -0.20566231704E+02  0.33581392161E+02 -0.10254403744E+03  0.10984516105E+03  0.25500000920E-02 0.  1.
       -2    1    3    3    0  502  0.20566231704E+02 -0.33581392161E+02  0.58009657409E+03  0.58143160825E+03  0.25500000920E-02 0. -1.
</event>
<event>
 5   0  0.4989875E-03  0.4997870E+03  0.7818609E-02  0.1013835E+00
        2   -1    0    0  501    0  0.00000000000E+00  0.00000000000E+00  0.18696166513E+03  0.18696166515E+03  0.25500000920E-02 0.  1.
       -2   -1    0    0    0  501  0.00000000000E+00  0.00000000000E+00 -0.33400831376E+03  0.33400831377E+03  0.25500000920E-02 0. -1.
    10030    2    1    2    0    0  0.00000000000E+00  0.00000000000E+00 -0.14704664863E+03  0.52096997892E+03  0.49978695668E+03 0.  0.
        2    1    3    3  502    0  0.59186465009E+02 -0.44747122168E+02  0.17521452817E+03  0.19027735932E+03  0.25500000920E-02 0.  1.
       -2    1    3    3    0  502 -0.59186465009E+02  0.44747122168E+02 -0.32226117679E+03  0.33069261960E+03  0.25500000920E-02 0. -1.
</event>
<event>
 5   0  0.5118882E-03  0.5008483E+03  0.7818609E-02  0.1013558E+00
       -2   -1    0    0    0  501  0.00000000000E+00  0.00000000000E+00  0.22393747772E+03  0.22393747774E+03  0.25500000920E-02 0. -1.
        2   -1    0    0  501    0  0.00000000000E+00  0.00000000000E+00 -0.28004355673E+03  0.28004355674E+03  0.25500000920E-02 0.  1.
    10030    2    1    2    0    0  0.00000000000E+00  0.00000000000E+00 -0.56106079011E+02  0.50398103448E+03  0.50084827145E+03 0.  0.
        3    1    3    3  502    0 -0.16289482108E+03  0.83475463973E+02  0.14392343746E+03  0.23284510274E+03  0.10100000352E+00 0. -1.
       -3    1    3    3    0  502  0.16289482108E+03 -0.83475463973E+02 -0.20002951647E+03  0.27113593174E+03  0.10100000352E+00 0.  1.
</event>
<event>
 5   0  0.5095783E-03  0.5001476E+03  0.7818609E-02  0.1013740E+00
       -2   -1    0    0    0  501  0.00000000000E+00  0.00000000000E+00  0.56280647958E+02  0.56280648015E+02  0.25500000920E-02 0. -1.
        2   -1    0    0  501    0  0.00000000000E+00  0.00000000000E+00 -0.11111619251E+04  0.11111619251E+04  0.25500000920E-02 0.  1.
    10030    2    1    2    0    0  0.00000000000E+00  0.00000000000E+00 -0.10548812771E+04  0.11674425731E+04  0.50014763086E+03 0.  0.
        4    1    3    3  502    0 -0.93036320657E+02  0.20305338333E+03 -0.26492020023E+03  0.34651227804E+03  0.12699999809E+01 0. -1.
       -4    1    3    3    0  502  0.93036320657E+02 -0.20305338333E+03 -0.78996107687E+03  0.82093029504E+03  0.12699999809E+01 0.  1.
</event>
<event>
 5   0  0.4978779E-03  0.5002401E+03  0.7818609E-02  0.1013716E+00
       -2   -1    0    0    0  501  0.00000000000E+00  0.00000000000E+00  0.36360851173E+02  0.36360851262E+02  0.25500000920E-02 0. -1.
        2   -1    0    0  501    0  0.00000000000E+00  0.00000000000E+00 -0.17205326834E+04  0.17205326834E+04  0.25500000920E-02 0.  1.
    10030    2    1    2    0    0  0.00000000000E+00  0.00000000000E+00 -0.16841718322E+04  0.17568935347E+04  0.50024007405E+03 0.  0.
        1    1    3    3  502    0 -0.58674582337E+02 -0.38280005792E+02 -0.16853702476E+04  0.16868256984E+04  0.50400001928E-02 0.  1.
       -1    1    3    3    0  502  0.58674582337E+02  0.38280005792E+02  0.11984153024E+01  0.70067836277E+02  0.50400001928E-02 0. -1.
</event>
<event>
 5   0  0.2863538E-03  0.5000773E+03  0.7818609E-02  0.1013759E+00
        1   -1    0    0  501    0  0.00000000000E+00  0.00000000000E+00  0.74799741676E+03  0.74799741677E+03  0.50400001928E-02 0. -1.
       -1   -1    0    0    0  501  0.00000000000E+00  0.00000000000E+00 -0.83582269439E+02  0.83582269591E+02  0.50400001928E-02 0.  1.
    10030    2    1    2    0    0  0.00000000000E+00  0.00000000000E+00  0.66441514732E+03  0.83157968637E+03  0.50007728082E+03 0.  0.
        1    1    3    3  502    0  0.20972474705E+03  0.13578574281E+03  0.34859236862E+03  0.42888095896E+03  0.50400001928E-02 0. -1.
       -1    1    3    3    0  502 -0.20972474705E+03 -0.13578574281E+03  0.31582277870E+03  0.40269872740E+03  0.50400001928E-02 0.  1.
</event>
<event>
 5   0  0.3055293E-03  0.5001989E+03  0.7818609E-02  0.1013727E+00
        1   -1    0    0  501    0  0.00000000000E+00  0.00000000000E+00  0.78831019083E+03  0.78831019085E+03  0.50400001928E-02 0. -1.
       -1   -1    0    0    0  501  0.00000000000E+00  0.00000000000E+00 -0.79346601526E+02  0.79346601686E+02  0.50400001928E-02 0.  1.
    10030    2    1    2    0    0  0.00000000000E+00  0.00000000000E+00  0.70896358931E+03  0.86765679253E+03  0.50019889911E+03 0.  0.
        3    1    3    3  502    0  0.12038916841E+03 -0.56229013231E+02  0.72201930331E+03  0.73414381313E+03  0.10100000352E+00 0. -1.
       -3    1    3    3    0  502 -0.12038916841E+03  0.56229013231E+02 -0.13055714008E+02  0.13351297940E+03  0.10100000352E+00 0.  1.
</event>
<event>
 5   0  0.3211775E-03  0.4999794E+03  0.7818609E-02  0.1013784E+00
       -1   -1    0    0    0  501  0.00000000000E+00  0.00000000000E+00  0.58843679421E+02  0.58843679637E+02  0.50400001928E-02 0. -1.
        1   -1    0    0  501    0  0.00000000000E+00  0.00000000000E+00 -0.10620485023E+04  0.10620485023E+04  0.50400001928E-02 0.  1.
    10030    2    1    2    0    0  0.00000000000E+00  0.00000000000E+00 -0.10032048229E+04  0.11208921820E+04  0.49997936649E+03 0.  0.
        4    1    3    3  502    0  0.13104283951E+03  0.47016852625E+02 -0.36120425971E+02  0.14383708941E+03  0.12699999809E+01 0. -1.
       -4    1    3    3    0  502 -0.13104283951E+03 -0.47016852625E+02 -0.96708439694E+03  0.97705509257E+03  0.12699999809E+01 0.  1.
</event>
<event>
 5   0  0.5095783E-03  0.5000890E+03  0.7818609E-02  0.1013756E+00
       -2   -1    0    0    0  501  0.00000000000E+00  0.00000000000E+00  0.32733891573E+03  0.32733891574E+03  0.25500000920E-02 0. -1.
        2   -1    0    0  501    0  0.00000000000E+00  0.00000000000E+00 -0.19100160547E+03  0.19100160549E+03  0.25500000920E-02 0.  1.
    10030    2    1    2    0    0  0.00000000000E+00  0.00000000000E+00  0.13633731026E+03  0.51834052123E+03  0.50008902586E+03 0.  0.
        4    1    3    3  502    0 -0.13077704008E+03 -0.10722320793E+03  0.25906754754E+03  0.30938173446E+03  0.12699999809E+01 0. -1.
       -4    1    3    3    0  502  0.13077704008E+03  0.10722320793E+03 -0.12273023728E+03  0.20895878678E+03  0.12699999809E+01 0.  1.
</event>
<event>
 5   0  0.4989875E-03  0.5001487E+03  0.7818609E-02  0.1013740E+00
        2   -1    0    0  501    0  0.00000000000E+00  0.00000000000E+00  0.11021922698E+04  0.11021922698E+04  0.25500000920E-02 0. -1.
       -2   -1    0    0    0  501  0.00000000000E+00  0.00000000000E+00 -0.56738909630E+02  0.56738909687E+02  0.25500000920E-02 0.  1.
    10030    2    1    2    0    0  0.00000000000E+00  0.00000000000E+00  0.10454533602E+04  0.11589311795E+04  0.50014872838E+03 0.  0.
        2    1    3    3  502    0 -0.22355968773E+03 -0.76738255358E+02  0.71196318355E+03  0.75017282579E+03  0.25500000920E-02 0. -1.
       -2    1    3    3    0  502  0.22355968773E+03  0.76738255358E+02  0.33349017661E+03  0.40875835369E+03  0.25500000920E-02 0.  1.
</event>
<event>
 5   0  0.4989875E-03  0.4997178E+03  0.7818609E-02  0.1013853E+00
        2   -1    0    0  501    0  0.00000000000E+00  0.00000000000E+00  0.24115608209E+03  0.24115608211E+03  0.25500000920E-02 0. -1.
       -2   -1    0    0    0  501  0.00000000000E+00  0.00000000000E+00 -0.25887573467E+03  0.25887573468E+03  0.25500000920E-02 0.  1.
    10030    2    1    2    0    0  0.00000000000E+00  0.00000000000E+00 -0.17719652578E+02  0.50003181679E+03  0.49971775205E+03 0.  0.
        2    1    3    3  502    0  0.19940497100E+03 -0.47919718162E+02  0.13395624282E+03  0.24495492819E+03  0.25500000920E-02 0. -1.
       -2    1    3    3    0  502 -0.19940497100E+03  0.47919718162E+02 -0.15167589540E+03  0.25507688860E+03  0.25500000920E-02 0.  1.
</event>
<event>
 5   0  0.4978779E-03  0.5000449E+03  0.7818609E-02  0.1013767E+00
        2   -1    0    0  501    0  0.00000000000E+00  0.00000000000E+00  0.14697740579E+04  0.14697740579E+04  0.25500000920E-02 0.  1.
       -2   -1    0    0    0  501  0.00000000000E+00  0.00000000000E+00 -0.42531184011E+02  0.42531184087E+02  0.25500000920E-02 0. -1.
    10030    2    1    2    0    0  0.00000000000E+00  0.00000000000E+00  0.14272428739E+04  0.15123052420E+04  0.50004492186E+03 0.  0.
        1    1    3    3  502    0 -0.19527026035E+03 -0.31543032772E+02  0.11761158503E+04  0.11926331920E+04  0.50400001928E-02 0.  1.
       -1    1    3    3    0  502  0.19527026035E+03  0.31543032772E+02  0.25112702361E+03  0.31967204993E+03  0.50400001928E-02 0. -1.
</event>
<event>
 5   0  0.4889251E-03  0.4999514E+03  0.7818609E-02  0.1013792E+00
       -2   -1    0    0    0  501  0.00000000000E+00  0.00000000000E+00  0.18818359380E+03  0.18818359382E+03  0.25500000920E-02 0.  1.
        2   -1    0    0  501    0  0.00000000000E+00  0.00000000000E+00 -0.33205794706E+03  0.33205794707E+03  0.25500000920E-02 0. -1.
    10030    2    1    2    0    0  0.00000000000E+00  0.00000000000E+00 -0.14387435326E+03  0.52024154089E+03  0.49995142898E+03 0.  0.
        5    1    3    3  502    0 -0.26049072804E+02  0.74934907540E+02 -0.31856215125E+03  0.32832564440E+03  0.46999998093E+01 0. -1.
       -5    1    3    3    0  502  0.26049072804E+02 -0.74934907540E+02  0.17468779799E+03  0.19191589649E+03  0.46999998093E+01 0.  1.
</event>
<event>
 5   0  0.3013734E-03  0.5000143E+03  0.7818609E-02  0.1013775E+00
        1   -1    0    0  501    0  0.00000000000E+00  0.00000000000E+00  0.24198845559E+03  0.24198845565E+03  0.50400001928E-02 0.  1.
       -1   -1    0    0    0  501  0.00000000000E+00  0.00000000000E+00 -0.25829159442E+03  0.25829159447E+03  0.50400001928E-02 0. -1.
    10030    2    1    2    0    0  0.00000000000E+00  0.00000000000E+00 -0.16303138831E+02  0.50028005012E+03  0.50001433600E+03 0.  0.
        2    1    3    3  502    0 -0.96061770800E+02 -0.56385457112E+02 -0.23209276341E+03  0.25743782631E+03  0.25500000920E-02 0. -1.
       -2    1    3    3    0  502  0.96061770800E+02  0.56385457112E+02  0.21578962458E+03  0.24284222381E+03  0.25500000920E-02 0.  1.
</event>
<event>
 5   0  0.3055293E-03  0.5005020E+03  0.7818609E-02  0.1013648E+00
       -1   -1    0    0    0  501  0.00000000000E+00  0.00000000000E+00  0.49345591027E+02  0.49345591284E+02  0.50400001928E-02 0. -1.
        1   -1    0    0  501    0  0.00000000000E+00  0.00000000000E+00 -0.12691219640E+04  0.12691219640E+04  0.50400001928E-02 0.  1.
    10030    2    1    2    0    0  0.00000000000E+00  0.00000000000E+00 -0.12197763730E+04  0.13184675553E+04  0.50050204225E+03 0.  0.
        3    1    3    3  502    0  0.11700341707E+03  0.79356276375E+02 -0.65932196204E+02  0.15599449639E+03  0.10100000352E+00 0. -1.
       -3    1    3    3    0  502 -0.11700341707E+03 -0.79356276375E+02 -0.11538441768E+04  0.11624730589E+04  0.10100000352E+00 0.  1.
</event>
<event>
 5   0  0.2863538E-03  0.5001065E+03  0.7818609E-02  0.1013751E+00
       -1   -1    0    0    0  501  0.00000000000E+00  0.00000000000E+00  0.33891416065E+03  0.33891416069E+03  0.50400001928E-02 0.  1.
        1   -1    0    0  501    0  0.00000000000E+00  0.00000000000E+00 -0.18449107841E+03  0.18449107848E+03  0.50400001928E-02 0. -1.
    10030    2    1    2    0    0  0.00000000000E+00  0.00000000000E+00  0.15442308224E+03  0.52340523918E+03  0.50010654472E+03 0.  0.
        1    1    3    3  502    0 -0.21388117488E+02  0.24269381779E+03  0.18296026801E+02  0.24432045634E+03  0.50400001928E-02 0.  1.
       -1    1    3    3    0  502  0.21388117488E+02 -0.24269381779E+03  0.13612705544E+03  0.27908478284E+03  0.50400001928E-02 0. -1.
</event>
<event>
 5   0  0.3013734E-03  0.5001741E+03  0.7818609E-02  0.1013733E+00
        1   -1    0    0  501    0  0.00000000000E+00  0.00000000000E+00  0.27768787977E+03  0.27768787981E+03  0.50400001928E-02 0.  1.
       -1   -1    0    0    0  501  0.00000000000E+00  0.00000000000E+00 -0.22522964813E+03  0.22522964819E+03  0.50400001928E-02 0. -1.
    10030    2    1    2    0    0  0.00000000000E+00  0.00000000000E+00  0.52458231636E+02  0.50291752800E+03  0.50017414358E+03 0.  0.
        2    1    3    3  502    0 -0.23310718710E+03  0.59143354343E+02  0.95210407506E+02  0.25865405225E+03  0.25500000920E-02 0.  1.
       -2    1    3    3    0  502  0.23310718710E+03 -0.59143354343E+02 -0.42752175869E+02  0.24426347576E+03  0.25500000920E-02 0. -1.
</event>
<event>
 5   0  0.5118882E-03  0.5002231E+03  0.7818609E-02  0.1013721E+00
        2   -1    0    0  501    0  0.00000000000E+00  0.00000000000E+00  0.92787437224E+03  0.92787437225E+03  0.25500000920E-02 0. -1.
       -2   -1    0    0    0  501  0.00000000000E+00  0.00000000000E+00 -0.67418386529E+02  0.67418386577E+02  0.25500000920E-02 0.  1.
    10030    2    1    2    0    0  0.00000000000E+00  0.00000000000E+00  0.86045598572E+03  0.99529275883E+03  0.50022312263E+03 0.  0.
        3    1    3    3  502    0  0.71572689145E+02 -0.83763767746E+02 -0.16532299215E+02  0.11141070746E+03  0.10100000352E+00 0.  1.
       -3    1    3    3    0  502 -0.71572689145E+02  0.83763767746E+02  0.87698828493E+03  0.88388205136E+03  0.10100000352E+00 0. -1.
</event>
<event>
 5   0  0.3013734E-03  0.5000163E+03  0.7818609E-02  0.1013775E+00
        1   -1    0    0  501    0  0.00000000000E+00  0.00000000000E+00  0.52974065542E+03  0.52974065544E+03  0.50400001928E-02 0. -1.
       -1   -1    0    0    0  501  0.00000000000E+00  0.00000000000E+00 -0.11798994500E+03  0.11798994511E+03  0.50400001928E-02 0.  1.
    10030    2    1    2    0    0  0.00000000000E+00  0.00000000000E+00  0.41175071041E+03  0.64773060055E+03  0.50001628310E+03 0.  0.
        2    1    3    3  502    0  0.48594737000E+00 -0.11491259443E+03  0.49350193395E+03  0.50670435100E+03  0.25500000920E-02 0. -1.
       -2    1    3    3    0  502 -0.48594737000E+00  0.11491259443E+03 -0.81751223540E+02  0.14102624955E+03  0.25500000920E-02 0.  1.
</event>
<event>
 5   0  0.4889251E-03  0.4999902E+03  0.7818609E-02  0.1013781E+00
       -2   -1    0    0    0  501  0.00000000000E+00  0.00000000000E+00  0.31546939120E+02  0.31546939223E+02  0.25500000920E-02 0.  1.
        2   -1    0    0  501    0  0.00000000000E+00  0.00000000000E+00 -0.19810970556E+04  0.19810970556E+04  0.25500000920E-02 0. -1.
    10030    2    1    2    0    0  0.00000000000E+00  0.00000000000E+00 -0.19495501165E+04  0.20126439948E+04  0.49999019314E+03 0.  0.
        5    1    3    3  502    0 -0.12635962505E+02 -0.24533057430E+03 -0.11604967853E+04  0.11862215800E+04  0.46999998093E+01 0. -1.
       -5    1    3    3    0  502  0.12635962505E+02  0.24533057430E+03 -0.78905333122E+03  0.82642241484E+03  0.46999998093E+01 0.  1.
</event>
<event>
 5   0  0.4978779E-03  0.4999078E+03  0.7818609E-02  0.1013803E+00
        2   -1    0    0  501    0  0.00000000000E+00  0.00000000000E+00  0.17285240505E+03  0.17285240507E+03  0.25500000920E-02 0.  1.
       -2   -1    0    0    0  501  0.00000000000E+00  0.00000000000E+00 -0.36144683336E+03  0.36144683337E+03  0.25500000920E-02 0. -1.
    10030    2    1    2    0    0  0.00000000000E+00  0.00000000000E+00 -0.18859442831E+03  0.53429923844E+03  0.49990780931E+03 0.  0.
        1    1    3    3  502    0 -0.14203425791E+03  0.32270484721E+02  0.12280733739E+03  0.19051707731E+03  0.50400001928E-02 0.  1.
       -1    1    3    3    0  502  0.14203425791E+03 -0.32270484721E+02 -0.31140176570E+03  0.34378216113E+03  0.50400001928E-02 0. -1.
</event>
<event>
 5   0  0.3057783E-03  0.4995983E+03  0.7818609E-02  0.1013884E+00
        1   -1    0    0  501    0  0.00000000000E+00  0.00000000000E+00  0.77405433766E+02  0.77405433930E+02  0.50400001928E-02 0.  1.
       -1   -1    0    0    0  501  0.00000000000E+00  0.00000000000E+00 -0.80614002677E+03  0.80614002679E+03  0.50400001928E-02 0. -1.
    10030    2    1    2    0    0  0.00000000000E+00  0.00000000000E+00 -0.72873459301E+03  0.88354546072E+03  0.49959831276E+03 0.  0.
        5    1    3    3  502    0  0.20743744092E+03  0.57645413317E+02 -0.58823770799E+03  0.62641757373E+03  0.46999998093E+01 0.  1.
       -5    1    3    3    0  502 -0.20743744092E+03 -0.57645413317E+02 -0.14049688502E+03  0.25712788699E+03  0.46999998093E+01 0. -1.
</event>
<event>
 5   0  0.3055293E-03  0.4999820E+03  0.7818609E-02  0.1013784E+00
        1   -1    0    0  501    0  0.00000000000E+00  0.00000000000E+00  0.36498596045E+03  0.36498596048E+03  0.50400001928E-02 0. -1.
       -1   -1    0    0    0  501  0.00000000000E+00  0.00000000000E+00 -0.17122710933E+03  0.17122710940E+03  0.50400001928E-02 0.  1.
    10030    2    1    2    0    0  0.00000000000E+00  0.00000000000E+00  0.19375885112E+03  0.53621306988E+03  0.49998196360E+03 0.  0.
        3    1    3    3  502    0  0.12379758954E+03 -0.10917997249E+03  0.29823272235E+03  0.34086489472E+03  0.10100000352E+00 0. -1.
       -3    1    3    3    0  502 -0.12379758954E+03  0.10917997249E+03 -0.10447387123E+03  0.19534817516E+03  0.10100000352E+00 0.  1.
</event>
<event>
 5   0  0.3211775E-03  0.4992722E+03  0.7818609E-02  0.1013969E+00
        1   -1    0    0  501    0  0.00000000000E+00  0.00000000000E+00  0.42657188604E+03  0.42657188607E+03  0.50400001928E-02 0. -1.
       -1   -1    0    0    0  501  0.00000000000E+00  0.00000000000E+00 -0.14609071238E+03  0.14609071247E+03  0.50400001928E-02 0.  1.
    10030    2    1    2    0    0  0.00000000000E+00  0.00000000000E+00  0.28048117366E+03  0.57266259854E+03  0.49927223335E+03 0.  0.
        4    1    3    3  502    0 -0.15125726044E+03 -0.49890175933E+02 -0.80235510304E+02  0.17834555925E+03  0.12699999809E+01 0.  1.
       -4    1    3    3    0  502  0.15125726044E+03  0.49890175933E+02  0.36071668396E+03  0.39431703929E+03  0.12699999809E+01 0. -1.
</event>
<event>
 5   0  0.3057783E-03  0.5003150E+03  0.7818609E-02  0.1013697E+00
       -1   -1    0    0    0  501  0.00000000000E+00  0.00000000000E+00  0.82012891307E+02  0.82012891462E+02  0.50400001928E-02 0. -1.
        1   -1    0    0  501    0  0.00000000000E+00  0.00000000000E+00 -0.76303597611E+03  0.76303597612E+03  0.50400001928E-02 0.  1.
    10030    2    1    2    0    0  0.00000000000E+00  0.00000000000E+00 -0.68102308480E+03  0.84504886759E+03  0.50031504732E+03 0.  0.
        5    1    3    3  502    0  0.15658551123E+03  0.40251523618E+02 -0.66283599900E+03  0.68228502772E+03  0.46999998093E+01 0.  1.
       -5    1    3    3    0  502 -0.15658551123E+03 -0.40251523618E+02 -0.18187085797E+02  0.16276383987E+03  0.46999998093E+01 0. -1.
</event>
<event>
 5   0  0.4989875E-03  0.4999553E+03  0.7818609E-02  0.1013791E+00
        2   -1    0    0  501    0  0.00000000000E+00  0.00000000000E+00  0.24311859188E+04  0.24311859188E+04  0.25500000920E-02 0.  1.
       -2   -1    0    0    0  501  0.00000000000E+00  0.00000000000E+00 -0.25703022702E+02  0.25703022828E+02  0.25500000920E-02 0. -1.
    10030    2    1    2    0    0  0.00000000000E+00  0.00000000000E+00  0.24054828961E+04  0.24568889416E+04  0.49995530609E+03 0.  0.
        2    1    3    3  502    0  0.75812863303E+01  0.15385194634E+03  0.21702424788E+04  0.21757022576E+04  0.25500000920E-02 0.  1.
       -2    1    3    3    0  502 -0.75812863303E+01 -0.15385194634E+03  0.23524041735E+03  0.28118668400E+03  0.25500000920E-02 0. -1.
</event>
<event>
 5   0  0.3013734E-03  0.5000174E+03  0.7818609E-02  0.1013774E+00
        1   -1    0    0  501    0  0.00000000000E+00  0.00000000000E+00  0.11583071119E+04  0.11583071119E+04  0.50400001928E-02 0. -1.
       -1   -1    0    0    0  501  0.00000000000E+00  0.00000000000E+00 -0.53961817932E+02  0.53961818167E+02  0.50400001928E-02 0.  1.
    10030    2    1    2    0    0  0.00000000000E+00  0.00000000000E+00  0.11043452940E+04  0.12122689301E+04  0.50001743023E+03 0.  0.
        2    1    3    3  502    0  0.17414192733E+03  0.17790030137E+03  0.60801036790E+03  0.65700116861E+03  0.25500000920E-02 0.  1.
       -2    1    3    3    0  502 -0.17414192733E+03 -0.17790030137E+03  0.49633492611E+03  0.55526776150E+03  0.25500000920E-02 0. -1.
</event>
<event>
 5   0  0.4889251E-03  0.4998069E+03  0.7818609E-02  0.1013829E+00
        2   -1    0    0  501    0  0.00000000000E+00  0.00000000000E+00  0.11889238742E+04  0.11889238742E+04  0.25500000920E-02 0.  1.
       -2   -1    0    0    0  501  0.00000000000E+00  0.00000000000E+00 -0.52527943297E+02  0.52527943359E+02  0.25500000920E-02 0. -1.
    10030    2    1    2    0    0  0.00000000000E+00  0.00000000000E+00  0.11363959309E+04  0.12414518176E+04  0.49980686626E+03 0.  0.
        5    1    3    3  502    0  0.11655480583E+03 -0.20467750749E+03  0.77529511993E+03  0.81029779577E+03  0.46999998093E+01 0.  1.
       -5    1    3    3    0  502 -0.11655480583E+03  0.20467750749E+03  0.36110081100E+03  0.43115402182E+03  0.46999998093E+01 0. -1.
</event>
<event>
 5   0  0.2863538E-03  0.4995739E+03  0.7818609E-02  0.1013890E+00
       -1   -1    0    0    0  501  0.00000000000E+00  0.00000000000E+00  0.58738035234E+03  0.58738035236E+03  0.50400001928E-02 0.  1.
        1   -1    0    0  501    0  0.00000000000E+00  0.00000000000E+00 -0.10622337008E+03  0.10622337020E+03  0.50400001928E-02 0. -1.
    10030    2    1    2    0    0  0.00000000000E+00  0.00000000000E+00  0.48115698226E+03  0.69360372255E+03  0.49957390080E+03 0.  0.
        1    1    3    3  502    0  0.42317491550E+01 -0.12520450839E+03 -0.59453475390E+02  0.13866792125E+03  0.50400001928E-02 0. -1.
       -1    1    3    3    0  502 -0.42317491550E+01  0.12520450839E+03  0.54061045765E+03  0.55493580130E+03  0.50400001928E-02 0.  1.
</event>
<event>
 5   0  0.5118882E-03  0.5000396E+03  0.7818609E-02  0.1013769E+00
        2   -1    0    0  501    0  0.00000000000E+00  0.00000000000E+00  0.14766563051E+04  0.14766563051E+04  0.25500000920E-02 0.  1.
       -2   -1    0    0    0  501  0.00000000000E+00  0.00000000000E+00 -0.42332054043E+02  0.42332054120E+02  0.25500000920E-02 0. -1.
    10030    2    1    2    0    0  0.00000000000E+00  0.00000000000E+00  0.14343242510E+04  0.15189883592E+04  0.50003957672E+03 0.  0.
        3    1    3    3  502    0 -0.18160209431E+02 -0.84246021605E+02  0.14301098264E+04  0.14327041953E+04  0.10100000352E+00 0.  1.
       -3    1    3    3    0  502  0.18160209431E+02  0.84246021605E+02  0.42144245906E+01  0.86284163892E+02  0.10100000352E+00 0. -1.
</event>
<event>
 5   0  0.4889251E-03  0.5000939E+03  0.7818609E-02  0.1013754E+00
        2   -1    0    0  501    0  0.00000000000E+00  0.00000000000E+00  0.51251524308E+03  0.51251524309E+03  0.25500000920E-02 0.  1.
       -2   -1    0    0    0  501  0.00000000000E+00  0.00000000000E+00 -0.12199338583E+03  0.12199338586E+03  0.25500000920E-02 0. -1.
    10030    2    1    2    0    0  0.00000000000E+00  0.00000000000E+00  0.39052185725E+03  0.63450862895E+03  0.50009387040E+03 0.  0.
        5    1    3    3  502    0  0.70737072263E+02 -0.15870889452E+03  0.42332068425E+03  0.45761855109E+03  0.46999998093E+01 0.  1.
       -5    1    3    3    0  502 -0.70737072263E+02  0.15870889452E+03 -0.32798826999E+02  0.17689007785E+03  0.46999998093E+01 0. -1.
</event>
<event>
 5   0  0.4889251E-03  0.4997400E+03  0.7818609E-02  0.1013847E+00
        2   -1    0    0  501    0  0.00000000000E+00  0.00000000000E+00  0.21670744152E+04  0.21670744152E+04  0.25500000920E-02 0.  1.
       -2   -1    0    0    0  501  0.00000000000E+00  0.00000000000E+00 -0.28810741446E+02  0.28810741559E+02  0.25500000920E-02 0. -1.
    10030    2    1    2    0    0  0.00000000000E+00  0.00000000000E+00  0.21382636737E+04  0.21958851567E+04  0.49974001559E+03 0.  0.
        5    1    3    3  502    0 -0.76350694874E+02  0.77999761671E+02  0.20565684023E+04  0.20594681534E+04  0.46999998093E+01 0.  1.
       -5    1    3    3    0  502  0.76350694874E+02 -0.77999761671E+02  0.81695271379E+02  0.13641700331E+03  0.46999998093E+01 0. -1.
</event>
<event>
 5   0  0.5118882E-03  0.5000320E+03  0.7818609E-02  0.1013771E+00
        2   -1    0    0  501    0  0.00000000000E+00  0.00000000000E+00  0.25218161780E+04  0.25218161780E+04  0.25500000920E-02 0.  1.
       -2   -1    0    0    0  501  0.00000000000E+00  0.00000000000E+00 -0.24786893770E+02  0.24786893901E+02  0.25500000920E-02 0. -1.
    10030    2    1    2    0    0  0.00000000000E+00  0.00000000000E+00  0.24970292843E+04  0.25466030719E+04  0.50003195850E+03 0.  0.
        3    1    3    3  502    0 -0.67132558352E+02  0.23398386608E+03  0.15389763050E+04  0.15581088883E+04  0.10100000352E+00 0.  1.
       -3    1    3    3    0  502  0.67132558352E+02 -0.23398386608E+03  0.95805297921E+03  0.98849418367E+03  0.10100000352E+00 0. -1.
</event>
<event>
 5   0  0.2863538E-03  0.4999996E+03  0.7818609E-02  0.1013779E+00
        1   -1    0    0  501    0  0.00000000000E+00  0.00000000000E+00  0.34656940081E+03  0.34656940084E+03  0.50400001928E-02 0. -1.
       -1   -1    0    0    0  501  0.00000000000E+00  0.00000000000E+00 -0.18033874152E+03  0.18033874159E+03  0.50400001928E-02 0.  1.
    10030    2    1    2    0    0  0.00000000000E+00  0.00000000000E+00  0.16623065929E+03  0.52690814243E+03  0.49999955847E+03 0.  0.
        1    1    3    3  502    0  0.18837490445E+03  0.91602689637E+02 -0.60697836706E+02  0.21808343536E+03  0.50400001928E-02 0.  1.
       -1    1    3    3    0  502 -0.18837490445E+03 -0.91602689637E+02  0.22692849599E+03  0.30882470707E+03  0.50400001928E-02 0. -1.
</event>
<event>
 5   0  0.3013734E-03  0.4999214E+03  0.7818609E-02  0.1013799E+00
        1   -1    0    0  501    0  0.00000000000E+00  0.00000000000E+00  0.15721583169E+03  0.15721583177E+03  0.50400001928E-02 0.  1.
       -1   -1    0    0    0  501  0.00000000000E+00  0.00000000000E+00 -0.39741764155E+03  0.39741764159E+03  0.50400001928E-02 0. -1.
    10030    2    1    2    0    0  0.00000000000E+00  0.00000000000E+00 -0.24020180986E+03  0.55463347336E+03  0.49992137413E+03 0.  0.
        2    1    3    3  502    0  0.85204405940E+02 -0.16312752223E+03 -0.30775715793E+03  0.35858729421E+03  0.25500000920E-02 0. -1.
       -2    1    3    3    0  502 -0.85204405940E+02  0.16312752223E+03  0.67555348070E+02  0.19604617915E+03  0.25500000920E-02 0.  1.
</event>
<event>
 5   0  0.3057783E-03  0.4999491E+03  0.7818609E-02  0.1013792E+00
       -1   -1    0    0    0  501  0.00000000000E+00  0.00000000000E+00  0.48981495529E+02  0.48981495788E+02  0.50400001928E-02 0.  1.
        1   -1    0    0  501    0  0.00000000000E+00  0.00000000000E+00 -0.12757324016E+04  0.12757324016E+04  0.50400001928E-02 0. -1.
    10030    2    1    2    0    0  0.00000000000E+00  0.00000000000E+00 -0.12267509061E+04  0.13247138974E+04  0.49994912183E+03 0.  0.
        5    1    3    3  502    0  0.16688948127E+03 -0.35352313263E+02 -0.10973592502E+04  0.11105499985E+04  0.46999998093E+01 0. -1.
       -5    1    3    3    0  502 -0.16688948127E+03  0.35352313263E+02 -0.12939165585E+03  0.21416389895E+03  0.46999998093E+01 0.  1.
</event>
<event>
 5   0  0.4989875E-03  0.5002851E+03  0.7818609E-02  0.1013705E+00
       -2   -1    0    0    0  501  0.00000000000E+00  0.00000000000E+00  0.11743086953E+03  0.11743086956E+03  0.25500000920E-02 0. -1.
        2   -1    0    0  501    0  0.00000000000E+00  0.00000000000E+00 -0.53283508551E+03  0.53283508551E+03  0.25500000920E-02 0.  1.
    10030    2    1    2    0    0  0.00000000000E+00  0.00000000000E+00 -0.41540421598E+03  0.65026595507E+03  0.50028506841E+03 0.  0.
        2    1    3    3  502    0 -0.13625619943E+02 -0.89242417935E+02 -0.51092250607E+03  0.51883684709E+03  0.25500000920E-02 0.  1.
       -2    1    3    3    0  502  0.13625619943E+02  0.89242417935E+02  0.95518290091E+02  0.13142910799E+03  0.25500000920E-02 0. -1.
</event>
<event>
 5   0  0.3055293E-03  0.5001663E+03  0.7818609E-02  0.1013736E+00
       -1   -1    0    0    0  501  0.00000000000E+00  0.00000000000E+00  0.10035909897E+04  0.10035909897E+04  0.50400001928E-02 0. -1.
        1   -1    0    0  501    0  0.00000000000E+00  0.00000000000E+00 -0.62317801152E+02  0.62317801355E+02  0.50400001928E-02 0.  1.
    10030    2    1    2    0    0  0.00000000000E+00  0.00000000000E+00  0.94127318852E+03  0.10659087910E+04  0.50016630773E+03 0.  0.
        3    1    3    3  502    0  0.10867363738E+03 -0.47833158437E+02  0.15815297793E+01  0.11874545021E+03  0.10100000352E+00 0.  1.
       -3    1    3    3    0  502 -0.10867363738E+03  0.47833158437E+02  0.93969165874E+03  0.94716334083E+03  0.10100000352E+00 0. -1.
</event>
<event>
 5   0  0.3211775E-03  0.5000771E+03  0.7818609E-02  0.1013759E+00
       -1   -1    0    0    0  501  0.00000000000E+00  0.00000000000E+00  0.36768390908E+03  0.36768390912E+03  0.50400001928E-02 0.  1.
        1   -1    0    0  501    0  0.00000000000E+00  0.00000000000E+00 -0.17003537198E+03  0.17003537205E+03  0.50400001928E-02 0. -1.
    10030    2    1    2    0    0  0.00000000000E+00  0.00000000000E+00  0.19764853711E+03  0.53771928117E+03  0.50007707518E+03 0.  0.
        4    1    3    3  502    0  0.14553483978E+03  0.13759621544E+03  0.25977270772E+03  0.32801917729E+03  0.12699999809E+01 0.  1.
       -4    1    3    3    0  502 -0.14553483978E+03 -0.13759621544E+03 -0.62124170618E+02  0.20970010388E+03  0.12699999809E+01 0. -1.
</event>
<event>
 5   0  0.5095783E-03  0.5036289E+03  0.7818609E-02  0.1012836E+00
       -2   -1    0    0    0  501  0.00000000000E+00  0.00000000000E+00  0.71056332181E+02  0.71056332227E+02  0.25500000920E-02 0.  1.
        2   -1    0    0  501    0  0.00000000000E+00  0.00000000000E+00 -0.89239780227E+03  0.89239780227E+03  0.25500000920E-02 0. -1.
    10030    2    1    2    0    0  0.00000000000E+00  0.00000000000E+00 -0.82134147008E+03  0.96345413450E+03  0.50362888995E+03 0.  0.
        4    1    3    3  502    0 -0.70874909259E+02 -0.13390842875E+02 -0.87220668508E+03  0.87518494150E+03  0.12699999809E+01 0. -1.
       -4    1    3    3    0  502  0.70874909259E+02  0.13390842875E+02  0.50865214994E+02  0.88269192994E+02  0.12699999809E+01 0.  1.
</event>
<event>
 5   0  0.2005125E-03  0.5001650E+03  0.7818609E-02  0.1013736E+00
       -3   -1    0    0    0  501  0.00000000000E+00  0.00000000000E+00  0.64933388853E+03  0.64933389639E+03  0.10100000352E+00 0. -1.
        3   -1    0    0  501    0  0.00000000000E+00  0.00000000000E+00 -0.96315977336E+02  0.96316030292E+02  0.10100000352E+00 0.  1.
    10030    2    1    2    0    0  0.00000000000E+00  0.00000000000E+00  0.55301791120E+03  0.74564992668E+03  0.50016497583E+03 0.  0.
        4    1    3    3  502    0 -0.74761090645E+02  0.80098109371E+02  0.61164149071E+03  0.62137899374E+03  0.12699999809E+01 0. -1.
       -4    1    3    3    0  502  0.74761090645E+02 -0.80098109371E+02 -0.58623579514E+02  0.12427093294E+03  0.12699999809E+01 0.  1.
</event>
<event>
 5   0  0.3211775E-03  0.5001750E+03  0.7818609E-02  0.1013733E+00
        1   -1    0    0  501    0  0.00000000000E+00  0.00000000000E+00  0.33711975950E+03  0.33711975954E+03  0.50400001928E-02 0. -1.
       -1   -1    0    0    0  501  0.00000000000E+00  0.00000000000E+00 -0.18552383787E+03  0.18552383794E+03  0.50400001928E-02 0.  1.
    10030    2    1    2    0    0  0.00000000000E+00  0.00000000000E+00  0.15159592163E+03  0.52264359748E+03  0.50017497591E+03 0.  0.
        4    1    3    3  502    0 -0.58837837215E+02 -0.13599715876E+03  0.28630496915E+03  0.32238062370E+03  0.12699999809E+01 0. -1.
       -4    1    3    3    0  502  0.58837837215E+02  0.13599715876E+03 -0.13470904752E+03  0.20026297377E+03  0.12699999809E+01 0.  1.
</event>
<event>
 5   0  0.2005125E-03  0.4991053E+03  0.7818609E-02  0.1014013E+00
       -3   -1    0    0    0  501  0.00000000000E+00  0.00000000000E+00  0.60241780928E+02  0.60241865596E+02  0.10100000352E+00 0.  1.
        3   -1    0    0  501    0  0.00000000000E+00  0.00000000000E+00 -0.10337756555E+04  0.10337756605E+04  0.10100000352E+00 0. -1.
    10030    2    1    2    0    0  0.00000000000E+00  0.00000000000E+00 -0.97353387461E+03  0.10940175261E+04  0.49910534192E+03 0.  0.
        3    1    3    3  502    0  0.12784231926E+03 -0.14421864316E+03 -0.83427234605E+03  0.85624355952E+03  0.10100000352E+00 0. -1.
       -3    1    3    3    0  502 -0.12784231926E+03  0.14421864316E+03 -0.13926152855E+03  0.23777396654E+03  0.10100000352E+00 0.  1.
</event>
<event>
 5   0  0.3211775E-03  0.4999215E+03  0.7818609E-02  0.1013799E+00
       -1   -1    0    0    0  501  0.00000000000E+00  0.00000000000E+00  0.15102485936E+03  0.15102485944E+03  0.50400001928E-02 0. -1.
        1   -1    0    0  501    0  0.00000000000E+00  0.00000000000E+00 -0.41370913957E+03  0.41370913960E+03  0.50400001928E-02 0.  1.
    10030    2    1    2    0    0  0.00000000000E+00  0.00000000000E+00 -0.26268428021E+03  0.56473399904E+03  0.49992145243E+03 0.  0.
        4    1    3    3  502    0  0.16191545190E+03 -0.17041505820E+03 -0.35349882367E+02  0.23771649650E+03  0.12699999809E+01 0. -1.
       -4    1    3    3    0  502 -0.16191545190E+03  0.17041505820E+03 -0.22733439784E+03  0.32701750254E+03  0.12699999809E+01 0.  1.
</event>
<event>
 5   0  0.2863538E-03  0.5007602E+03  0.7818609E-02  0.1013581E+00
       -1   -1    0    0    0  501  0.00000000000E+00  0.00000000000E+00  0.42242659232E+03  0.42242659235E+03  0.50400001928E-02 0. -1.
        1   -1    0    0  501    0  0.00000000000E+00  0.00000000000E+00 -0.14840492533E+03  0.14840492541E+03  0.50400001928E-02 0.  1.
    10030    2    1    2    0    0  0.00000000000E+00  0.00000000000E+00  0.27402166699E+03  0.57083151776E+03  0.50076016983E+03 0.  0.
        1    1    3    3  502    0 -0.21340670831E+03 -0.86820284455E+02  0.24875887077E+03  0.33905922899E+03  0.50400001928E-02 0.  1.
       -1    1    3    3    0  502  0.21340670831E+03  0.86820284455E+02  0.25262796220E+02  0.23177228878E+03  0.50400001928E-02 0. -1.
</event>
<event>
 5   0  0.4978779E-03  0.4998480E+03  0.7818609E-02  0.1013819E+00
       -2   -1    0    0    0  501  0.00000000000E+00  0.00000000000E+00  0.17600438711E+03  0.17600438713E+03  0.25500000920E-02 0. -1.
        2   -1    0    0  501    0  0.00000000000E+00  0.00000000000E+00 -0.35488885693E+03  0.35488885694E+03  0.25500000920E-02 0.  1.
    10030    2    1    2    0    0  0.00000000000E+00  0.00000000000E+00 -0.17888446982E+03  0.53089324407E+03  0.49984795994E+03 0.  0.
        1    1    3    3  502    0  0.40183627247E+02 -0.28425103861E+02 -0.34969001384E+03  0.35313710684E+03  0.50400001928E-02 0.  1.
       -1    1    3    3    0  502 -0.40183627247E+02  0.28425103861E+02  0.17080554402E+03  0.17775613722E+03  0.50400001928E-02 0. -1.
</event>
<event>
 5   0  0.3055293E-03  0.4999932E+03  0.7818609E-02  0.1013781E+00
       -1   -1    0    0    0  501  0.00000000000E+00  0.00000000000E+00  0.71387570558E+03  0.71387570560E+03  0.50400001928E-02 0. -1.
        1   -1    0    0  501    0  0.00000000000E+00  0.00000000000E+00 -0.87547878096E+02  0.87547878241E+02  0.50400001928E-02 0.  1.
    10030    2    1    2    0    0  0.00000000000E+00  0.00000000000E+00  0.62632782749E+03  0.80142358384E+03  0.49999321321E+03 0.  0.
        3    1    3    3  502    0 -0.13337743860E+03  0.12993949837E+03  0.58053320677E+03  0.60966599768E+03  0.10100000352E+00 0. -1.
       -3    1    3    3    0  502  0.13337743860E+03 -0.12993949837E+03  0.45794620712E+02  0.19175758616E+03  0.10100000352E+00 0.  1.
</event>
<event>
 5   0  0.4989875E-03  0.4998360E+03  0.7818609E-02  0.1013822E+00
       -2   -1    0    0    0  501  0.00000000000E+00  0.00000000000E+00  0.52517478235E+03  0.52517478236E+03  0.25500000920E-02 0.  1.
        2   -1    0    0  501    0  0.00000000000E+00  0.00000000000E+00 -0.11892992144E+03  0.11892992146E+03  0.25500000920E-02 0. -1.
    10030    2    1    2    0    0  0.00000000000E+00  0.00000000000E+00  0.40624486091E+03  0.64410470382E+03  0.49983595556E+03 0.  0.
        2    1    3    3  502    0 -0.12014314833E+03 -0.14667614571E+03  0.41293900974E+03  0.45438628234E+03  0.25500000920E-02 0.  1.
       -2    1    3    3    0  502  0.12014314833E+03  0.14667614571E+03 -0.66941488282E+01  0.18971842147E+03  0.25500000920E-02 0. -1.
</event>
<event>
 5   0  0.5118882E-03  0.4986841E+03  0.7818609E-02  0.1014123E+00
       -2   -1    0    0    0  501  0.00000000000E+00  0.00000000000E+00  0.74516786497E+02  0.74516786540E+02  0.25500000920E-02 0. -1.
        2   -1    0    0  501    0  0.00000000000E+00  0.00000000000E+00 -0.83432819842E+03  0.83432819842E+03  0.25500000920E-02 0.  1.
    10030    2    1    2    0    0  0.00000000000E+00  0.00000000000E+00 -0.75981141192E+03  0.90884498496E+03  0.49868409339E+03 0.  0.
        3    1    3    3  502    0 -0.53496586947E+02  0.22830631930E+03 -0.22541532890E+03  0.32526564674E+03  0.10100000352E+00 0. -1.
       -3    1    3    3    0  502  0.53496586947E+02 -0.22830631930E+03 -0.53439608303E+03  0.58357933822E+03  0.10100000352E+00 0.  1.
</event>
<event>
 5   0  0.3057783E-03  0.5000718E+03  0.7818609E-02  0.1013760E+00
       -1   -1    0    0    0  501  0.00000000000E+00  0.00000000000E+00  0.11610743267E+03  0.11610743278E+03  0.50400001928E-02 0. -1.
        1   -1    0    0  501    0  0.00000000000E+00  0.00000000000E+00 -0.53844919132E+03  0.53844919135E+03  0.50400001928E-02 0.  1.
    10030    2    1    2    0    0  0.00000000000E+00  0.00000000000E+00 -0.42234175866E+03  0.65455662412E+03  0.50007180792E+03 0.  0.
        5    1    3    3  502    0  0.19059909321E+03  0.12217402376E+03 -0.72391730916E+02  0.23773337822E+03  0.46999998093E+01 0. -1.
       -5    1    3    3    0  502 -0.19059909321E+03 -0.12217402376E+03 -0.34995002774E+03  0.41682324591E+03  0.46999998093E+01 0.  1.
</event>
<event>
 5   0  0.3057783E-03  0.4999559E+03  0.7818609E-02  0.1013790E+00
       -1   -1    0    0    0  501  0.00000000000E+00  0.00000000000E+00  0.21104873988E+03  0.21104873995E+03  0.50400001928E-02 0.  1.
        1   -1    0    0  501    0  0.00000000000E+00  0.00000000000E+00 -0.29608782878E+03  0.29608782883E+03  0.50400001928E-02 0. -1.
    10030    2    1    2    0    0  0.00000000000E+00  0.00000000000E+00 -0.85039088898E+02  0.50713656877E+03  0.49995585079E+03 0.  0.
        5    1    3    3  502    0 -0.15814058672E+03 -0.30781887754E+01 -0.23881629550E+03  0.28648426381E+03  0.46999998093E+01 0. -1.
       -5    1    3    3    0  502  0.15814058672E+03  0.30781887754E+01  0.15377720660E+03  0.22065230496E+03  0.46999998093E+01 0.  1.
</event>
<event>
 5   0  0.5095783E-03  0.4991542E+03  0.7818609E-02  0.1014000E+00
        2   -1    0    0  501    0  0.00000000000E+00  0.00000000000E+00  0.91858813840E+03  0.91858813841E+03  0.25500000920E-02 0. -1.
       -2   -1    0    0    0  501  0.00000000000E+00  0.00000000000E+00 -0.67809215405E+02  0.67809215453E+02  0.25500000920E-02 0.  1.
    10030    2    1    2    0    0  0.00000000000E+00  0.00000000000E+00  0.85077892300E+03  0.98639735386E+03  0.49915424859E+03 0.  0.
        4    1    3    3  502    0  0.19223277684E+03 -0.13891707970E+03  0.57891552698E+03  0.62561665244E+03  0.12699999809E+01 0. -1.
       -4    1    3    3    0  502 -0.19223277684E+03  0.13891707970E+03  0.27186339601E+03  0.36078070142E+03  0.12699999809E+01 0.  1.
</event>
<event>
 5   0  0.5095783E-03  0.5000212E+03  0.7818609E-02  0.1013773E+00
        2   -1    0    0  501    0  0.00000000000E+00  0.00000000000E+00  0.15504141394E+03  0.15504141396E+03  0.25500000920E-02 0. -1.
       -2   -1    0    0    0  501  0.00000000000E+00  0.00000000000E+00 -0.40315232100E+03  0.40315232101E+03  0.25500000920E-02 0.  1.
    10030    2    1    2    0    0  0.00000000000E+00  0.00000000000E+00 -0.24811090706E+03  0.55819373497E+03  0.50002122310E+03 0.  0.
        4    1    3    3  502    0  0.93564711283E+02 -0.17030681548E+03 -0.29966155554E+03  0.35715182676E+03  0.12699999809E+01 0.  1.
       -4    1    3    3    0  502 -0.93564711283E+02  0.17030681548E+03  0.51550648476E+02  0.20104190820E+03  0.12699999809E+01 0. -1.
</event>
<event>
 5   0  0.4989875E-03  0.5000277E+03  0.7818609E-02  0.1013772E+00
       -2   -1    0    0    0  501  0.00000000000E+00  0.00000000000E+00  0.10363046154E+03  0.10363046157E+03  0.25500000920E-02 0. -1.
        2   -1    0    0  501    0  0.00000000000E+00  0.00000000000E+00 -0.60317143609E+03  0.60317143610E+03  0.25500000920E-02 0.  1.
    10030    2    1    2    0    0  0.00000000000E+00  0.00000000000E+00 -0.49954097455E+03  0.70680189767E+03  0.50002773652E+03 0.  0.
        2    1    3    3  502    0  0.48316327967E+02 -0.24108130677E+03 -0.31380599993E+03  0.39865883864E+03  0.25500000920E-02 0. -1.
       -2    1    3    3    0  502 -0.48316327967E+02  0.24108130677E+03 -0.18573497462E+03  0.30814305903E+03  0.25500000920E-02 0.  1.
</event>
<event>
 5   0  0.3055293E-03  0.4999114E+03  0.7818609E-02  0.1013802E+00
        1   -1    0    0  501    0  0.00000000000E+00  0.00000000000E+00  0.64344179639E+03  0.64344179641E+03  0.50400001928E-02 0.  1.
       -1   -1    0    0    0  501  0.00000000000E+00  0.00000000000E+00 -0.97099446405E+02  0.97099446536E+02  0.50400001928E-02 0. -1.
    10030    2    1    2    0    0  0.00000000000E+00  0.00000000000E+00  0.54634234998E+03  0.74054124294E+03  0.49991136126E+03 0.  0.
        3    1    3    3  502    0 -0.20027345513E+03  0.82959878229E+02  0.45751404555E+03  0.50627157761E+03  0.10100000352E+00 0.  1.
       -3    1    3    3    0  502  0.20027345513E+03 -0.82959878229E+02  0.88828304434E+02  0.23426966533E+03  0.10100000352E+00 0. -1.
</event>
<event>
 5   0  0.5118882E-03  0.5000371E+03  0.7818609E-02  0.1013769E+00
        2   -1    0    0  501    0  0.00000000000E+00  0.00000000000E+00  0.29893111099E+03  0.29893111100E+03  0.25500000920E-02 0.  1.
       -2   -1    0    0    0  501  0.00000000000E+00  0.00000000000E+00 -0.20910926845E+03  0.20910926846E+03  0.25500000920E-02 0. -1.
    10030    2    1    2    0    0  0.00000000000E+00  0.00000000000E+00  0.89821842540E+02  0.50804037946E+03  0.50003706239E+03 0.  0.
        3    1    3    3  502    0 -0.31070585499E+02  0.26333869334E+02 -0.20571602450E+03  0.20970919602E+03  0.10100000352E+00 0. -1.
       -3    1    3    3    0  502  0.31070585499E+02 -0.26333869334E+02  0.29553786704E+03  0.29833118344E+03  0.10100000352E+00 0.  1.
</event>
<event>
 5   0  0.3057783E-03  0.4999640E+03  0.7818609E-02  0.1013788E+00
       -1   -1    0    0    0  501  0.00000000000E+00  0.00000000000E+00  0.27637400631E+03  0.27637400635E+03  0.50400001928E-02 0.  1.
        1   -1    0    0  501    0  0.00000000000E+00  0.00000000000E+00 -0.22611029541E+03  0.22611029547E+03  0.50400001928E-02 0. -1.
    10030    2    1    2    0    0  0.00000000000E+00  0.00000000000E+00  0.50263710894E+02  0.50248430182E+03  0.49996403165E+03 0.  0.
        5    1    3    3  502    0 -0.14116943052E+03 -0.83387689823E+02 -0.16446319940E+03  0.23227687978E+03  0.46999998093E+01 0. -1.
       -5    1    3    3    0  502  0.14116943052E+03  0.83387689823E+02  0.21472691029E+03  0.27020742204E+03  0.46999998093E+01 0.  1.
</event>
<event>
 5   0  0.3055293E-03  0.5000202E+03  0.7818609E-02  0.1013774E+00
        1   -1    0    0  501    0  0.00000000000E+00  0.00000000000E+00  0.52982333429E+03  0.52982333432E+03  0.50400001928E-02 0. -1.
       -1   -1    0    0    0  501  0.00000000000E+00  0.00000000000E+00 -0.11797336419E+03  0.11797336430E+03  0.50400001928E-02 0.  1.
    10030    2    1    2    0    0  0.00000000000E+00  0.00000000000E+00  0.41184997010E+03  0.64779669861E+03  0.50002016445E+03 0.  0.
        3    1    3    3  502    0 -0.65242500059E+02 -0.26013682744E+01 -0.10673201680E+03  0.12512028029E+03  0.10100000352E+00 0.  1.
       -3    1    3    3    0  502  0.65242500059E+02  0.26013682744E+01  0.51858198690E+03  0.52267641832E+03  0.10100000352E+00 0. -1.
</event>
<event>
 5   0  0.3057783E-03  0.4999485E+03  0.7818609E-02  0.1013792E+00
        1   -1    0    0  501    0  0.00000000000E+00  0.00000000000E+00  0.63563135057E+03  0.63563135059E+03  0.50400001928E-02 0.  1.
       -1   -1    0    0    0  501  0.00000000000E+00  0.00000000000E+00 -0.98307163841E+02  0.98307163970E+02  0.50400001928E-02 0. -1.
    10030    2    1    2    0    0  0.00000000000E+00  0.00000000000E+00  0.53732418673E+03  0.73393851456E+03  0.49994845885E+03 0.  0.
        5    1    3    3  502    0 -0.18558768799E+03 -0.95418238108E+02  0.66747639032E+02  0.21914553934E+03  0.46999998093E+01 0. -1.
       -5    1    3    3    0  502  0.18558768799E+03  0.95418238108E+02  0.47057654770E+03  0.51479297522E+03  0.46999998093E+01 0.  1.
</event>
<event>
 5   0  0.5095783E-03  0.4999812E+03  0.7818609E-02  0.1013784E+00
        2   -1    0    0  501    0  0.00000000000E+00  0.00000000000E+00  0.10831864247E+04  0.10831864247E+04  0.25500000920E-02 0. -1.
       -2   -1    0    0    0  501  0.00000000000E+00  0.00000000000E+00 -0.57695791552E+02  0.57695791608E+02  0.25500000920E-02 0.  1.
    10030    2    1    2    0    0  0.00000000000E+00  0.00000000000E+00  0.10254906332E+04  0.11408822164E+04  0.49998119248E+03 0.  0.
        4    1    3    3  502    0 -0.21037342432E+03 -0.12661870139E+03  0.40560978320E+03  0.47414152142E+03  0.12699999809E+01 0.  1.
       -4    1    3    3    0  502  0.21037342432E+03  0.12661870139E+03  0.61988084999E+03  0.66674069494E+03  0.12699999809E+01 0. -1.
</event>
<event>
 5   0  0.3013734E-03  0.4999975E+03  0.7818609E-02  0.1013780E+00
       -1   -1    0    0    0  501  0.00000000000E+00  0.00000000000E+00  0.65740724545E+02  0.65740724738E+02  0.50400001928E-02 0. -1.
        1   -1    0    0  501    0  0.00000000000E+00  0.00000000000E+00 -0.95069500643E+03  0.95069500645E+03  0.50400001928E-02 0.  1.
    10030    2    1    2    0    0  0.00000000000E+00  0.00000000000E+00 -0.88495428189E+03  0.10164357312E+04  0.49999751459E+03 0.  0.
        2    1    3    3  502    0  0.12018406542E+03 -0.93239910146E+02 -0.84579535295E+03  0.85936468946E+03  0.25500000920E-02 0.  1.
       -2    1    3    3    0  502 -0.12018406542E+03  0.93239910146E+02 -0.39158928943E+02  0.15707104172E+03  0.25500000920E-02 0. -1.
</event>
<event>
 5   0  0.3055293E-03  0.4998597E+03  0.7818609E-02  0.1013816E+00
       -1   -1    0    0    0  501  0.00000000000E+00  0.00000000000E+00  0.11555487708E+03  0.11555487719E+03  0.50400001928E-02 0. -1.
        1   -1    0    0  501    0  0.00000000000E+00  0.00000000000E+00 -0.54056504146E+03  0.54056504148E+03  0.50400001928E-02 0.  1.
    10030    2    1    2    0    0  0.00000000000E+00  0.00000000000E+00 -0.42501016438E+03  0.65611991867E+03  0.49985968817E+03 0.  0.
        3    1    3    3  502    0 -0.10961046291E+03  0.14474393171E+03  0.12941468336E+02  0.18202404003E+03  0.10100000352E+00 0. -1.
       -3    1    3    3    0  502  0.10961046291E+03 -0.14474393171E+03 -0.43795163271E+03  0.47409587864E+03  0.10100000352E+00 0.  1.
</event>
<event>
 5   0  0.4989875E-03  0.5002119E+03  0.7818609E-02  0.1013724E+00
       -2   -1    0    0    0  501  0.00000000000E+00  0.00000000000E+00  0.68415747083E+02  0.68415747131E+02  0.25500000920E-02 0.  1.
        2   -1    0    0  501    0  0.00000000000E+00  0.00000000000E+00 -0.91430678307E+03  0.91430678308E+03  0.25500000920E-02 0. -1.
    10030    2    1    2    0    0  0.00000000000E+00  0.00000000000E+00 -0.84589103599E+03  0.98272253021E+03  0.50021188171E+03 0.  0.
        2    1    3    3  502    0  0.21024717565E+03  0.42376667827E+02 -0.67571202550E+03  0.70893328195E+03  0.25500000920E-02 0. -1.
       -2    1    3    3    0  502 -0.21024717565E+03 -0.42376667827E+02 -0.17017901049E+03  0.27378924826E+03  0.25500000920E-02 0.  1.
</event>
<event>
 5   0  0.3055293E-03  0.5000113E+03  0.7818609E-02  0.1013776E+00
        1   -1    0    0  501    0  0.00000000000E+00  0.00000000000E+00  0.23974555251E+03  0.23974555256E+03  0.50400001928E-02 0.  1.
       -1   -1    0    0    0  501  0.00000000000E+00  0.00000000000E+00 -0.26070484277E+03  0.26070484282E+03  0.50400001928E-02 0. -1.
    10030    2    1    2    0    0  0.00000000000E+00  0.00000000000E+00 -0.20959290261E+02  0.50045039538E+03  0.50001130626E+03 0.  0.
        3    1    3    3  502    0  0.16247730810E+03  0.12107556670E+02  0.17931110291E+03  0.24227659896E+03  0.10100000352E+00 0.  1.
       -3    1    3    3    0  502 -0.16247730810E+03 -0.12107556670E+02 -0.20027039317E+03  0.25817379642E+03  0.10100000352E+00 0. -1.
</event>
<event>
 5   0  0.4978779E-03  0.4997741E+03  0.7818609E-02  0.1013838E+00
        2   -1    0    0  501    0  0.00000000000E+00  0.00000000000E+00  0.33981763156E+03  0.33981763157E+03  0.25500000920E-02 0.  1.
       -2   -1    0    0    0  501  0.00000000000E+00  0.00000000000E+00 -0.18375600614E+03  0.18375600616E+03  0.25500000920E-02 0. -1.
    10030    2    1    2    0    0  0.00000000000E+00  0.00000000000E+00  0.15606162541E+03  0.52357363772E+03  0.49977407215E+03 0.  0.
        1    1    3    3  502    0  0.92629857872E+02  0.22595072958E+03  0.13355972761E+03  0.27833832584E+03  0.50400001928E-02 0. -1.
       -1    1    3    3    0  502 -0.92629857872E+02 -0.22595072958E+03  0.22501897809E+02  0.24523531189E+03  0.50400001928E-02 0.  1.
</event>
<event>
 5   0  0.4978779E-03  0.5001965E+03  0.7818609E-02  0.1013728E+00
       -2   -1    0    0    0  501  0.00000000000E+00  0.00000000000E+00  0.11141352392E+03  0.11141352395E+03  0.25500000920E-02 0.  1.
        2   -1    0    0  501    0  0.00000000000E+00  0.00000000000E+00 -0.56141413198E+03  0.56141413198E+03  0.25500000920E-02 0. -1.
    10030    2    1    2    0    0  0.00000000000E+00  0.00000000000E+00 -0.45000060806E+03  0.67282765593E+03  0.50019646873E+03 0.  0.
        1    1    3    3  502    0  0.41402829067E+02  0.21198243932E+03 -0.55394924939E+02  0.22297835449E+03  0.50400001928E-02 0.  1.
       -1    1    3    3    0  502 -0.41402829067E+02 -0.21198243932E+03 -0.39460568312E+03  0.44984930144E+03  0.50400001928E-02 0. -1.
</event>
<event>
 5   0  0.5118882E-03  0.4998659E+03  0.7818609E-02  0.1013814E+00
        2   -1    0    0  501    0  0.00000000000E+00  0.00000000000E+00  0.11603088770E+03  0.11603088773E+03  0.25500000920E-02 0. -1.
       -2   -1    0    0    0  501  0.00000000000E+00  0.00000000000E+00 -0.53836079490E+03  0.53836079490E+03  0.25500000920E-02 0.  1.
    10030    2    1    2    0    0  0.00000000000E+00  0.00000000000E+00 -0.42232990719E+03  0.65439168263E+03  0.49986590581E+03 0.  0.
        3    1    3    3  502    0 -0.14138875780E+03 -0.16260781603E+03 -0.45393231114E+02  0.22021044094E+03  0.10100000352E+00 0. -1.
       -3    1    3    3    0  502  0.14138875780E+03  0.16260781603E+03 -0.37693667608E+03  0.43418124170E+03  0.10100000352E+00 0.  1.
</event>
<event>
 5   0  0.5118882E-03  0.5019396E+03  0.7818609E-02  0.1013274E+00
        2   -1    0    0  501    0  0.00000000000E+00  0.00000000000E+00  0.91512691578E+03  0.91512691578E+03  0.25500000920E-02 0.  1.
       -2   -1    0    0    0  501  0.00000000000E+00  0.00000000000E+00 -0.68827448991E+02  0.68827449038E+02  0.25500000920E-02 0. -1.
    10030    2    1    2    0    0  0.00000000000E+00  0.00000000000E+00  0.84629946679E+03  0.98395436482E+03  0.50193964235E+03 0.  0.
        3    1    3    3  502    0  0.95444857560E+02 -0.11847594031E+03  0.81442355304E+03  0.82851192098E+03  0.10100000352E+00 0.  1.
       -3    1    3    3    0  502 -0.95444857560E+02  0.11847594031E+03  0.31875913747E+02  0.15544244383E+03  0.10100000352E+00 0. -1.
</event>
<event>
 5   0  0.4889251E-03  0.4997660E+03  0.7818609E-02  0.1013840E+00
       -2   -1    0    0    0  501  0.00000000000E+00  0.00000000000E+00  0.47195725332E+03  0.47195725332E+03  0.25500000920E-02 0. -1.
        2   -1    0    0  501    0  0.00000000000E+00  0.00000000000E+00 -0.13230335036E+03  0.13230335038E+03  0.25500000920E-02 0.  1.
    10030    2    1    2    0    0  0.00000000000E+00  0.00000000000E+00  0.33965390296E+03  0.60426060370E+03  0.49976604866E+03 0.  0.
        5    1    3    3  502    0 -0.23760367177E+02 -0.12238389834E+01  0.47053098945E+03  0.47115555272E+03  0.46999998093E+01 0. -1.
       -5    1    3    3    0  502  0.23760367177E+02  0.12238389834E+01 -0.13087708649E+03  0.13310505098E+03  0.46999998093E+01 0.  1.
</event>
<event>
 5   0  0.3055293E-03  0.5000425E+03  0.7818609E-02  0.1013768E+00
        1   -1    0    0  501    0  0.00000000000E+00  0.00000000000E+00  0.24587791571E+03  0.24587791577E+03  0.50400001928E-02 0.  1.
       -1   -1    0    0    0  501  0.00000000000E+00  0.00000000000E+00 -0.25423443020E+03  0.25423443025E+03  0.50400001928E-02 0. -1.
    10030    2    1    2    0    0  0.00000000000E+00  0.00000000000E+00 -0.83565144878E+01  0.50011234602E+03  0.50004252550E+03 0.  0.
        3    1    3    3  502    0 -0.44572296877E+02 -0.24292720982E+03  0.34689782347E+02  0.24940671627E+03  0.10100000352E+00 0. -1.
       -3    1    3    3    0  502  0.44572296877E+02  0.24292720982E+03 -0.43046296835E+02  0.25070562975E+03  0.10100000352E+00 0.  1.
</event>
<event>
 5   0  0.3211775E-03  0.5000140E+03  0.7818609E-02  0.1013775E+00
       -1   -1    0    0    0  501  0.00000000000E+00  0.00000000000E+00  0.41673657822E+03  0.41673657825E+03  0.50400001928E-02 0. -1.
        1   -1    0    0  501    0  0.00000000000E+00  0.00000000000E+00 -0.14998324666E+03  0.14998324674E+03  0.50400001928E-02 0.  1.
    10030    2    1    2    0    0  0.00000000000E+00  0.00000000000E+00  0.26675333156E+03  0.56671982499E+03  0.50001401994E+03 0.  0.
        4    1    3    3  502    0 -0.20112554362E+03 -0.14456530164E+03  0.94919527170E+02  0.26525825204E+03  0.12699999809E+01 0.  1.
       -4    1    3    3    0  502  0.20112554362E+03  0.14456530164E+03  0.17183380439E+03  0.30146157295E+03  0.12699999809E+01 0. -1.
</event>
<event>
 5   0  0.5095783E-03  0.4998867E+03  0.7818609E-02  0.1013808E+00
       -2   -1    0    0    0  501  0.00000000000E+00  0.00000000000E+00  0.76202695266E+02  0.76202695309E+02  0.25500000920E-02 0. -1.
        2   -1    0    0  501    0  0.00000000000E+00  0.00000000000E+00 -0.81980937289E+03  0.81980937290E+03  0.25500000920E-02 0.  1.
    10030    2    1    2    0    0  0.00000000000E+00  0.00000000000E+00 -0.74360667763E+03  0.89601206821E+03  0.49988672253E+03 0.  0.
        4    1    3    3  502    0 -0.11090741547E+03 -0.60912372680E+02 -0.75815126355E+03  0.76863887702E+03  0.12699999809E+01 0.  1.
       -4    1    3    3    0  502  0.11090741547E+03  0.60912372680E+02  0.14544585921E+02  0.12737319118E+03  0.12699999809E+01 0. -1.
</event>
<event>
 5   0  0.3055293E-03  0.5009842E+03  0.7818609E-02  0.1013522E+00
       -1   -1    0    0    0  501  0.00000000000E+00  0.00000000000E+00  0.27369295277E+03  0.27369295281E+03  0.50400001928E-02 0. -1.
        1   -1    0    0  501    0  0.00000000000E+00  0.00000000000E+00 -0.22925799948E+03  0.22925799953E+03  0.50400001928E-02 0.  1.
    10030    2    1    2    0    0  0.00000000000E+00  0.00000000000E+00  0.44434953286E+02  0.50295095235E+03  0.50098422669E+03 0.  0.
        3    1    3    3  502    0  0.12007055375E+03  0.84625582618E+02  0.22591264911E+03  0.26947163550E+03  0.10100000352E+00 0. -1.
       -3    1    3    3    0  502 -0.12007055375E+03 -0.84625582618E+02 -0.18147769583E+03  0.23347931684E+03  0.10100000352E+00 0.  1.
</event>
<event>
 5   0  0.3013734E-03  0.5000282E+03  0.7818609E-02  0.1013772E+00
        1   -1    0    0  501    0  0.00000000000E+00  0.00000000000E+00  0.24604950767E+03  0.24604950772E+03  0.50400001928E-02 0.  1.
       -1   -1    0    0    0  501  0.00000000000E+00  0.00000000000E+00 -0.25404260246E+03  0.25404260251E+03  0.50400001928E-02 0. -1.
    10030    2    1    2    0    0  0.00000000000E+00  0.00000000000E+00 -0.79930947919E+01  0.50009211023E+03  0.50002822835E+03 0.  0.
        2    1    3    3  502    0 -0.68972314506E+02  0.22845188035E+03  0.70575807546E+02  0.24885414688E+03  0.25500000920E-02 0.  1.
       -2    1    3    3    0  502  0.68972314506E+02 -0.22845188035E+03 -0.78568902338E+02  0.25123796334E+03  0.25500000920E-02 0. -1.
</event>
<event>
 5   0  0.3055293E-03  0.4999452E+03  0.7818609E-02  0.1013793E+00
       -1   -1    0    0    0  501  0.00000000000E+00  0.00000000000E+00  0.41308430146E+02  0.41308430453E+02  0.50400001928E-02 0.  1.
        1   -1    0    0  501    0  0.00000000000E+00  0.00000000000E+00 -0.15126768424E+04  0.15126768424E+04  0.50400001928E-02 0. -1.
    10030    2    1    2    0    0  0.00000000000E+00  0.00000000000E+00 -0.14713684123E+04  0.15539852729E+04  0.49994522070E+03 0.  0.
        3    1    3    3  502    0 -0.13706021203E+03 -0.20904287430E+03 -0.73143285288E+03  0.77296730428E+03  0.10100000352E+00 0.  1.
       -3    1    3    3    0  502  0.13706021203E+03  0.20904287430E+03 -0.73993555940E+03  0.78101796861E+03  0.10100000352E+00 0. -1.
</event>
<event>
 5   0  0.2863538E-03  0.5002871E+03  0.7818609E-02  0.1013704E+00
        1   -1    0    0  501    0  0.00000000000E+00  0.00000000000E+00  0.14118433992E+04  0.14118433992E+04  0.50400001928E-02 0.  1.
       -1   -1    0    0    0  501  0.00000000000E+00  0.00000000000E+00 -0.44319218641E+02  0.44319218928E+02  0.50400001928E-02 0. -1.
    10030    2    1    2    0    0  0.00000000000E+00  0.00000000000E+00  0.13675241806E+04  0.14561626181E+04  0.50028710362E+03 0.  0.
        1    1    3    3  502    0  0.19505485461E+03 -0.26240366578E+02  0.23438084727E+03  0.30605446368E+03  0.50400001928E-02 0. -1.
       -1    1    3    3    0  502 -0.19505485461E+03  0.26240366578E+02  0.11331433333E+04  0.11501081545E+04  0.50400001928E-02 0.  1.
</event>
<event>
 5   0  0.3057783E-03  0.4999659E+03  0.7818609E-02  0.1013788E+00
        1   -1    0    0  501    0  0.00000000000E+00  0.00000000000E+00  0.68842062313E+03  0.68842062315E+03  0.50400001928E-02 0.  1.
       -1   -1    0    0    0  501  0.00000000000E+00  0.00000000000E+00 -0.90775147336E+02  0.90775147476E+02  0.50400001928E-02 0. -1.
    10030    2    1    2    0    0  0.00000000000E+00  0.00000000000E+00  0.59764547580E+03  0.77919577063E+03  0.49996593306E+03 0.  0.
        5    1    3    3  502    0  0.93398317184E+02 -0.22788200741E+03  0.23240917889E+03  0.33865848784E+03  0.46999998093E+01 0. -1.
       -5    1    3    3    0  502 -0.93398317184E+02  0.22788200741E+03  0.36523629691E+03  0.44053728279E+03  0.46999998093E+01 0.  1.
</event>
<event>
 5   0  0.2005125E-03  0.4999726E+03  0.7818609E-02  0.1013786E+00
        4   -1    0    0  501    0  0.00000000000E+00  0.00000000000E+00  0.24932723787E+03  0.24933047236E+03  0.12699999809E+01 0. -1.
       -4   -1    0    0    0  501  0.00000000000E+00  0.00000000000E+00 -0.25064063665E+03  0.25064385418E+03  0.12699999809E+01 0.  1.
    10030    2    1    2    0    0  0.00000000000E+00  0.00000000000E+00 -0.13133987710E+01  0.49997432654E+03  0.49997260143E+03 0.  0.
        5    1    3    3  502    0 -0.17453448079E+03 -0.10423687475E+03 -0.14606507402E+03  0.25036914124E+03  0.46999998093E+01 0.  1.
       -5    1    3    3    0  502  0.17453448079E+03  0.10423687475E+03  0.14475167525E+03  0.24960518529E+03  0.46999998093E+01 0. -1.
</event>
<event>
 5   0  0.2005125E-03  0.4999335E+03  0.7818609E-02  0.1013796E+00
        3   -1    0    0  501    0  0.00000000000E+00  0.00000000000E+00  0.65351498784E+03  0.65351499564E+03  0.10100000352E+00 0.  1.
       -3   -1    0    0    0  501  0.00000000000E+00  0.00000000000E+00 -0.95611185226E+02  0.95611238572E+02  0.10100000352E+00 0. -1.
    10030    2    1    2    0    0  0.00000000000E+00  0.00000000000E+00  0.55790380261E+03  0.74912623422E+03  0.49993345739E+03 0.  0.
        2    1    3    3  502    0 -0.86486906866E+02 -0.22124632489E+03  0.16236652672E+03  0.28773739824E+03  0.25500000920E-02 0. -1.
       -2    1    3    3    0  502  0.86486906866E+02  0.22124632489E+03  0.39553727589E+03  0.46138883598E+03  0.25500000920E-02 0.  1.
</event>
<event>
 5   0  0.2005125E-03  0.4999802E+03  0.7818609E-02  0.1013784E+00
       -4   -1    0    0    0  501  0.00000000000E+00  0.00000000000E+00  0.16077074968E+03  0.16077576575E+03  0.12699999809E+01 0.  1.
        4   -1    0    0  501    0  0.00000000000E+00  0.00000000000E+00 -0.38870947104E+03  0.38871154572E+03  0.12699999809E+01 0. -1.
    10030    2    1    2    0    0  0.00000000000E+00  0.00000000000E+00 -0.22793872136E+03  0.54948731147E+03  0.49998024439E+03 0.  0.
        1    1    3    3  502    0 -0.22899083759E+03 -0.10010380320E+03 -0.12069819286E+03  0.27753491473E+03  0.50400001928E-02 0.  1.
       -1    1    3    3    0  502  0.22899083759E+03  0.10010380320E+03 -0.10724052850E+03  0.27195239674E+03  0.50400001928E-02 0. -1.
</event>
<event>
 5   0  0.4889251E-03  0.5001172E+03  0.7818609E-02  0.1013748E+00
       -2   -1    0    0    0  501  0.00000000000E+00  0.00000000000E+00  0.12106189161E+03  0.12106189164E+03  0.25500000920E-02 0. -1.
        2   -1    0    0  501    0  0.00000000000E+00  0.00000000000E+00 -0.51650684060E+03  0.51650684061E+03  0.25500000920E-02 0.  1.
    10030    2    1    2    0    0  0.00000000000E+00  0.00000000000E+00 -0.39544494899E+03  0.63756873225E+03  0.50011716693E+03 0.  0.
        5    1    3    3  502    0  0.24405303934E+02 -0.29283975629E+02  0.11727888909E+03  0.12340825707E+03  0.46999998093E+01 0. -1.
       -5    1    3    3    0  502 -0.24405303934E+02  0.29283975629E+02 -0.51272383809E+03  0.51416047517E+03  0.46999998093E+01 0.  1.
</event>
<event>
 5   0  0.2863538E-03  0.4997196E+03  0.7818609E-02  0.1013852E+00
        1   -1    0    0  501    0  0.00000000000E+00  0.00000000000E+00  0.20071525481E+04  0.20071525481E+04  0.50400001928E-02 0. -1.
       -1   -1    0    0    0  501  0.00000000000E+00  0.00000000000E+00 -0.31103728388E+02  0.31103728796E+02  0.50400001928E-02 0.  1.
    10030    2    1    2    0    0  0.00000000000E+00  0.00000000000E+00  0.19760488197E+04  0.20382562769E+04  0.49971963384E+03 0.  0.
        1    1    3    3  502    0  0.22156315798E+03  0.11285561881E+03  0.10882089312E+04  0.11162550343E+04  0.50400001928E-02 0. -1.
       -1    1    3    3    0  502 -0.22156315798E+03 -0.11285561881E+03  0.88783988854E+03  0.92200124261E+03  0.50400001928E-02 0.  1.
</event>
<event>
 5   0  0.4889251E-03  0.5004754E+03  0.7818609E-02  0.1013655E+00
       -2   -1    0    0    0  501  0.00000000000E+00  0.00000000000E+00  0.73971913715E+02  0.73971913759E+02  0.25500000920E-02 0.  1.
        2   -1    0    0  501    0  0.00000000000E+00  0.00000000000E+00 -0.84652270619E+03  0.84652270619E+03  0.25500000920E-02 0. -1.
    10030    2    1    2    0    0  0.00000000000E+00  0.00000000000E+00 -0.77255079247E+03  0.92049461995E+03  0.50047539241E+03 0.  0.
        5    1    3    3  502    0 -0.67228051503E+02  0.53353596209E+02 -0.81851882184E+03  0.82301966492E+03  0.46999998093E+01 0. -1.
       -5    1    3    3    0  502  0.67228051503E+02 -0.53353596209E+02  0.45968029364E+02  0.97474955036E+02  0.46999998093E+01 0.  1.
</event>
<event>
 5   0  0.3055293E-03  0.5000425E+03  0.7818609E-02  0.1013768E+00
       -1   -1    0    0    0  501  0.00000000000E+00  0.00000000000E+00  0.97211666235E+02  0.97211666365E+02  0.50400001928E-02 0. -1.
        1   -1    0    0  501    0  0.00000000000E+00  0.00000000000E+00 -0.64303633323E+03  0.64303633325E+03  0.50400001928E-02 0.  1.
    10030    2    1    2    0    0  0.00000000000E+00  0.00000000000E+00 -0.54582466700E+03  0.74024799962E+03  0.50004253202E+03 0.  0.
        3    1    3    3  502    0  0.64674894035E+01  0.11941214950E+03  0.52127630250E+02  0.13045455110E+03  0.10100000352E+00 0. -1.
       -3    1    3    3    0  502 -0.64674894035E+01 -0.11941214950E+03 -0.59795229725E+03  0.60979344851E+03  0.10100000352E+00 0.  1.
</event>
<event>
 5   0  0.5095783E-03  0.4998190E+03  0.7818609E-02  0.1013826E+00
        2   -1    0    0  501    0  0.00000000000E+00  0.00000000000E+00  0.32014821695E+03  0.32014821696E+03  0.25500000920E-02 0. -1.
       -2   -1    0    0    0  501  0.00000000000E+00  0.00000000000E+00 -0.19508074444E+03  0.19508074446E+03  0.25500000920E-02 0.  1.
    10030    2    1    2    0    0  0.00000000000E+00  0.00000000000E+00  0.12506747251E+03  0.51522896142E+03  0.49981897724E+03 0.  0.
        4    1    3    3  502    0  0.23150599271E+03  0.24283154639E+02  0.15626822240E+03  0.28036773440E+03  0.12699999809E+01 0. -1.
       -4    1    3    3    0  502 -0.23150599271E+03 -0.24283154639E+02 -0.31200749892E+02  0.23486122702E+03  0.12699999809E+01 0.  1.
</event>
<event>
 5   0  0.3211775E-03  0.4998455E+03  0.7818609E-02  0.1013819E+00
       -1   -1    0    0    0  501  0.00000000000E+00  0.00000000000E+00  0.10216686452E+04  0.10216686452E+04  0.50400001928E-02 0. -1.
        1   -1    0    0  501    0  0.00000000000E+00  0.00000000000E+00 -0.61136635772E+02  0.61136635980E+02  0.50400001928E-02 0.  1.
    10030    2    1    2    0    0  0.00000000000E+00  0.00000000000E+00  0.96053200941E+03  0.10828052812E+04  0.49984551197E+03 0.  0.
        4    1    3    3  502    0 -0.21919378351E+03 -0.76466720485E+02  0.27976282182E+03  0.36354081400E+03  0.12699999809E+01 0.  1.
       -4    1    3    3    0  502  0.21919378351E+03  0.76466720485E+02  0.68076918758E+03  0.71926446717E+03  0.12699999809E+01 0. -1.
</event>
<event>
 5   0  0.5095783E-03  0.4993036E+03  0.7818609E-02  0.1013961E+00
        2   -1    0    0  501    0  0.00000000000E+00  0.00000000000E+00  0.11130822561E+04  0.11130822561E+04  0.25500000920E-02 0. -1.
       -2   -1    0    0    0  501  0.00000000000E+00  0.00000000000E+00 -0.55994077082E+02  0.55994077140E+02  0.25500000920E-02 0.  1.
    10030    2    1    2    0    0  0.00000000000E+00  0.00000000000E+00  0.10570881790E+04  0.11690763332E+04  0.49930356970E+03 0.  0.
        4    1    3    3  502    0  0.22597089567E+03  0.95868475705E+01  0.77600005642E+03  0.80828983279E+03  0.12699999809E+01 0. -1.
       -4    1    3    3    0  502 -0.22597089567E+03 -0.95868475705E+01  0.28108812255E+03  0.36078650041E+03  0.12699999809E+01 0.  1.
</event>
<event>
 5   0  0.4989875E-03  0.5002998E+03  0.7818609E-02  0.1013701E+00
        2   -1    0    0  501    0  0.00000000000E+00  0.00000000000E+00  0.58353040285E+03  0.58353040285E+03  0.25500000920E-02 0.  1.
       -2   -1    0    0    0  501  0.00000000000E+00  0.00000000000E+00 -0.10723516098E+03  0.10723516101E+03  0.25500000920E-02 0. -1.
    10030    2    1    2    0    0  0.00000000000E+00  0.00000000000E+00  0.47629524187E+03  0.69076556387E+03  0.50029981691E+03 0.  0.
        2    1    3    3  502    0  0.19086022296E+03 -0.93643673196E+01  0.15260634327E+02  0.19169820826E+03  0.25500000920E-02 0. -1.
       -2    1    3    3    0  502 -0.19086022296E+03  0.93643673196E+01  0.46103460754E+03  0.49906735561E+03  0.25500000920E-02 0.  1.
</event>
<event>
 5   0  0.2863538E-03  0.5000864E+03  0.7818609E-02  0.1013756E+00
        1   -1    0    0  501    0  0.00000000000E+00  0.00000000000E+00  0.17379350381E+03  0.17379350388E+03  0.50400001928E-02 0. -1.
       -1   -1    0    0    0  501  0.00000000000E+00  0.00000000000E+00 -0.35974641180E+03  0.35974641183E+03  0.50400001928E-02 0.  1.
    10030    2    1    2    0    0  0.00000000000E+00  0.00000000000E+00 -0.18595290799E+03  0.53353991571E+03  0.50008635021E+03 0.  0.
        1    1    3    3  502    0 -0.21892648657E+03 -0.10861722175E+03 -0.36571247612E+02  0.24711123722E+03  0.50400001928E-02 0. -1.
       -1    1    3    3    0  502  0.21892648657E+03  0.10861722175E+03 -0.14938166038E+03  0.28642867850E+03  0.50400001928E-02 0.  1.
</event>
<event>
 5   0  0.3057783E-03  0.4998308E+03  0.7818609E-02  0.1013823E+00
        1   -1    0    0  501    0  0.00000000000E+00  0.00000000000E+00  0.16305287758E+03  0.16305287766E+03  0.50400001928E-02 0.  1.
       -1   -1    0    0    0  501  0.00000000000E+00  0.00000000000E+00 -0.38305190002E+03  0.38305190005E+03  0.50400001928E-02 0. -1.
    10030    2    1    2    0    0  0.00000000000E+00  0.00000000000E+00 -0.21999902243E+03  0.54610477771E+03  0.49983082975E+03 0.  0.
        5    1    3    3  502    0 -0.49952482218E+02 -0.23527100951E+03 -0.35994496794E+02  0.24323937221E+03  0.46999998093E+01 0. -1.
       -5    1    3    3    0  502  0.49952482218E+02  0.23527100951E+03 -0.18400452564E+03  0.30286540550E+03  0.46999998093E+01 0.  1.
</event>
<event>
 5   0  0.2863538E-03  0.4998159E+03  0.7818609E-02  0.1013827E+00
        1   -1    0    0  501    0  0.00000000000E+00  0.00000000000E+00  0.41012692281E+03  0.41012692284E+03  0.50400001928E-02 0. -1.
       -1   -1    0    0    0  501  0.00000000000E+00  0.00000000000E+00 -0.15227966149E+03  0.15227966157E+03  0.50400001928E-02 0.  1.
    10030    2    1    2    0    0  0.00000000000E+00  0.00000000000E+00  0.25784726132E+03  0.56240658441E+03  0.49981592213E+03 0.  0.
        1    1    3    3  502    0 -0.13248693187E+03 -0.17243588802E+03  0.26750061416E+03  0.34473685790E+03  0.50400001928E-02 0. -1.
       -1    1    3    3    0  502  0.13248693187E+03  0.17243588802E+03 -0.96533528385E+01  0.21766972651E+03  0.50400001928E-02 0.  1.
</event>
<event>
 5   0  0.4889251E-03  0.4994761E+03  0.7818609E-02  0.1013916E+00
       -2   -1    0    0    0  501  0.00000000000E+00  0.00000000000E+00  0.29548259419E+02  0.29548259529E+02  0.25500000920E-02 0.  1.
        2   -1    0    0  501    0  0.00000000000E+00  0.00000000000E+00 -0.21107539213E+04  0.21107539213E+04  0.25500000920E-02 0. -1.
    10030    2    1    2    0    0  0.00000000000E+00  0.00000000000E+00 -0.20812056619E+04  0.21403021808E+04  0.49947614379E+03 0.  0.
        5    1    3    3  502    0 -0.23490146443E+03 -0.76572180265E+01 -0.14019174053E+04  0.14214893008E+04  0.46999998093E+01 0. -1.
       -5    1    3    3    0  502  0.23490146443E+03  0.76572180265E+01 -0.67928825655E+03  0.71881288000E+03  0.46999998093E+01 0.  1.
</event>
<event>
 5   0  0.5118882E-03  0.5001816E+03  0.7818609E-02  0.1013732E+00
       -2   -1    0    0    0  501  0.00000000000E+00  0.00000000000E+00  0.12397919103E+03  0.12397919105E+03  0.25500000920E-02 0.  1.
        2   -1    0    0  501    0  0.00000000000E+00  0.00000000000E+00 -0.50448305450E+03  0.50448305451E+03  0.25500000920E-02 0. -1.
    10030    2    1    2    0    0  0.00000000000E+00  0.00000000000E+00 -0.38050386348E+03  0.62846224556E+03  0.50018157101E+03 0.  0.
        3    1    3    3  502    0 -0.16550272795E+03 -0.15412667791E+03 -0.32440134836E+03  0.39545218526E+03  0.10100000352E+00 0. -1.
       -3    1    3    3    0  502  0.16550272795E+03  0.15412667791E+03 -0.56102515112E+02  0.23301006031E+03  0.10100000352E+00 0.  1.
</event>
<event>
 5   0  0.4889251E-03  0.4994486E+03  0.7818609E-02  0.1013923E+00
       -2   -1    0    0    0  501  0.00000000000E+00  0.00000000000E+00  0.87556022782E+02  0.87556022819E+02  0.25500000920E-02 0. -1.
        2   -1    0    0  501    0  0.00000000000E+00  0.00000000000E+00 -0.71225499378E+03  0.71225499378E+03  0.25500000920E-02 0.  1.
    10030    2    1    2    0    0  0.00000000000E+00  0.00000000000E+00 -0.62469897099E+03  0.79981101660E+03  0.49944855382E+03 0.  0.
        5    1    3    3  502    0 -0.97931581485E+02 -0.16113823379E+03 -0.57442976031E+03  0.60460546191E+03  0.46999998093E+01 0.  1.
       -5    1    3    3    0  502  0.97931581485E+02  0.16113823379E+03 -0.50269210689E+02  0.19520555470E+03  0.46999998093E+01 0. -1.
</event>
<event>
 5   0  0.3013734E-03  0.4999881E+03  0.7818609E-02  0.1013782E+00
       -1   -1    0    0    0  501  0.00000000000E+00  0.00000000000E+00  0.11133606405E+04  0.11133606405E+04  0.50400001928E-02 0. -1.
        1   -1    0    0  501    0  0.00000000000E+00  0.00000000000E+00 -0.56133683463E+02  0.56133683689E+02  0.50400001928E-02 0.  1.
    10030    2    1    2    0    0  0.00000000000E+00  0.00000000000E+00  0.10572269570E+04  0.11694943242E+04  0.49998813550E+03 0.  0.
        2    1    3    3  502    0  0.16865367278E+03 -0.11234205966E+03  0.18618321289E+03  0.27518900501E+03  0.25500000920E-02 0.  1.
       -2    1    3    3    0  502 -0.16865367278E+03  0.11234205966E+03  0.87104374411E+03  0.89430531916E+03  0.25500000920E-02 0. -1.
</event>
<event>
 5   0  0.5095783E-03  0.5001481E+03  0.7818609E-02  0.1013740E+00
       -2   -1    0    0    0  501  0.00000000000E+00  0.00000000000E+00  0.22635708999E+02  0.22635709143E+02  0.25500000920E-02 0.  1.
        2   -1    0    0  501    0  0.00000000000E+00  0.00000000000E+00 -0.27627596748E+04  0.27627596748E+04  0.25500000920E-02 0. -1.
    10030    2    1    2    0    0  0.00000000000E+00  0.00000000000E+00 -0.27401239658E+04  0.27853953839E+04  0.50014807501E+03 0.  0.
        4    1    3    3  502    0 -0.37854211713E+02 -0.24166649517E+03 -0.16594310098E+04  0.16773635639E+04  0.12699999809E+01 0. -1.
       -4    1    3    3    0  502  0.37854211713E+02  0.24166649517E+03 -0.10806929560E+04  0.11080318200E+04  0.12699999809E+01 0.  1.
</event>
<event>
 5   0  0.2863538E-03  0.5000235E+03  0.7818609E-02  0.1013773E+00
       -1   -1    0    0    0  501  0.00000000000E+00  0.00000000000E+00  0.90625499278E+02  0.90625499418E+02  0.50400001928E-02 0. -1.
        1   -1    0    0  501    0  0.00000000000E+00  0.00000000000E+00 -0.68971615836E+03  0.68971615838E+03  0.50400001928E-02 0.  1.
    10030    2    1    2    0    0  0.00000000000E+00  0.00000000000E+00 -0.59909065908E+03  0.78034165780E+03  0.50002348454E+03 0.  0.
        1    1    3    3  502    0  0.19952940834E+03  0.13437501637E+03 -0.19327201074E+03  0.30858175574E+03  0.50400001928E-02 0. -1.
       -1    1    3    3    0  502 -0.19952940834E+03 -0.13437501637E+03 -0.40581864834E+03  0.47175990205E+03  0.50400001928E-02 0.  1.
</event>
<event>
 5   0  0.5118882E-03  0.4999131E+03  0.7818609E-02  0.1013802E+00
       -2   -1    0    0    0  501  0.00000000000E+00  0.00000000000E+00  0.70768638573E+02  0.70768638619E+02  0.25500000920E-02 0.  1.
        2   -1    0    0  501    0  0.00000000000E+00  0.00000000000E+00 -0.88285246749E+03  0.88285246749E+03  0.25500000920E-02 0. -1.
    10030    2    1    2    0    0  0.00000000000E+00  0.00000000000E+00 -0.81208382892E+03  0.95362110611E+03  0.49991306128E+03 0.  0.
        3    1    3    3  502    0  0.18476250090E+03  0.11898382554E+03 -0.63322687428E+03  0.67027652278E+03  0.10100000352E+00 0. -1.
       -3    1    3    3    0  502 -0.18476250090E+03 -0.11898382554E+03 -0.17885695464E+03  0.28334458333E+03  0.10100000352E+00 0.  1.
</event>
<event>
 5   0  0.2863538E-03  0.4998905E+03  0.7818609E-02  0.1013808E+00
       -1   -1    0    0    0  501  0.00000000000E+00  0.00000000000E+00  0.11027526496E+03  0.11027526508E+03  0.50400001928E-02 0. -1.
        1   -1    0    0  501    0  0.00000000000E+00  0.00000000000E+00 -0.56651528033E+03  0.56651528036E+03  0.50400001928E-02 0.  1.
    10030    2    1    2    0    0  0.00000000000E+00  0.00000000000E+00 -0.45624001537E+03  0.67679054543E+03  0.49989047877E+03 0.  0.
        1    1    3    3  502    0 -0.11946092529E+02  0.43854520762E+02  0.10463297269E+03  0.11407886359E+03  0.50400001928E-02 0. -1.
       -1    1    3    3    0  502  0.11946092529E+02 -0.43854520762E+02 -0.56087298806E+03  0.56271168184E+03  0.50400001928E-02 0.  1.
</event>
<event>
 5   0  0.2005125E-03  0.5000894E+03  0.7818609E-02  0.1013756E+00
       -3   -1    0    0    0  501  0.00000000000E+00  0.00000000000E+00  0.62140387993E+03  0.62140388814E+03  0.10100000352E+00 0.  1.
        3   -1    0    0  501    0  0.00000000000E+00  0.00000000000E+00 -0.10061465735E+03  0.10061470804E+03  0.10100000352E+00 0. -1.
    10030    2    1    2    0    0  0.00000000000E+00  0.00000000000E+00  0.52078922258E+03  0.72201859618E+03  0.50008943087E+03 0.  0.
        5    1    3    3  502    0 -0.42121709111E+02 -0.47924302693E+02  0.60938705294E+03  0.61273619728E+03  0.46999998093E+01 0.  1.
       -5    1    3    3    0  502  0.42121709111E+02  0.47924302693E+02 -0.88597830356E+02  0.10928239890E+03  0.46999998093E+01 0. -1.
</event>
<event>
 5   0  0.4889251E-03  0.4993936E+03  0.7818609E-02  0.1013937E+00
       -2   -1    0    0    0  501  0.00000000000E+00  0.00000000000E+00  0.46777244939E+02  0.46777245009E+02  0.25500000920E-02 0. -1.
        2   -1    0    0  501    0  0.00000000000E+00  0.00000000000E+00 -0.13328809281E+04  0.13328809281E+04  0.25500000920E-02 0.  1.
    10030    2    1    2    0    0  0.00000000000E+00  0.00000000000E+00 -0.12861036832E+04  0.13796581731E+04  0.49939362311E+03 0.  0.
        5    1    3    3  502    0 -0.17475236007E+02  0.18649277192E+01  0.44943969342E+02  0.48486206361E+02  0.46999998093E+01 0. -1.
       -5    1    3    3    0  502  0.17475236007E+02 -0.18649277192E+01 -0.13310476525E+04  0.13311719668E+04  0.46999998093E+01 0.  1.
</event>
<event>
 5   0  0.3057783E-03  0.4989236E+03  0.7818609E-02  0.1014060E+00
       -1   -1    0    0    0  501  0.00000000000E+00  0.00000000000E+00  0.70174728272E+02  0.70174728453E+02  0.50400001928E-02 0. -1.
        1   -1    0    0  501    0  0.00000000000E+00  0.00000000000E+00 -0.88680358393E+03  0.88680358394E+03  0.50400001928E-02 0.  1.
    10030    2    1    2    0    0  0.00000000000E+00  0.00000000000E+00 -0.81662885566E+03  0.95697831239E+03  0.49892364396E+03 0.  0.
        5    1    3    3  502    0 -0.10718471673E+03 -0.19444060534E+02 -0.83867779256E+03  0.84573587172E+03  0.46999998093E+01 0.  1.
       -5    1    3    3    0  502  0.10718471673E+03  0.19444060534E+02  0.22048936902E+02  0.11124244067E+03  0.46999998093E+01 0. -1.
</event>
<event>
 5   0  0.3013734E-03  0.5004229E+03  0.7818609E-02  0.1013669E+00
        1   -1    0    0  501    0  0.00000000000E+00  0.00000000000E+00  0.20670151562E+04  0.20670151563E+04  0.50400001928E-02 0.  1.
       -1   -1    0    0    0  501  0.00000000000E+00  0.00000000000E+00 -0.30288007040E+02  0.30288007459E+02  0.50400001928E-02 0. -1.
    10030    2    1    2    0    0  0.00000000000E+00  0.00000000000E+00  0.20367271492E+04  0.20973031637E+04  0.50042290136E+03 0.  0.
        2    1    3    3  502    0 -0.74635201149E+02  0.11846387947E+01  0.17463379853E+02  0.76660199987E+02  0.25500000920E-02 0. -1.
       -2    1    3    3    0  502  0.74635201149E+02 -0.11846387947E+01  0.20192637694E+04  0.20206429637E+04  0.25500000920E-02 0.  1.
</event>
<event>
 5   0  0.4989875E-03  0.4998153E+03  0.7818609E-02  0.1013827E+00
        2   -1    0    0  501    0  0.00000000000E+00  0.00000000000E+00  0.10592156264E+04  0.10592156264E+04  0.25500000920E-02 0. -1.
       -2   -1    0    0    0  501  0.00000000000E+00  0.00000000000E+00 -0.58962351213E+02  0.58962351268E+02  0.25500000920E-02 0.  1.
    10030    2    1    2    0    0  0.00000000000E+00  0.00000000000E+00  0.10002532751E+04  0.11181779776E+04  0.49981534111E+03 0.  0.
        2    1    3    3  502    0  0.60875207004E+02 -0.17191236604E+03  0.11787480350E+03  0.21714999823E+03  0.25500000920E-02 0.  1.
       -2    1    3    3    0  502 -0.60875207004E+02  0.17191236604E+03  0.88237847164E+03  0.90102797939E+03  0.25500000920E-02 0. -1.
</event>
<event>
 5   0  0.5118882E-03  0.4999191E+03  0.7818609E-02  0.1013800E+00
        2   -1    0    0  501    0  0.00000000000E+00  0.00000000000E+00  0.51366038688E+03  0.51366038688E+03  0.25500000920E-02 0. -1.
       -2   -1    0    0    0  501  0.00000000000E+00  0.00000000000E+00 -0.12163633007E+03  0.12163633010E+03  0.25500000920E-02 0.  1.
    10030    2    1    2    0    0  0.00000000000E+00  0.00000000000E+00  0.39202405681E+03  0.63529671698E+03  0.49991905093E+03 0.  0.
        3    1    3    3  502    0 -0.11646990659E+03  0.13625995469E+03 -0.25368846572E+02  0.18104033520E+03  0.10100000352E+00 0.  1.
       -3    1    3    3    0  502  0.11646990659E+03 -0.13625995469E+03  0.41739290338E+03  0.45425638178E+03  0.10100000352E+00 0. -1.
</event>
<event>
 5   0  0.3055293E-03  0.5001122E+03  0.7818609E-02  0.1013750E+00
        1   -1    0    0  501    0  0.00000000000E+00  0.00000000000E+00  0.75171153105E+03  0.75171153107E+03  0.50400001928E-02 0.  1.
       -1   -1    0    0    0  501  0.00000000000E+00  0.00000000000E+00 -0.83180904079E+02  0.83180904232E+02  0.50400001928E-02 0. -1.
    10030    2    1    2    0    0  0.00000000000E+00  0.00000000000E+00  0.66853062697E+03  0.83489243530E+03  0.50011216674E+03 0.  0.
        3    1    3    3  502    0 -0.12391489191E+03  0.21032648744E+03  0.42472059882E+03  0.48987725913E+03  0.10100000352E+00 0.  1.
       -3    1    3    3    0  502  0.12391489191E+03 -0.21032648744E+03  0.24381002816E+03  0.34501517617E+03  0.10100000352E+00 0. -1.
</event>
<event>
 5   0  0.2005125E-03  0.5003492E+03  0.7818609E-02  0.1013688E+00
       -4   -1    0    0    0  501  0.00000000000E+00  0.00000000000E+00  0.82200204473E+02  0.82210014690E+02  0.12699999809E+01 0. -1.
        4   -1    0    0  501    0  0.00000000000E+00  0.00000000000E+00 -0.76134523863E+03  0.76134629787E+03  0.12699999809E+01 0.  1.
    10030    2    1    2    0    0  0.00000000000E+00  0.00000000000E+00 -0.67914503415E+03  0.84355631256E+03  0.50034915314E+03 0.  0.
        4    1    3    3  502    0  0.23046437358E+02 -0.22834707190E+03 -0.17172089134E+03  0.28664124082E+03  0.12699999809E+01 0. -1.
       -4    1    3    3    0  502 -0.23046437358E+02  0.22834707190E+03 -0.50742414281E+03  0.55691507174E+03  0.12699999809E+01 0.  1.
</event>
<event>
 5   0  0.4978779E-03  0.4999814E+03  0.7818609E-02  0.1013784E+00
        2   -1    0    0  501    0  0.00000000000E+00  0.00000000000E+00  0.19127700248E+04  0.19127700248E+04  0.25500000920E-02 0. -1.
       -2   -1    0    0    0  501  0.00000000000E+00  0.00000000000E+00 -0.32672699181E+02  0.32672699280E+02  0.25500000920E-02 0.  1.
    10030    2    1    2    0    0  0.00000000000E+00  0.00000000000E+00  0.18800973256E+04  0.19454427241E+04  0.49998143854E+03 0.  0.
        1    1    3    3  502    0 -0.20707736650E+03 -0.79213662093E+02  0.13894503144E+04  0.14070280794E+04  0.50400001928E-02 0. -1.
       -1    1    3    3    0  502  0.20707736650E+03  0.79213662093E+02  0.49064701123E+03  0.53841464470E+03  0.50400001928E-02 0.  1.
</event>
<event>
 5   0  0.4989875E-03  0.4998801E+03  0.7818609E-02  0.1013810E+00
        2   -1    0    0  501    0  0.00000000000E+00  0.00000000000E+00  0.46767896166E+03  0.46767896167E+03  0.25500000920E-02 0. -1.
       -2   -1    0    0    0  501  0.00000000000E+00  0.00000000000E+00 -0.13357462082E+03  0.13357462084E+03  0.25500000920E-02 0.  1.
    10030    2    1    2    0    0  0.00000000000E+00  0.00000000000E+00  0.33410434085E+03  0.60125358251E+03  0.49988014555E+03 0.  0.
        2    1    3    3  502    0 -0.73549773190E+02 -0.18120899395E+03 -0.20150771180E+02  0.19660193847E+03  0.25500000920E-02 0.  1.
       -2    1    3    3    0  502  0.73549773190E+02  0.18120899395E+03  0.35425511203E+03  0.40465164404E+03  0.25500000920E-02 0. -1.
</event>
<event>
 5   0  0.2005125E-03  0.5000564E+03  0.7818609E-02  0.1013764E+00
        4   -1    0    0  501    0  0.00000000000E+00  0.00000000000E+00  0.88193123828E+02  0.88202267491E+02  0.12699999809E+01 0. -1.
       -4   -1    0    0    0  501  0.00000000000E+00  0.00000000000E+00 -0.70878543470E+03  0.70878657249E+03  0.12699999809E+01 0.  1.
    10030    2    1    2    0    0  0.00000000000E+00  0.00000000000E+00 -0.62059231087E+03  0.79698883998E+03  0.50005639156E+03 0.  0.
        3    1    3    3  502    0 -0.18207624189E+03  0.67913223977E+02 -0.59557119005E+02  0.20325113647E+03  0.10100000352E+00 0. -1.
       -3    1    3    3    0  502  0.18207624189E+03 -0.67913223977E+02 -0.56103519186E+03  0.59373770351E+03  0.10100000352E+00 0.  1.
</event>
<event>
 5   0  0.4989875E-03  0.5002157E+03  0.7818609E-02  0.1013723E+00
        2   -1    0    0  501    0  0.00000000000E+00  0.00000000000E+00  0.84324573096E+03  0.84324573097E+03  0.25500000920E-02 0.  1.
       -2   -1    0    0    0  501  0.00000000000E+00  0.00000000000E+00 -0.74182344873E+02  0.74182344917E+02  0.25500000920E-02 0. -1.
    10030    2    1    2    0    0  0.00000000000E+00  0.00000000000E+00  0.76906338609E+03  0.91742807588E+03  0.50021573605E+03 0.  0.
        2    1    3    3  502    0  0.14304543439E+03  0.17562278735E+03  0.57905141559E+03  0.62177640808E+03  0.25500000920E-02 0.  1.
       -2    1    3    3    0  502 -0.14304543439E+03 -0.17562278735E+03  0.19001197050E+03  0.29565166780E+03  0.25500000920E-02 0. -1.
</event>
<event>
 5   0  0.4889251E-03  0.5003119E+03  0.7818609E-02  0.1013698E+00
        2   -1    0    0  501    0  0.00000000000E+00  0.00000000000E+00  0.10532045919E+04  0.10532045919E+04  0.25500000920E-02 0.  1.
       -2   -1    0    0    0  501  0.00000000000E+00  0.00000000000E+00 -0.59416765499E+02  0.59416765554E+02  0.25500000920E-02 0. -1.
    10030    2    1    2    0    0  0.00000000000E+00  0.00000000000E+00  0.99378782639E+03  0.11126213574E+04  0.50031194385E+03 0.  0.
        5    1    3    3  502    0  0.76707596311E+02  0.17763583400E+03  0.84934077666E+03  0.87111445273E+03  0.46999998093E+01 0.  1.
       -5    1    3    3    0  502 -0.76707596311E+02 -0.17763583400E+03  0.14444704973E+03  0.24150690472E+03  0.46999998093E+01 0. -1.
</event>
<event>
 5   0  0.5095783E-03  0.4998831E+03  0.7818609E-02  0.1013809E+00
       -2   -1    0    0    0  501  0.00000000000E+00  0.00000000000E+00  0.17271127677E+03  0.17271127679E+03  0.25500000920E-02 0.  1.
        2   -1    0    0  501    0  0.00000000000E+00  0.00000000000E+00 -0.36170643782E+03  0.36170643783E+03  0.25500000920E-02 0. -1.
    10030    2    1    2    0    0  0.00000000000E+00  0.00000000000E+00 -0.18899516105E+03  0.53441771462E+03  0.49988310913E+03 0.  0.
        4    1    3    3  502    0 -0.15502457951E+03  0.18850984659E+03 -0.15207539857E+03  0.28757107341E+03  0.12699999809E+01 0. -1.
       -4    1    3    3    0  502  0.15502457951E+03 -0.18850984659E+03 -0.36919762477E+02  0.24684664121E+03  0.12699999809E+01 0.  1.
</event>
<event>
 5   0  0.4989875E-03  0.4999460E+03  0.7818609E-02  0.1013793E+00
       -2   -1    0    0    0  501  0.00000000000E+00  0.00000000000E+00  0.68269471547E+03  0.68269471548E+03  0.25500000920E-02 0.  1.
        2   -1    0    0  501    0  0.00000000000E+00  0.00000000000E+00 -0.91529183779E+02  0.91529183814E+02  0.25500000920E-02 0. -1.
    10030    2    1    2    0    0  0.00000000000E+00  0.00000000000E+00  0.59116553169E+03  0.77422389929E+03  0.49994595745E+03 0.  0.
        2    1    3    3  502    0  0.22043122992E+03  0.56077749573E+02  0.45616041286E+03  0.50972243760E+03  0.25500000920E-02 0.  1.
       -2    1    3    3    0  502 -0.22043122992E+03 -0.56077749573E+02  0.13500511883E+03  0.26450146169E+03  0.25500000920E-02 0. -1.
</event>
<event>
 5   0  0.2005125E-03  0.4999909E+03  0.7818609E-02  0.1013781E+00
        4   -1    0    0  501    0  0.00000000000E+00  0.00000000000E+00  0.36622192486E+03  0.36622412694E+03  0.12699999809E+01 0. -1.
       -4   -1    0    0    0  501  0.00000000000E+00  0.00000000000E+00 -0.17065024040E+03  0.17065496608E+03  0.12699999809E+01 0.  1.
    10030    2    1    2    0    0  0.00000000000E+00  0.00000000000E+00  0.19557168446E+03  0.53687909302E+03  0.49999087667E+03 0.  0.
        2    1    3    3  502    0  0.23916545145E+02 -0.17823611816E+03  0.28425749968E+03  0.33636652788E+03  0.25500000920E-02 0. -1.
       -2    1    3    3    0  502 -0.23916545145E+02  0.17823611816E+03 -0.88685815215E+02  0.20051256513E+03  0.25500000920E-02 0.  1.
</event>
<event>
 5   0  0.2863538E-03  0.5000065E+03  0.7818609E-02  0.1013777E+00
       -1   -1    0    0    0  501  0.00000000000E+00  0.00000000000E+00  0.10276449721E+03  0.10276449733E+03  0.50400001928E-02 0.  1.
        1   -1    0    0  501    0  0.00000000000E+00  0.00000000000E+00 -0.60820248273E+03  0.60820248276E+03  0.50400001928E-02 0. -1.
    10030    2    1    2    0    0  0.00000000000E+00  0.00000000000E+00 -0.50543798552E+03  0.71096698009E+03  0.50000648952E+03 0.  0.
        1    1    3    3  502    0 -0.43444930391E+01  0.24722281864E+03 -0.30522649713E+03  0.39281192860E+03  0.50400001928E-02 0. -1.
       -1    1    3    3    0  502  0.43444930391E+01 -0.24722281864E+03 -0.20021148839E+03  0.31815505149E+03  0.50400001928E-02 0.  1.
</event>
<event>
 5   0  0.5118882E-03  0.5000221E+03  0.7818609E-02  0.1013773E+00
       -2   -1    0    0    0  501  0.00000000000E+00  0.00000000000E+00  0.50518979002E+03  0.50518979003E+03  0.25500000920E-02 0.  1.
        2   -1    0    0  501    0  0.00000000000E+00  0.00000000000E+00 -0.12372680021E+03  0.12372680024E+03  0.25500000920E-02 0. -1.
    10030    2    1    2    0    0  0.00000000000E+00  0.00000000000E+00  0.38146298981E+03  0.62891659027E+03  0.50002206443E+03 0.  0.
        3    1    3    3  502    0  0.83033232745E+02 -0.16417977202E+03  0.40364911173E+03  0.44360131975E+03  0.10100000352E+00 0.  1.
       -3    1    3    3    0  502 -0.83033232745E+02  0.16417977202E+03 -0.22186121921E+02  0.18531527052E+03  0.10100000352E+00 0. -1.
</event>
<event>
 5   0  0.2863538E-03  0.5000727E+03  0.7818609E-02  0.1013760E+00
        1   -1    0    0  501    0  0.00000000000E+00  0.00000000000E+00  0.42072995427E+03  0.42072995430E+03  0.50400001928E-02 0.  1.
       -1   -1    0    0    0  501  0.00000000000E+00  0.00000000000E+00 -0.14859455196E+03  0.14859455205E+03  0.50400001928E-02 0. -1.
    10030    2    1    2    0    0  0.00000000000E+00  0.00000000000E+00  0.27213540230E+03  0.56932450634E+03  0.50007271105E+03 0.  0.
        1    1    3    3  502    0  0.60456126778E+02 -0.78255087427E+01  0.41213995513E+03  0.41662396054E+03  0.50400001928E-02 0.  1.
       -1    1    3    3    0  502 -0.60456126778E+02  0.78255087427E+01 -0.14000455283E+03  0.15270054581E+03  0.50400001928E-02 0. -1.
</event>
<event>
 5   0  0.4989875E-03  0.4999405E+03  0.7818609E-02  0.1013794E+00
        2   -1    0    0  501    0  0.00000000000E+00  0.00000000000E+00  0.13360422271E+04  0.13360422271E+04  0.25500000920E-02 0. -1.
       -2   -1    0    0    0  501  0.00000000000E+00  0.00000000000E+00 -0.46768820558E+02  0.46768820627E+02  0.25500000920E-02 0.  1.
    10030    2    1    2    0    0  0.00000000000E+00  0.00000000000E+00  0.12892734065E+04  0.13828110477E+04  0.49994047336E+03 0.  0.
        2    1    3    3  502    0  0.16135506952E+03 -0.11815407717E+03  0.10594305156E+04  0.10781413923E+04  0.25500000920E-02 0. -1.
       -2    1    3    3    0  502 -0.16135506952E+03  0.11815407717E+03  0.22984289094E+03  0.30466965542E+03  0.25500000920E-02 0.  1.
</event>
<event>
 5   0  0.4889251E-03  0.4995667E+03  0.7818609E-02  0.1013892E+00
        2   -1    0    0  501    0  0.00000000000E+00  0.00000000000E+00  0.52041215438E+03  0.52041215438E+03  0.25500000920E-02 0.  1.
       -2   -1    0    0    0  501  0.00000000000E+00  0.00000000000E+00 -0.11988905582E+03  0.11988905585E+03  0.25500000920E-02 0. -1.
    10030    2    1    2    0    0  0.00000000000E+00  0.00000000000E+00  0.40052309856E+03  0.64030121023E+03  0.49956669959E+03 0.  0.
        5    1    3    3  502    0  0.17386596500E+03 -0.22499756358E+02 -0.27703373697E+02  0.17755331519E+03  0.46999998093E+01 0. -1.
       -5    1    3    3    0  502 -0.17386596500E+03  0.22499756358E+02  0.42822647226E+03  0.46274789504E+03  0.46999998093E+01 0.  1.
</event>
<event>
 5   0  0.2863538E-03  0.4999749E+03  0.7818609E-02  0.1013785E+00
       -1   -1    0    0    0  501  0.00000000000E+00  0.00000000000E+00  0.60032320675E+02  0.60032320887E+02  0.50400001928E-02 0. -1.
        1   -1    0    0  501    0  0.00000000000E+00  0.00000000000E+00 -0.10410011852E+04  0.10410011852E+04  0.50400001928E-02 0.  1.
    10030    2    1    2    0    0  0.00000000000E+00  0.00000000000E+00 -0.98096886455E+03  0.11010335061E+04  0.49997486776E+03 0.  0.
        1    1    3    3  502    0 -0.21896726920E+03  0.12015387206E+03 -0.51359147080E+03  0.57110403330E+03  0.50400001928E-02 0.  1.
       -1    1    3    3    0  502  0.21896726920E+03 -0.12015387206E+03 -0.46737739375E+03  0.52992947282E+03  0.50400001928E-02 0. -1.
</event>
<event>
 5   0  0.3211775E-03  0.5009075E+03  0.7818609E-02  0.1013542E+00
       -1   -1    0    0    0  501  0.00000000000E+00  0.00000000000E+00  0.19898423141E+03  0.19898423147E+03  0.50400001928E-02 0. -1.
        1   -1    0    0  501    0  0.00000000000E+00  0.00000000000E+00 -0.31523642171E+03  0.31523642175E+03  0.50400001928E-02 0.  1.
    10030    2    1    2    0    0  0.00000000000E+00  0.00000000000E+00 -0.11625219030E+03  0.51422065322E+03  0.50090748492E+03 0.  0.
        4    1    3    3  502    0  0.48378030890E+02 -0.93857711951E+02  0.17501284274E+03  0.20440355180E+03  0.12699999809E+01 0. -1.
       -4    1    3    3    0  502 -0.48378030890E+02  0.93857711951E+02 -0.29126503303E+03  0.30981710142E+03  0.12699999809E+01 0.  1.
</event>
<event>
 5   0  0.3055293E-03  0.4999668E+03  0.7818609E-02  0.1013788E+00
       -1   -1    0    0    0  501  0.00000000000E+00  0.00000000000E+00  0.24695012674E+03  0.24695012679E+03  0.50400001928E-02 0.  1.
        1   -1    0    0  501    0  0.00000000000E+00  0.00000000000E+00 -0.25305388103E+03  0.25305388108E+03  0.50400001928E-02 0. -1.
    10030    2    1    2    0    0  0.00000000000E+00  0.00000000000E+00 -0.61037542873E+01  0.50000400787E+03  0.49996675096E+03 0.  0.
        3    1    3    3  502    0 -0.94975145009E+02 -0.11622452182E+03  0.19687114910E+03  0.24756146144E+03  0.10100000352E+00 0.  1.
       -3    1    3    3    0  502  0.94975145009E+02  0.11622452182E+03 -0.20297490339E+03  0.25244254643E+03  0.10100000352E+00 0. -1.
</event>
<event>
 5   0  0.3057783E-03  0.5000079E+03  0.7818609E-02  0.1013777E+00
       -1   -1    0    0    0  501  0.00000000000E+00  0.00000000000E+00  0.31411452494E+02  0.31411452899E+02  0.50400001928E-02 0.  1.
        1   -1    0    0  501    0  0.00000000000E+00  0.00000000000E+00 -0.19897832549E+04  0.19897832549E+04  0.50400001928E-02 0. -1.
    10030    2    1    2    0    0  0.00000000000E+00  0.00000000000E+00 -0.19583718024E+04  0.20211947078E+04  0.50000793034E+03 0.  0.
        5    1    3    3  502    0 -0.97492112431E+02 -0.13429936290E+03 -0.22359688506E+03  0.27849360472E+03  0.46999998093E+01 0.  1.
       -5    1    3    3    0  502  0.97492112431E+02  0.13429936290E+03 -0.17347749173E+04  0.17427011031E+04  0.46999998093E+01 0. -1.
</event>
<event>
 5   0  0.3057783E-03  0.4991667E+03  0.7818609E-02  0.1013997E+00
        1   -1    0    0  501    0  0.00000000000E+00  0.00000000000E+00  0.70102418198E+03  0.70102418200E+03  0.50400001928E-02 0. -1.
       -1   -1    0    0    0  501  0.00000000000E+00  0.00000000000E+00 -0.88858341630E+02  0.88858341773E+02  0.50400001928E-02 0.  1.
    10030    2    1    2    0    0  0.00000000000E+00  0.00000000000E+00  0.61216584035E+03  0.78988252377E+03  0.49916669086E+03 0.  0.
        5    1    3    3  502    0  0.80720457695E+02 -0.21474780980E+03  0.15073853948E+03  0.27454801290E+03  0.46999998093E+01 0.  1.
       -5    1    3    3    0  502 -0.80720457695E+02  0.21474780980E+03  0.46142730087E+03  0.51533451087E+03  0.46999998093E+01 0. -1.
</event>
<event>
 5   0  0.3055293E-03  0.4999507E+03  0.7818609E-02  0.1013792E+00
       -1   -1    0    0    0  501  0.00000000000E+00  0.00000000000E+00  0.68667678172E+02  0.68667678357E+02  0.50400001928E-02 0.  1.
        1   -1    0    0  501    0  0.00000000000E+00  0.00000000000E+00 -0.91000111927E+03  0.91000111928E+03  0.50400001928E-02 0. -1.
    10030    2    1    2    0    0  0.00000000000E+00  0.00000000000E+00 -0.84133344110E+03  0.97866879764E+03  0.49995065393E+03 0.  0.
        3    1    3    3  502    0  0.22041990167E+03 -0.31646716879E+02 -0.19832356813E+03  0.29819238021E+03  0.10100000352E+00 0.  1.
       -3    1    3    3    0  502 -0.22041990167E+03  0.31646716879E+02 -0.64300987297E+03  0.68047641743E+03  0.10100000352E+00 0. -1.
</event>
<event>
 5   0  0.4889251E-03  0.5008314E+03  0.7818609E-02  0.1013562E+00
       -2   -1    0    0    0  501  0.00000000000E+00  0.00000000000E+00  0.13568646448E+03  0.13568646450E+03  0.25500000920E-02 0.  1.
        2   -1    0    0  501    0  0.00000000000E+00  0.00000000000E+00 -0.46215388180E+03  0.46215388181E+03  0.25500000920E-02 0. -1.
    10030    2    1    2    0    0  0.00000000000E+00  0.00000000000E+00 -0.32646741733E+03  0.59784034631E+03  0.50083141385E+03 0.  0.
        5    1    3    3  502    0  0.34102214067E+02 -0.23519847241E+03 -0.69206739350E+02  0.24757412062E+03  0.46999998093E+01 0. -1.
       -5    1    3    3    0  502 -0.34102214067E+02  0.23519847241E+03 -0.25726067798E+03  0.35026622569E+03  0.46999998093E+01 0.  1.
</event>
<event>
 5   0  0.2005125E-03  0.5001341E+03  0.7818609E-02  0.1013744E+00
       -3   -1    0    0    0  501  0.00000000000E+00  0.00000000000E+00  0.29844515102E+03  0.29844516811E+03  0.10100000352E+00 0. -1.
        3   -1    0    0  501    0  0.00000000000E+00  0.00000000000E+00 -0.20953106851E+03  0.20953109285E+03  0.10100000352E+00 0.  1.
    10030    2    1    2    0    0  0.00000000000E+00  0.00000000000E+00  0.88914082509E+02  0.50797626096E+03  0.50013414963E+03 0.  0.
        1    1    3    3  502    0 -0.10303875637E+03 -0.20198132157E+03 -0.62648341816E+02  0.23524084326E+03  0.50400001928E-02 0.  1.
       -1    1    3    3    0  502  0.10303875637E+03  0.20198132157E+03  0.15156242432E+03  0.27273541770E+03  0.50400001928E-02 0. -1.
</event>
<event>
 5   0  0.3057783E-03  0.4997805E+03  0.7818609E-02  0.1013836E+00
        1   -1    0    0  501    0  0.00000000000E+00  0.00000000000E+00  0.21434424229E+04  0.21434424229E+04  0.50400001928E-02 0. -1.
       -1   -1    0    0    0  501  0.00000000000E+00  0.00000000000E+00 -0.29133101851E+02  0.29133102287E+02  0.50400001928E-02 0.  1.
    10030    2    1    2    0    0  0.00000000000E+00  0.00000000000E+00  0.21143093210E+04  0.21725755252E+04  0.49978045939E+03 0.  0.
        5    1    3    3  502    0  0.13703039066E+03 -0.19469901015E+03  0.13864427699E+04  0.14067447092E+04  0.46999998093E+01 0.  1.
       -5    1    3    3    0  502 -0.13703039066E+03  0.19469901015E+03  0.72786655112E+03  0.76583081601E+03  0.46999998093E+01 0. -1.
</event>
<event>
 5   0  0.4889251E-03  0.4999513E+03  0.7818609E-02  0.1013792E+00
       -2   -1    0    0    0  501  0.00000000000E+00  0.00000000000E+00  0.14674732906E+03  0.14674732908E+03  0.25500000920E-02 0. -1.
        2   -1    0    0  501    0  0.00000000000E+00  0.00000000000E+00 -0.42581911763E+03  0.42581911764E+03  0.25500000920E-02 0.  1.
    10030    2    1    2    0    0  0.00000000000E+00  0.00000000000E+00 -0.27907178857E+03  0.57256644672E+03  0.49995127036E+03 0.  0.
        5    1    3    3  502    0  0.23016840268E+03  0.66162702716E+02 -0.22140871342E+03  0.32618845043E+03  0.46999998093E+01 0. -1.
       -5    1    3    3    0  502 -0.23016840268E+03 -0.66162702716E+02 -0.57663075157E+02  0.24637799629E+03  0.46999998093E+01 0.  1.
</event>
<event>
 5   0  0.3211775E-03  0.4999026E+03  0.7818609E-02  0.1013804E+00
       -1   -1    0    0    0  501  0.00000000000E+00  0.00000000000E+00  0.35878690391E+03  0.35878690394E+03  0.50400001928E-02 0. -1.
        1   -1    0    0  501    0  0.00000000000E+00  0.00000000000E+00 -0.17413027177E+03  0.17413027185E+03  0.50400001928E-02 0.  1.
    10030    2    1    2    0    0  0.00000000000E+00  0.00000000000E+00  0.18465663214E+03  0.53291717579E+03  0.49990263498E+03 0.  0.
        4    1    3    3  502    0 -0.44639819948E+01 -0.42428048722E+02  0.35487343581E+03  0.35743088115E+03  0.12699999809E+01 0. -1.
       -4    1    3    3    0  502  0.44639819948E+01  0.42428048722E+02 -0.17021680368E+03  0.17548629464E+03  0.12699999809E+01 0.  1.
</event>
<event>
 5   0  0.3057783E-03  0.4998901E+03  0.7818609E-02  0.1013808E+00
       -1   -1    0    0    0  501  0.00000000000E+00  0.00000000000E+00  0.11205311212E+03  0.11205311224E+03  0.50400001928E-02 0. -1.
        1   -1    0    0  501    0  0.00000000000E+00  0.00000000000E+00 -0.55752594046E+03  0.55752594049E+03  0.50400001928E-02 0.  1.
    10030    2    1    2    0    0  0.00000000000E+00  0.00000000000E+00 -0.44547282834E+03  0.66957905272E+03  0.49989005497E+03 0.  0.
        5    1    3    3  502    0  0.23992021639E+03 -0.68822051088E+02 -0.23926342611E+03  0.34578499392E+03  0.46999998093E+01 0.  1.
       -5    1    3    3    0  502 -0.23992021639E+03  0.68822051088E+02 -0.20620940222E+03  0.32379405880E+03  0.46999998093E+01 0. -1.
</event>
<event>
 5   0  0.5118882E-03  0.5001217E+03  0.7818609E-02  0.1013747E+00
       -2   -1    0    0    0  501  0.00000000000E+00  0.00000000000E+00  0.90425180413E+03  0.90425180413E+03  0.25500000920E-02 0. -1.
        2   -1    0    0  501    0  0.00000000000E+00  0.00000000000E+00 -0.69151573452E+02  0.69151573499E+02  0.25500000920E-02 0.  1.
    10030    2    1    2    0    0  0.00000000000E+00  0.00000000000E+00  0.83510023068E+03  0.97340337763E+03  0.50012172549E+03 0.  0.
        3    1    3    3  502    0  0.22441155268E+02 -0.24278273371E+03  0.52562617468E+03  0.57942208014E+03  0.10100000352E+00 0. -1.
       -3    1    3    3    0  502 -0.22441155268E+02  0.24278273371E+03  0.30947405600E+03  0.39398129749E+03  0.10100000352E+00 0.  1.
</event>
<event>
 5   0  0.4889251E-03  0.4999349E+03  0.7818609E-02  0.1013796E+00
       -2   -1    0    0    0  501  0.00000000000E+00  0.00000000000E+00  0.53122931660E+02  0.53122931721E+02  0.25500000920E-02 0. -1.
        2   -1    0    0  501    0  0.00000000000E+00  0.00000000000E+00 -0.11762100773E+04  0.11762100773E+04  0.25500000920E-02 0.  1.
    10030    2    1    2    0    0  0.00000000000E+00  0.00000000000E+00 -0.11230871456E+04  0.12293330090E+04  0.49993490613E+03 0.  0.
        5    1    3    3  502    0 -0.20069761555E+03 -0.11186130034E+03 -0.80334024820E+03  0.83556575311E+03  0.46999998093E+01 0.  1.
       -5    1    3    3    0  502  0.20069761555E+03  0.11186130034E+03 -0.31974689739E+03  0.39376725586E+03  0.46999998093E+01 0. -1.
</event>
<event>
 5   0  0.3057783E-03  0.5000745E+03  0.7818609E-02  0.1013759E+00
        1   -1    0    0  501    0  0.00000000000E+00  0.00000000000E+00  0.73587587401E+03  0.73587587403E+03  0.50400001928E-02 0. -1.
       -1   -1    0    0    0  501  0.00000000000E+00  0.00000000000E+00 -0.84958115691E+02  0.84958115840E+02  0.50400001928E-02 0.  1.
    10030    2    1    2    0    0  0.00000000000E+00  0.00000000000E+00  0.65091775832E+03  0.82083398987E+03  0.50007450528E+03 0.  0.
        5    1    3    3  502    0  0.46157246616E+02 -0.81466075324E+02  0.70593404025E+03  0.71213213101E+03  0.46999998093E+01 0. -1.
       -5    1    3    3    0  502 -0.46157246616E+02  0.81466075324E+02 -0.55016281925E+02  0.10870185886E+03  0.46999998093E+01 0.  1.
</event>
<event>
 5   0  0.5095783E-03  0.5001457E+03  0.7818609E-02  0.1013741E+00
       -2   -1    0    0    0  501  0.00000000000E+00  0.00000000000E+00  0.33312373296E+02  0.33312373394E+02  0.25500000920E-02 0.  1.
        2   -1    0    0  501    0  0.00000000000E+00  0.00000000000E+00 -0.18772735292E+04  0.18772735292E+04  0.25500000920E-02 0. -1.
    10030    2    1    2    0    0  0.00000000000E+00  0.00000000000E+00 -0.18439611559E+04  0.19105859026E+04  0.50014572547E+03 0.  0.
        4    1    3    3  502    0 -0.21159490207E+03  0.13163204482E+03 -0.84226794148E+03  0.87836000361E+03  0.12699999809E+01 0.  1.
       -4    1    3    3    0  502  0.21159490207E+03 -0.13163204482E+03 -0.10016932144E+04  0.10322258989E+04  0.12699999809E+01 0. -1.
</event>
<event>
 5   0  0.2863538E-03  0.5003474E+03  0.7818609E-02  0.1013688E+00
       -1   -1    0    0    0  501  0.00000000000E+00  0.00000000000E+00  0.77000210355E+03  0.77000210357E+03  0.50400001928E-02 0.  1.
        1   -1    0    0  501    0  0.00000000000E+00  0.00000000000E+00 -0.81281435836E+02  0.81281435993E+02  0.50400001928E-02 0. -1.
    10030    2    1    2    0    0  0.00000000000E+00  0.00000000000E+00  0.68872066771E+03  0.85128353956E+03  0.50034738591E+03 0.  0.
        1    1    3    3  502    0 -0.13193760929E+03 -0.19256300454E+03  0.49747395475E+03  0.54951649578E+03  0.50400001928E-02 0. -1.
       -1    1    3    3    0  502  0.13193760929E+03  0.19256300454E+03  0.19124671297E+03  0.30176704378E+03  0.50400001928E-02 0.  1.
</event>
<event>
 5   0  0.3013734E-03  0.4998922E+03  0.7818609E-02  0.1013807E+00
       -1   -1    0    0    0  501  0.00000000000E+00  0.00000000000E+00  0.49303968087E+02  0.49303968345E+02  0.50400001928E-02 0. -1.
        1   -1    0    0  501    0  0.00000000000E+00  0.00000000000E+00 -0.12670998910E+04  0.12670998910E+04  0.50400001928E-02 0.  1.
    10030    2    1    2    0    0  0.00000000000E+00  0.00000000000E+00 -0.12177959229E+04  0.13164038594E+04  0.49989219944E+03 0.  0.
        2    1    3    3  502    0  0.59628647784E+02 -0.23935487062E+03 -0.50268693773E+03  0.55994686096E+03  0.25500000920E-02 0.  1.
       -2    1    3    3    0  502 -0.59628647784E+02  0.23935487062E+03 -0.71510898519E+03  0.75645699840E+03  0.25500000920E-02 0. -1.
</event>
<event>
 5   0  0.3211775E-03  0.5001586E+03  0.7818609E-02  0.1013738E+00
       -1   -1    0    0    0  501  0.00000000000E+00  0.00000000000E+00  0.89836733124E+02  0.89836733266E+02  0.50400001928E-02 0. -1.
        1   -1    0    0  501    0  0.00000000000E+00  0.00000000000E+00 -0.69614791644E+03  0.69614791646E+03  0.50400001928E-02 0.  1.
    10030    2    1    2    0    0  0.00000000000E+00  0.00000000000E+00 -0.60631118331E+03  0.78598464972E+03  0.50015859344E+03 0.  0.
        4    1    3    3  502    0 -0.94411629483E+02  0.10189342520E+03  0.23628043502E+02  0.14091033752E+03  0.12699999809E+01 0. -1.
       -4    1    3    3    0  502  0.94411629483E+02 -0.10189342520E+03 -0.62993922682E+03  0.64507431220E+03  0.12699999809E+01 0.  1.
</event>
<event>
 5   0  0.3211775E-03  0.4998273E+03  0.7818609E-02  0.1013824E+00
        1   -1    0    0  501    0  0.00000000000E+00  0.00000000000E+00  0.12253946537E+04  0.12253946537E+04  0.50400001928E-02 0. -1.
       -1   -1    0    0    0  501  0.00000000000E+00  0.00000000000E+00 -0.50968750525E+02  0.50968750774E+02  0.50400001928E-02 0.  1.
    10030    2    1    2    0    0  0.00000000000E+00  0.00000000000E+00  0.11744259032E+04  0.12763634045E+04  0.49982730843E+03 0.  0.
        4    1    3    3  502    0 -0.55072719641E+01  0.81693143962E+02  0.11901627700E+04  0.11929765848E+04  0.12699999809E+01 0. -1.
       -4    1    3    3    0  502  0.55072719641E+01 -0.81693143962E+02 -0.15736866874E+02  0.83386819665E+02  0.12699999809E+01 0.  1.
</event>
<event>
 5   0  0.2863538E-03  0.5002079E+03  0.7818609E-02  0.1013725E+00
        1   -1    0    0  501    0  0.00000000000E+00  0.00000000000E+00  0.72734000239E+03  0.72734000241E+03  0.50400001928E-02 0. -1.
       -1   -1    0    0    0  501  0.00000000000E+00  0.00000000000E+00 -0.86001022605E+02  0.86001022753E+02  0.50400001928E-02 0.  1.
    10030    2    1    2    0    0  0.00000000000E+00  0.00000000000E+00  0.64133897979E+03  0.81334102516E+03  0.50020789300E+03 0.  0.
        1    1    3    3  502    0 -0.11764627736E+03  0.21588707406E+03  0.24608367738E+03  0.34785780374E+03  0.50400001928E-02 0.  1.
       -1    1    3    3    0  502  0.11764627736E+03 -0.21588707406E+03  0.39525530240E+03  0.46548322142E+03  0.50400001928E-02 0. -1.
</event>
<event>
 5   0  0.3057783E-03  0.5000728E+03  0.7818609E-02  0.1013760E+00
       -1   -1    0    0    0  501  0.00000000000E+00  0.00000000000E+00  0.30618720934E+02  0.30618721349E+02  0.50400001928E-02 0. -1.
        1   -1    0    0  501    0  0.00000000000E+00  0.00000000000E+00 -0.20418294074E+04  0.20418294074E+04  0.50400001928E-02 0.  1.
    10030    2    1    2    0    0  0.00000000000E+00  0.00000000000E+00 -0.20112106865E+04  0.20724481288E+04  0.50007281573E+03 0.  0.
        5    1    3    3  502    0 -0.19186125229E+02 -0.17234069111E+03 -0.25932541740E+03  0.31199548606E+03  0.46999998093E+01 0. -1.
       -5    1    3    3    0  502  0.19186125229E+02  0.17234069111E+03 -0.17518852691E+04  0.17604526427E+04  0.46999998093E+01 0.  1.
</event>
<event>
 5   0  0.5095783E-03  0.4996808E+03  0.7818609E-02  0.1013862E+00
       -2   -1    0    0    0  501  0.00000000000E+00  0.00000000000E+00  0.15663410615E+03  0.15663410617E+03  0.25500000920E-02 0. -1.
        2   -1    0    0  501    0  0.00000000000E+00  0.00000000000E+00 -0.39850974085E+03  0.39850974086E+03  0.25500000920E-02 0.  1.
    10030    2    1    2    0    0  0.00000000000E+00  0.00000000000E+00 -0.24187563470E+03  0.55514384703E+03  0.49968076633E+03 0.  0.
        4    1    3    3  502    0 -0.14990434059E+01  0.22908559838E+03 -0.10193392470E+02  0.22932068521E+03  0.12699999809E+01 0. -1.
       -4    1    3    3    0  502  0.14990434059E+01 -0.22908559838E+03 -0.23168224223E+03  0.32582316182E+03  0.12699999809E+01 0.  1.
</event>
<event>
 5   0  0.3057783E-03  0.4997430E+03  0.7818609E-02  0.1013846E+00
        1   -1    0    0  501    0  0.00000000000E+00  0.00000000000E+00  0.28865298557E+03  0.28865298561E+03  0.50400001928E-02 0. -1.
       -1   -1    0    0    0  501  0.00000000000E+00  0.00000000000E+00 -0.21630047336E+03  0.21630047342E+03  0.50400001928E-02 0.  1.
    10030    2    1    2    0    0  0.00000000000E+00  0.00000000000E+00  0.72352512211E+02  0.50495345903E+03  0.49974304373E+03 0.  0.
        5    1    3    3  502    0 -0.40551116335E+02  0.21607903472E+03  0.15606895518E+03  0.26965561564E+03  0.46999998093E+01 0. -1.
       -5    1    3    3    0  502  0.40551116335E+02 -0.21607903472E+03 -0.83716442968E+02  0.23529784338E+03  0.46999998093E+01 0.  1.
</event>
<event>
 5   0  0.5095783E-03  0.5000413E+03  0.7818609E-02  0.1013768E+00
       -2   -1    0    0    0  501  0.00000000000E+00  0.00000000000E+00  0.62043162199E+03  0.62043162199E+03  0.25500000920E-02 0. -1.
        2   -1    0    0  501    0  0.00000000000E+00  0.00000000000E+00 -0.10075295830E+03  0.10075295833E+03  0.25500000920E-02 0.  1.
    10030    2    1    2    0    0  0.00000000000E+00  0.00000000000E+00  0.51967866369E+03  0.72118458033E+03  0.50004128370E+03 0.  0.
        4    1    3    3  502    0  0.15141586234E+03  0.14354127290E+03  0.45852386200E+03  0.50376244929E+03  0.12699999809E+01 0. -1.
       -4    1    3    3    0  502 -0.15141586234E+03 -0.14354127290E+03  0.61154801685E+02  0.21742213103E+03  0.12699999809E+01 0.  1.
</event>
<event>
 5   0  0.2863538E-03  0.5000207E+03  0.7818609E-02  0.1013773E+00
       -1   -1    0    0    0  501  0.00000000000E+00  0.00000000000E+00  0.85489779541E+02  0.85489779689E+02  0.50400001928E-02 0. -1.
        1   -1    0    0  501    0  0.00000000000E+00  0.00000000000E+00 -0.73114222332E+03  0.73114222334E+03  0.50400001928E-02 0.  1.
    10030    2    1    2    0    0  0.00000000000E+00  0.00000000000E+00 -0.64565244378E+03  0.81663200303E+03  0.50002074978E+03 0.  0.
        1    1    3    3  502    0  0.15599590767E+03  0.15351649761E+03 -0.12546508832E+03  0.25227668672E+03  0.50400001928E-02 0.  1.
       -1    1    3    3    0  502 -0.15599590767E+03 -0.15351649761E+03 -0.52018735546E+03  0.56435531631E+03  0.50400001928E-02 0. -1.
</event>
<event>
 5   0  0.2005125E-03  0.5002445E+03  0.7818609E-02  0.1013715E+00
        3   -1    0    0  501    0  0.00000000000E+00  0.00000000000E+00  0.47865926030E+02  0.47866032588E+02  0.10100000352E+00 0. -1.
       -3   -1    0    0    0  501  0.00000000000E+00  0.00000000000E+00 -0.13070063228E+04  0.13070063267E+04  0.10100000352E+00 0.  1.
    10030    2    1    2    0    0  0.00000000000E+00  0.00000000000E+00 -0.12591403967E+04  0.13548723593E+04  0.50024451140E+03 0.  0.
        4    1    3    3  502    0  0.23088146249E+03 -0.55496774676E+02 -0.41676715076E+03  0.47966927417E+03  0.12699999809E+01 0.  1.
       -4    1    3    3    0  502 -0.23088146249E+03  0.55496774676E+02 -0.84237324597E+03  0.87520308509E+03  0.12699999809E+01 0. -1.
</event>
<event>
 5   0  0.4978779E-03  0.4998779E+03  0.7818609E-02  0.1013811E+00
        2   -1    0    0  501    0  0.00000000000E+00  0.00000000000E+00  0.14950073092E+04  0.14950073092E+04  0.25500000920E-02 0.  1.
       -2   -1    0    0    0  501  0.00000000000E+00  0.00000000000E+00 -0.41785397540E+02  0.41785397618E+02  0.25500000920E-02 0. -1.
    10030    2    1    2    0    0  0.00000000000E+00  0.00000000000E+00  0.14532219116E+04  0.15367927068E+04  0.49987788429E+03 0.  0.
        1    1    3    3  502    0 -0.94977558279E+02  0.46288705396E+02  0.30247705299E+02  0.10990133996E+03  0.50400001928E-02 0. -1.
       -1    1    3    3    0  502  0.94977558279E+02 -0.46288705396E+02  0.14229742063E+04  0.14268913668E+04  0.50400001928E-02 0.  1.
</event>
<event>
 5   0  0.2863538E-03  0.5001532E+03  0.7818609E-02  0.1013739E+00
        1   -1    0    0  501    0  0.00000000000E+00  0.00000000000E+00  0.13890976541E+04  0.13890976541E+04  0.50400001928E-02 0. -1.
       -1   -1    0    0    0  501  0.00000000000E+00  0.00000000000E+00 -0.45020809272E+02  0.45020809554E+02  0.50400001928E-02 0.  1.
    10030    2    1    2    0    0  0.00000000000E+00  0.00000000000E+00  0.13440768448E+04  0.14341184636E+04  0.50015317954E+03 0.  0.
        1    1    3    3  502    0  0.50082266108E+02 -0.16359909198E+03  0.11950103741E+04  0.12071962105E+04  0.50400001928E-02 0. -1.
       -1    1    3    3    0  502 -0.50082266108E+02  0.16359909198E+03  0.14906647065E+03  0.22692225314E+03  0.50400001928E-02 0.  1.
</event>
<event>
 5   0  0.4989875E-03  0.5000346E+03  0.7818609E-02  0.1013770E+00
       -2   -1    0    0    0  501  0.00000000000E+00  0.00000000000E+00  0.17519032005E+03  0.17519032007E+03  0.25500000920E-02 0.  1.
        2   -1    0    0  501    0  0.00000000000E+00  0.00000000000E+00 -0.35680424878E+03  0.35680424879E+03  0.25500000920E-02 0. -1.
    10030    2    1    2    0    0  0.00000000000E+00  0.00000000000E+00 -0.18161392873E+03  0.53199456886E+03  0.50003460099E+03 0.  0.
        2    1    3    3  502    0  0.10272199315E+02 -0.91375646656E+02  0.15654738322E+03  0.18155470272E+03  0.25500000920E-02 0.  1.
       -2    1    3    3    0  502 -0.10272199315E+02  0.91375646656E+02 -0.33816131194E+03  0.35043986614E+03  0.25500000920E-02 0. -1.
</event>
<event>
 5   0  0.2863538E-03  0.5001616E+03  0.7818609E-02  0.1013737E+00
       -1   -1    0    0    0  501  0.00000000000E+00  0.00000000000E+00  0.17273075170E+03  0.17273075177E+03  0.50400001928E-02 0.  1.
        1   -1    0    0  501    0  0.00000000000E+00  0.00000000000E+00 -0.36206878360E+03  0.36206878364E+03  0.50400001928E-02 0. -1.
    10030    2    1    2    0    0  0.00000000000E+00  0.00000000000E+00 -0.18933803190E+03  0.53479953541E+03  0.50016162663E+03 0.  0.
        1    1    3    3  502    0  0.22344016010E+03  0.48291145558E+01 -0.21465234270E+03  0.30987812725E+03  0.50400001928E-02 0. -1.
       -1    1    3    3    0  502 -0.22344016010E+03 -0.48291145558E+01  0.25314310797E+02  0.22492140817E+03  0.50400001928E-02 0.  1.
</event>
<event>
 5   0  0.3055293E-03  0.5002486E+03  0.7818609E-02  0.1013714E+00
       -1   -1    0    0    0  501  0.00000000000E+00  0.00000000000E+00  0.52006080759E+03  0.52006080761E+03  0.50400001928E-02 0.  1.
        1   -1    0    0  501    0  0.00000000000E+00  0.00000000000E+00 -0.12029778973E+03  0.12029778984E+03  0.50400001928E-02 0. -1.
    10030    2    1    2    0    0  0.00000000000E+00  0.00000000000E+00  0.39976301786E+03  0.64035859745E+03  0.50024860108E+03 0.  0.
        3    1    3    3  502    0 -0.55075498681E+02  0.70436163499E+02 -0.99141602347E+02  0.13350517293E+03  0.10100000352E+00 0. -1.
       -3    1    3    3    0  502  0.55075498681E+02 -0.70436163499E+02  0.49890462020E+03  0.50685342452E+03  0.10100000352E+00 0.  1.
</event>
<event>
 5   0  0.2863538E-03  0.4997334E+03  0.7818609E-02  0.1013849E+00
       -1   -1    0    0    0  501  0.00000000000E+00  0.00000000000E+00  0.49356357949E+03  0.49356357951E+03  0.50400001928E-02 0. -1.
        1   -1    0    0  501    0  0.00000000000E+00  0.00000000000E+00 -0.12649510717E+03  0.12649510727E+03  0.50400001928E-02 0.  1.
    10030    2    1    2    0    0  0.00000000000E+00  0.00000000000E+00  0.36706847231E+03  0.62005868678E+03  0.49973344063E+03 0.  0.
        1    1    3    3  502    0  0.46046733577E+02  0.11926421493E+03  0.44990932494E+03  0.46772070227E+03  0.50400001928E-02 0. -1.
       -1    1    3    3    0  502 -0.46046733577E+02 -0.11926421493E+03 -0.82840852627E+02  0.15233798451E+03  0.50400001928E-02 0.  1.
</event>
<event>
 5   0  0.4889251E-03  0.5005487E+03  0.7818609E-02  0.1013636E+00
       -2   -1    0    0    0  501  0.00000000000E+00  0.00000000000E+00  0.35823530887E+02  0.35823530978E+02  0.25500000920E-02 0.  1.
        2   -1    0    0  501    0  0.00000000000E+00  0.00000000000E+00 -0.17484948844E+04  0.17484948844E+04  0.25500000920E-02 0. -1.
    10030    2    1    2    0    0  0.00000000000E+00  0.00000000000E+00 -0.17126713535E+04  0.17843184154E+04  0.50054874121E+03 0.  0.
        5    1    3    3  502    0 -0.49856648478E+01 -0.10330863665E+03 -0.16685739553E+04  0.16717830797E+04  0.46999998093E+01 0. -1.
       -5    1    3    3    0  502  0.49856648478E+01  0.10330863665E+03 -0.44097398284E+02  0.11253533575E+03  0.46999998093E+01 0.  1.
</event>
<event>
 5   0  0.5118882E-03  0.4999944E+03  0.7818609E-02  0.1013780E+00
        2   -1    0    0  501    0  0.00000000000E+00  0.00000000000E+00  0.12810613379E+04  0.12810613379E+04  0.25500000920E-02 0. -1.
       -2   -1    0    0    0  501  0.00000000000E+00  0.00000000000E+00 -0.48786570685E+02  0.48786570752E+02  0.25500000920E-02 0.  1.
    10030    2    1    2    0    0  0.00000000000E+00  0.00000000000E+00  0.12322747672E+04  0.13298479087E+04  0.49999435821E+03 0.  0.
        3    1    3    3  502    0  0.71460730723E+02 -0.21531958655E+03  0.33681020936E+03  0.40609147703E+03  0.10100000352E+00 0. -1.
       -3    1    3    3    0  502 -0.71460730723E+02  0.21531958655E+03  0.89546455788E+03  0.92375643165E+03  0.10100000352E+00 0.  1.
</event>
<event>
 5   0  0.4978779E-03  0.5001040E+03  0.7818609E-02  0.1013752E+00
        2   -1    0    0  501    0  0.00000000000E+00  0.00000000000E+00  0.13944427185E+03  0.13944427188E+03  0.25500000920E-02 0. -1.
       -2   -1    0    0    0  501  0.00000000000E+00  0.00000000000E+00 -0.44839426963E+03  0.44839426964E+03  0.25500000920E-02 0.  1.
    10030    2    1    2    0    0  0.00000000000E+00  0.00000000000E+00 -0.30894999778E+03  0.58783854151E+03  0.50010403894E+03 0.  0.
        1    1    3    3  502    0 -0.20014939595E+03 -0.14890138994E+03 -0.17465028999E+03  0.30452278805E+03  0.50400001928E-02 0.  1.
       -1    1    3    3    0  502  0.20014939595E+03  0.14890138994E+03 -0.13429970779E+03  0.28331575346E+03  0.50400001928E-02 0. -1.
</event>
<event>
 5   0  0.3013734E-03  0.5001497E+03  0.7818609E-02  0.1013740E+00
       -1   -1    0    0    0  501  0.00000000000E+00  0.00000000000E+00  0.13568255297E+03  0.13568255307E+03  0.50400001928E-02 0. -1.
        1   -1    0    0  501    0  0.00000000000E+00  0.00000000000E+00 -0.46090981896E+03  0.46090981899E+03  0.50400001928E-02 0.  1.
    10030    2    1    2    0    0  0.00000000000E+00  0.00000000000E+00 -0.32522726599E+03  0.59659237205E+03  0.50014966145E+03 0.  0.
        2    1    3    3  502    0  0.29078874236E+02 -0.24389057255E+03 -0.21867943648E+03  0.32885998275E+03  0.25500000920E-02 0.  1.
       -2    1    3    3    0  502 -0.29078874236E+02  0.24389057255E+03 -0.10654782951E+03  0.26773238931E+03  0.25500000920E-02 0. -1.
</event>
<event>
 5   0  0.2863538E-03  0.4996139E+03  0.7818609E-02  0.1013880E+00
       -1   -1    0    0    0  501  0.00000000000E+00  0.00000000000E+00  0.16072726534E+03  0.16072726542E+03  0.50400001928E-02 0.  1.
        1   -1    0    0  501    0  0.00000000000E+00  0.00000000000E+00 -0.38825710353E+03  0.38825710356E+03  0.50400001928E-02 0. -1.
    10030    2    1    2    0    0  0.00000000000E+00  0.00000000000E+00 -0.22752983818E+03  0.54898436898E+03  0.49961386102E+03 0.  0.
        1    1    3    3  502    0  0.39174009920E+02 -0.12692031654E+03  0.11870736525E+03  0.17814266304E+03  0.50400001928E-02 0.  1.
       -1    1    3    3    0  502 -0.39174009920E+02  0.12692031654E+03 -0.34623720343E+03  0.37084170595E+03  0.50400001928E-02 0. -1.
</event>
<event>
 5   0  0.4889251E-03  0.4999492E+03  0.7818609E-02  0.1013792E+00
       -2   -1    0    0    0  501  0.00000000000E+00  0.00000000000E+00  0.25113878838E+03  0.25113878839E+03  0.25500000920E-02 0.  1.
        2   -1    0    0  501    0  0.00000000000E+00  0.00000000000E+00 -0.24881582925E+03  0.24881582926E+03  0.25500000920E-02 0. -1.
    10030    2    1    2    0    0  0.00000000000E+00  0.00000000000E+00  0.23229591250E+01  0.49995461765E+03  0.49994922099E+03 0.  0.
        5    1    3    3  502    0 -0.19708808126E+03 -0.23761346200E+02 -0.15068515465E+03  0.24927177774E+03  0.46999998093E+01 0. -1.
       -5    1    3    3    0  502  0.19708808126E+03  0.23761346200E+02  0.15300811377E+03  0.25068283991E+03  0.46999998093E+01 0.  1.
</event>
<event>
 5   0  0.3055293E-03  0.4998523E+03  0.7818609E-02  0.1013817E+00
        1   -1    0    0  501    0  0.00000000000E+00  0.00000000000E+00  0.24111519350E+03  0.24111519356E+03  0.50400001928E-02 0.  1.
       -1   -1    0    0    0  501  0.00000000000E+00  0.00000000000E+00 -0.25905911843E+03  0.25905911848E+03  0.50400001928E-02 0. -1.
    10030    2    1    2    0    0  0.00000000000E+00  0.00000000000E+00 -0.17943924931E+02  0.50017431204E+03  0.49985233618E+03 0.  0.
        3    1    3    3  502    0  0.15575678905E+03  0.13703754968E+03  0.13048642961E+03  0.24508403839E+03  0.10100000352E+00 0.  1.
       -3    1    3    3    0  502 -0.15575678905E+03 -0.13703754968E+03 -0.14843035455E+03  0.25509027365E+03  0.10100000352E+00 0. -1.
</event>
<event>
 5   0  0.3211775E-03  0.4997843E+03  0.7818609E-02  0.1013835E+00
       -1   -1    0    0    0  501  0.00000000000E+00  0.00000000000E+00  0.26274420047E+03  0.26274420052E+03  0.50400001928E-02 0.  1.
        1   -1    0    0  501    0  0.00000000000E+00  0.00000000000E+00 -0.23766871105E+03  0.23766871110E+03  0.50400001928E-02 0. -1.
    10030    2    1    2    0    0  0.00000000000E+00  0.00000000000E+00  0.25075489427E+02  0.50041291162E+03  0.49978425540E+03 0.  0.
        4    1    3    3  502    0  0.14617474372E+02 -0.17823736509E+02  0.26167417290E+03  0.26269058187E+03  0.12699999809E+01 0.  1.
       -4    1    3    3    0  502 -0.14617474372E+02  0.17823736509E+02 -0.23659868348E+03  0.23772232975E+03  0.12699999809E+01 0. -1.
</event>
<event>
 5   0  0.4889251E-03  0.5001842E+03  0.7818609E-02  0.1013731E+00
       -2   -1    0    0    0  501  0.00000000000E+00  0.00000000000E+00  0.10086063394E+03  0.10086063397E+03  0.25500000920E-02 0. -1.
        2   -1    0    0  501    0  0.00000000000E+00  0.00000000000E+00 -0.62012370323E+03  0.62012370324E+03  0.25500000920E-02 0.  1.
    10030    2    1    2    0    0  0.00000000000E+00  0.00000000000E+00 -0.51926306929E+03  0.72098433721E+03  0.50018424543E+03 0.  0.
        5    1    3    3  502    0  0.19818945692E+03  0.57274736624E+02 -0.55962363052E+02  0.21380676408E+03  0.46999998093E+01 0. -1.
       -5    1    3    3    0  502 -0.19818945692E+03 -0.57274736624E+02 -0.46330070624E+03  0.50717757313E+03  0.46999998093E+01 0.  1.
</event>
<event>
 5   0  0.3057783E-03  0.5017082E+03  0.7818609E-02  0.1013334E+00
       -1   -1    0    0    0  501  0.00000000000E+00  0.00000000000E+00  0.29599877600E+03  0.29599877604E+03  0.50400001928E-02 0.  1.
        1   -1    0    0  501    0  0.00000000000E+00  0.00000000000E+00 -0.21259472941E+03  0.21259472947E+03  0.50400001928E-02 0. -1.
    10030    2    1    2    0    0  0.00000000000E+00  0.00000000000E+00  0.83404046586E+02  0.50859350552E+03  0.50170820092E+03 0.  0.
        5    1    3    3  502    0  0.96469182890E+02 -0.12864859173E+02  0.27603206676E+03  0.29272444334E+03  0.46999998093E+01 0.  1.
       -5    1    3    3    0  502 -0.96469182890E+02  0.12864859173E+02 -0.19262802018E+03  0.21586906218E+03  0.46999998093E+01 0. -1.
</event>
<event>
 5   0  0.4889251E-03  0.5003621E+03  0.7818609E-02  0.1013684E+00
        2   -1    0    0  501    0  0.00000000000E+00  0.00000000000E+00  0.83923835164E+03  0.83923835164E+03  0.25500000920E-02 0.  1.
       -2   -1    0    0    0  501  0.00000000000E+00  0.00000000000E+00 -0.74580196352E+02  0.74580196396E+02  0.25500000920E-02 0. -1.
    10030    2    1    2    0    0  0.00000000000E+00  0.00000000000E+00  0.76465815528E+03  0.91381854804E+03  0.50036211317E+03 0.  0.
        5    1    3    3  502    0 -0.16501146188E+03  0.81138647367E+01  0.72533530562E+03  0.74392742450E+03  0.46999998093E+01 0.  1.
       -5    1    3    3    0  502  0.16501146188E+03 -0.81138647367E+01  0.39322849665E+02  0.16989112353E+03  0.46999998093E+01 0. -1.
</event>
<event>
 5   0  0.5095783E-03  0.5001766E+03  0.7818609E-02  0.1013733E+00
        2   -1    0    0  501    0  0.00000000000E+00  0.00000000000E+00  0.11865103243E+04  0.11865103243E+04  0.25500000920E-02 0.  1.
       -2   -1    0    0    0  501  0.00000000000E+00  0.00000000000E+00 -0.52712704013E+02  0.52712704075E+02  0.25500000920E-02 0. -1.
    10030    2    1    2    0    0  0.00000000000E+00  0.00000000000E+00  0.11337976202E+04  0.12392230283E+04  0.50017663908E+03 0.  0.
        4    1    3    3  502    0  0.99768426113E+02  0.16286623524E+03  0.96688191709E+03  0.98556653958E+03  0.12699999809E+01 0.  1.
       -4    1    3    3    0  502 -0.99768426113E+02 -0.16286623524E+03  0.16691570316E+03  0.25365648876E+03  0.12699999809E+01 0. -1.
</event>
<event>
 5   0  0.4978779E-03  0.4994539E+03  0.7818609E-02  0.1013922E+00
        2   -1    0    0  501    0  0.00000000000E+00  0.00000000000E+00  0.18534896006E+04  0.18534896006E+04  0.25500000920E-02 0. -1.
       -2   -1    0    0    0  501  0.00000000000E+00  0.00000000000E+00 -0.33646562082E+02  0.33646562179E+02  0.25500000920E-02 0.  1.
    10030    2    1    2    0    0  0.00000000000E+00  0.00000000000E+00  0.18198430385E+04  0.18871361628E+04  0.49945391382E+03 0.  0.
        1    1    3    3  502    0  0.20542863432E+02 -0.16950829280E+03  0.15984665225E+04  0.16075603547E+04  0.50400001928E-02 0. -1.
       -1    1    3    3    0  502 -0.20542863432E+02  0.16950829280E+03  0.22137651599E+03  0.27957580801E+03  0.50400001928E-02 0.  1.
</event>
<event>
 5   0  0.4978779E-03  0.5025974E+03  0.7818609E-02  0.1013103E+00
        2   -1    0    0  501    0  0.00000000000E+00  0.00000000000E+00  0.13047278958E+04  0.13047278958E+04  0.25500000920E-02 0. -1.
       -2   -1    0    0    0  501  0.00000000000E+00  0.00000000000E+00 -0.48401683482E+02  0.48401683550E+02  0.25500000920E-02 0.  1.
    10030    2    1    2    0    0  0.00000000000E+00  0.00000000000E+00  0.12563262123E+04  0.13531295793E+04  0.50259736048E+03 0.  0.
        1    1    3    3  502    0 -0.48402856701E+02  0.23512533648E+03  0.82826743609E+03  0.86235358531E+03  0.50400001928E-02 0.  1.
       -1    1    3    3    0  502  0.48402856701E+02 -0.23512533648E+03  0.42805877621E+03  0.49077599402E+03  0.50400001928E-02 0. -1.
</event>
<event>
 5   0  0.2005125E-03  0.5000052E+03  0.7818609E-02  0.1013778E+00
        3   -1    0    0  501    0  0.00000000000E+00  0.00000000000E+00  0.13729456381E+03  0.13729460096E+03  0.10100000352E+00 0.  1.
       -3   -1    0    0    0  501  0.00000000000E+00  0.00000000000E+00 -0.45523492338E+03  0.45523493459E+03  0.10100000352E+00 0. -1.
    10030    2    1    2    0    0  0.00000000000E+00  0.00000000000E+00 -0.31794035957E+03  0.59252953555E+03  0.50000517823E+03 0.  0.
        5    1    3    3  502    0 -0.34156217720E+02  0.35850134200E+02  0.13137190922E+03  0.14047258758E+03  0.46999998093E+01 0.  1.
       -5    1    3    3    0  502  0.34156217720E+02 -0.35850134200E+02 -0.44931226879E+03  0.45205694797E+03  0.46999998093E+01 0. -1.
</event>
<event>
 5   0  0.3013734E-03  0.4981605E+03  0.7818609E-02  0.1014260E+00
       -1   -1    0    0    0  501  0.00000000000E+00  0.00000000000E+00  0.23382550819E+03  0.23382550825E+03  0.50400001928E-02 0. -1.
        1   -1    0    0  501    0  0.00000000000E+00  0.00000000000E+00 -0.26533016409E+03  0.26533016414E+03  0.50400001928E-02 0.  1.
    10030    2    1    2    0    0  0.00000000000E+00  0.00000000000E+00 -0.31504655894E+02  0.49915567238E+03  0.49816045801E+03 0.  0.
        2    1    3    3  502    0 -0.20130346347E+03 -0.12195831975E+03 -0.97426176220E+02  0.25473275404E+03  0.25500000920E-02 0.  1.
       -2    1    3    3    0  502  0.20130346347E+03  0.12195831975E+03  0.65921520325E+02  0.24442291834E+03  0.25500000920E-02 0. -1.
</event>
<event>
 5   0  0.4978779E-03  0.4997541E+03  0.7818609E-02  0.1013843E+00
       -2   -1    0    0    0  501  0.00000000000E+00  0.00000000000E+00  0.44025333818E+03  0.44025333819E+03  0.25500000920E-02 0.  1.
        2   -1    0    0  501    0  0.00000000000E+00  0.00000000000E+00 -0.14182410675E+03  0.14182410677E+03  0.25500000920E-02 0. -1.
    10030    2    1    2    0    0  0.00000000000E+00  0.00000000000E+00  0.29842923143E+03  0.58207744496E+03  0.49975408528E+03 0.  0.
        1    1    3    3  502    0 -0.19243356621E+03 -0.10694275086E+03  0.28688477921E+03  0.36162177193E+03  0.50400001928E-02 0.  1.
       -1    1    3    3    0  502  0.19243356621E+03  0.10694275086E+03  0.11544452221E+02  0.22045567303E+03  0.50400001928E-02 0. -1.
</event>
<event>
 5   0  0.3057783E-03  0.5007793E+03  0.7818609E-02  0.1013576E+00
        1   -1    0    0  501    0  0.00000000000E+00  0.00000000000E+00  0.96529843410E+03  0.96529843411E+03  0.50400001928E-02 0. -1.
       -1   -1    0    0    0  501  0.00000000000E+00  0.00000000000E+00 -0.64948804094E+02  0.64948804290E+02  0.50400001928E-02 0.  1.
    10030    2    1    2    0    0  0.00000000000E+00  0.00000000000E+00  0.90034963000E+03  0.10302472384E+04  0.50077930866E+03 0.  0.
        5    1    3    3  502    0  0.20261656129E+03  0.65595093957E+02  0.72089938410E+03  0.75171417391E+03  0.46999998093E+01 0. -1.
       -5    1    3    3    0  502 -0.20261656129E+03 -0.65595093957E+02  0.17945024590E+03  0.27853306449E+03  0.46999998093E+01 0.  1.
</event>
<event>
 5   0  0.3055293E-03  0.4999482E+03  0.7818609E-02  0.1013792E+00
        1   -1    0    0  501    0  0.00000000000E+00  0.00000000000E+00  0.14731097287E+04  0.14731097287E+04  0.50400001928E-02 0.  1.
       -1   -1    0    0    0  501  0.00000000000E+00  0.00000000000E+00 -0.42418455776E+02  0.42418456076E+02  0.50400001928E-02 0. -1.
    10030    2    1    2    0    0  0.00000000000E+00  0.00000000000E+00  0.14306912729E+04  0.15155281848E+04  0.49994815777E+03 0.  0.
        3    1    3    3  502    0  0.20817273220E+01 -0.18828232277E+03  0.12137500228E+04  0.12282685759E+04  0.10100000352E+00 0.  1.
       -3    1    3    3    0  502 -0.20817273220E+01  0.18828232277E+03  0.21694125017E+03  0.28725960886E+03  0.10100000352E+00 0. -1.
</event>
<event>
 5   0  0.5095783E-03  0.4997296E+03  0.7818609E-02  0.1013850E+00
        2   -1    0    0  501    0  0.00000000000E+00  0.00000000000E+00  0.57165683264E+03  0.57165683265E+03  0.25500000920E-02 0.  1.
       -2   -1    0    0    0  501  0.00000000000E+00  0.00000000000E+00 -0.10921309807E+03  0.10921309810E+03  0.25500000920E-02 0. -1.
    10030    2    1    2    0    0  0.00000000000E+00  0.00000000000E+00  0.46244373458E+03  0.68086993075E+03  0.49972958182E+03 0.  0.
        4    1    3    3  502    0 -0.69778646249E+02 -0.23542676719E+03  0.16825275796E+03  0.29766663509E+03  0.12699999809E+01 0. -1.
       -4    1    3    3    0  502  0.69778646249E+02  0.23542676719E+03  0.29419097661E+03  0.38320329566E+03  0.12699999809E+01 0.  1.
</event>
<event>
 5   0  0.3211775E-03  0.4999487E+03  0.7818609E-02  0.1013792E+00
        1   -1    0    0  501    0  0.00000000000E+00  0.00000000000E+00  0.56350931843E+03  0.56350931845E+03  0.50400001928E-02 0. -1.
       -1   -1    0    0    0  501  0.00000000000E+00  0.00000000000E+00 -0.11088935555E+03  0.11088935566E+03  0.50400001928E-02 0.  1.
    10030    2    1    2    0    0  0.00000000000E+00  0.00000000000E+00  0.45261996288E+03  0.67439867411E+03  0.49994873822E+03 0.  0.
        4    1    3    3  502    0  0.11172468479E+03 -0.15459193390E+03  0.44425599505E+03  0.48347292919E+03  0.12699999809E+01 0. -1.
       -4    1    3    3    0  502 -0.11172468479E+03  0.15459193390E+03  0.83639678245E+01  0.19092574492E+03  0.12699999809E+01 0.  1.
</event>
<event>
 5   0  0.5118882E-03  0.5000659E+03  0.7818609E-02  0.1013762E+00
        2   -1    0    0  501    0  0.00000000000E+00  0.00000000000E+00  0.13756624919E+04  0.13756624919E+04  0.25500000920E-02 0. -1.
       -2   -1    0    0    0  501  0.00000000000E+00  0.00000000000E+00 -0.45444630928E+02  0.45444630999E+02  0.25500000920E-02 0.  1.
    10030    2    1    2    0    0  0.00000000000E+00  0.00000000000E+00  0.13302178609E+04  0.14211071229E+04  0.50006589276E+03 0.  0.
        3    1    3    3  502    0  0.23340549457E+03  0.20880950413E+02  0.91289266848E+03  0.94248987971E+03  0.10100000352E+00 0. -1.
       -3    1    3    3    0  502 -0.23340549457E+03 -0.20880950413E+02  0.41732519245E+03  0.47861724315E+03  0.10100000352E+00 0.  1.
</event>
<event>
 5   0  0.5118882E-03  0.5000789E+03  0.7818609E-02  0.1013758E+00
       -2   -1    0    0    0  501  0.00000000000E+00  0.00000000000E+00  0.90189027948E+02  0.90189027984E+02  0.25500000920E-02 0.  1.
        2   -1    0    0  501    0  0.00000000000E+00  0.00000000000E+00 -0.69320770719E+03  0.69320770719E+03  0.25500000920E-02 0. -1.
    10030    2    1    2    0    0  0.00000000000E+00  0.00000000000E+00 -0.60301867924E+03  0.78339673518E+03  0.50007891095E+03 0.  0.
        3    1    3    3  502    0 -0.68504371280E+02  0.21559453340E+03 -0.13464556306E+03  0.26325517957E+03  0.10100000352E+00 0. -1.
       -3    1    3    3    0  502  0.68504371280E+02 -0.21559453340E+03 -0.46837311618E+03  0.52014155561E+03  0.10100000352E+00 0.  1.
</event>
<event>
 5   0  0.5118882E-03  0.4999969E+03  0.7818609E-02  0.1013780E+00
        2   -1    0    0  501    0  0.00000000000E+00  0.00000000000E+00  0.88162204434E+03  0.88162204434E+03  0.25500000920E-02 0.  1.
       -2   -1    0    0    0  501  0.00000000000E+00  0.00000000000E+00 -0.70891173058E+02  0.70891173104E+02  0.25500000920E-02 0. -1.
    10030    2    1    2    0    0  0.00000000000E+00  0.00000000000E+00  0.81073087128E+03  0.95251321745E+03  0.49999688375E+03 0.  0.
        3    1    3    3  502    0 -0.16746289880E+03 -0.10411305364E+02  0.52305795730E+02  0.17575017560E+03  0.10100000352E+00 0. -1.
       -3    1    3    3    0  502  0.16746289880E+03  0.10411305364E+02  0.75842507555E+03  0.77676304185E+03  0.10100000352E+00 0.  1.
</event>
<event>
 5   0  0.3013734E-03  0.4982787E+03  0.7818609E-02  0.1014229E+00
       -1   -1    0    0    0  501  0.00000000000E+00  0.00000000000E+00  0.85911992984E+02  0.85911993132E+02  0.50400001928E-02 0. -1.
        1   -1    0    0  501    0  0.00000000000E+00  0.00000000000E+00 -0.72248828827E+03  0.72248828829E+03  0.50400001928E-02 0.  1.
    10030    2    1    2    0    0  0.00000000000E+00  0.00000000000E+00 -0.63657629528E+03  0.80840028142E+03  0.49827867231E+03 0.  0.
        2    1    3    3  502    0 -0.17173718789E+03 -0.11116765620E+03 -0.54897806654E+03  0.58585734359E+03  0.25500000920E-02 0.  1.
       -2    1    3    3    0  502  0.17173718789E+03  0.11116765620E+03 -0.87598228747E+02  0.22254293783E+03  0.25500000920E-02 0. -1.
</event>
<event>
 5   0  0.4889251E-03  0.5001771E+03  0.7818609E-02  0.1013733E+00
        2   -1    0    0  501    0  0.00000000000E+00  0.00000000000E+00  0.10990030817E+04  0.10990030817E+04  0.25500000920E-02 0. -1.
       -2   -1    0    0    0  501  0.00000000000E+00  0.00000000000E+00 -0.56910011982E+02  0.56910012039E+02  0.25500000920E-02 0.  1.
    10030    2    1    2    0    0  0.00000000000E+00  0.00000000000E+00  0.10420930697E+04  0.11559130937E+04  0.50017708297E+03 0.  0.
        5    1    3    3  502    0 -0.21258552424E+03 -0.13162415897E+03  0.52603758678E+03  0.58245614174E+03  0.46999998093E+01 0. -1.
       -5    1    3    3    0  502  0.21258552424E+03  0.13162415897E+03  0.51605548292E+03  0.57345695199E+03  0.46999998093E+01 0.  1.
</event>
<event>
 5   0  0.4889251E-03  0.4996673E+03  0.7818609E-02  0.1013866E+00
        2   -1    0    0  501    0  0.00000000000E+00  0.00000000000E+00  0.31474361977E+03  0.31474361978E+03  0.25500000920E-02 0. -1.
       -2   -1    0    0    0  501  0.00000000000E+00  0.00000000000E+00 -0.19831017154E+03  0.19831017156E+03  0.25500000920E-02 0.  1.
    10030    2    1    2    0    0  0.00000000000E+00  0.00000000000E+00  0.11643344823E+03  0.51305379134E+03  0.49966733428E+03 0.  0.
        5    1    3    3  502    0  0.13813110547E+03  0.73866408997E+02 -0.14156816020E+03  0.21118731652E+03  0.46999998093E+01 0.  1.
       -5    1    3    3    0  502 -0.13813110547E+03 -0.73866408997E+02  0.25800160843E+03  0.30186647483E+03  0.46999998093E+01 0. -1.
</event>
<event>
 5   0  0.5095783E-03  0.5000042E+03  0.7818609E-02  0.1013778E+00
       -2   -1    0    0    0  501  0.00000000000E+00  0.00000000000E+00  0.25050628101E+03  0.25050628102E+03  0.25500000920E-02 0. -1.
        2   -1    0    0  501    0  0.00000000000E+00  0.00000000000E+00 -0.24949893334E+03  0.24949893335E+03  0.25500000920E-02 0.  1.
    10030    2    1    2    0    0  0.00000000000E+00  0.00000000000E+00  0.10073476703E+01  0.50000521437E+03  0.50000419963E+03 0.  0.
        4    1    3    3  502    0 -0.14108024929E+03  0.15249571842E+03 -0.13856801501E+03  0.24972242302E+03  0.12699999809E+01 0.  1.
       -4    1    3    3    0  502  0.14108024929E+03 -0.15249571842E+03  0.13957536268E+03  0.25028279134E+03  0.12699999809E+01 0. -1.
</event>
<event>
 5   0  0.5095783E-03  0.5001112E+03  0.7818609E-02  0.1013750E+00
        2   -1    0    0  501    0  0.00000000000E+00  0.00000000000E+00  0.14749104150E+04  0.14749104150E+04  0.25500000920E-02 0.  1.
       -2   -1    0    0    0  501  0.00000000000E+00  0.00000000000E+00 -0.42394312755E+02  0.42394312831E+02  0.25500000920E-02 0. -1.
    10030    2    1    2    0    0  0.00000000000E+00  0.00000000000E+00  0.14325161022E+04  0.15173047278E+04  0.50011124153E+03 0.  0.
        4    1    3    3  502    0  0.11351122734E+03 -0.10808341747E+03  0.12515155702E+03  0.20057753860E+03  0.12699999809E+01 0. -1.
       -4    1    3    3    0  502 -0.11351122734E+03  0.10808341747E+03  0.13073645452E+04  0.13167271892E+04  0.12699999809E+01 0.  1.
</event>
<event>
 5   0  0.3013734E-03  0.5000340E+03  0.7818609E-02  0.1013770E+00
        1   -1    0    0  501    0  0.00000000000E+00  0.00000000000E+00  0.25582561239E+03  0.25582561244E+03  0.50400001928E-02 0. -1.
       -1   -1    0    0    0  501  0.00000000000E+00  0.00000000000E+00 -0.24434025074E+03  0.24434025079E+03  0.50400001928E-02 0.  1.
    10030    2    1    2    0    0  0.00000000000E+00  0.00000000000E+00  0.11485361658E+02  0.50016586323E+03  0.50003397605E+03 0.  0.
        2    1    3    3  502    0 -0.23938011603E+03  0.32500835646E+02 -0.58689757833E+02  0.24860336271E+03  0.25500000920E-02 0.  1.
       -2    1    3    3    0  502  0.23938011603E+03 -0.32500835646E+02  0.70175119492E+02  0.25156250052E+03  0.25500000920E-02 0. -1.
</event>
<event>
 5   0  0.5118882E-03  0.5001100E+03  0.7818609E-02  0.1013750E+00
        2   -1    0    0  501    0  0.00000000000E+00  0.00000000000E+00  0.47111482712E+03  0.47111482712E+03  0.25500000920E-02 0. -1.
       -2   -1    0    0    0  501  0.00000000000E+00  0.00000000000E+00 -0.13272244269E+03  0.13272244271E+03  0.25500000920E-02 0.  1.
    10030    2    1    2    0    0  0.00000000000E+00  0.00000000000E+00  0.33839238443E+03  0.60383726984E+03  0.50011003050E+03 0.  0.
        3    1    3    3  502    0  0.13445407156E+03 -0.13387229819E+03  0.36585122080E+03  0.41212475726E+03  0.10100000352E+00 0. -1.
       -3    1    3    3    0  502 -0.13445407156E+03  0.13387229819E+03 -0.27458836376E+02  0.19171251258E+03  0.10100000352E+00 0.  1.
</event>
<event>
 5   0  0.3211775E-03  0.5000429E+03  0.7818609E-02  0.1013768E+00
        1   -1    0    0  501    0  0.00000000000E+00  0.00000000000E+00  0.20614129404E+03  0.20614129411E+03  0.50400001928E-02 0.  1.
       -1   -1    0    0    0  501  0.00000000000E+00  0.00000000000E+00 -0.30324218396E+03  0.30324218401E+03  0.50400001928E-02 0. -1.
    10030    2    1    2    0    0  0.00000000000E+00  0.00000000000E+00 -0.97100889921E+02  0.50938347811E+03  0.50004294311E+03 0.  0.
        4    1    3    3  502    0  0.24562798822E+03  0.17392862649E+02 -0.92642948282E+02  0.26309684345E+03  0.12699999809E+01 0.  1.
       -4    1    3    3    0  502 -0.24562798822E+03 -0.17392862649E+02 -0.44579416389E+01  0.24628663466E+03  0.12699999809E+01 0. -1.
</event>
<event>
 5   0  0.4978779E-03  0.4996974E+03  0.7818609E-02  0.1013858E+00
       -2   -1    0    0    0  501  0.00000000000E+00  0.00000000000E+00  0.18316987736E+03  0.18316987738E+03  0.25500000920E-02 0. -1.
        2   -1    0    0  501    0  0.00000000000E+00  0.00000000000E+00 -0.34080040114E+03  0.34080040115E+03  0.25500000920E-02 0.  1.
    10030    2    1    2    0    0  0.00000000000E+00  0.00000000000E+00 -0.15763052378E+03  0.52397027852E+03  0.49969737917E+03 0.  0.
        1    1    3    3  502    0 -0.14644763936E+03 -0.11902131131E+03  0.92880350869E+02  0.21033245880E+03  0.50400001928E-02 0. -1.
       -1    1    3    3    0  502  0.14644763936E+03  0.11902131131E+03 -0.25051087465E+03  0.31363781973E+03  0.50400001928E-02 0.  1.
</event>
<event>
 5   0  0.4989875E-03  0.4996636E+03  0.7818609E-02  0.1013867E+00
        2   -1    0    0  501    0  0.00000000000E+00  0.00000000000E+00  0.15229373253E+04  0.15229373253E+04  0.25500000920E-02 0. -1.
       -2   -1    0    0    0  501  0.00000000000E+00  0.00000000000E+00 -0.40983903178E+02  0.40983903258E+02  0.25500000920E-02 0.  1.
    10030    2    1    2    0    0  0.00000000000E+00  0.00000000000E+00  0.14819534221E+04  0.15639212285E+04  0.49966355060E+03 0.  0.
        2    1    3    3  502    0 -0.16650489630E+03 -0.14556361999E+03  0.11046878890E+04  0.11266090626E+04  0.25500000920E-02 0. -1.
       -2    1    3    3    0  502  0.16650489630E+03  0.14556361999E+03  0.37726553313E+03  0.43731216591E+03  0.25500000920E-02 0.  1.
</event>
<event>
 5   0  0.3211775E-03  0.4998392E+03  0.7818609E-02  0.1013821E+00
       -1   -1    0    0    0  501  0.00000000000E+00  0.00000000000E+00  0.33662502518E+02  0.33662502896E+02  0.50400001928E-02 0. -1.
        1   -1    0    0  501    0  0.00000000000E+00  0.00000000000E+00 -0.18554712136E+04  0.18554712136E+04  0.50400001928E-02 0.  1.
    10030    2    1    2    0    0  0.00000000000E+00  0.00000000000E+00 -0.18218087110E+04  0.18891337165E+04  0.49983919319E+03 0.  0.
        4    1    3    3  502    0  0.15288786165E+03  0.19765182662E+03 -0.89520741355E+03  0.92942932436E+03  0.12699999809E+01 0. -1.
       -4    1    3    3    0  502 -0.15288786165E+03 -0.19765182662E+03 -0.92660129749E+03  0.95970439210E+03  0.12699999809E+01 0.  1.
</event>
<event>
 5   0  0.3013734E-03  0.4998994E+03  0.7818609E-02  0.1013805E+00
       -1   -1    0    0    0  501  0.00000000000E+00  0.00000000000E+00  0.11148171825E+04  0.11148171825E+04  0.50400001928E-02 0. -1.
        1   -1    0    0  501    0  0.00000000000E+00  0.00000000000E+00 -0.56040455451E+02  0.56040455678E+02  0.50400001928E-02 0.  1.
    10030    2    1    2    0    0  0.00000000000E+00  0.00000000000E+00  0.10587767270E+04  0.11708576382E+04  0.49989944105E+03 0.  0.
        2    1    3    3  502    0 -0.11582599555E+03  0.19609845254E+03  0.28819322142E+03  0.36732219809E+03  0.25500000920E-02 0.  1.
       -2    1    3    3    0  502  0.11582599555E+03 -0.19609845254E+03  0.77058350563E+03  0.80353544009E+03  0.25500000920E-02 0. -1.
</event>
<event>
 5   0  0.5095783E-03  0.4985421E+03  0.7818609E-02  0.1014160E+00
       -2   -1    0    0    0  501  0.00000000000E+00  0.00000000000E+00  0.62662248464E+02  0.62662248516E+02  0.25500000920E-02 0. -1.
        2   -1    0    0  501    0  0.00000000000E+00  0.00000000000E+00 -0.99160262193E+03  0.99160262193E+03  0.25500000920E-02 0.  1.
    10030    2    1    2    0    0  0.00000000000E+00  0.00000000000E+00 -0.92894037346E+03  0.10542648704E+04  0.49854207406E+03 0.  0.
        4    1    3    3  502    0  0.24157917660E+03  0.61286101402E+02 -0.47343016306E+03  0.53502730490E+03  0.12699999809E+01 0. -1.
       -4    1    3    3    0  502 -0.24157917660E+03 -0.61286101402E+02 -0.45551021041E+03  0.51923756555E+03  0.12699999809E+01 0.  1.
</event>
<event>
 5   0  0.5095783E-03  0.4994674E+03  0.7818609E-02  0.1013918E+00
        2   -1    0    0  501    0  0.00000000000E+00  0.00000000000E+00  0.13211719895E+03  0.13211719897E+03  0.25500000920E-02 0. -1.
       -2   -1    0    0    0  501  0.00000000000E+00  0.00000000000E+00 -0.47205751085E+03  0.47205751086E+03  0.25500000920E-02 0.  1.
    10030    2    1    2    0    0  0.00000000000E+00  0.00000000000E+00 -0.33994031190E+03  0.60417470983E+03  0.49946738066E+03 0.  0.
        4    1    3    3  502    0 -0.14059013207E+03 -0.79432074128E+02 -0.40040623279E+03  0.43174275187E+03  0.12699999809E+01 0.  1.
       -4    1    3    3    0  502  0.14059013207E+03  0.79432074128E+02  0.60465920893E+02  0.17243195796E+03  0.12699999809E+01 0. -1.
</event>
<event>
 5   0  0.3211775E-03  0.5000026E+03  0.7818609E-02  0.1013778E+00
        1   -1    0    0  501    0  0.00000000000E+00  0.00000000000E+00  0.13536755759E+04  0.13536755759E+04  0.50400001928E-02 0. -1.
       -1   -1    0    0    0  501  0.00000000000E+00  0.00000000000E+00 -0.46171071522E+02  0.46171071797E+02  0.50400001928E-02 0.  1.
    10030    2    1    2    0    0  0.00000000000E+00  0.00000000000E+00  0.13075045044E+04  0.13998466477E+04  0.50000260812E+03 0.  0.
        4    1    3    3  502    0  0.67191897801E+02  0.17006250473E+03  0.17646629617E+03  0.25412196526E+03  0.12699999809E+01 0.  1.
       -4    1    3    3    0  502 -0.67191897801E+02 -0.17006250473E+03  0.11310382082E+04  0.11457246824E+04  0.12699999809E+01 0. -1.
</event>
<event>
 5   0  0.3013734E-03  0.4999525E+03  0.7818609E-02  0.1013791E+00
        1   -1    0    0  501    0  0.00000000000E+00  0.00000000000E+00  0.12607312365E+03  0.12607312375E+03  0.50400001928E-02 0.  1.
       -1   -1    0    0    0  501  0.00000000000E+00  0.00000000000E+00 -0.49564994517E+03  0.49564994520E+03  0.50400001928E-02 0. -1.
    10030    2    1    2    0    0  0.00000000000E+00  0.00000000000E+00 -0.36957682152E+03  0.62172306894E+03  0.49995254520E+03 0.  0.
        2    1    3    3  502    0 -0.20213791415E+03  0.12302197304E+03 -0.28500143357E+03  0.37043212513E+03  0.25500000920E-02 0. -1.
       -2    1    3    3    0  502  0.20213791415E+03 -0.12302197304E+03 -0.84575387955E+02  0.25129094381E+03  0.25500000920E-02 0.  1.
</event>
<event>
 5   0  0.4889251E-03  0.5000136E+03  0.7818609E-02  0.1013775E+00
        2   -1    0    0  501    0  0.00000000000E+00  0.00000000000E+00  0.55741772945E+03  0.55741772946E+03  0.25500000920E-02 0. -1.
       -2   -1    0    0    0  501  0.00000000000E+00  0.00000000000E+00 -0.11213029026E+03  0.11213029029E+03  0.25500000920E-02 0.  1.
    10030    2    1    2    0    0  0.00000000000E+00  0.00000000000E+00  0.44528743919E+03  0.66954801974E+03  0.50001364705E+03 0.  0.
        5    1    3    3  502    0 -0.44989345686E+02 -0.19004104291E+03  0.43156138768E+03  0.47371611810E+03  0.46999998093E+01 0. -1.
       -5    1    3    3    0  502  0.44989345686E+02  0.19004104291E+03  0.13726051514E+02  0.19583190165E+03  0.46999998093E+01 0.  1.
</event>
<event>
 5   0  0.2005125E-03  0.4998899E+03  0.7818609E-02  0.1013808E+00
        4   -1    0    0  501    0  0.00000000000E+00  0.00000000000E+00  0.55120913322E+03  0.55121059628E+03  0.12699999809E+01 0. -1.
       -4   -1    0    0    0  501  0.00000000000E+00  0.00000000000E+00 -0.11333199025E+03  0.11333910585E+03  0.12699999809E+01 0.  1.
    10030    2    1    2    0    0  0.00000000000E+00  0.00000000000E+00  0.43787714297E+03  0.66454970213E+03  0.49988990214E+03 0.  0.
        2    1    3    3  502    0 -0.86112945937E+02 -0.17271614820E+03  0.43008258546E+03  0.47139933987E+03  0.25500000920E-02 0. -1.
       -2    1    3    3    0  502  0.86112945937E+02  0.17271614820E+03  0.77945575108E+01  0.19315036226E+03  0.25500000920E-02 0.  1.
</event>
<event>
 5   0  0.3055293E-03  0.5000298E+03  0.7818609E-02  0.1013771E+00
       -1   -1    0    0    0  501  0.00000000000E+00  0.00000000000E+00  0.45631110191E+03  0.45631110194E+03  0.50400001928E-02 0. -1.
        1   -1    0    0  501    0  0.00000000000E+00  0.00000000000E+00 -0.13698429103E+03  0.13698429112E+03  0.50400001928E-02 0.  1.
    10030    2    1    2    0    0  0.00000000000E+00  0.00000000000E+00  0.31932681088E+03  0.59329539306E+03  0.50002981040E+03 0.  0.
        3    1    3    3  502    0  0.23830536218E+03 -0.16914410685E+02  0.72215190251E+02  0.24958082226E+03  0.10100000352E+00 0.  1.
       -3    1    3    3    0  502 -0.23830536218E+03  0.16914410685E+02  0.24711162063E+03  0.34371457081E+03  0.10100000352E+00 0. -1.
</event>
<event>
 5   0  0.4989875E-03  0.4999902E+03  0.7818609E-02  0.1013781E+00
        2   -1    0    0  501    0  0.00000000000E+00  0.00000000000E+00  0.18960825396E+03  0.18960825398E+03  0.25500000920E-02 0.  1.
       -2   -1    0    0    0  501  0.00000000000E+00  0.00000000000E+00 -0.32961401660E+03  0.32961401661E+03  0.25500000920E-02 0. -1.
    10030    2    1    2    0    0  0.00000000000E+00  0.00000000000E+00 -0.14000576264E+03  0.51922227059E+03  0.49999015261E+03 0.  0.
        2    1    3    3  502    0 -0.20737586587E+02 -0.55105997704E+02 -0.32231102481E+03  0.32764480036E+03  0.25500000920E-02 0. -1.
       -2    1    3    3    0  502  0.20737586587E+02  0.55105997704E+02  0.18230526217E+03  0.19157747024E+03  0.25500000920E-02 0.  1.
</event>
<event>
 5   0  0.3211775E-03  0.4999221E+03  0.7818609E-02  0.1013799E+00
        1   -1    0    0  501    0  0.00000000000E+00  0.00000000000E+00  0.62872996700E+03  0.62872996702E+03  0.50400001928E-02 0.  1.
       -1   -1    0    0    0  501  0.00000000000E+00  0.00000000000E+00 -0.99375753202E+02  0.99375753330E+02  0.50400001928E-02 0. -1.
    10030    2    1    2    0    0  0.00000000000E+00  0.00000000000E+00  0.52935421380E+03  0.72810572035E+03  0.49992205026E+03 0.  0.
        4    1    3    3  502    0 -0.21593574824E+03  0.10202046626E+03  0.37212316887E+03  0.44216929859E+03  0.12699999809E+01 0. -1.
       -4    1    3    3    0  502  0.21593574824E+03 -0.10202046626E+03  0.15723104492E+03  0.28593642176E+03  0.12699999809E+01 0.  1.
</event>
<event>
 5   0  0.5118882E-03  0.5000460E+03  0.7818609E-02  0.1013767E+00
        2   -1    0    0  501    0  0.00000000000E+00  0.00000000000E+00  0.38354652456E+03  0.38354652457E+03  0.25500000920E-02 0.  1.
       -2   -1    0    0    0  501  0.00000000000E+00  0.00000000000E+00 -0.16298281023E+03  0.16298281025E+03  0.25500000920E-02 0. -1.
    10030    2    1    2    0    0  0.00000000000E+00  0.00000000000E+00  0.22056371434E+03  0.54652933482E+03  0.50004595962E+03 0.  0.
        3    1    3    3  502    0  0.13237139673E+03  0.21205661379E+03  0.11532442449E+03  0.27529970434E+03  0.10100000352E+00 0. -1.
       -3    1    3    3    0  502 -0.13237139673E+03 -0.21205661379E+03  0.10523928985E+03  0.27122963048E+03  0.10100000352E+00 0.  1.
</event>
<event>
 5   0  0.2005125E-03  0.4999520E+03  0.7818609E-02  0.1013791E+00
       -4   -1    0    0    0  501  0.00000000000E+00  0.00000000000E+00  0.61576004118E+03  0.61576135086E+03  0.12699999809E+01 0.  1.
        4   -1    0    0  501    0  0.00000000000E+00  0.00000000000E+00 -0.10147570829E+03  0.10148365520E+03  0.12699999809E+01 0. -1.
    10030    2    1    2    0    0  0.00000000000E+00  0.00000000000E+00  0.51428433289E+03  0.71724500607E+03  0.49995202137E+03 0.  0.
        2    1    3    3  502    0  0.24937758792E+03  0.29851280426E+01  0.23271497844E+03  0.34110753955E+03  0.25500000920E-02 0.  1.
       -2    1    3    3    0  502 -0.24937758792E+03 -0.29851280426E+01  0.28156935445E+03  0.37613746652E+03  0.25500000920E-02 0. -1.
</event>
<event>
 5   0  0.4989875E-03  0.4999043E+03  0.7818609E-02  0.1013804E+00
        2   -1    0    0  501    0  0.00000000000E+00  0.00000000000E+00  0.68337853365E+03  0.68337853366E+03  0.25500000920E-02 0. -1.
       -2   -1    0    0    0  501  0.00000000000E+00  0.00000000000E+00 -0.91422340467E+02  0.91422340503E+02  0.25500000920E-02 0.  1.
    10030    2    1    2    0    0  0.00000000000E+00  0.00000000000E+00  0.59195619319E+03  0.77480087416E+03  0.49990425078E+03 0.  0.
        2    1    3    3  502    0  0.24168975419E+03  0.25585822892E+02  0.38645146963E+03  0.45652306622E+03  0.25500000920E-02 0. -1.
       -2    1    3    3    0  502 -0.24168975419E+03 -0.25585822892E+02  0.20550472356E+03  0.31827780794E+03  0.25500000920E-02 0.  1.
</event>
<event>
 5   0  0.2863538E-03  0.5003164E+03  0.7818609E-02  0.1013696E+00
       -1   -1    0    0    0  501  0.00000000000E+00  0.00000000000E+00  0.25367141758E+03  0.25367141763E+03  0.50400001928E-02 0.  1.
        1   -1    0    0  501    0  0.00000000000E+00  0.00000000000E+00 -0.24669365166E+03  0.24669365171E+03  0.50400001928E-02 0. -1.
    10030    2    1    2    0    0  0.00000000000E+00  0.00000000000E+00  0.69777659165E+01  0.50036506934E+03  0.50031641328E+03 0.  0.
        1    1    3    3  502    0  0.77897824302E+02 -0.63742811178E+02  0.23252624452E+03  0.25337654079E+03  0.50400001928E-02 0.  1.
       -1    1    3    3    0  502 -0.77897824302E+02  0.63742811178E+02 -0.22554847860E+03  0.24698852855E+03  0.50400001928E-02 0. -1.
</event>
<event>
 5   0  0.4989875E-03  0.4998972E+03  0.7818609E-02  0.1013806E+00
       -2   -1    0    0    0  501  0.00000000000E+00  0.00000000000E+00  0.24789867775E+02  0.24789867906E+02  0.25500000920E-02 0.  1.
        2   -1    0    0  501    0  0.00000000000E+00  0.00000000000E+00 -0.25201543318E+04  0.25201543318E+04  0.25500000920E-02 0. -1.
    10030    2    1    2    0    0  0.00000000000E+00  0.00000000000E+00 -0.24953644640E+04  0.25449441997E+04  0.49989716073E+03 0.  0.
        2    1    3    3  502    0  0.16122561882E+03 -0.68016792187E+02 -0.21563009645E+04  0.21633894318E+04  0.25500000920E-02 0. -1.
       -2    1    3    3    0  502 -0.16122561882E+03  0.68016792187E+02 -0.33906349953E+03  0.38155476790E+03  0.25500000920E-02 0.  1.
</event>
<event>
 5   0  0.3055293E-03  0.5000153E+03  0.7818609E-02  0.1013775E+00
        1   -1    0    0  501    0  0.00000000000E+00  0.00000000000E+00  0.14075170746E+04  0.14075170746E+04  0.50400001928E-02 0. -1.
       -1   -1    0    0    0  501  0.00000000000E+00  0.00000000000E+00 -0.44407158357E+02  0.44407158643E+02  0.50400001928E-02 0.  1.
    10030    2    1    2    0    0  0.00000000000E+00  0.00000000000E+00  0.13631099162E+04  0.14519242332E+04  0.50001533510E+03 0.  0.
        3    1    3    3  502    0  0.14086916212E+03  0.14269724427E+03  0.11151514776E+04  0.11330355037E+04  0.10100000352E+00 0. -1.
       -3    1    3    3    0  502 -0.14086916212E+03 -0.14269724427E+03  0.24795843860E+03  0.31888872955E+03  0.10100000352E+00 0.  1.
</event>
<event>
 5   0  0.3211775E-03  0.4999988E+03  0.7818609E-02  0.1013779E+00
       -1   -1    0    0    0  501  0.00000000000E+00  0.00000000000E+00  0.12856979562E+04  0.12856979562E+04  0.50400001928E-02 0. -1.
        1   -1    0    0  501    0  0.00000000000E+00  0.00000000000E+00 -0.48611487307E+02  0.48611487568E+02  0.50400001928E-02 0.  1.
    10030    2    1    2    0    0  0.00000000000E+00  0.00000000000E+00  0.12370864689E+04  0.13343094438E+04  0.49999876024E+03 0.  0.
        4    1    3    3  502    0  0.97979895925E+02 -0.96177657661E+02  0.61012021063E+02  0.15024740082E+03  0.12699999809E+01 0.  1.
       -4    1    3    3    0  502 -0.97979895925E+02  0.96177657661E+02  0.11760744479E+04  0.11840620430E+04  0.12699999809E+01 0. -1.
</event>
<event>
 5   0  0.5118882E-03  0.4997697E+03  0.7818609E-02  0.1013839E+00
       -2   -1    0    0    0  501  0.00000000000E+00  0.00000000000E+00  0.84425135551E+02  0.84425135589E+02  0.25500000920E-02 0. -1.
        2   -1    0    0  501    0  0.00000000000E+00  0.00000000000E+00 -0.73961900534E+03  0.73961900534E+03  0.25500000920E-02 0.  1.
    10030    2    1    2    0    0  0.00000000000E+00  0.00000000000E+00 -0.65519386979E+03  0.82404414093E+03  0.49976968615E+03 0.  0.
        3    1    3    3  502    0 -0.22771366720E+03 -0.39375661289E+02 -0.48435430546E+03  0.53665916591E+03  0.10100000352E+00 0. -1.
       -3    1    3    3    0  502  0.22771366720E+03  0.39375661289E+02 -0.17083956432E+03  0.28738497502E+03  0.10100000352E+00 0.  1.
</event>
<event>
 5   0  0.2863538E-03  0.4999158E+03  0.7818609E-02  0.1013801E+00
        1   -1    0    0  501    0  0.00000000000E+00  0.00000000000E+00  0.41923146181E+03  0.41923146184E+03  0.50400001928E-02 0. -1.
       -1   -1    0    0    0  501  0.00000000000E+00  0.00000000000E+00 -0.14903210508E+03  0.14903210516E+03  0.50400001928E-02 0.  1.
    10030    2    1    2    0    0  0.00000000000E+00  0.00000000000E+00  0.27019935674E+03  0.56826356701E+03  0.49991578212E+03 0.  0.
        1    1    3    3  502    0 -0.12390446336E+02  0.53313016514E+02  0.41233587486E+03  0.41595273122E+03  0.50400001928E-02 0. -1.
       -1    1    3    3    0  502  0.12390446336E+02 -0.53313016514E+02 -0.14213651812E+03  0.15231083579E+03  0.50400001928E-02 0.  1.
</event>
<event>
 5   0  0.3013734E-03  0.5000676E+03  0.7818609E-02  0.1013761E+00
       -1   -1    0    0    0  501  0.00000000000E+00  0.00000000000E+00  0.75315008846E+02  0.75315009014E+02  0.50400001928E-02 0.  1.
        1   -1    0    0  501    0  0.00000000000E+00  0.00000000000E+00 -0.83007218263E+03  0.83007218264E+03  0.50400001928E-02 0. -1.
    10030    2    1    2    0    0  0.00000000000E+00  0.00000000000E+00 -0.75475717378E+03  0.90538719166E+03  0.50006757088E+03 0.  0.
        2    1    3    3  502    0 -0.74049824877E+02 -0.10522309497E+03 -0.76553190858E+03  0.77626952751E+03  0.25500000920E-02 0. -1.
       -2    1    3    3    0  502  0.74049824877E+02  0.10522309497E+03  0.10774734795E+02  0.12911766415E+03  0.25500000920E-02 0.  1.
</event>
<event>
 5   0  0.3013734E-03  0.5001544E+03  0.7818609E-02  0.1013739E+00
        1   -1    0    0  501    0  0.00000000000E+00  0.00000000000E+00  0.23604187550E+03  0.23604187556E+03  0.50400001928E-02 0. -1.
       -1   -1    0    0    0  501  0.00000000000E+00  0.00000000000E+00 -0.26494710284E+03  0.26494710289E+03  0.50400001928E-02 0.  1.
    10030    2    1    2    0    0  0.00000000000E+00  0.00000000000E+00 -0.28905227337E+02  0.50098897844E+03  0.50015442051E+03 0.  0.
        2    1    3    3  502    0  0.12255110874E+03  0.98757862891E+02  0.18020827516E+03  0.23926326960E+03  0.25500000920E-02 0. -1.
       -2    1    3    3    0  502 -0.12255110874E+03 -0.98757862891E+02 -0.20911350250E+03  0.26172570884E+03  0.25500000920E-02 0.  1.
</event>
<event>
 5   0  0.5095783E-03  0.5001557E+03  0.7818609E-02  0.1013738E+00
       -2   -1    0    0    0  501  0.00000000000E+00  0.00000000000E+00  0.48214866910E+02  0.48214866977E+02  0.25500000920E-02 0. -1.
        2   -1    0    0  501    0  0.00000000000E+00  0.00000000000E+00 -0.12970879313E+04  0.12970879313E+04  0.25500000920E-02 0.  1.
    10030    2    1    2    0    0  0.00000000000E+00  0.00000000000E+00 -0.12488730644E+04  0.13453027983E+04  0.50015566386E+03 0.  0.
        4    1    3    3  502    0 -0.12210383864E+03  0.20471746157E+03 -0.82784281871E+03  0.86147776052E+03  0.12699999809E+01 0.  1.
       -4    1    3    3    0  502  0.12210383864E+03 -0.20471746157E+03 -0.42103024566E+03  0.48382503774E+03  0.12699999809E+01 0. -1.
</event>
<event>
 5   0  0.3211775E-03  0.5000474E+03  0.7818609E-02  0.1013767E+00
        1   -1    0    0  501    0  0.00000000000E+00  0.00000000000E+00  0.72596004521E+02  0.72596004696E+02  0.50400001928E-02 0.  1.
       -1   -1    0    0    0  501  0.00000000000E+00  0.00000000000E+00 -0.86109227148E+03  0.86109227149E+03  0.50400001928E-02 0. -1.
    10030    2    1    2    0    0  0.00000000000E+00  0.00000000000E+00 -0.78849626696E+03  0.93368827619E+03  0.50004743184E+03 0.  0.
        4    1    3    3  502    0 -0.13652038432E+03 -0.14279372758E+03 -0.10811920030E+03  0.22520932117E+03  0.12699999809E+01 0.  1.
       -4    1    3    3    0  502  0.13652038432E+03  0.14279372758E+03 -0.68037706666E+03  0.70847895502E+03  0.12699999809E+01 0. -1.
</event>
<event>
 5   0  0.2863538E-03  0.5000359E+03  0.7818609E-02  0.1013770E+00
        1   -1    0    0  501    0  0.00000000000E+00  0.00000000000E+00  0.78862942152E+03  0.78862942154E+03  0.50400001928E-02 0. -1.
       -1   -1    0    0    0  501  0.00000000000E+00  0.00000000000E+00 -0.79262796113E+02  0.79262796273E+02  0.50400001928E-02 0.  1.
    10030    2    1    2    0    0  0.00000000000E+00  0.00000000000E+00  0.70936662541E+03  0.86789221781E+03  0.50003589120E+03 0.  0.
        1    1    3    3  502    0 -0.24224208508E+03 -0.47926811954E+02  0.42259101276E+03  0.48945007015E+03  0.50400001928E-02 0.  1.
       -1    1    3    3    0  502  0.24224208508E+03  0.47926811954E+02  0.28677561265E+03  0.37844214766E+03  0.50400001928E-02 0. -1.
</event>
<event>
 5   0  0.4889251E-03  0.4999760E+03  0.7818609E-02  0.1013785E+00
       -2   -1    0    0    0  501  0.00000000000E+00  0.00000000000E+00  0.32563316304E+03  0.32563316305E+03  0.25500000920E-02 0.  1.
        2   -1    0    0  501    0  0.00000000000E+00  0.00000000000E+00 -0.19191538003E+03  0.19191538005E+03  0.25500000920E-02 0. -1.
    10030    2    1    2    0    0  0.00000000000E+00  0.00000000000E+00  0.13371778301E+03  0.51754854309E+03  0.49997604839E+03 0.  0.
        5    1    3    3  502    0 -0.11429591911E+03  0.71310259273E+02 -0.15107135165E+03  0.20246815427E+03  0.46999998093E+01 0. -1.
       -5    1    3    3    0  502  0.11429591911E+03 -0.71310259273E+02  0.28478913466E+03  0.31508038883E+03  0.46999998093E+01 0.  1.
</event>
<event>
 5   0  0.4978779E-03  0.5003757E+03  0.7818609E-02  0.1013681E+00
        2   -1    0    0  501    0  0.00000000000E+00  0.00000000000E+00  0.87648778205E+03  0.87648778205E+03  0.25500000920E-02 0.  1.
       -2   -1    0    0    0  501  0.00000000000E+00  0.00000000000E+00 -0.71414528346E+02  0.71414528392E+02  0.25500000920E-02 0. -1.
    10030    2    1    2    0    0  0.00000000000E+00  0.00000000000E+00  0.80507325370E+03  0.94790231044E+03  0.50037570516E+03 0.  0.
        1    1    3    3  502    0  0.12684750719E+03 -0.13350575995E+03  0.72335265545E+03  0.74642691684E+03  0.50400001928E-02 0.  1.
       -1    1    3    3    0  502 -0.12684750719E+03  0.13350575995E+03  0.81720598253E+02  0.20147539360E+03  0.50400001928E-02 0. -1.
</event>
<event>
 5   0  0.4978779E-03  0.5000835E+03  0.7818609E-02  0.1013757E+00
       -2   -1    0    0    0  501  0.00000000000E+00  0.00000000000E+00  0.14407667842E+03  0.14407667844E+03  0.25500000920E-02 0.  1.
        2   -1    0    0  501    0  0.00000000000E+00  0.00000000000E+00 -0.43394161192E+03  0.43394161193E+03  0.25500000920E-02 0. -1.
    10030    2    1    2    0    0  0.00000000000E+00  0.00000000000E+00 -0.28986493351E+03  0.57801829037E+03  0.50008345736E+03 0.  0.
        1    1    3    3  502    0 -0.11625163451E+03 -0.12346886886E+01 -0.40080215633E+03  0.41732281932E+03  0.50400001928E-02 0. -1.
       -1    1    3    3    0  502  0.11625163451E+03  0.12346886886E+01  0.11093722282E+03  0.16069547105E+03  0.50400001928E-02 0.  1.
</event>
<event>
 5   0  0.2005125E-03  0.5004496E+03  0.7818609E-02  0.1013662E+00
       -3   -1    0    0    0  501  0.00000000000E+00  0.00000000000E+00  0.42625221259E+03  0.42625222455E+03  0.10100000352E+00 0.  1.
        3   -1    0    0  501    0  0.00000000000E+00  0.00000000000E+00 -0.14689055679E+03  0.14689059152E+03  0.10100000352E+00 0. -1.
    10030    2    1    2    0    0  0.00000000000E+00  0.00000000000E+00  0.27936165579E+03  0.57314281607E+03  0.50044955079E+03 0.  0.
        1    1    3    3  502    0 -0.24144716819E+02  0.93592901341E+01 -0.14535189495E+03  0.14764056710E+03  0.50400001928E-02 0. -1.
       -1    1    3    3    0  502  0.24144716819E+02 -0.93592901341E+01  0.42471355075E+03  0.42550224897E+03  0.50400001928E-02 0.  1.
</event>
<event>
 5   0  0.3055293E-03  0.5001893E+03  0.7818609E-02  0.1013730E+00
        1   -1    0    0  501    0  0.00000000000E+00  0.00000000000E+00  0.78888526374E+03  0.78888526375E+03  0.50400001928E-02 0.  1.
       -1   -1    0    0    0  501  0.00000000000E+00  0.00000000000E+00 -0.79285730676E+02  0.79285730836E+02  0.50400001928E-02 0. -1.
    10030    2    1    2    0    0  0.00000000000E+00  0.00000000000E+00  0.70959953306E+03  0.86817099459E+03  0.50018934267E+03 0.  0.
        3    1    3    3  502    0  0.94438432599E+02 -0.49382036225E+02  0.74750253229E+03  0.75506108961E+03  0.10100000352E+00 0.  1.
       -3    1    3    3    0  502 -0.94438432599E+02  0.49382036225E+02 -0.37902999231E+02  0.11310990498E+03  0.10100000352E+00 0. -1.
</event>
<event>
 5   0  0.4889251E-03  0.5000201E+03  0.7818609E-02  0.1013774E+00
       -2   -1    0    0    0  501  0.00000000000E+00  0.00000000000E+00  0.20895890739E+02  0.20895890895E+02  0.25500000920E-02 0. -1.
        2   -1    0    0  501    0  0.00000000000E+00  0.00000000000E+00 -0.29912596129E+04  0.29912596129E+04  0.25500000920E-02 0.  1.
    10030    2    1    2    0    0  0.00000000000E+00  0.00000000000E+00 -0.29703637222E+04  0.30121555038E+04  0.50002013671E+03 0.  0.
        5    1    3    3  502    0  0.79619787229E+02  0.23565273980E+03 -0.16341384474E+04  0.16529676584E+04  0.46999998093E+01 0.  1.
       -5    1    3    3    0  502 -0.79619787229E+02 -0.23565273980E+03 -0.13362252747E+04  0.13591878454E+04  0.46999998093E+01 0. -1.
</event>
<event>
 5   0  0.4989875E-03  0.5000605E+03  0.7818609E-02  0.1013763E+00
        2   -1    0    0  501    0  0.00000000000E+00  0.00000000000E+00  0.92633599535E+03  0.92633599535E+03  0.25500000920E-02 0.  1.
       -2   -1    0    0    0  501  0.00000000000E+00  0.00000000000E+00 -0.67486448797E+02  0.67486448845E+02  0.25500000920E-02 0. -1.
    10030    2    1    2    0    0  0.00000000000E+00  0.00000000000E+00  0.85884954655E+03  0.99382244420E+03  0.50006050332E+03 0.  0.
        2    1    3    3  502    0  0.11368706494E+03 -0.61560991936E+02  0.40987689879E+01  0.12934954340E+03  0.25500000920E-02 0. -1.
       -2    1    3    3    0  502 -0.11368706494E+03  0.61560991936E+02  0.85475077756E+03  0.86447290080E+03  0.25500000920E-02 0.  1.
</event>
<event>
 5   0  0.3057783E-03  0.4998963E+03  0.7818609E-02  0.1013806E+00
       -1   -1    0    0    0  501  0.00000000000E+00  0.00000000000E+00  0.13062877796E+03  0.13062877806E+03  0.50400001928E-02 0.  1.
        1   -1    0    0  501    0  0.00000000000E+00  0.00000000000E+00 -0.47825664646E+03  0.47825664648E+03  0.50400001928E-02 0. -1.
    10030    2    1    2    0    0  0.00000000000E+00  0.00000000000E+00 -0.34762786850E+03  0.60888542454E+03  0.49989631451E+03 0.  0.
        5    1    3    3  502    0  0.13919081111E+02  0.12207883617E+03 -0.43887052125E+03  0.45577012570E+03  0.46999998093E+01 0.  1.
       -5    1    3    3    0  502 -0.13919081111E+02 -0.12207883617E+03  0.91242652753E+02  0.15311529884E+03  0.46999998093E+01 0. -1.
</event>
<event>
 5   0  0.4978779E-03  0.5000959E+03  0.7818609E-02  0.1013754E+00
        2   -1    0    0  501    0  0.00000000000E+00  0.00000000000E+00  0.15617467451E+03  0.15617467453E+03  0.25500000920E-02 0.  1.
       -2   -1    0    0    0  501  0.00000000000E+00  0.00000000000E+00 -0.40034640738E+03  0.40034640738E+03  0.25500000920E-02 0. -1.
    10030    2    1    2    0    0  0.00000000000E+00  0.00000000000E+00 -0.24417173287E+03  0.55652108191E+03  0.50009587029E+03 0.  0.
        1    1    3    3  502    0 -0.13473539472E+03 -0.47158563400E+02  0.10637333931E+03  0.17802484106E+03  0.50400001928E-02 0.  1.
       -1    1    3    3    0  502  0.13473539472E+03  0.47158563400E+02 -0.35054507217E+03  0.37849624086E+03  0.50400001928E-02 0. -1.
</event>
<event>
 5   0  0.5095783E-03  0.4993895E+03  0.7818609E-02  0.1013938E+00
        2   -1    0    0  501    0  0.00000000000E+00  0.00000000000E+00  0.34473786998E+03  0.34473786998E+03  0.25500000920E-02 0. -1.
       -2   -1    0    0    0  501  0.00000000000E+00  0.00000000000E+00 -0.18085474440E+03  0.18085474442E+03  0.25500000920E-02 0.  1.
    10030    2    1    2    0    0  0.00000000000E+00  0.00000000000E+00  0.16388312557E+03  0.52559261441E+03  0.49938954481E+03 0.  0.
        4    1    3    3  502    0  0.86893878335E+02 -0.97964531745E+02 -0.14181239121E+03  0.19302839887E+03  0.12699999809E+01 0.  1.
       -4    1    3    3    0  502 -0.86893878335E+02  0.97964531745E+02  0.30569551678E+03  0.33256421553E+03  0.12699999809E+01 0. -1.
</event>
<event>
 5   0  0.4978779E-03  0.5000037E+03  0.7818609E-02  0.1013778E+00
       -2   -1    0    0    0  501  0.00000000000E+00  0.00000000000E+00  0.95028061802E+02  0.95028061837E+02  0.25500000920E-02 0. -1.
        2   -1    0    0  501    0  0.00000000000E+00  0.00000000000E+00 -0.65771018985E+03  0.65771018985E+03  0.25500000920E-02 0.  1.
    10030    2    1    2    0    0  0.00000000000E+00  0.00000000000E+00 -0.56268212805E+03  0.75273825169E+03  0.50000369832E+03 0.  0.
        1    1    3    3  502    0  0.14232228044E+03 -0.20321856568E+03 -0.23500041382E+03  0.34172885665E+03  0.50400001928E-02 0.  1.
       -1    1    3    3    0  502 -0.14232228044E+03  0.20321856568E+03 -0.32768171422E+03  0.41100939504E+03  0.50400001928E-02 0. -1.
</event>
<event>
 5   0  0.4989875E-03  0.5001182E+03  0.7818609E-02  0.1013748E+00
        2   -1    0    0  501    0  0.00000000000E+00  0.00000000000E+00  0.11707268791E+04  0.11707268791E+04  0.25500000920E-02 0.  1.
       -2   -1    0    0    0  501  0.00000000000E+00  0.00000000000E+00 -0.53410886075E+02  0.53410886136E+02  0.25500000920E-02 0. -1.
    10030    2    1    2    0    0  0.00000000000E+00  0.00000000000E+00  0.11173159930E+04  0.12241377652E+04  0.50011822603E+03 0.  0.
        2    1    3    3  502    0 -0.35605544272E+01 -0.24951753643E+03  0.51935119792E+03  0.57619210800E+03  0.25500000920E-02 0.  1.
       -2    1    3    3    0  502  0.35605544272E+01  0.24951753643E+03  0.59796479506E+03  0.64794565719E+03  0.25500000920E-02 0. -1.
</event>
<event>
 5   0  0.3013734E-03  0.5000395E+03  0.7818609E-02  0.1013769E+00
        1   -1    0    0  501    0  0.00000000000E+00  0.00000000000E+00  0.62384819592E+03  0.62384819594E+03  0.50400001928E-02 0. -1.
       -1   -1    0    0    0  501  0.00000000000E+00  0.00000000000E+00 -0.10020044574E+03  0.10020044587E+03  0.50400001928E-02 0.  1.
    10030    2    1    2    0    0  0.00000000000E+00  0.00000000000E+00  0.52364775018E+03  0.72404864181E+03  0.50003946788E+03 0.  0.
        2    1    3    3  502    0 -0.23658793675E+03  0.96652065875E+01  0.37804739390E+03  0.44607970148E+03  0.25500000920E-02 0. -1.
       -2    1    3    3    0  502  0.23658793675E+03 -0.96652065875E+01  0.14560035628E+03  0.27796894033E+03  0.25500000920E-02 0.  1.
</event>
<event>
 5   0  0.3013734E-03  0.5007522E+03  0.7818609E-02  0.1013583E+00
        1   -1    0    0  501    0  0.00000000000E+00  0.00000000000E+00  0.19893510829E+04  0.19893510829E+04  0.50400001928E-02 0.  1.
       -1   -1    0    0    0  501  0.00000000000E+00  0.00000000000E+00 -0.31511874325E+02  0.31511874728E+02  0.50400001928E-02 0. -1.
    10030    2    1    2    0    0  0.00000000000E+00  0.00000000000E+00  0.19578392086E+04  0.20208629577E+04  0.50075216116E+03 0.  0.
        2    1    3    3  502    0 -0.90107954382E+02 -0.23350415006E+03  0.10058559558E+04  0.10365277784E+04  0.25500000920E-02 0. -1.
       -2    1    3    3    0  502  0.90107954382E+02  0.23350415006E+03  0.95198325281E+03  0.98433517928E+03  0.25500000920E-02 0.  1.
</event>
<event>
 5   0  0.4978779E-03  0.4999191E+03  0.7818609E-02  0.1013800E+00
        2   -1    0    0  501    0  0.00000000000E+00  0.00000000000E+00  0.15177932205E+04  0.15177932205E+04  0.25500000920E-02 0. -1.
       -2   -1    0    0    0  501  0.00000000000E+00  0.00000000000E+00 -0.41164877636E+02  0.41164877715E+02  0.25500000920E-02 0.  1.
    10030    2    1    2    0    0  0.00000000000E+00  0.00000000000E+00  0.14766283429E+04  0.15589580983E+04  0.49991908251E+03 0.  0.
        1    1    3    3  502    0 -0.81087516755E+02 -0.59610251132E+02  0.24807450580E+02  0.10365315742E+03  0.50400001928E-02 0.  1.
       -1    1    3    3    0  502  0.81087516755E+02  0.59610251132E+02  0.14518208923E+04  0.14553049408E+04  0.50400001928E-02 0. -1.
</event>
<event>
 5   0  0.2863538E-03  0.5001789E+03  0.7818609E-02  0.1013732E+00
        1   -1    0    0  501    0  0.00000000000E+00  0.00000000000E+00  0.98865314896E+03  0.98865314897E+03  0.50400001928E-02 0. -1.
       -1   -1    0    0    0  501  0.00000000000E+00  0.00000000000E+00 -0.63262559364E+02  0.63262559565E+02  0.50400001928E-02 0.  1.
    10030    2    1    2    0    0  0.00000000000E+00  0.00000000000E+00  0.92539058959E+03  0.10519157085E+04  0.50017888256E+03 0.  0.
        1    1    3    3  502    0 -0.18862699418E+03  0.14939772562E+03  0.31936301163E+03  0.39986567316E+03  0.50400001928E-02 0. -1.
       -1    1    3    3    0  502  0.18862699418E+03 -0.14939772562E+03  0.60602757796E+03  0.65205003537E+03  0.50400001928E-02 0.  1.
</event>
<event>
 5   0  0.3057783E-03  0.5000745E+03  0.7818609E-02  0.1013759E+00
       -1   -1    0    0    0  501  0.00000000000E+00  0.00000000000E+00  0.68136485255E+02  0.68136485441E+02  0.50400001928E-02 0.  1.
        1   -1    0    0  501    0  0.00000000000E+00  0.00000000000E+00 -0.91755005789E+03  0.91755005791E+03  0.50400001928E-02 0. -1.
    10030    2    1    2    0    0  0.00000000000E+00  0.00000000000E+00 -0.84941357264E+03  0.98568654335E+03  0.50007453880E+03 0.  0.
        5    1    3    3  502    0 -0.24930567184E+03  0.17838899446E+02 -0.43456252668E+03  0.50133643787E+03  0.46999998093E+01 0. -1.
       -5    1    3    3    0  502  0.24930567184E+03 -0.17838899446E+02 -0.41485104596E+03  0.48435010548E+03  0.46999998093E+01 0.  1.
</event>
<event>
 5   0  0.5118882E-03  0.4997916E+03  0.7818609E-02  0.1013833E+00
        2   -1    0    0  501    0  0.00000000000E+00  0.00000000000E+00  0.93038833002E+03  0.93038833002E+03  0.25500000920E-02 0. -1.
       -2   -1    0    0    0  501  0.00000000000E+00  0.00000000000E+00 -0.67120265863E+02  0.67120265912E+02  0.25500000920E-02 0.  1.
    10030    2    1    2    0    0  0.00000000000E+00  0.00000000000E+00  0.86326806416E+03  0.99750859593E+03  0.49979160494E+03 0.  0.
        3    1    3    3  502    0  0.14964394991E+03 -0.19741414679E+03  0.49729245431E+03  0.55557668455E+03  0.10100000352E+00 0.  1.
       -3    1    3    3    0  502 -0.14964394991E+03  0.19741414679E+03  0.36597560985E+03  0.44193191139E+03  0.10100000352E+00 0. -1.
</event>
<event>
 5   0  0.3211775E-03  0.5000534E+03  0.7818609E-02  0.1013765E+00
        1   -1    0    0  501    0  0.00000000000E+00  0.00000000000E+00  0.14153641231E+03  0.14153641240E+03  0.50400001928E-02 0. -1.
       -1   -1    0    0    0  501  0.00000000000E+00  0.00000000000E+00 -0.44167676875E+03  0.44167676878E+03  0.50400001928E-02 0.  1.
    10030    2    1    2    0    0  0.00000000000E+00  0.00000000000E+00 -0.30014035644E+03  0.58321318118E+03  0.50005337829E+03 0.  0.
        4    1    3    3  502    0 -0.10330423291E+03 -0.29709069124E+02  0.11320767982E+03  0.15611529392E+03  0.12699999809E+01 0. -1.
       -4    1    3    3    0  502  0.10330423291E+03  0.29709069124E+02 -0.41334803626E+03  0.42709788726E+03  0.12699999809E+01 0.  1.
</event>
<event>
 5   0  0.4989875E-03  0.5003514E+03  0.7818609E-02  0.1013687E+00
       -2   -1    0    0    0  501  0.00000000000E+00  0.00000000000E+00  0.24756826900E+03  0.24756826901E+03  0.25500000920E-02 0. -1.
        2   -1    0    0  501    0  0.00000000000E+00  0.00000000000E+00 -0.25281058300E+03  0.25281058301E+03  0.25500000920E-02 0.  1.
    10030    2    1    2    0    0  0.00000000000E+00  0.00000000000E+00 -0.52423139992E+01  0.50037885202E+03  0.50035139022E+03 0.  0.
        2    1    3    3  502    0 -0.12985283161E+02  0.20167735729E+03  0.14485050626E+03  0.24864441115E+03  0.25500000920E-02 0.  1.
       -2    1    3    3    0  502  0.12985283161E+02 -0.20167735729E+03 -0.15009282026E+03  0.25173444088E+03  0.25500000920E-02 0. -1.
</event>
<event>
 5   0  0.3211775E-03  0.5000576E+03  0.7818609E-02  0.1013764E+00
       -1   -1    0    0    0  501  0.00000000000E+00  0.00000000000E+00  0.23328655628E+03  0.23328655634E+03  0.50400001928E-02 0. -1.
        1   -1    0    0  501    0  0.00000000000E+00  0.00000000000E+00 -0.26797259482E+03  0.26797259486E+03  0.50400001928E-02 0.  1.
    10030    2    1    2    0    0  0.00000000000E+00  0.00000000000E+00 -0.34686038533E+02  0.50125915120E+03  0.50005761207E+03 0.  0.
        4    1    3    3  502    0 -0.17898323178E+03  0.64395112406E+02 -0.18000140928E+03  0.26188518095E+03  0.12699999809E+01 0.  1.
       -4    1    3    3    0  502  0.17898323178E+03 -0.64395112406E+02  0.14531537075E+03  0.23937397025E+03  0.12699999809E+01 0. -1.
</event>
<event>
 5   0  0.2863538E-03  0.4998922E+03  0.7818609E-02  0.1013807E+00
       -1   -1    0    0    0  501  0.00000000000E+00  0.00000000000E+00  0.22454419278E+03  0.22454419283E+03  0.50400001928E-02 0. -1.
        1   -1    0    0  501    0  0.00000000000E+00  0.00000000000E+00 -0.27822167248E+03  0.27822167253E+03  0.50400001928E-02 0.  1.
    10030    2    1    2    0    0  0.00000000000E+00  0.00000000000E+00 -0.53677479707E+02  0.50276586536E+03  0.49989223193E+03 0.  0.
        1    1    3    3  502    0  0.22081008511E+01 -0.14186918329E+03 -0.23379167609E+03  0.27347813206E+03  0.50400001928E-02 0.  1.
       -1    1    3    3    0  502 -0.22081008511E+01  0.14186918329E+03  0.18011419639E+03  0.22928773330E+03  0.50400001928E-02 0. -1.
</event>
<event>
 5   0  0.4889251E-03  0.4994672E+03  0.7818609E-02  0.1013918E+00
       -2   -1    0    0    0  501  0.00000000000E+00  0.00000000000E+00  0.25969025665E+03  0.25969025667E+03  0.25500000920E-02 0.  1.
        2   -1    0    0  501    0  0.00000000000E+00  0.00000000000E+00 -0.24015871662E+03  0.24015871664E+03  0.25500000920E-02 0. -1.
    10030    2    1    2    0    0  0.00000000000E+00  0.00000000000E+00  0.19531540032E+02  0.49984897330E+03  0.49946723121E+03 0.  0.
        5    1    3    3  502    0 -0.78432112527E+02 -0.11666132370E+03  0.21628077110E+03  0.25799403611E+03  0.46999998093E+01 0.  1.
       -5    1    3    3    0  502  0.78432112527E+02  0.11666132370E+03 -0.19674923106E+03  0.24185493720E+03  0.46999998093E+01 0. -1.
</event>
<event>
 5   0  0.3055293E-03  0.4999365E+03  0.7818609E-02  0.1013795E+00
       -1   -1    0    0    0  501  0.00000000000E+00  0.00000000000E+00  0.79646561206E+02  0.79646561365E+02  0.50400001928E-02 0.  1.
        1   -1    0    0  501    0  0.00000000000E+00  0.00000000000E+00 -0.78451761068E+03  0.78451761069E+03  0.50400001928E-02 0. -1.
    10030    2    1    2    0    0  0.00000000000E+00  0.00000000000E+00 -0.70487104947E+03  0.86416417206E+03  0.49993651586E+03 0.  0.
        3    1    3    3  502    0 -0.24795776912E+03  0.13151530370E+02 -0.30269352399E+03  0.39150912848E+03  0.10100000352E+00 0. -1.
       -3    1    3    3    0  502  0.24795776912E+03 -0.13151530370E+02 -0.40217752548E+03  0.47265504358E+03  0.10100000352E+00 0.  1.
</event>
<event>
 5   0  0.2005125E-03  0.4999187E+03  0.7818609E-02  0.1013800E+00
       -3   -1    0    0    0  501  0.00000000000E+00  0.00000000000E+00  0.61367117687E+03  0.61367118519E+03  0.10100000352E+00 0. -1.
        3   -1    0    0  501    0  0.00000000000E+00  0.00000000000E+00 -0.10181293305E+03  0.10181298314E+03  0.10100000352E+00 0.  1.
    10030    2    1    2    0    0  0.00000000000E+00  0.00000000000E+00  0.51185824383E+03  0.71548416833E+03  0.49991872675E+03 0.  0.
        3    1    3    3  502    0 -0.24904121012E+03  0.97270863399E+01  0.28321715909E+03  0.37726397913E+03  0.10100000352E+00 0. -1.
       -3    1    3    3    0  502  0.24904121012E+03 -0.97270863399E+01  0.22864108474E+03  0.33822018920E+03  0.10100000352E+00 0.  1.
</event>
<event>
 5   0  0.3055293E-03  0.5000909E+03  0.7818609E-02  0.1013755E+00
        1   -1    0    0  501    0  0.00000000000E+00  0.00000000000E+00  0.86822423454E+02  0.86822423601E+02  0.50400001928E-02 0. -1.
       -1   -1    0    0    0  501  0.00000000000E+00  0.00000000000E+00 -0.72012180761E+03  0.72012180763E+03  0.50400001928E-02 0.  1.
    10030    2    1    2    0    0  0.00000000000E+00  0.00000000000E+00 -0.63329938416E+03  0.80694423123E+03  0.50009087408E+03 0.  0.
        3    1    3    3  502    0  0.76875399185E+02 -0.96262036690E+02  0.34456548534E+02  0.12791978207E+03  0.10100000352E+00 0. -1.
       -3    1    3    3    0  502 -0.76875399185E+02  0.96262036690E+02 -0.66775593269E+03  0.67902444916E+03  0.10100000352E+00 0.  1.
</event>
<event>
 5   0  0.4989875E-03  0.4998744E+03  0.7818609E-02  0.1013812E+00
       -2   -1    0    0    0  501  0.00000000000E+00  0.00000000000E+00  0.49427483082E+02  0.49427483148E+02  0.25500000920E-02 0.  1.
        2   -1    0    0  501    0  0.00000000000E+00  0.00000000000E+00 -0.12638435132E+04  0.12638435132E+04  0.25500000920E-02 0. -1.
    10030    2    1    2    0    0  0.00000000000E+00  0.00000000000E+00 -0.12144160301E+04  0.13132709963E+04  0.49987439987E+03 0.  0.
        2    1    3    3  502    0  0.17019129927E+03 -0.98703065431E+02 -0.20223328907E+03  0.28214477966E+03  0.25500000920E-02 0.  1.
       -2    1    3    3    0  502 -0.17019129927E+03  0.98703065431E+02 -0.10121827410E+04  0.10311262167E+04  0.25500000920E-02 0. -1.
</event>
<event>
 5   0  0.5095783E-03  0.4997654E+03  0.7818609E-02  0.1013840E+00
       -2   -1    0    0    0  501  0.00000000000E+00  0.00000000000E+00  0.16248761025E+03  0.16248761027E+03  0.25500000920E-02 0. -1.
        2   -1    0    0  501    0  0.00000000000E+00  0.00000000000E+00 -0.38428386339E+03  0.38428386340E+03  0.25500000920E-02 0.  1.
    10030    2    1    2    0    0  0.00000000000E+00  0.00000000000E+00 -0.22179625314E+03  0.54677147367E+03  0.49976541148E+03 0.  0.
        4    1    3    3  502    0 -0.18820340366E+03  0.45342925831E+02  0.61960170533E+02  0.20326627291E+03  0.12699999809E+01 0. -1.
       -4    1    3    3    0  502  0.18820340366E+03 -0.45342925831E+02 -0.28375642367E+03  0.34350520076E+03  0.12699999809E+01 0.  1.
</event>
<event>
 5   0  0.3055293E-03  0.5005172E+03  0.7818609E-02  0.1013644E+00
       -1   -1    0    0    0  501  0.00000000000E+00  0.00000000000E+00  0.13292752813E+03  0.13292752823E+03  0.50400001928E-02 0. -1.
        1   -1    0    0  501    0  0.00000000000E+00  0.00000000000E+00 -0.47115418618E+03  0.47115418621E+03  0.50400001928E-02 0.  1.
    10030    2    1    2    0    0  0.00000000000E+00  0.00000000000E+00 -0.33822665805E+03  0.60408171444E+03  0.50051717802E+03 0.  0.
        3    1    3    3  502    0 -0.14456030597E+03  0.65248911019E+02 -0.40275116231E+03  0.43285518524E+03  0.10100000352E+00 0.  1.
       -3    1    3    3    0  502  0.14456030597E+03 -0.65248911019E+02  0.64524504251E+02  0.17122652920E+03  0.10100000352E+00 0. -1.
</event>
<event>
 5   0  0.4989875E-03  0.4999399E+03  0.7818609E-02  0.1013795E+00
       -2   -1    0    0    0  501  0.00000000000E+00  0.00000000000E+00  0.32721731111E+03  0.32721731112E+03  0.25500000920E-02 0.  1.
        2   -1    0    0  501    0  0.00000000000E+00  0.00000000000E+00 -0.19095867951E+03  0.19095867952E+03  0.25500000920E-02 0. -1.
    10030    2    1    2    0    0  0.00000000000E+00  0.00000000000E+00  0.13625863160E+03  0.51817599064E+03  0.49993993899E+03 0.  0.
        2    1    3    3  502    0 -0.21146410103E+03 -0.71455444540E+02  0.18475958499E+03  0.28975688228E+03  0.25500000920E-02 0.  1.
       -2    1    3    3    0  502  0.21146410103E+03  0.71455444540E+02 -0.48500953393E+02  0.22841910836E+03  0.25500000920E-02 0. -1.
</event>
<event>
 5   0  0.5095783E-03  0.5002207E+03  0.7818609E-02  0.1013721E+00
       -2   -1    0    0    0  501  0.00000000000E+00  0.00000000000E+00  0.31321832700E+03  0.31321832701E+03  0.25500000920E-02 0.  1.
        2   -1    0    0  501    0  0.00000000000E+00  0.00000000000E+00 -0.19971750267E+03  0.19971750268E+03  0.25500000920E-02 0. -1.
    10030    2    1    2    0    0  0.00000000000E+00  0.00000000000E+00  0.11350082434E+03  0.51293582970E+03  0.50022067956E+03 0.  0.
        4    1    3    3  502    0 -0.10287238339E+03  0.13025692464E+03 -0.13509882654E+03  0.21401611975E+03  0.12699999809E+01 0. -1.
       -4    1    3    3    0  502  0.10287238339E+03 -0.13025692464E+03  0.24859965087E+03  0.29891970995E+03  0.12699999809E+01 0.  1.
</event>
<event>
 5   0  0.5118882E-03  0.4997199E+03  0.7818609E-02  0.1013852E+00
        2   -1    0    0  501    0  0.00000000000E+00  0.00000000000E+00  0.50303983323E+03  0.50303983323E+03  0.25500000920E-02 0. -1.
       -2   -1    0    0    0  501  0.00000000000E+00  0.00000000000E+00 -0.12410544707E+03  0.12410544709E+03  0.25500000920E-02 0.  1.
    10030    2    1    2    0    0  0.00000000000E+00  0.00000000000E+00  0.37893438616E+03  0.62714528032E+03  0.49971985514E+03 0.  0.
        3    1    3    3  502    0  0.16762225404E+03 -0.16989223372E+03  0.28228059352E+03  0.36965245137E+03  0.10100000352E+00 0. -1.
       -3    1    3    3    0  502 -0.16762225404E+03  0.16989223372E+03  0.96653792638E+02  0.25749282895E+03  0.10100000352E+00 0.  1.
</event>
<event>
 5   0  0.3055293E-03  0.5001346E+03  0.7818609E-02  0.1013744E+00
        1   -1    0    0  501    0  0.00000000000E+00  0.00000000000E+00  0.64128681976E+02  0.64128682174E+02  0.50400001928E-02 0.  1.
       -1   -1    0    0    0  501  0.00000000000E+00  0.00000000000E+00 -0.97512785985E+03  0.97512785986E+03  0.50400001928E-02 0. -1.
    10030    2    1    2    0    0  0.00000000000E+00  0.00000000000E+00 -0.91099917787E+03  0.10392565420E+04  0.50013463995E+03 0.  0.
        3    1    3    3  502    0 -0.12051957046E+03  0.32170953132E+02 -0.90586320366E+03  0.91441133580E+03  0.10100000352E+00 0. -1.
       -3    1    3    3    0  502  0.12051957046E+03 -0.32170953132E+02 -0.51359742125E+01  0.12484520624E+03  0.10100000352E+00 0.  1.
</event>
<event>
 5   0  0.4989875E-03  0.4993223E+03  0.7818609E-02  0.1013956E+00
        2   -1    0    0  501    0  0.00000000000E+00  0.00000000000E+00  0.69774974256E+03  0.69774974257E+03  0.25500000920E-02 0. -1.
       -2   -1    0    0    0  501  0.00000000000E+00  0.00000000000E+00 -0.89331027281E+02  0.89331027318E+02  0.25500000920E-02 0.  1.
    10030    2    1    2    0    0  0.00000000000E+00  0.00000000000E+00  0.60841871528E+03  0.78708076988E+03  0.49932234600E+03 0.  0.
        2    1    3    3  502    0 -0.20435701713E+03  0.10098625658E+03  0.46473412874E+03  0.51762710989E+03  0.25500000920E-02 0. -1.
       -2    1    3    3    0  502  0.20435701713E+03 -0.10098625658E+03  0.14368458654E+03  0.26945366000E+03  0.25500000920E-02 0.  1.
</event>
<event>
 5   0  0.3057783E-03  0.4998908E+03  0.7818609E-02  0.1013807E+00
       -1   -1    0    0    0  501  0.00000000000E+00  0.00000000000E+00  0.10429156885E+03  0.10429156897E+03  0.50400001928E-02 0.  1.
        1   -1    0    0  501    0  0.00000000000E+00  0.00000000000E+00 -0.59901977723E+03  0.59901977725E+03  0.50400001928E-02 0. -1.
    10030    2    1    2    0    0  0.00000000000E+00  0.00000000000E+00 -0.49472820837E+03  0.70331134622E+03  0.49989083765E+03 0.  0.
        5    1    3    3  502    0 -0.19407388861E+03 -0.83918547807E+02 -0.59953729851E+02  0.21982615092E+03  0.46999998093E+01 0.  1.
       -5    1    3    3    0  502  0.19407388861E+03  0.83918547807E+02 -0.43477447852E+03  0.48348519530E+03  0.46999998093E+01 0. -1.
</event>
<event>
 5   0  0.3013734E-03  0.4998174E+03  0.7818609E-02  0.1013827E+00
        1   -1    0    0  501    0  0.00000000000E+00  0.00000000000E+00  0.14980073887E+04  0.14980073887E+04  0.50400001928E-02 0.  1.
       -1   -1    0    0    0  501  0.00000000000E+00  0.00000000000E+00 -0.41691624355E+02  0.41691624659E+02  0.50400001928E-02 0. -1.
    10030    2    1    2    0    0  0.00000000000E+00  0.00000000000E+00  0.14563157644E+04  0.15396990134E+04  0.49981741295E+03 0.  0.
        2    1    3    3  502    0  0.16661215348E+03 -0.13207481394E+03  0.11327631464E+04  0.11525431497E+04  0.25500000920E-02 0.  1.
       -2    1    3    3    0  502 -0.16661215348E+03  0.13207481394E+03  0.32355261803E+03  0.38715586371E+03  0.25500000920E-02 0. -1.
</event>
<event>
 5   0  0.4989875E-03  0.5000055E+03  0.7818609E-02  0.1013777E+00
        2   -1    0    0  501    0  0.00000000000E+00  0.00000000000E+00  0.90355332335E+03  0.90355332336E+03  0.25500000920E-02 0. -1.
       -2   -1    0    0    0  501  0.00000000000E+00  0.00000000000E+00 -0.69172869586E+02  0.69172869633E+02  0.25500000920E-02 0.  1.
    10030    2    1    2    0    0  0.00000000000E+00  0.00000000000E+00  0.83438045377E+03  0.97272619299E+03  0.50000550487E+03 0.  0.
        2    1    3    3  502    0  0.19808150965E+03  0.15046153638E+03  0.36849931842E+03  0.44459724030E+03  0.25500000920E-02 0. -1.
       -2    1    3    3    0  502 -0.19808150965E+03 -0.15046153638E+03  0.46588113535E+03  0.52812895270E+03  0.25500000920E-02 0.  1.
</event>
<event>
 5   0  0.3055293E-03  0.4998828E+03  0.7818609E-02  0.1013810E+00
       -1   -1    0    0    0  501  0.00000000000E+00  0.00000000000E+00  0.19382720516E+03  0.19382720522E+03  0.50400001928E-02 0. -1.
        1   -1    0    0  501    0  0.00000000000E+00  0.00000000000E+00 -0.32230096251E+03  0.32230096255E+03  0.50400001928E-02 0.  1.
    10030    2    1    2    0    0  0.00000000000E+00  0.00000000000E+00 -0.12847375735E+03  0.51612816777E+03  0.49988276550E+03 0.  0.
        3    1    3    3  502    0 -0.23726102871E+03 -0.37825064739E+02  0.69018382263E+01  0.24035635386E+03  0.10100000352E+00 0. -1.
       -3    1    3    3    0  502  0.23726102871E+03  0.37825064739E+02 -0.13537559558E+03  0.27577181391E+03  0.10100000352E+00 0.  1.
</event>
<event>
 5   0  0.3055293E-03  0.4998756E+03  0.7818609E-02  0.1013811E+00
        1   -1    0    0  501    0  0.00000000000E+00  0.00000000000E+00  0.44451445207E+03  0.44451445210E+03  0.50400001928E-02 0. -1.
       -1   -1    0    0    0  501  0.00000000000E+00  0.00000000000E+00 -0.14053290371E+03  0.14053290380E+03  0.50400001928E-02 0.  1.
    10030    2    1    2    0    0  0.00000000000E+00  0.00000000000E+00  0.30398154836E+03  0.58504735590E+03  0.49987561142E+03 0.  0.
        3    1    3    3  502    0 -0.79200189203E+02  0.89183419753E+01 -0.12526148572E+03  0.14846769615E+03  0.10100000352E+00 0.  1.
       -3    1    3    3    0  502  0.79200189203E+02 -0.89183419753E+01  0.42924303409E+03  0.43657965975E+03  0.10100000352E+00 0. -1.
</event>
<event>
 5   0  0.3055293E-03  0.4999772E+03  0.7818609E-02  0.1013785E+00
       -1   -1    0    0    0  501  0.00000000000E+00  0.00000000000E+00  0.31272943593E+03  0.31272943597E+03  0.50400001928E-02 0. -1.
        1   -1    0    0  501    0  0.00000000000E+00  0.00000000000E+00 -0.19983504005E+03  0.19983504011E+03  0.50400001928E-02 0.  1.
    10030    2    1    2    0    0  0.00000000000E+00  0.00000000000E+00  0.11289439588E+03  0.51256447608E+03  0.49997719700E+03 0.  0.
        3    1    3    3  502    0  0.11879746051E+03  0.31043702468E+02  0.27968551336E+03  0.30545137857E+03  0.10100000352E+00 0. -1.
       -3    1    3    3    0  502 -0.11879746051E+03 -0.31043702468E+02 -0.16679111748E+03  0.20711309750E+03  0.10100000352E+00 0.  1.
</event>
<event>
 5   0  0.3013734E-03  0.4999362E+03  0.7818609E-02  0.1013796E+00
       -1   -1    0    0    0  501  0.00000000000E+00  0.00000000000E+00  0.44277544980E+02  0.44277545267E+02  0.50400001928E-02 0. -1.
        1   -1    0    0  501    0  0.00000000000E+00  0.00000000000E+00 -0.14111907441E+04  0.14111907441E+04  0.50400001928E-02 0.  1.
    10030    2    1    2    0    0  0.00000000000E+00  0.00000000000E+00 -0.13669131991E+04  0.14554682894E+04  0.49993624338E+03 0.  0.
        2    1    3    3  502    0 -0.12095480473E+03 -0.21875432049E+03 -0.68560453202E+03  0.72975139045E+03  0.25500000920E-02 0.  1.
       -2    1    3    3    0  502  0.12095480473E+03  0.21875432049E+03 -0.68130866707E+03  0.72571689890E+03  0.25500000920E-02 0. -1.
</event>
<event>
 5   0  0.4889251E-03  0.4998452E+03  0.7818609E-02  0.1013819E+00
        2   -1    0    0  501    0  0.00000000000E+00  0.00000000000E+00  0.13650665643E+04  0.13650665643E+04  0.25500000920E-02 0.  1.
       -2   -1    0    0    0  501  0.00000000000E+00  0.00000000000E+00 -0.45756959416E+02  0.45756959487E+02  0.25500000920E-02 0. -1.
    10030    2    1    2    0    0  0.00000000000E+00  0.00000000000E+00  0.13193096049E+04  0.14108235238E+04  0.49984515776E+03 0.  0.
        5    1    3    3  502    0 -0.12657585967E+03 -0.18960343886E+03  0.37086946348E+03  0.43535865814E+03  0.46999998093E+01 0. -1.
       -5    1    3    3    0  502  0.12657585967E+03  0.18960343886E+03  0.94844014142E+03  0.97546486566E+03  0.46999998093E+01 0.  1.
</event>
<event>
 5   0  0.3211775E-03  0.4999810E+03  0.7818609E-02  0.1013784E+00
        1   -1    0    0  501    0  0.00000000000E+00  0.00000000000E+00  0.25888915923E+03  0.25888915928E+03  0.50400001928E-02 0. -1.
       -1   -1    0    0    0  501  0.00000000000E+00  0.00000000000E+00 -0.24139768043E+03  0.24139768049E+03  0.50400001928E-02 0.  1.
    10030    2    1    2    0    0  0.00000000000E+00  0.00000000000E+00  0.17491478798E+02  0.50028683977E+03  0.49998096985E+03 0.  0.
        4    1    3    3  502    0 -0.82764786120E+01 -0.20524652311E+03 -0.13381596041E+03  0.24515904941E+03  0.12699999809E+01 0.  1.
       -4    1    3    3    0  502  0.82764786120E+01  0.20524652311E+03  0.15130743921E+03  0.25512779035E+03  0.12699999809E+01 0. -1.
</event>
<event>
 5   0  0.3055293E-03  0.4999123E+03  0.7818609E-02  0.1013802E+00
       -1   -1    0    0    0  501  0.00000000000E+00  0.00000000000E+00  0.28984425293E+03  0.28984425297E+03  0.50400001928E-02 0. -1.
        1   -1    0    0  501    0  0.00000000000E+00  0.00000000000E+00 -0.21555737797E+03  0.21555737803E+03  0.50400001928E-02 0.  1.
    10030    2    1    2    0    0  0.00000000000E+00  0.00000000000E+00  0.74286874952E+02  0.50540163100E+03  0.49991226113E+03 0.  0.
        3    1    3    3  502    0  0.20439525642E+03  0.11710084484E+03  0.12165578744E+03  0.26512293286E+03  0.10100000352E+00 0. -1.
       -3    1    3    3    0  502 -0.20439525642E+03 -0.11710084484E+03 -0.47368912487E+02  0.24027869814E+03  0.10100000352E+00 0.  1.
</event>
<event>
 5   0  0.2005125E-03  0.4994408E+03  0.7818609E-02  0.1013925E+00
       -3   -1    0    0    0  501  0.00000000000E+00  0.00000000000E+00  0.12728531007E+03  0.12728535014E+03  0.10100000352E+00 0.  1.
        3   -1    0    0  501    0  0.00000000000E+00  0.00000000000E+00 -0.48992497479E+03  0.48992498520E+03  0.10100000352E+00 0. -1.
    10030    2    1    2    0    0  0.00000000000E+00  0.00000000000E+00 -0.36263966472E+03  0.61721033535E+03  0.49944075888E+03 0.  0.
        5    1    3    3  502    0 -0.17298573578E+03 -0.33136123735E+02  0.37372278214E+02  0.18011342165E+03  0.46999998093E+01 0.  1.
       -5    1    3    3    0  502  0.17298573578E+03  0.33136123735E+02 -0.40001194293E+03  0.43709691370E+03  0.46999998093E+01 0. -1.
</event>
<event>
 5   0  0.4989875E-03  0.5000137E+03  0.7818609E-02  0.1013775E+00
       -2   -1    0    0    0  501  0.00000000000E+00  0.00000000000E+00  0.16024195224E+03  0.16024195226E+03  0.25500000920E-02 0. -1.
        2   -1    0    0  501    0  0.00000000000E+00  0.00000000000E+00 -0.39005663671E+03  0.39005663671E+03  0.25500000920E-02 0.  1.
    10030    2    1    2    0    0  0.00000000000E+00  0.00000000000E+00 -0.22981468447E+03  0.55029858897E+03  0.50001374764E+03 0.  0.
        2    1    3    3  502    0  0.90845196857E+02  0.13381242788E+03 -0.32472291696E+03  0.36277208885E+03  0.25500000920E-02 0.  1.
       -2    1    3    3    0  502 -0.90845196857E+02 -0.13381242788E+03  0.94908232488E+02  0.18752650012E+03  0.25500000920E-02 0. -1.
</event>
<event>
 5   0  0.2005125E-03  0.4998236E+03  0.7818609E-02  0.1013825E+00
       -4   -1    0    0    0  501  0.00000000000E+00  0.00000000000E+00  0.43610886015E+03  0.43611070934E+03  0.12699999809E+01 0.  1.
        4   -1    0    0  501    0  0.00000000000E+00  0.00000000000E+00 -0.14320674984E+03  0.14321238110E+03  0.12699999809E+01 0. -1.
    10030    2    1    2    0    0  0.00000000000E+00  0.00000000000E+00  0.29290211031E+03  0.57932309044E+03  0.49982356577E+03 0.  0.
        1    1    3    3  502    0 -0.11088640588E+03  0.21574289422E+03  0.21614013580E+03  0.32489590602E+03  0.50400001928E-02 0.  1.
       -1    1    3    3    0  502  0.11088640588E+03 -0.21574289422E+03  0.76761974507E+02  0.25442718442E+03  0.50400001928E-02 0. -1.
</event>
<event>
 5   0  0.4889251E-03  0.4999343E+03  0.7818609E-02  0.1013796E+00
        2   -1    0    0  501    0  0.00000000000E+00  0.00000000000E+00  0.62905843151E+03  0.62905843152E+03  0.25500000920E-02 0.  1.
       -2   -1    0    0    0  501  0.00000000000E+00  0.00000000000E+00 -0.99328724993E+02  0.99328725026E+02  0.25500000920E-02 0. -1.
    10030    2    1    2    0    0  0.00000000000E+00  0.00000000000E+00  0.52972970652E+03  0.72838715654E+03  0.49993428353E+03 0.  0.
        5    1    3    3  502    0  0.24197183412E+03  0.60670893886E+02  0.24276137631E+03  0.34811851674E+03  0.46999998093E+01 0. -1.
       -5    1    3    3    0  502 -0.24197183412E+03 -0.60670893886E+02  0.28696833021E+03  0.38026863980E+03  0.46999998093E+01 0.  1.
</event>
<event>
 5   0  0.2863538E-03  0.5000097E+03  0.7818609E-02  0.1013776E+00
       -1   -1    0    0    0  501  0.00000000000E+00  0.00000000000E+00  0.26328062469E+03  0.26328062473E+03  0.50400001928E-02 0.  1.
        1   -1    0    0  501    0  0.00000000000E+00  0.00000000000E+00 -0.23739854432E+03  0.23739854438E+03  0.50400001928E-02 0. -1.
    10030    2    1    2    0    0  0.00000000000E+00  0.00000000000E+00  0.25882080362E+02  0.50067916911E+03  0.50000974820E+03 0.  0.
        1    1    3    3  502    0 -0.18610269300E+03 -0.13150040796E+03 -0.90035678769E+02  0.24501631193E+03  0.50400001928E-02 0. -1.
       -1    1    3    3    0  502  0.18610269300E+03  0.13150040796E+03  0.11591775913E+03  0.25566285718E+03  0.50400001928E-02 0.  1.
</event>
<event>
 5   0  0.5118882E-03  0.5000634E+03  0.7818609E-02  0.1013762E+00
       -2   -1    0    0    0  501  0.00000000000E+00  0.00000000000E+00  0.32220278879E+03  0.32220278880E+03  0.25500000920E-02 0. -1.
        2   -1    0    0  501    0  0.00000000000E+00  0.00000000000E+00 -0.19402642246E+03  0.19402642248E+03  0.25500000920E-02 0.  1.
    10030    2    1    2    0    0  0.00000000000E+00  0.00000000000E+00  0.12817636633E+03  0.51622921128E+03  0.50006341367E+03 0.  0.
        3    1    3    3  502    0  0.22143856913E+03 -0.98258760328E+02  0.23373853112E+00  0.24225996102E+03  0.10100000352E+00 0. -1.
       -3    1    3    3    0  502 -0.22143856913E+03  0.98258760328E+02  0.12794262780E+03  0.27396925026E+03  0.10100000352E+00 0.  1.
</event>
<event>
 5   0  0.4889251E-03  0.4997991E+03  0.7818609E-02  0.1013831E+00
       -2   -1    0    0    0  501  0.00000000000E+00  0.00000000000E+00  0.73341273002E+02  0.73341273046E+02  0.25500000920E-02 0. -1.
        2   -1    0    0  501    0  0.00000000000E+00  0.00000000000E+00 -0.85149562864E+03  0.85149562864E+03  0.25500000920E-02 0.  1.
    10030    2    1    2    0    0  0.00000000000E+00  0.00000000000E+00 -0.77815435564E+03  0.92483690169E+03  0.49979905315E+03 0.  0.
        5    1    3    3  502    0 -0.77996745835E+02 -0.18295676051E+03 -0.10923547256E+03  0.22696067290E+03  0.46999998093E+01 0. -1.
       -5    1    3    3    0  502  0.77996745835E+02  0.18295676051E+03 -0.66891888308E+03  0.69787622879E+03  0.46999998093E+01 0.  1.
</event>
<event>
 5   0  0.2863538E-03  0.4998812E+03  0.7818609E-02  0.1013810E+00
        1   -1    0    0  501    0  0.00000000000E+00  0.00000000000E+00  0.16436688520E+03  0.16436688528E+03  0.50400001928E-02 0. -1.
       -1   -1    0    0    0  501  0.00000000000E+00  0.00000000000E+00 -0.38006628191E+03  0.38006628194E+03  0.50400001928E-02 0.  1.
    10030    2    1    2    0    0  0.00000000000E+00  0.00000000000E+00 -0.21569939671E+03  0.54443316722E+03  0.49988122972E+03 0.  0.
        1    1    3    3  502    0  0.12772426424E+03 -0.10897609057E+03  0.93803311059E+02  0.19232352218E+03  0.50400001928E-02 0. -1.
       -1    1    3    3    0  502 -0.12772426424E+03  0.10897609057E+03 -0.30950270777E+03  0.35210964504E+03  0.50400001928E-02 0.  1.
</event>
<event>
 5   0  0.4989875E-03  0.4999089E+03  0.7818609E-02  0.1013803E+00
        2   -1    0    0  501    0  0.00000000000E+00  0.00000000000E+00  0.49516199754E+03  0.49516199755E+03  0.25500000920E-02 0. -1.
       -2   -1    0    0    0  501  0.00000000000E+00  0.00000000000E+00 -0.12617531102E+03  0.12617531104E+03  0.25500000920E-02 0.  1.
    10030    2    1    2    0    0  0.00000000000E+00  0.00000000000E+00  0.36898668653E+03  0.62133730859E+03  0.49990886791E+03 0.  0.
        2    1    3    3  502    0  0.18781995451E+03  0.15917478095E+03  0.23815836729E+03  0.34253810608E+03  0.25500000920E-02 0.  1.
       -2    1    3    3    0  502 -0.18781995451E+03 -0.15917478095E+03  0.13082831924E+03  0.27879920252E+03  0.25500000920E-02 0. -1.
</event>
<event>
 5   0  0.4889251E-03  0.4999483E+03  0.7818609E-02  0.1013792E+00
        2   -1    0    0  501    0  0.00000000000E+00  0.00000000000E+00  0.93728411316E+03  0.93728411316E+03  0.25500000920E-02 0.  1.
       -2   -1    0    0    0  501  0.00000000000E+00  0.00000000000E+00 -0.66668238658E+02  0.66668238706E+02  0.25500000920E-02 0. -1.
    10030    2    1    2    0    0  0.00000000000E+00  0.00000000000E+00  0.87061587450E+03  0.10039523519E+04  0.49994832122E+03 0.  0.
        5    1    3    3  502    0 -0.86318889203E+02 -0.18596001366E+03  0.72235501967E+03  0.75090008773E+03  0.46999998093E+01 0.  1.
       -5    1    3    3    0  502  0.86318889203E+02  0.18596001366E+03  0.14826085483E+03  0.25305226414E+03  0.46999998093E+01 0. -1.
</event>
<event>
 5   0  0.3013734E-03  0.4998924E+03  0.7818609E-02  0.1013807E+00
       -1   -1    0    0    0  501  0.00000000000E+00  0.00000000000E+00  0.45854989288E+02  0.45854989565E+02  0.50400001928E-02 0. -1.
        1   -1    0    0  501    0  0.00000000000E+00  0.00000000000E+00 -0.13624058442E+04  0.13624058442E+04  0.50400001928E-02 0.  1.
    10030    2    1    2    0    0  0.00000000000E+00  0.00000000000E+00 -0.13165508549E+04  0.14082608338E+04  0.49989241080E+03 0.  0.
        2    1    3    3  502    0 -0.93830926544E+02  0.16266708388E+03 -0.11229587892E+04  0.11385522673E+04  0.25500000920E-02 0.  1.
       -2    1    3    3    0  502  0.93830926544E+02 -0.16266708388E+03 -0.19359206569E+03  0.26970856653E+03  0.25500000920E-02 0. -1.
</event>
<event>
 5   0  0.4889251E-03  0.4994628E+03  0.7818609E-02  0.1013919E+00
        2   -1    0    0  501    0  0.00000000000E+00  0.00000000000E+00  0.28019121521E+03  0.28019121522E+03  0.25500000920E-02 0. -1.
       -2   -1    0    0    0  501  0.00000000000E+00  0.00000000000E+00 -0.22258286403E+03  0.22258286404E+03  0.25500000920E-02 0.  1.
    10030    2    1    2    0    0  0.00000000000E+00  0.00000000000E+00  0.57608351180E+02  0.50277407927E+03  0.49946276403E+03 0.  0.
        5    1    3    3  502    0  0.14877205019E+03 -0.19106552387E+03  0.90072427727E+02  0.25840721655E+03  0.46999998093E+01 0. -1.
       -5    1    3    3    0  502 -0.14877205019E+03  0.19106552387E+03 -0.32464076547E+02  0.24436686272E+03  0.46999998093E+01 0.  1.
</event>
<event>
 5   0  0.3211775E-03  0.5001098E+03  0.7818609E-02  0.1013750E+00
       -1   -1    0    0    0  501  0.00000000000E+00  0.00000000000E+00  0.44481384443E+03  0.44481384446E+03  0.50400001928E-02 0. -1.
        1   -1    0    0  501    0  0.00000000000E+00  0.00000000000E+00 -0.14056993097E+03  0.14056993106E+03  0.50400001928E-02 0.  1.
    10030    2    1    2    0    0  0.00000000000E+00  0.00000000000E+00  0.30424391346E+03  0.58538377552E+03  0.50010979371E+03 0.  0.
        4    1    3    3  502    0  0.14042021033E+03 -0.17977501431E+03  0.32243464036E+02  0.23038694649E+03  0.12699999809E+01 0.  1.
       -4    1    3    3    0  502 -0.14042021033E+03  0.17977501431E+03  0.27200044942E+03  0.35499682903E+03  0.12699999809E+01 0. -1.
</event>
<event>
 5   0  0.3057783E-03  0.4999560E+03  0.7818609E-02  0.1013790E+00
       -1   -1    0    0    0  501  0.00000000000E+00  0.00000000000E+00  0.64511690010E+02  0.64511690207E+02  0.50400001928E-02 0.  1.
        1   -1    0    0  501    0  0.00000000000E+00  0.00000000000E+00 -0.96864627005E+03  0.96864627006E+03  0.50400001928E-02 0. -1.
    10030    2    1    2    0    0  0.00000000000E+00  0.00000000000E+00 -0.90413458004E+03  0.10331579603E+04  0.49995603011E+03 0.  0.
        5    1    3    3  502    0  0.21500813276E+03  0.12146230121E+03 -0.37242450699E+03  0.44688218937E+03  0.46999998093E+01 0.  1.
       -5    1    3    3    0  502 -0.21500813276E+03 -0.12146230121E+03 -0.53171007305E+03  0.58627577090E+03  0.46999998093E+01 0. -1.
</event>
<event>
 5   0  0.3057783E-03  0.4998448E+03  0.7818609E-02  0.1013819E+00
        1   -1    0    0  501    0  0.00000000000E+00  0.00000000000E+00  0.52177179697E+02  0.52177179940E+02  0.50400001928E-02 0.  1.
       -1   -1    0    0    0  501  0.00000000000E+00  0.00000000000E+00 -0.11970981531E+04  0.11970981532E+04  0.50400001928E-02 0. -1.
    10030    2    1    2    0    0  0.00000000000E+00  0.00000000000E+00 -0.11449209734E+04  0.12492753331E+04  0.49984479835E+03 0.  0.
        5    1    3    3  502    0  0.19040772337E+03  0.16169319075E+03 -0.58813398499E+03  0.63900192751E+03  0.46999998093E+01 0.  1.
       -5    1    3    3    0  502 -0.19040772337E+03 -0.16169319075E+03 -0.55678698845E+03  0.61027340558E+03  0.46999998093E+01 0. -1.
</event>
<event>
 5   0  0.3057783E-03  0.5000738E+03  0.7818609E-02  0.1013760E+00
       -1   -1    0    0    0  501  0.00000000000E+00  0.00000000000E+00  0.74502034479E+02  0.74502034650E+02  0.50400001928E-02 0.  1.
        1   -1    0    0  501    0  0.00000000000E+00  0.00000000000E+00 -0.83915081585E+03  0.83915081587E+03  0.50400001928E-02 0. -1.
    10030    2    1    2    0    0  0.00000000000E+00  0.00000000000E+00 -0.76464878137E+03  0.91365285052E+03  0.50007376696E+03 0.  0.
        5    1    3    3  502    0  0.39542589213E+02 -0.17367797717E+03 -0.61843828965E+02  0.18861178462E+03  0.46999998093E+01 0.  1.
       -5    1    3    3    0  502 -0.39542589213E+02  0.17367797717E+03 -0.70280495241E+03  0.72504106590E+03  0.46999998093E+01 0. -1.
</event>
<event>
 5   0  0.5118882E-03  0.5000443E+03  0.7818609E-02  0.1013767E+00
        2   -1    0    0  501    0  0.00000000000E+00  0.00000000000E+00  0.92216452306E+02  0.92216452341E+02  0.25500000920E-02 0. -1.
       -2   -1    0    0    0  501  0.00000000000E+00  0.00000000000E+00 -0.67787343419E+03  0.67787343420E+03  0.25500000920E-02 0.  1.
    10030    2    1    2    0    0  0.00000000000E+00  0.00000000000E+00 -0.58565698189E+03  0.77008988654E+03  0.50004433095E+03 0.  0.
        3    1    3    3  502    0  0.96909462073E+02 -0.21570497386E+02  0.60558054337E+02  0.11629281295E+03  0.10100000352E+00 0. -1.
       -3    1    3    3    0  502 -0.96909462073E+02  0.21570497386E+02 -0.64621503622E+03  0.65379707359E+03  0.10100000352E+00 0.  1.
</event>
<event>
 5   0  0.3057783E-03  0.4997772E+03  0.7818609E-02  0.1013837E+00
       -1   -1    0    0    0  501  0.00000000000E+00  0.00000000000E+00  0.40973047370E+02  0.40973047680E+02  0.50400001928E-02 0. -1.
        1   -1    0    0  501    0  0.00000000000E+00  0.00000000000E+00 -0.15240340650E+04  0.15240340650E+04  0.50400001928E-02 0.  1.
    10030    2    1    2    0    0  0.00000000000E+00  0.00000000000E+00 -0.14830610177E+04  0.15650071127E+04  0.49977723113E+03 0.  0.
        5    1    3    3  502    0 -0.70199696332E+02 -0.12620350623E+03 -0.13799611290E+04  0.13875050018E+04  0.46999998093E+01 0.  1.
       -5    1    3    3    0  502  0.70199696332E+02  0.12620350623E+03 -0.10309988862E+03  0.17750211092E+03  0.46999998093E+01 0. -1.
</event>
<event>
 5   0  0.3057783E-03  0.4997342E+03  0.7818609E-02  0.1013848E+00
        1   -1    0    0  501    0  0.00000000000E+00  0.00000000000E+00  0.56755529638E+03  0.56755529640E+03  0.50400001928E-02 0. -1.
       -1   -1    0    0    0  501  0.00000000000E+00  0.00000000000E+00 -0.11000440003E+03  0.11000440015E+03  0.50400001928E-02 0.  1.
    10030    2    1    2    0    0  0.00000000000E+00  0.00000000000E+00  0.45755089635E+03  0.67755969655E+03  0.49973424901E+03 0.  0.
        5    1    3    3  502    0  0.36853398485E+02  0.21426849412E+03  0.61933675958E+02  0.22611287175E+03  0.46999998093E+01 0.  1.
       -5    1    3    3    0  502 -0.36853398485E+02 -0.21426849412E+03  0.39561722039E+03  0.45144682480E+03  0.46999998093E+01 0. -1.
</event>
<event>
 5   0  0.5118882E-03  0.5004582E+03  0.7818609E-02  0.1013659E+00
        2   -1    0    0  501    0  0.00000000000E+00  0.00000000000E+00  0.58026426116E+03  0.58026426117E+03  0.25500000920E-02 0.  1.
       -2   -1    0    0    0  501  0.00000000000E+00  0.00000000000E+00 -0.10790704323E+03  0.10790704326E+03  0.25500000920E-02 0. -1.
    10030    2    1    2    0    0  0.00000000000E+00  0.00000000000E+00  0.47235721793E+03  0.68817130443E+03  0.50045819297E+03 0.  0.
        3    1    3    3  502    0 -0.21459576578E+03 -0.86271887450E+02  0.10485708331E+03  0.25394723739E+03  0.10100000352E+00 0. -1.
       -3    1    3    3    0  502  0.21459576578E+03  0.86271887450E+02  0.36750013461E+03  0.43422406704E+03  0.10100000352E+00 0.  1.
</event>
<event>
 5   0  0.2005125E-03  0.4999226E+03  0.7818609E-02  0.1013799E+00
       -3   -1    0    0    0  501  0.00000000000E+00  0.00000000000E+00  0.10159603112E+03  0.10159608132E+03  0.10100000352E+00 0.  1.
        3   -1    0    0  501    0  0.00000000000E+00  0.00000000000E+00 -0.61499085601E+03  0.61499086430E+03  0.10100000352E+00 0. -1.
    10030    2    1    2    0    0  0.00000000000E+00  0.00000000000E+00 -0.51339482489E+03  0.71658694562E+03  0.49992259842E+03 0.  0.
        5    1    3    3  502    0  0.64073369252E+02  0.23820124770E+03 -0.19912323595E+03  0.31704476679E+03  0.46999998093E+01 0.  1.
       -5    1    3    3    0  502 -0.64073369252E+02 -0.23820124770E+03 -0.31427158893E+03  0.39954217883E+03  0.46999998093E+01 0. -1.
</event>
<event>
 5   0  0.4978779E-03  0.4998832E+03  0.7818609E-02  0.1013809E+00
        2   -1    0    0  501    0  0.00000000000E+00  0.00000000000E+00  0.37102419586E+03  0.37102419586E+03  0.25500000920E-02 0.  1.
       -2   -1    0    0    0  501  0.00000000000E+00  0.00000000000E+00 -0.16837391066E+03  0.16837391068E+03  0.25500000920E-02 0. -1.
    10030    2    1    2    0    0  0.00000000000E+00  0.00000000000E+00  0.20265028519E+03  0.53939810655E+03  0.49988316561E+03 0.  0.
        1    1    3    3  502    0 -0.15617403294E+03 -0.15640985532E+03  0.22723868128E+03  0.31700440013E+03  0.50400001928E-02 0. -1.
       -1    1    3    3    0  502  0.15617403294E+03  0.15640985532E+03 -0.24588396088E+02  0.22239370642E+03  0.50400001928E-02 0.  1.
</event>
<event>
 5   0  0.5095783E-03  0.4991207E+03  0.7818609E-02  0.1014009E+00
        2   -1    0    0  501    0  0.00000000000E+00  0.00000000000E+00  0.97493358657E+03  0.97493358657E+03  0.25500000920E-02 0. -1.
       -2   -1    0    0    0  501  0.00000000000E+00  0.00000000000E+00 -0.63881651780E+02  0.63881651831E+02  0.25500000920E-02 0.  1.
    10030    2    1    2    0    0  0.00000000000E+00  0.00000000000E+00  0.91105193479E+03  0.10388152384E+04  0.49912069848E+03 0.  0.
        4    1    3    3  502    0  0.99148813598E+02 -0.12317256225E+03  0.53687071988E+02  0.16699066419E+03  0.12699999809E+01 0.  1.
       -4    1    3    3    0  502 -0.99148813598E+02  0.12317256225E+03  0.85736486280E+03  0.87182457421E+03  0.12699999809E+01 0. -1.
</event>
<event>
 5   0  0.2005125E-03  0.5000311E+03  0.7818609E-02  0.1013771E+00
        3   -1    0    0  501    0  0.00000000000E+00  0.00000000000E+00  0.16196689206E+03  0.16196692355E+03  0.10100000352E+00 0.  1.
       -3   -1    0    0    0  501  0.00000000000E+00  0.00000000000E+00 -0.38592923060E+03  0.38592924381E+03  0.10100000352E+00 0. -1.
    10030    2    1    2    0    0  0.00000000000E+00  0.00000000000E+00 -0.22396233854E+03  0.54789616736E+03  0.50003108016E+03 0.  0.
        5    1    3    3  502    0  0.14915828913E+03 -0.37204582577E+02  0.10399967860E+03  0.18566205678E+03  0.46999998093E+01 0.  1.
       -5    1    3    3    0  502 -0.14915828913E+03  0.37204582577E+02 -0.32796201714E+03  0.36223411058E+03  0.46999998093E+01 0. -1.
</event>
<event>
 5   0  0.3013734E-03  0.4996961E+03  0.7818609E-02  0.1013858E+00
        1   -1    0    0  501    0  0.00000000000E+00  0.00000000000E+00  0.20831873568E+03  0.20831873574E+03  0.50400001928E-02 0. -1.
       -1   -1    0    0    0  501  0.00000000000E+00  0.00000000000E+00 -0.29965644890E+03  0.29965644894E+03  0.50400001928E-02 0.  1.
    10030    2    1    2    0    0  0.00000000000E+00  0.00000000000E+00 -0.91337713216E+02  0.50797518468E+03  0.49969611805E+03 0.  0.
        2    1    3    3  502    0 -0.32707031071E+00  0.10870499707E+03 -0.27435641826E+03  0.29510731542E+03  0.25500000920E-02 0.  1.
       -2    1    3    3    0  502  0.32707031071E+00 -0.10870499707E+03  0.18301870505E+03  0.21286786927E+03  0.25500000920E-02 0. -1.
</event>
<event>
 5   0  0.4889251E-03  0.4996880E+03  0.7818609E-02  0.1013860E+00
        2   -1    0    0  501    0  0.00000000000E+00  0.00000000000E+00  0.82848185920E+03  0.82848185921E+03  0.25500000920E-02 0.  1.
       -2   -1    0    0    0  501  0.00000000000E+00  0.00000000000E+00 -0.75345070515E+02  0.75345070559E+02  0.25500000920E-02 0. -1.
    10030    2    1    2    0    0  0.00000000000E+00  0.00000000000E+00  0.75313678869E+03  0.90382692976E+03  0.49968799915E+03 0.  0.
        5    1    3    3  502    0  0.59793406368E+02  0.11634538345E+03 -0.83600564337E+01  0.13116203809E+03  0.46999998093E+01 0. -1.
       -5    1    3    3    0  502 -0.59793406368E+02 -0.11634538345E+03  0.76149684512E+03  0.77266489167E+03  0.46999998093E+01 0.  1.
</event>
<event>
 5   0  0.3211775E-03  0.5006728E+03  0.7818609E-02  0.1013603E+00
       -1   -1    0    0    0  501  0.00000000000E+00  0.00000000000E+00  0.76566190754E+02  0.76566190919E+02  0.50400001928E-02 0.  1.
        1   -1    0    0  501    0  0.00000000000E+00  0.00000000000E+00 -0.81848532825E+03  0.81848532827E+03  0.50400001928E-02 0. -1.
    10030    2    1    2    0    0  0.00000000000E+00  0.00000000000E+00 -0.74191913750E+03  0.89505151919E+03  0.50067276280E+03 0.  0.
        4    1    3    3  502    0 -0.75649850227E+02  0.23448911449E+03 -0.45007698145E+03  0.51310714942E+03  0.12699999809E+01 0. -1.
       -4    1    3    3    0  502  0.75649850227E+02 -0.23448911449E+03 -0.29184215605E+03  0.38194436977E+03  0.12699999809E+01 0.  1.
</event>
<event>
 5   0  0.4978779E-03  0.4999781E+03  0.7818609E-02  0.1013785E+00
        2   -1    0    0  501    0  0.00000000000E+00  0.00000000000E+00  0.14562576356E+04  0.14562576356E+04  0.25500000920E-02 0. -1.
       -2   -1    0    0    0  501  0.00000000000E+00  0.00000000000E+00 -0.42914473434E+02  0.42914473510E+02  0.25500000920E-02 0.  1.
    10030    2    1    2    0    0  0.00000000000E+00  0.00000000000E+00  0.14133431622E+04  0.14991721092E+04  0.49997811823E+03 0.  0.
        1    1    3    3  502    0  0.17946252488E+03 -0.17299279576E+03  0.64968284121E+03  0.69585997112E+03  0.50400001928E-02 0.  1.
       -1    1    3    3    0  502 -0.17946252488E+03  0.17299279576E+03  0.76366032100E+03  0.80331213803E+03  0.50400001928E-02 0. -1.
</event>
<event>
 5   0  0.2005125E-03  0.5001989E+03  0.7818609E-02  0.1013727E+00
        4   -1    0    0  501    0  0.00000000000E+00  0.00000000000E+00  0.26706082249E+03  0.26706384219E+03  0.12699999809E+01 0. -1.
       -4   -1    0    0    0  501  0.00000000000E+00  0.00000000000E+00 -0.23420929073E+03  0.23421273399E+03  0.12699999809E+01 0.  1.
    10030    2    1    2    0    0  0.00000000000E+00  0.00000000000E+00  0.32851531762E+02  0.50127657618E+03  0.50019894311E+03 0.  0.
        2    1    3    3  502    0 -0.39539986522E+02  0.12879930666E+03  0.22758584428E+03  0.26447682025E+03  0.25500000920E-02 0. -1.
       -2    1    3    3    0  502  0.39539986522E+02 -0.12879930666E+03 -0.19473431251E+03  0.23679975593E+03  0.25500000920E-02 0.  1.
</event>
<event>
 5   0  0.4989875E-03  0.5000899E+03  0.7818609E-02  0.1013755E+00
        2   -1    0    0  501    0  0.00000000000E+00  0.00000000000E+00  0.93860190624E+03  0.93860190625E+03  0.25500000920E-02 0. -1.
       -2   -1    0    0    0  501  0.00000000000E+00  0.00000000000E+00 -0.66612349235E+02  0.66612349284E+02  0.25500000920E-02 0.  1.
    10030    2    1    2    0    0  0.00000000000E+00  0.00000000000E+00  0.87198955701E+03  0.10052142555E+04  0.50008990391E+03 0.  0.
        2    1    3    3  502    0  0.17751998404E+03 -0.14207765217E+03  0.64511010594E+03  0.68400764087E+03  0.25500000920E-02 0. -1.
       -2    1    3    3    0  502 -0.17751998404E+03  0.14207765217E+03  0.22687945107E+03  0.32120661466E+03  0.25500000920E-02 0.  1.
</event>
<event>
 5   0  0.2863538E-03  0.4997600E+03  0.7818609E-02  0.1013842E+00
       -1   -1    0    0    0  501  0.00000000000E+00  0.00000000000E+00  0.59769708966E+02  0.59769709179E+02  0.50400001928E-02 0. -1.
        1   -1    0    0  501    0  0.00000000000E+00  0.00000000000E+00 -0.10446764709E+04  0.10446764709E+04  0.50400001928E-02 0.  1.
    10030    2    1    2    0    0  0.00000000000E+00  0.00000000000E+00 -0.98490676190E+03  0.11044461801E+04  0.49975997740E+03 0.  0.
        1    1    3    3  502    0 -0.11772274440E+03 -0.21660957068E+03 -0.58253867781E+03  0.63255803040E+03  0.50400001928E-02 0.  1.
       -1    1    3    3    0  502  0.11772274440E+03  0.21660957068E+03 -0.40236808409E+03  0.47188814965E+03  0.50400001928E-02 0. -1.
</event>
<event>
 5   0  0.3211775E-03  0.5001666E+03  0.7818609E-02  0.1013735E+00
        1   -1    0    0  501    0  0.00000000000E+00  0.00000000000E+00  0.76984205457E+03  0.76984205459E+03  0.50400001928E-02 0. -1.
       -1   -1    0    0    0  501  0.00000000000E+00  0.00000000000E+00 -0.81239599045E+02  0.81239599201E+02  0.50400001928E-02 0.  1.
    10030    2    1    2    0    0  0.00000000000E+00  0.00000000000E+00  0.68860245553E+03  0.85108165379E+03  0.50016661190E+03 0.  0.
        4    1    3    3  502    0 -0.19970875283E+03 -0.28839163450E+02  0.59568156616E+03  0.62893038126E+03  0.12699999809E+01 0. -1.
       -4    1    3    3    0  502  0.19970875283E+03  0.28839163450E+02  0.92920889365E+02  0.22215127253E+03  0.12699999809E+01 0.  1.
</event>
<event>
 5   0  0.4989875E-03  0.4999948E+03  0.7818609E-02  0.1013780E+00
       -2   -1    0    0    0  501  0.00000000000E+00  0.00000000000E+00  0.95736786003E+03  0.95736786003E+03  0.25500000920E-02 0.  1.
        2   -1    0    0  501    0  0.00000000000E+00  0.00000000000E+00 -0.65281799067E+02  0.65281799117E+02  0.25500000920E-02 0. -1.
    10030    2    1    2    0    0  0.00000000000E+00  0.00000000000E+00  0.89208606096E+03  0.10226496591E+04  0.49999478517E+03 0.  0.
        2    1    3    3  502    0 -0.76149724313E+02  0.92975232796E+02  0.89440942268E+03  0.90244744435E+03  0.25500000920E-02 0.  1.
       -2    1    3    3    0  502  0.76149724313E+02 -0.92975232796E+02 -0.23233617197E+01  0.12020221480E+03  0.25500000920E-02 0. -1.
</event>
<event>
 5   0  0.4889251E-03  0.4998326E+03  0.7818609E-02  0.1013823E+00
        2   -1    0    0  501    0  0.00000000000E+00  0.00000000000E+00  0.75192794192E+03  0.75192794193E+03  0.25500000920E-02 0.  1.
       -2   -1    0    0    0  501  0.00000000000E+00  0.00000000000E+00 -0.83064030364E+02  0.83064030403E+02  0.25500000920E-02 0. -1.
    10030    2    1    2    0    0  0.00000000000E+00  0.00000000000E+00  0.66886391156E+03  0.83499197233E+03  0.49983263366E+03 0.  0.
        5    1    3    3  502    0  0.22435582564E+03 -0.94936249798E+02  0.42725836305E+03  0.49185386735E+03  0.46999998093E+01 0. -1.
       -5    1    3    3    0  502 -0.22435582564E+03  0.94936249798E+02  0.24160554850E+03  0.34313810498E+03  0.46999998093E+01 0.  1.
</event>
<event>
 5   0  0.3211775E-03  0.5000424E+03  0.7818609E-02  0.1013768E+00
       -1   -1    0    0    0  501  0.00000000000E+00  0.00000000000E+00  0.49690881035E+03  0.49690881038E+03  0.50400001928E-02 0. -1.
        1   -1    0    0  501    0  0.00000000000E+00  0.00000000000E+00 -0.12579891530E+03  0.12579891540E+03  0.50400001928E-02 0.  1.
    10030    2    1    2    0    0  0.00000000000E+00  0.00000000000E+00  0.37110989506E+03  0.62270772578E+03  0.50004235574E+03 0.  0.
        4    1    3    3  502    0  0.22540527497E+03  0.10709013618E+03  0.20456953919E+03  0.32268582943E+03  0.12699999809E+01 0. -1.
       -4    1    3    3    0  502 -0.22540527497E+03 -0.10709013618E+03  0.16654035587E+03  0.30002189634E+03  0.12699999809E+01 0.  1.
</event>
<event>
 5   0  0.3013734E-03  0.4997266E+03  0.7818609E-02  0.1013850E+00
        1   -1    0    0  501    0  0.00000000000E+00  0.00000000000E+00  0.39823695182E+03  0.39823695185E+03  0.50400001928E-02 0. -1.
       -1   -1    0    0    0  501  0.00000000000E+00  0.00000000000E+00 -0.15677018514E+03  0.15677018522E+03  0.50400001928E-02 0.  1.
    10030    2    1    2    0    0  0.00000000000E+00  0.00000000000E+00  0.24146676668E+03  0.55500713707E+03  0.49972664807E+03 0.  0.
        2    1    3    3  502    0 -0.19290621875E+02  0.15021879033E+03 -0.99981130245E+02  0.18147738005E+03  0.25500000920E-02 0.  1.
       -2    1    3    3    0  502  0.19290621875E+02 -0.15021879033E+03  0.34144789692E+03  0.37352975702E+03  0.25500000920E-02 0. -1.
</event>
<event>
 5   0  0.2005125E-03  0.4999387E+03  0.7818609E-02  0.1013795E+00
       -3   -1    0    0    0  501  0.00000000000E+00  0.00000000000E+00  0.71232699203E+02  0.71232770806E+02  0.10100000352E+00 0. -1.
        3   -1    0    0  501    0  0.00000000000E+00  0.00000000000E+00 -0.87719025374E+03  0.87719025956E+03  0.10100000352E+00 0.  1.
    10030    2    1    2    0    0  0.00000000000E+00  0.00000000000E+00 -0.80595755454E+03  0.94842303037E+03  0.49993866104E+03 0.  0.
        4    1    3    3  502    0  0.17725426106E+03 -0.15105002467E+02 -0.73610829299E+03  0.75730064444E+03  0.12699999809E+01 0.  1.
       -4    1    3    3    0  502 -0.17725426106E+03  0.15105002467E+02 -0.69849261551E+02  0.19112238592E+03  0.12699999809E+01 0. -1.
</event>
<event>
 5   0  0.5095783E-03  0.4996157E+03  0.7818609E-02  0.1013879E+00
       -2   -1    0    0    0  501  0.00000000000E+00  0.00000000000E+00  0.10737836496E+03  0.10737836499E+03  0.25500000920E-02 0. -1.
        2   -1    0    0  501    0  0.00000000000E+00  0.00000000000E+00 -0.58115945060E+03  0.58115945061E+03  0.25500000920E-02 0.  1.
    10030    2    1    2    0    0  0.00000000000E+00  0.00000000000E+00 -0.47378108564E+03  0.68853781560E+03  0.49961565868E+03 0.  0.
        4    1    3    3  502    0 -0.24356862142E+03 -0.44600827964E+02 -0.19144485178E+03  0.31299784563E+03  0.12699999809E+01 0.  1.
       -4    1    3    3    0  502  0.24356862142E+03  0.44600827964E+02 -0.28233623386E+03  0.37553996997E+03  0.12699999809E+01 0. -1.
</event>
<event>
 5   0  0.3057783E-03  0.4999583E+03  0.7818609E-02  0.1013790E+00
        1   -1    0    0  501    0  0.00000000000E+00  0.00000000000E+00  0.90489699416E+03  0.90489699417E+03  0.50400001928E-02 0. -1.
       -1   -1    0    0    0  501  0.00000000000E+00  0.00000000000E+00 -0.69057108772E+02  0.69057108956E+02  0.50400001928E-02 0.  1.
    10030    2    1    2    0    0  0.00000000000E+00  0.00000000000E+00  0.83583988539E+03  0.97395410313E+03  0.49995827926E+03 0.  0.
        5    1    3    3  502    0 -0.23496389252E+03  0.71026299005E+02  0.32624226936E+03  0.40829998072E+03  0.46999998093E+01 0. -1.
       -5    1    3    3    0  502  0.23496389252E+03 -0.71026299005E+02  0.50959761603E+03  0.56565412241E+03  0.46999998093E+01 0.  1.
</event>
<event>
 5   0  0.5095783E-03  0.5009072E+03  0.7818609E-02  0.1013542E+00
        2   -1    0    0  501    0  0.00000000000E+00  0.00000000000E+00  0.85960383844E+03  0.85960383844E+03  0.25500000920E-02 0.  1.
       -2   -1    0    0    0  501  0.00000000000E+00  0.00000000000E+00 -0.72971985774E+02  0.72971985819E+02  0.25500000920E-02 0. -1.
    10030    2    1    2    0    0  0.00000000000E+00  0.00000000000E+00  0.78663185266E+03  0.93257582426E+03  0.50090717341E+03 0.  0.
        4    1    3    3  502    0 -0.16617988565E+03  0.84835619446E+02  0.82268469755E+02  0.20391800003E+03  0.12699999809E+01 0. -1.
       -4    1    3    3    0  502  0.16617988565E+03 -0.84835619446E+02  0.70436338291E+03  0.72865782422E+03  0.12699999809E+01 0.  1.
</event>
<event>
 5   0  0.5095783E-03  0.5004081E+03  0.7818609E-02  0.1013672E+00
        2   -1    0    0  501    0  0.00000000000E+00  0.00000000000E+00  0.10629869740E+03  0.10629869743E+03  0.25500000920E-02 0. -1.
       -2   -1    0    0    0  501  0.00000000000E+00  0.00000000000E+00 -0.58892594942E+03  0.58892594942E+03  0.25500000920E-02 0.  1.
    10030    2    1    2    0    0  0.00000000000E+00  0.00000000000E+00 -0.48262725202E+03  0.69522464686E+03  0.50040807868E+03 0.  0.
        4    1    3    3  502    0  0.15418123940E+03 -0.81087649441E+02  0.81966927694E+01  0.17440143391E+03  0.12699999809E+01 0. -1.
       -4    1    3    3    0  502 -0.15418123940E+03  0.81087649441E+02 -0.49082394479E+03  0.52082321295E+03  0.12699999809E+01 0.  1.
</event>
<event>
 5   0  0.4889251E-03  0.5000704E+03  0.7818609E-02  0.1013761E+00
        2   -1    0    0  501    0  0.00000000000E+00  0.00000000000E+00  0.87102648368E+03  0.87102648368E+03  0.25500000920E-02 0.  1.
       -2   -1    0    0    0  501  0.00000000000E+00  0.00000000000E+00 -0.71774616864E+02  0.71774616910E+02  0.25500000920E-02 0. -1.
    10030    2    1    2    0    0  0.00000000000E+00  0.00000000000E+00  0.79925186682E+03  0.94280110059E+03  0.50007036372E+03 0.  0.
        5    1    3    3  502    0  0.19137599348E+03 -0.42742435583E+02  0.10728430826E+03  0.22357034570E+03  0.46999998093E+01 0. -1.
       -5    1    3    3    0  502 -0.19137599348E+03  0.42742435583E+02  0.69196755856E+03  0.71923075489E+03  0.46999998093E+01 0.  1.
</event>
<event>
 5   0  0.3013734E-03  0.4991766E+03  0.7818609E-02  0.1013994E+00
        1   -1    0    0  501    0  0.00000000000E+00  0.00000000000E+00  0.95312137987E+03  0.95312137989E+03  0.50400001928E-02 0.  1.
       -1   -1    0    0    0  501  0.00000000000E+00  0.00000000000E+00 -0.65358230934E+02  0.65358231129E+02  0.50400001928E-02 0. -1.
    10030    2    1    2    0    0  0.00000000000E+00  0.00000000000E+00  0.88776314894E+03  0.10184796110E+04  0.49917663150E+03 0.  0.
        2    1    3    3  502    0  0.17436698221E+03  0.17851571976E+03  0.43417757455E+03  0.50078126257E+03  0.25500000920E-02 0.  1.
       -2    1    3    3    0  502 -0.17436698221E+03 -0.17851571976E+03  0.45358557439E+03  0.51769834845E+03  0.25500000920E-02 0. -1.
</event>
<event>
 5   0  0.3211775E-03  0.4991266E+03  0.7818609E-02  0.1014007E+00
       -1   -1    0    0    0  501  0.00000000000E+00  0.00000000000E+00  0.16105723390E+03  0.16105723398E+03  0.50400001928E-02 0.  1.
        1   -1    0    0  501    0  0.00000000000E+00  0.00000000000E+00 -0.38670633649E+03  0.38670633653E+03  0.50400001928E-02 0. -1.
    10030    2    1    2    0    0  0.00000000000E+00  0.00000000000E+00 -0.22564910259E+03  0.54776357051E+03  0.49912664893E+03 0.  0.
        4    1    3    3  502    0 -0.42666586597E+02 -0.28959742868E+02 -0.38079228916E+03  0.38427006740E+03  0.12699999809E+01 0. -1.
       -4    1    3    3    0  502  0.42666586597E+02  0.28959742868E+02  0.15514318657E+03  0.16349350310E+03  0.12699999809E+01 0.  1.
</event>
<event>
 5   0  0.3057783E-03  0.4998426E+03  0.7818609E-02  0.1013820E+00
       -1   -1    0    0    0  501  0.00000000000E+00  0.00000000000E+00  0.15281713481E+03  0.15281713490E+03  0.50400001928E-02 0.  1.
        1   -1    0    0  501    0  0.00000000000E+00  0.00000000000E+00 -0.40872812397E+03  0.40872812400E+03  0.50400001928E-02 0. -1.
    10030    2    1    2    0    0  0.00000000000E+00  0.00000000000E+00 -0.25591098916E+03  0.56154525890E+03  0.49984261865E+03 0.  0.
        5    1    3    3  502    0 -0.20162365117E+03  0.12141668907E+03 -0.22224761231E+03  0.32374403511E+03  0.46999998093E+01 0. -1.
       -5    1    3    3    0  502  0.20162365117E+03 -0.12141668907E+03 -0.33663376841E+02  0.23780122378E+03  0.46999998093E+01 0.  1.
</event>
<event>
 5   0  0.4978779E-03  0.4998531E+03  0.7818609E-02  0.1013817E+00
       -2   -1    0    0    0  501  0.00000000000E+00  0.00000000000E+00  0.82753457488E+02  0.82753457527E+02  0.25500000920E-02 0.  1.
        2   -1    0    0  501    0  0.00000000000E+00  0.00000000000E+00 -0.75481162431E+03  0.75481162432E+03  0.25500000920E-02 0. -1.
    10030    2    1    2    0    0  0.00000000000E+00  0.00000000000E+00 -0.67205816682E+03  0.83756508184E+03  0.49985306514E+03 0.  0.
        1    1    3    3  502    0 -0.14426467765E+03 -0.29200717213E+02  0.24230045073E+01  0.14721022410E+03  0.50400001928E-02 0.  1.
       -1    1    3    3    0  502  0.14426467765E+03  0.29200717213E+02 -0.67448117133E+03  0.69035485774E+03  0.50400001928E-02 0. -1.
</event>
<event>
 5   0  0.4889251E-03  0.5000469E+03  0.7818609E-02  0.1013767E+00
        2   -1    0    0  501    0  0.00000000000E+00  0.00000000000E+00  0.50615346561E+03  0.50615346561E+03  0.25500000920E-02 0.  1.
       -2   -1    0    0    0  501  0.00000000000E+00  0.00000000000E+00 -0.12350351745E+03  0.12350351747E+03  0.25500000920E-02 0. -1.
    10030    2    1    2    0    0  0.00000000000E+00  0.00000000000E+00  0.38264994816E+03  0.62965698309E+03  0.50004693132E+03 0.  0.
        5    1    3    3  502    0  0.66976181881E+01 -0.20788564465E+03  0.16716949189E+02  0.20871714288E+03  0.46999998093E+01 0. -1.
       -5    1    3    3    0  502 -0.66976181881E+01  0.20788564465E+03  0.36593299897E+03  0.42093984021E+03  0.46999998093E+01 0.  1.
</event>
<event>
 5   0  0.5095783E-03  0.5001676E+03  0.7818609E-02  0.1013735E+00
       -2   -1    0    0    0  501  0.00000000000E+00  0.00000000000E+00  0.48473426829E+02  0.48473426896E+02  0.25500000920E-02 0. -1.
        2   -1    0    0  501    0  0.00000000000E+00  0.00000000000E+00 -0.12902305324E+04  0.12902305324E+04  0.25500000920E-02 0.  1.
    10030    2    1    2    0    0  0.00000000000E+00  0.00000000000E+00 -0.12417571056E+04  0.13387039593E+04  0.50016755333E+03 0.  0.
        4    1    3    3  502    0  0.11076579974E+03  0.22417819136E+03 -0.63136780571E+03  0.67908161723E+03  0.12699999809E+01 0.  1.
       -4    1    3    3    0  502 -0.11076579974E+03 -0.22417819136E+03 -0.61038929987E+03  0.65962234208E+03  0.12699999809E+01 0. -1.
</event>
<event>
 5   0  0.3057783E-03  0.4997899E+03  0.7818609E-02  0.1013834E+00
        1   -1    0    0  501    0  0.00000000000E+00  0.00000000000E+00  0.39062497598E+03  0.39062497601E+03  0.50400001928E-02 0.  1.
       -1   -1    0    0    0  501  0.00000000000E+00  0.00000000000E+00 -0.15986556053E+03  0.15986556061E+03  0.50400001928E-02 0. -1.
    10030    2    1    2    0    0  0.00000000000E+00  0.00000000000E+00  0.23075941545E+03  0.55049053662E+03  0.49978987894E+03 0.  0.
        5    1    3    3  502    0 -0.55966400039E+02 -0.17235347626E+03 -0.74079639754E+02  0.19582604969E+03  0.46999998093E+01 0.  1.
       -5    1    3    3    0  502  0.55966400039E+02  0.17235347626E+03  0.30483905521E+03  0.35466448693E+03  0.46999998093E+01 0. -1.
</event>
<event>
 5   0  0.2863538E-03  0.5000127E+03  0.7818609E-02  0.1013776E+00
       -1   -1    0    0    0  501  0.00000000000E+00  0.00000000000E+00  0.87854107130E+02  0.87854107274E+02  0.50400001928E-02 0.  1.
        1   -1    0    0  501    0  0.00000000000E+00  0.00000000000E+00 -0.71144290315E+03  0.71144290317E+03  0.50400001928E-02 0. -1.
    10030    2    1    2    0    0  0.00000000000E+00  0.00000000000E+00 -0.62358879602E+03  0.79929701045E+03  0.50001272422E+03 0.  0.
        1    1    3    3  502    0  0.19014194132E+03 -0.15643509250E+03 -0.38105595401E+03  0.45368440145E+03  0.50400001928E-02 0. -1.
       -1    1    3    3    0  502 -0.19014194132E+03  0.15643509250E+03 -0.24253284202E+03  0.34561260899E+03  0.50400001928E-02 0.  1.
</event>
<event>
 5   0  0.2005125E-03  0.4999177E+03  0.7818609E-02  0.1013800E+00
       -4   -1    0    0    0  501  0.00000000000E+00  0.00000000000E+00  0.69576530734E+03  0.69576646642E+03  0.12699999809E+01 0. -1.
        4   -1    0    0  501    0  0.00000000000E+00  0.00000000000E+00 -0.89793841580E+02  0.89802822258E+02  0.12699999809E+01 0.  1.
    10030    2    1    2    0    0  0.00000000000E+00  0.00000000000E+00  0.60597146576E+03  0.78556928868E+03  0.49991768323E+03 0.  0.
        3    1    3    3  502    0  0.16003734988E+03  0.48733992515E+02  0.11143551435E+02  0.16766378357E+03  0.10100000352E+00 0.  1.
       -3    1    3    3    0  502 -0.16003734988E+03 -0.48733992515E+02  0.59482791432E+03  0.61790550511E+03  0.10100000352E+00 0. -1.
</event>
<event>
 5   0  0.3013734E-03  0.5020010E+03  0.7818609E-02  0.1013258E+00
       -1   -1    0    0    0  501  0.00000000000E+00  0.00000000000E+00  0.14088590848E+03  0.14088590857E+03  0.50400001928E-02 0. -1.
        1   -1    0    0  501    0  0.00000000000E+00  0.00000000000E+00 -0.44717916046E+03  0.44717916049E+03  0.50400001928E-02 0.  1.
    10030    2    1    2    0    0  0.00000000000E+00  0.00000000000E+00 -0.30629325198E+03  0.58806506906E+03  0.50200096538E+03 0.  0.
        2    1    3    3  502    0  0.20228073256E+03 -0.14733522003E+03 -0.17586416197E+03  0.30586494618E+03  0.25500000920E-02 0. -1.
       -2    1    3    3    0  502 -0.20228073256E+03  0.14733522003E+03 -0.13042909001E+03  0.28220012288E+03  0.25500000920E-02 0.  1.
</event>
<event>
 5   0  0.3055293E-03  0.4998343E+03  0.7818609E-02  0.1013822E+00
       -1   -1    0    0    0  501  0.00000000000E+00  0.00000000000E+00  0.14147671646E+03  0.14147671655E+03  0.50400001928E-02 0. -1.
        1   -1    0    0  501    0  0.00000000000E+00  0.00000000000E+00 -0.44147608565E+03  0.44147608568E+03  0.50400001928E-02 0.  1.
    10030    2    1    2    0    0  0.00000000000E+00  0.00000000000E+00 -0.29999936919E+03  0.58295280223E+03  0.49983432066E+03 0.  0.
        3    1    3    3  502    0 -0.15560903345E+03  0.19518850262E+03 -0.16408499646E+03  0.29872498909E+03  0.10100000352E+00 0. -1.
       -3    1    3    3    0  502  0.15560903345E+03 -0.19518850262E+03 -0.13591437274E+03  0.28422781314E+03  0.10100000352E+00 0.  1.
</event>
<event>
 5   0  0.4978779E-03  0.5000584E+03  0.7818609E-02  0.1013764E+00
       -2   -1    0    0    0  501  0.00000000000E+00  0.00000000000E+00  0.22536867540E+03  0.22536867542E+03  0.25500000920E-02 0.  1.
        2   -1    0    0  501    0  0.00000000000E+00  0.00000000000E+00 -0.27738811408E+03  0.27738811409E+03  0.25500000920E-02 0. -1.
    10030    2    1    2    0    0  0.00000000000E+00  0.00000000000E+00 -0.52019438681E+02  0.50275678951E+03  0.50005836399E+03 0.  0.
        1    1    3    3  502    0 -0.82224677448E+02  0.93790482045E+01  0.21119929776E+03  0.22683475820E+03  0.50400001928E-02 0.  1.
       -1    1    3    3    0  502  0.82224677448E+02 -0.93790482045E+01 -0.26321873644E+03  0.27592203132E+03  0.50400001928E-02 0. -1.
</event>
<event>
 5   0  0.3013734E-03  0.5000180E+03  0.7818609E-02  0.1013774E+00
       -1   -1    0    0    0  501  0.00000000000E+00  0.00000000000E+00  0.19360120149E+03  0.19360120156E+03  0.50400001928E-02 0. -1.
        1   -1    0    0  501    0  0.00000000000E+00  0.00000000000E+00 -0.32285183214E+03  0.32285183218E+03  0.50400001928E-02 0.  1.
    10030    2    1    2    0    0  0.00000000000E+00  0.00000000000E+00 -0.12925063065E+03  0.51645303374E+03  0.50001801021E+03 0.  0.
        2    1    3    3  502    0 -0.24943200840E+03 -0.16844560684E+02 -0.66800868177E+02  0.25877098376E+03  0.25500000920E-02 0. -1.
       -2    1    3    3    0  502  0.24943200840E+03  0.16844560684E+02 -0.62449762477E+02  0.25768204998E+03  0.25500000920E-02 0.  1.
</event>
<event>
 5   0  0.3211775E-03  0.5000857E+03  0.7818609E-02  0.1013757E+00
       -1   -1    0    0    0  501  0.00000000000E+00  0.00000000000E+00  0.28482759170E+03  0.28482759174E+03  0.50400001928E-02 0. -1.
        1   -1    0    0  501    0  0.00000000000E+00  0.00000000000E+00 -0.21950624326E+03  0.21950624332E+03  0.50400001928E-02 0.  1.
    10030    2    1    2    0    0  0.00000000000E+00  0.00000000000E+00  0.65321348438E+02  0.50433383506E+03  0.50008573127E+03 0.  0.
        4    1    3    3  502    0 -0.77910449071E+02 -0.98932201618E+02 -0.18518867268E+03  0.22395105711E+03  0.12699999809E+01 0.  1.
       -4    1    3    3    0  502  0.77910449071E+02  0.98932201618E+02  0.25051002111E+03  0.28038277795E+03  0.12699999809E+01 0. -1.
</event>
<event>
 5   0  0.5095783E-03  0.4999333E+03  0.7818609E-02  0.1013796E+00
       -2   -1    0    0    0  501  0.00000000000E+00  0.00000000000E+00  0.54342368701E+02  0.54342368761E+02  0.25500000920E-02 0. -1.
        2   -1    0    0  501    0  0.00000000000E+00  0.00000000000E+00 -0.11498085138E+04  0.11498085138E+04  0.25500000920E-02 0.  1.
    10030    2    1    2    0    0  0.00000000000E+00  0.00000000000E+00 -0.10954661451E+04  0.12041508826E+04  0.49993326847E+03 0.  0.
        4    1    3    3  502    0  0.40693467510E+02  0.20387768168E+03 -0.88199963063E+03  0.90617163315E+03  0.12699999809E+01 0.  1.
       -4    1    3    3    0  502 -0.40693467510E+02 -0.20387768168E+03 -0.21346651447E+03  0.29797924942E+03  0.12699999809E+01 0. -1.
</event>
<event>
 5   0  0.3057783E-03  0.4999569E+03  0.7818609E-02  0.1013790E+00
        1   -1    0    0  501    0  0.00000000000E+00  0.00000000000E+00  0.66223426803E+03  0.66223426805E+03  0.50400001928E-02 0. -1.
       -1   -1    0    0    0  501  0.00000000000E+00  0.00000000000E+00 -0.94361194855E+02  0.94361194990E+02  0.50400001928E-02 0.  1.
    10030    2    1    2    0    0  0.00000000000E+00  0.00000000000E+00  0.56787307317E+03  0.75659546304E+03  0.49995686559E+03 0.  0.
        5    1    3    3  502    0  0.15217685857E+03 -0.15869196914E+03  0.46380031407E+03  0.51329694981E+03  0.46999998093E+01 0. -1.
       -5    1    3    3    0  502 -0.15217685857E+03  0.15869196914E+03  0.10407275910E+03  0.24329851323E+03  0.46999998093E+01 0.  1.
</event>
<event>
 5   0  0.3057783E-03  0.4999656E+03  0.7818609E-02  0.1013788E+00
       -1   -1    0    0    0  501  0.00000000000E+00  0.00000000000E+00  0.39909425535E+03  0.39909425538E+03  0.50400001928E-02 0. -1.
        1   -1    0    0  501    0  0.00000000000E+00  0.00000000000E+00 -0.15658304074E+03  0.15658304082E+03  0.50400001928E-02 0.  1.
    10030    2    1    2    0    0  0.00000000000E+00  0.00000000000E+00  0.24251121461E+03  0.55567729620E+03  0.49996556712E+03 0.  0.
        5    1    3    3  502    0  0.65584074743E+02  0.23888998257E+03  0.84400184869E+02  0.26175403690E+03  0.46999998093E+01 0. -1.
       -5    1    3    3    0  502 -0.65584074743E+02 -0.23888998257E+03  0.15811102974E+03  0.29392325930E+03  0.46999998093E+01 0.  1.
</event>
<event>
 5   0  0.2005125E-03  0.5005792E+03  0.7818609E-02  0.1013628E+00
       -3   -1    0    0    0  501  0.00000000000E+00  0.00000000000E+00  0.60707190276E+03  0.60707191116E+03  0.10100000352E+00 0. -1.
        3   -1    0    0  501    0  0.00000000000E+00  0.00000000000E+00 -0.10319181843E+03  0.10319186785E+03  0.10100000352E+00 0.  1.
    10030    2    1    2    0    0  0.00000000000E+00  0.00000000000E+00  0.50388008433E+03  0.71026377901E+03  0.50057916096E+03 0.  0.
        1    1    3    3  502    0 -0.44247498768E+01 -0.15645877825E+03  0.52906210212E+03  0.55172967622E+03  0.50400001928E-02 0. -1.
       -1    1    3    3    0  502  0.44247498768E+01  0.15645877825E+03 -0.25182017787E+02  0.15853410279E+03  0.50400001928E-02 0.  1.
</event>
<event>
 5   0  0.3013734E-03  0.4985910E+03  0.7818609E-02  0.1014147E+00
        1   -1    0    0  501    0  0.00000000000E+00  0.00000000000E+00  0.30914697455E+03  0.30914697459E+03  0.50400001928E-02 0. -1.
       -1   -1    0    0    0  501  0.00000000000E+00  0.00000000000E+00 -0.20103140737E+03  0.20103140744E+03  0.50400001928E-02 0.  1.
    10030    2    1    2    0    0  0.00000000000E+00  0.00000000000E+00  0.10811556718E+03  0.51017838203E+03  0.49859102040E+03 0.  0.
        2    1    3    3  502    0 -0.24921639461E+03 -0.55106143510E+01  0.57139960615E+02  0.25574235730E+03  0.25500000920E-02 0. -1.
       -2    1    3    3    0  502  0.24921639461E+03  0.55106143510E+01  0.50975606564E+02  0.25443602473E+03  0.25500000920E-02 0.  1.
</event>
<event>
 5   0  0.4978779E-03  0.5007055E+03  0.7818609E-02  0.1013595E+00
        2   -1    0    0  501    0  0.00000000000E+00  0.00000000000E+00  0.44147783426E+03  0.44147783427E+03  0.25500000920E-02 0. -1.
       -2   -1    0    0    0  501  0.00000000000E+00  0.00000000000E+00 -0.14196975020E+03  0.14196975023E+03  0.25500000920E-02 0.  1.
    10030    2    1    2    0    0  0.00000000000E+00  0.00000000000E+00  0.29950808406E+03  0.58344758450E+03  0.50070549372E+03 0.  0.
        1    1    3    3  502    0  0.13594330896E+03  0.58468214714E+02  0.38505796184E+03  0.41251515049E+03  0.50400001928E-02 0. -1.
       -1    1    3    3    0  502 -0.13594330896E+03 -0.58468214714E+02 -0.85549877780E+02  0.17093243401E+03  0.50400001928E-02 0.  1.
</event>
<event>
 5   0  0.3013734E-03  0.5006743E+03  0.7818609E-02  0.1013603E+00
        1   -1    0    0  501    0  0.00000000000E+00  0.00000000000E+00  0.70501252669E+03  0.70501252671E+03  0.50400001928E-02 0.  1.
       -1   -1    0    0    0  501  0.00000000000E+00  0.00000000000E+00 -0.88890164756E+02  0.88890164899E+02  0.50400001928E-02 0. -1.
    10030    2    1    2    0    0  0.00000000000E+00  0.00000000000E+00  0.61612236194E+03  0.79390269161E+03  0.50067426423E+03 0.  0.
        2    1    3    3  502    0  0.14210669259E+03 -0.17812860312E+03  0.47242510202E+03  0.52450890207E+03  0.25500000920E-02 0.  1.
       -2    1    3    3    0  502 -0.14210669259E+03  0.17812860312E+03  0.14369725992E+03  0.26939378954E+03  0.25500000920E-02 0. -1.
</event>
<event>
 5   0  0.4978779E-03  0.4997856E+03  0.7818609E-02  0.1013835E+00
        2   -1    0    0  501    0  0.00000000000E+00  0.00000000000E+00  0.59322796803E+02  0.59322796858E+02  0.25500000920E-02 0. -1.
       -2   -1    0    0    0  501  0.00000000000E+00  0.00000000000E+00 -0.10526546584E+04  0.10526546584E+04  0.25500000920E-02 0.  1.
    10030    2    1    2    0    0  0.00000000000E+00  0.00000000000E+00 -0.99333186164E+03  0.11119774553E+04  0.49978562780E+03 0.  0.
        1    1    3    3  502    0  0.15530727423E+03  0.14358212432E+03 -0.79275643115E+03  0.82048701087E+03  0.50400001928E-02 0.  1.
       -1    1    3    3    0  502 -0.15530727423E+03 -0.14358212432E+03 -0.20057543049E+03  0.29149044444E+03  0.50400001928E-02 0. -1.
</event>
<event>
 5   0  0.5118882E-03  0.5002092E+03  0.7818609E-02  0.1013724E+00
        2   -1    0    0  501    0  0.00000000000E+00  0.00000000000E+00  0.32033085829E+03  0.32033085830E+03  0.25500000920E-02 0.  1.
       -2   -1    0    0    0  501  0.00000000000E+00  0.00000000000E+00 -0.19527405654E+03  0.19527405656E+03  0.25500000920E-02 0. -1.
    10030    2    1    2    0    0  0.00000000000E+00  0.00000000000E+00  0.12505680175E+03  0.51560491486E+03  0.50020918081E+03 0.  0.
        3    1    3    3  502    0  0.36101878987E+02 -0.13556562433E+03  0.27595411836E+03  0.30956755290E+03  0.10100000352E+00 0.  1.
       -3    1    3    3    0  502 -0.36101878987E+02  0.13556562433E+03 -0.15089731661E+03  0.20603736196E+03  0.10100000352E+00 0. -1.
</event>
<event>
 5   0  0.5118882E-03  0.5001044E+03  0.7818609E-02  0.1013752E+00
       -2   -1    0    0    0  501  0.00000000000E+00  0.00000000000E+00  0.10254260071E+03  0.10254260074E+03  0.25500000920E-02 0. -1.
        2   -1    0    0  501    0  0.00000000000E+00  0.00000000000E+00 -0.60975742133E+03  0.60975742134E+03  0.25500000920E-02 0.  1.
    10030    2    1    2    0    0  0.00000000000E+00  0.00000000000E+00 -0.50721482062E+03  0.71230002208E+03  0.50010443629E+03 0.  0.
        3    1    3    3  502    0 -0.13617731826E+03  0.31766717679E+02 -0.54886335366E+03  0.56639595474E+03  0.10100000352E+00 0.  1.
       -3    1    3    3    0  502  0.13617731826E+03 -0.31766717679E+02  0.41648533034E+02  0.14590406734E+03  0.10100000352E+00 0. -1.
</event>
<event>
 5   0  0.2863538E-03  0.4995676E+03  0.7818609E-02  0.1013892E+00
       -1   -1    0    0    0  501  0.00000000000E+00  0.00000000000E+00  0.39959583977E+02  0.39959584295E+02  0.50400001928E-02 0. -1.
        1   -1    0    0  501    0  0.00000000000E+00  0.00000000000E+00 -0.15613763008E+04  0.15613763008E+04  0.50400001928E-02 0.  1.
    10030    2    1    2    0    0  0.00000000000E+00  0.00000000000E+00 -0.15214167168E+04  0.16013358851E+04  0.49956760372E+03 0.  0.
        1    1    3    3  502    0 -0.22657433267E+03  0.56111248446E+02 -0.47566622110E+03  0.52985163428E+03  0.50400001928E-02 0. -1.
       -1    1    3    3    0  502  0.22657433267E+03 -0.56111248446E+02 -0.10457504957E+04  0.10714842508E+04  0.50400001928E-02 0.  1.
</event>
<event>
 5   0  0.3055293E-03  0.5003858E+03  0.7818609E-02  0.1013678E+00
       -1   -1    0    0    0  501  0.00000000000E+00  0.00000000000E+00  0.95273923048E+02  0.95273923181E+02  0.50400001928E-02 0.  1.
        1   -1    0    0  501    0  0.00000000000E+00  0.00000000000E+00 -0.65701590934E+03  0.65701590936E+03  0.50400001928E-02 0. -1.
    10030    2    1    2    0    0  0.00000000000E+00  0.00000000000E+00 -0.56174198629E+03  0.75228983254E+03  0.50038578415E+03 0.  0.
        3    1    3    3  502    0 -0.20350049264E+03 -0.10349592656E+03 -0.12701733979E+03  0.26126092729E+03  0.10100000352E+00 0.  1.
       -3    1    3    3    0  502  0.20350049264E+03  0.10349592656E+03 -0.43472464650E+03  0.49102890525E+03  0.10100000352E+00 0. -1.
</event>
<event>
 5   0  0.5118882E-03  0.5000738E+03  0.7818609E-02  0.1013760E+00
       -2   -1    0    0    0  501  0.00000000000E+00  0.00000000000E+00  0.55312742022E+03  0.55312742022E+03  0.25500000920E-02 0.  1.
        2   -1    0    0  501    0  0.00000000000E+00  0.00000000000E+00 -0.11302722567E+03  0.11302722570E+03  0.25500000920E-02 0. -1.
    10030    2    1    2    0    0  0.00000000000E+00  0.00000000000E+00  0.44010019455E+03  0.66615464592E+03  0.50007382559E+03 0.  0.
        3    1    3    3  502    0  0.99920161436E+02  0.75538775849E+02 -0.68217045677E+02  0.14263141603E+03  0.10100000352E+00 0. -1.
       -3    1    3    3    0  502 -0.99920161436E+02 -0.75538775849E+02  0.50831724023E+03  0.52352322989E+03  0.10100000352E+00 0.  1.
</event>
<event>
 5   0  0.2005125E-03  0.5000739E+03  0.7818609E-02  0.1013760E+00
       -3   -1    0    0    0  501  0.00000000000E+00  0.00000000000E+00  0.10405994109E+04  0.10405994158E+04  0.10100000352E+00 0.  1.
        3   -1    0    0  501    0  0.00000000000E+00  0.00000000000E+00 -0.60079255119E+02  0.60079340015E+02  0.10100000352E+00 0. -1.
    10030    2    1    2    0    0  0.00000000000E+00  0.00000000000E+00  0.98052015581E+03  0.11006787558E+04  0.50007394215E+03 0.  0.
        5    1    3    3  502    0 -0.81287275811E+02  0.85902842816E+02  0.54857009974E+01  0.11848671878E+03  0.46999998093E+01 0. -1.
       -5    1    3    3    0  502  0.81287275811E+02 -0.85902842816E+02  0.97503445481E+03  0.98219203707E+03  0.46999998093E+01 0.  1.
</event>
<event>
 5   0  0.3057783E-03  0.4996921E+03  0.7818609E-02  0.1013859E+00
       -1   -1    0    0    0  501  0.00000000000E+00  0.00000000000E+00  0.39849205623E+03  0.39849205627E+03  0.50400001928E-02 0. -1.
        1   -1    0    0  501    0  0.00000000000E+00  0.00000000000E+00 -0.15664818411E+03  0.15664818419E+03  0.50400001928E-02 0.  1.
    10030    2    1    2    0    0  0.00000000000E+00  0.00000000000E+00  0.24184387212E+03  0.55514024046E+03  0.49969213331E+03 0.  0.
        5    1    3    3  502    0 -0.17344426872E+03  0.81525592384E+02  0.29892477263E+03  0.35511610250E+03  0.46999998093E+01 0. -1.
       -5    1    3    3    0  502  0.17344426872E+03 -0.81525592384E+02 -0.57080900504E+02  0.20002413796E+03  0.46999998093E+01 0.  1.
</event>
<event>
 5   0  0.4989875E-03  0.4998902E+03  0.7818609E-02  0.1013808E+00
       -2   -1    0    0    0  501  0.00000000000E+00  0.00000000000E+00  0.44091537727E+02  0.44091537800E+02  0.25500000920E-02 0. -1.
        2   -1    0    0  501    0  0.00000000000E+00  0.00000000000E+00 -0.14168829894E+04  0.14168829894E+04  0.25500000920E-02 0.  1.
    10030    2    1    2    0    0  0.00000000000E+00  0.00000000000E+00 -0.13727914517E+04  0.14609745272E+04  0.49989018729E+03 0.  0.
        2    1    3    3  502    0  0.24526674366E+02  0.22311780321E+02  0.37635560589E+02  0.50157838110E+02  0.25500000920E-02 0. -1.
       -2    1    3    3    0  502 -0.24526674366E+02 -0.22311780321E+02 -0.14104270122E+04  0.14108166891E+04  0.25500000920E-02 0.  1.
</event>
<event>
 5   0  0.2863538E-03  0.4998436E+03  0.7818609E-02  0.1013820E+00
        1   -1    0    0  501    0  0.00000000000E+00  0.00000000000E+00  0.19305222592E+03  0.19305222599E+03  0.50400001928E-02 0.  1.
       -1   -1    0    0    0  501  0.00000000000E+00  0.00000000000E+00 -0.32354404293E+03  0.32354404297E+03  0.50400001928E-02 0. -1.
    10030    2    1    2    0    0  0.00000000000E+00  0.00000000000E+00 -0.13049181701E+03  0.51659626896E+03  0.49984356632E+03 0.  0.
        1    1    3    3  502    0  0.70347627329E+02  0.18363410874E+03 -0.22465756224E+03  0.29856539462E+03  0.50400001928E-02 0. -1.
       -1    1    3    3    0  502 -0.70347627329E+02 -0.18363410874E+03  0.94165745235E+02  0.21803087434E+03  0.50400001928E-02 0.  1.
</event>
<event>
 5   0  0.2863538E-03  0.5000848E+03  0.7818609E-02  0.1013757E+00
       -1   -1    0    0    0  501  0.00000000000E+00  0.00000000000E+00  0.53053367635E+03  0.53053367638E+03  0.50400001928E-02 0.  1.
        1   -1    0    0  501    0  0.00000000000E+00  0.00000000000E+00 -0.11784588714E+03  0.11784588725E+03  0.50400001928E-02 0. -1.
    10030    2    1    2    0    0  0.00000000000E+00  0.00000000000E+00  0.41268778921E+03  0.64837956363E+03  0.50008483997E+03 0.  0.
        1    1    3    3  502    0  0.12151994950E+03  0.11296089237E+02  0.48929410221E+03  0.50428505653E+03  0.50400001928E-02 0.  1.
       -1    1    3    3    0  502 -0.12151994950E+03 -0.11296089237E+02 -0.76606313001E+02  0.14409450709E+03  0.50400001928E-02 0. -1.
</event>
<event>
 5   0  0.3013734E-03  0.4990952E+03  0.7818609E-02  0.1014015E+00
       -1   -1    0    0    0  501  0.00000000000E+00  0.00000000000E+00  0.37075682680E+03  0.37075682683E+03  0.50400001928E-02 0. -1.
        1   -1    0    0  501    0  0.00000000000E+00  0.00000000000E+00 -0.16796452157E+03  0.16796452165E+03  0.50400001928E-02 0.  1.
    10030    2    1    2    0    0  0.00000000000E+00  0.00000000000E+00  0.20279230522E+03  0.53872134848E+03  0.49909515350E+03 0.  0.
        2    1    3    3  502    0 -0.13824394700E+03 -0.85787815842E+02 -0.10284388194E+03  0.19247805664E+03  0.25500000920E-02 0.  1.
       -2    1    3    3    0  502  0.13824394700E+03  0.85787815842E+02  0.30563618716E+03  0.34624329184E+03  0.25500000920E-02 0. -1.
</event>
<event>
 5   0  0.5095783E-03  0.5004460E+03  0.7818609E-02  0.1013663E+00
        2   -1    0    0  501    0  0.00000000000E+00  0.00000000000E+00  0.79809178757E+03  0.79809178757E+03  0.25500000920E-02 0.  1.
       -2   -1    0    0    0  501  0.00000000000E+00  0.00000000000E+00 -0.78451577193E+02  0.78451577234E+02  0.25500000920E-02 0. -1.
    10030    2    1    2    0    0  0.00000000000E+00  0.00000000000E+00  0.71964021038E+03  0.87654336481E+03  0.50044603905E+03 0.  0.
        4    1    3    3  502    0  0.58345195966E+02 -0.22148832812E+03  0.18337018374E+03  0.29340667779E+03  0.12699999809E+01 0. -1.
       -4    1    3    3    0  502 -0.58345195966E+02  0.22148832812E+03  0.53627002663E+03  0.58313668702E+03  0.12699999809E+01 0.  1.
</event>
<event>
 5   0  0.3055293E-03  0.4999345E+03  0.7818609E-02  0.1013796E+00
       -1   -1    0    0    0  501  0.00000000000E+00  0.00000000000E+00  0.46490171611E+03  0.46490171614E+03  0.50400001928E-02 0.  1.
        1   -1    0    0  501    0  0.00000000000E+00  0.00000000000E+00 -0.13440181395E+03  0.13440181405E+03  0.50400001928E-02 0. -1.
    10030    2    1    2    0    0  0.00000000000E+00  0.00000000000E+00  0.33049990216E+03  0.59930353019E+03  0.49993453168E+03 0.  0.
        3    1    3    3  502    0  0.23916419169E+03  0.70508095167E+02  0.14405108056E+03  0.28796115378E+03  0.10100000352E+00 0.  1.
       -3    1    3    3    0  502 -0.23916419169E+03 -0.70508095167E+02  0.18644882160E+03  0.31134237641E+03  0.10100000352E+00 0. -1.
</event>
<event>
 5   0  0.3057783E-03  0.4995073E+03  0.7818609E-02  0.1013908E+00
       -1   -1    0    0    0  501  0.00000000000E+00  0.00000000000E+00  0.46222795910E+02  0.46222796185E+02  0.50400001928E-02 0. -1.
        1   -1    0    0  501    0  0.00000000000E+00  0.00000000000E+00 -0.13494829079E+04  0.13494829079E+04  0.50400001928E-02 0.  1.
    10030    2    1    2    0    0  0.00000000000E+00  0.00000000000E+00 -0.13032601120E+04  0.13957057041E+04  0.49950725014E+03 0.  0.
        5    1    3    3  502    0 -0.50524310953E+02 -0.11831416234E+03 -0.12496325343E+04  0.12562461971E+04  0.46999998093E+01 0.  1.
       -5    1    3    3    0  502  0.50524310953E+02  0.11831416234E+03 -0.53627577753E+02  0.13945950703E+03  0.46999998093E+01 0. -1.
</event>
<event>
 5   0  0.3013734E-03  0.4995244E+03  0.7818609E-02  0.1013903E+00
       -1   -1    0    0    0  501  0.00000000000E+00  0.00000000000E+00  0.19192177104E+03  0.19192177110E+03  0.50400001928E-02 0.  1.
        1   -1    0    0  501    0  0.00000000000E+00  0.00000000000E+00 -0.32503434972E+03  0.32503434976E+03  0.50400001928E-02 0. -1.
    10030    2    1    2    0    0  0.00000000000E+00  0.00000000000E+00 -0.13311257869E+03  0.51695612086E+03  0.49952444614E+03 0.  0.
        2    1    3    3  502    0  0.37581103413E+02  0.23870291441E+03 -0.13192495717E+03  0.27531003434E+03  0.25500000920E-02 0. -1.
       -2    1    3    3    0  502 -0.37581103413E+02 -0.23870291441E+03 -0.11876215203E+01  0.24164608652E+03  0.25500000920E-02 0.  1.
</event>
<event>
 5   0  0.4989875E-03  0.5001779E+03  0.7818609E-02  0.1013733E+00
       -2   -1    0    0    0  501  0.00000000000E+00  0.00000000000E+00  0.43612392308E+02  0.43612392383E+02  0.25500000920E-02 0. -1.
        2   -1    0    0  501    0  0.00000000000E+00  0.00000000000E+00 -0.14340986120E+04  0.14340986120E+04  0.25500000920E-02 0.  1.
    10030    2    1    2    0    0  0.00000000000E+00  0.00000000000E+00 -0.13904862197E+04  0.14777110043E+04  0.50017785369E+03 0.  0.
        2    1    3    3  502    0 -0.79668831320E+02 -0.11641899363E+03 -0.13053330247E+04  0.13129336656E+04  0.25500000920E-02 0.  1.
       -2    1    3    3    0  502  0.79668831320E+02  0.11641899363E+03 -0.85153194948E+02  0.16477733879E+03  0.25500000920E-02 0. -1.
</event>
<event>
 5   0  0.2005125E-03  0.5003800E+03  0.7818609E-02  0.1013680E+00
        3   -1    0    0  501    0  0.00000000000E+00  0.00000000000E+00  0.10959681122E+04  0.10959681168E+04  0.10100000352E+00 0.  1.
       -3   -1    0    0    0  501  0.00000000000E+00  0.00000000000E+00 -0.57113869213E+02  0.57113958517E+02  0.10100000352E+00 0. -1.
    10030    2    1    2    0    0  0.00000000000E+00  0.00000000000E+00  0.10388542430E+04  0.11530820754E+04  0.50037998997E+03 0.  0.
        4    1    3    3  502    0 -0.15527079435E+03 -0.73104843422E+02  0.99922178166E+02  0.19859353539E+03  0.12699999809E+01 0. -1.
       -4    1    3    3    0  502  0.15527079435E+03  0.73104843422E+02  0.93893206481E+03  0.95448853997E+03  0.12699999809E+01 0.  1.
</event>
<event>
 5   0  0.5095783E-03  0.4999779E+03  0.7818609E-02  0.1013785E+00
        2   -1    0    0  501    0  0.00000000000E+00  0.00000000000E+00  0.83033597819E+03  0.83033597820E+03  0.25500000920E-02 0.  1.
       -2   -1    0    0    0  501  0.00000000000E+00  0.00000000000E+00 -0.75264073887E+02  0.75264073930E+02  0.25500000920E-02 0. -1.
    10030    2    1    2    0    0  0.00000000000E+00  0.00000000000E+00  0.75507190430E+03  0.90560005213E+03  0.49997787325E+03 0.  0.
        4    1    3    3  502    0  0.16034054741E+03 -0.96144425951E+02  0.67812124701E+03  0.70342226318E+03  0.12699999809E+01 0.  1.
       -4    1    3    3    0  502 -0.16034054741E+03  0.96144425951E+02  0.76950657296E+02  0.20217778895E+03  0.12699999809E+01 0. -1.
</event>
<event>
 5   0  0.5095783E-03  0.5001233E+03  0.7818609E-02  0.1013747E+00
        2   -1    0    0  501    0  0.00000000000E+00  0.00000000000E+00  0.27013317159E+03  0.27013317160E+03  0.25500000920E-02 0. -1.
       -2   -1    0    0    0  501  0.00000000000E+00  0.00000000000E+00 -0.23148145094E+03  0.23148145095E+03  0.25500000920E-02 0.  1.
    10030    2    1    2    0    0  0.00000000000E+00  0.00000000000E+00  0.38651720654E+02  0.50161462255E+03  0.50012325886E+03 0.  0.
        4    1    3    3  502    0  0.19276361959E+03 -0.10825986110E+03  0.13651260000E+03  0.25983709016E+03  0.12699999809E+01 0. -1.
       -4    1    3    3    0  502 -0.19276361959E+03  0.10825986110E+03 -0.97860879348E+02  0.24177753239E+03  0.12699999809E+01 0.  1.
</event>
<event>
 5   0  0.3211775E-03  0.5000627E+03  0.7818609E-02  0.1013763E+00
       -1   -1    0    0    0  501  0.00000000000E+00  0.00000000000E+00  0.15341719385E+03  0.15341719393E+03  0.50400001928E-02 0.  1.
        1   -1    0    0  501    0  0.00000000000E+00  0.00000000000E+00 -0.40748808687E+03  0.40748808690E+03  0.50400001928E-02 0. -1.
    10030    2    1    2    0    0  0.00000000000E+00  0.00000000000E+00 -0.25407089302E+03  0.56090528083E+03  0.50006271144E+03 0.  0.
        4    1    3    3  502    0  0.21874125304E+03 -0.11088343054E+03 -0.18165506875E+03  0.30519345971E+03  0.12699999809E+01 0. -1.
       -4    1    3    3    0  502 -0.21874125304E+03  0.11088343054E+03 -0.72415824274E+02  0.25571182111E+03  0.12699999809E+01 0.  1.
</event>
<event>
 5   0  0.4989875E-03  0.4999095E+03  0.7818609E-02  0.1013803E+00
       -2   -1    0    0    0  501  0.00000000000E+00  0.00000000000E+00  0.52509397731E+02  0.52509397793E+02  0.25500000920E-02 0. -1.
        2   -1    0    0  501    0  0.00000000000E+00  0.00000000000E+00 -0.11898321146E+04  0.11898321146E+04  0.25500000920E-02 0.  1.
    10030    2    1    2    0    0  0.00000000000E+00  0.00000000000E+00 -0.11373227169E+04  0.12423415124E+04  0.49990946293E+03 0.  0.
        2    1    3    3  502    0  0.58745738825E+02 -0.45169857602E+02  0.24583097069E+02  0.78075005821E+02  0.25500000920E-02 0. -1.
       -2    1    3    3    0  502 -0.58745738825E+02  0.45169857602E+02 -0.11619058140E+04  0.11642665066E+04  0.25500000920E-02 0.  1.
</event>
<event>
 5   0  0.2005125E-03  0.5000289E+03  0.7818609E-02  0.1013771E+00
       -3   -1    0    0    0  501  0.00000000000E+00  0.00000000000E+00  0.55706545116E+02  0.55706636676E+02  0.10100000352E+00 0.  1.
        3   -1    0    0  501    0  0.00000000000E+00  0.00000000000E+00 -0.11220794131E+04  0.11220794176E+04  0.10100000352E+00 0. -1.
    10030    2    1    2    0    0  0.00000000000E+00  0.00000000000E+00 -0.10663728680E+04  0.11777860543E+04  0.50002889534E+03 0.  0.
        4    1    3    3  502    0 -0.80933386597E+01 -0.19062038043E+03 -0.15262509503E+03  0.24433105431E+03  0.12699999809E+01 0.  1.
       -4    1    3    3    0  502  0.80933386597E+01  0.19062038043E+03 -0.91374777293E+03  0.93345499999E+03  0.12699999809E+01 0. -1.
</event>
<event>
 5   0  0.5095783E-03  0.4998234E+03  0.7818609E-02  0.1013825E+00
        2   -1    0    0  501    0  0.00000000000E+00  0.00000000000E+00  0.17913322577E+04  0.17913322577E+04  0.25500000920E-02 0.  1.
       -2   -1    0    0    0  501  0.00000000000E+00  0.00000000000E+00 -0.34865589902E+02  0.34865589995E+02  0.25500000920E-02 0. -1.
    10030    2    1    2    0    0  0.00000000000E+00  0.00000000000E+00  0.17564666678E+04  0.18261978477E+04  0.49982339266E+03 0.  0.
        4    1    3    3  502    0  0.65216873022E+02  0.15466230606E+03  0.15547138439E+04  0.15637488350E+04  0.12699999809E+01 0.  1.
       -4    1    3    3    0  502 -0.65216873022E+02 -0.15466230606E+03  0.20175282384E+03  0.26244901271E+03  0.12699999809E+01 0. -1.
</event>
<event>
 5   0  0.4889251E-03  0.5027737E+03  0.7818609E-02  0.1013057E+00
        2   -1    0    0  501    0  0.00000000000E+00  0.00000000000E+00  0.56507618925E+03  0.56507618926E+03  0.25500000920E-02 0. -1.
       -2   -1    0    0    0  501  0.00000000000E+00  0.00000000000E+00 -0.11183509244E+03  0.11183509247E+03  0.25500000920E-02 0.  1.
    10030    2    1    2    0    0  0.00000000000E+00  0.00000000000E+00  0.45324109681E+03  0.67691128173E+03  0.50277369810E+03 0.  0.
        5    1    3    3  502    0  0.77232845942E+02 -0.23270674208E+03  0.15219363302E+03  0.28862143412E+03  0.46999998093E+01 0.  1.
       -5    1    3    3    0  502 -0.77232845942E+02  0.23270674208E+03  0.30104746379E+03  0.38828984761E+03  0.46999998093E+01 0. -1.
</event>
<event>
 5   0  0.2005125E-03  0.4997575E+03  0.7818609E-02  0.1013842E+00
       -4   -1    0    0    0  501  0.00000000000E+00  0.00000000000E+00  0.83554562136E+03  0.83554658654E+03  0.12699999809E+01 0.  1.
        4   -1    0    0  501    0  0.00000000000E+00  0.00000000000E+00 -0.74722483196E+02  0.74733275018E+02  0.12699999809E+01 0. -1.
    10030    2    1    2    0    0  0.00000000000E+00  0.00000000000E+00  0.76082313817E+03  0.91027986156E+03  0.49975751999E+03 0.  0.
        4    1    3    3  502    0  0.12207017153E+03  0.38207804880E+02 -0.10570499467E+02  0.12835229444E+03  0.12699999809E+01 0. -1.
       -4    1    3    3    0  502 -0.12207017153E+03 -0.38207804880E+02  0.77139363764E+03  0.78192756711E+03  0.12699999809E+01 0.  1.
</event>
<event>
 5   0  0.4889251E-03  0.4997010E+03  0.7818609E-02  0.1013857E+00
       -2   -1    0    0    0  501  0.00000000000E+00  0.00000000000E+00  0.66841664286E+02  0.66841664335E+02  0.25500000920E-02 0.  1.
        2   -1    0    0  501    0  0.00000000000E+00  0.00000000000E+00 -0.93392762609E+03  0.93392762609E+03  0.25500000920E-02 0. -1.
    10030    2    1    2    0    0  0.00000000000E+00  0.00000000000E+00 -0.86708596180E+03  0.10007692904E+04  0.49970101812E+03 0.  0.
        5    1    3    3  502    0  0.19347595581E+03  0.52306604037E+02 -0.73217411350E+03  0.75912446198E+03  0.46999998093E+01 0. -1.
       -5    1    3    3    0  502 -0.19347595581E+03 -0.52306604037E+02 -0.13491184831E+03  0.24164482845E+03  0.46999998093E+01 0.  1.
</event>
<event>
 5   0  0.3057783E-03  0.5002104E+03  0.7818609E-02  0.1013724E+00
        1   -1    0    0  501    0  0.00000000000E+00  0.00000000000E+00  0.98472286503E+03  0.98472286505E+03  0.50400001928E-02 0. -1.
       -1   -1    0    0    0  501  0.00000000000E+00  0.00000000000E+00 -0.63523056539E+02  0.63523056739E+02  0.50400001928E-02 0.  1.
    10030    2    1    2    0    0  0.00000000000E+00  0.00000000000E+00  0.92119980850E+03  0.10482459218E+04  0.50021038111E+03 0.  0.
        5    1    3    3  502    0 -0.25806305106E+02  0.24487019302E+03  0.55202086816E+03  0.60446381669E+03  0.46999998093E+01 0.  1.
       -5    1    3    3    0  502  0.25806305106E+02 -0.24487019302E+03  0.36917894034E+03  0.44378210509E+03  0.46999998093E+01 0. -1.
</event>
<event>
 5   0  0.3013734E-03  0.4998747E+03  0.7818609E-02  0.1013812E+00
        1   -1    0    0  501    0  0.00000000000E+00  0.00000000000E+00  0.39018771380E+03  0.39018771383E+03  0.50400001928E-02 0.  1.
       -1   -1    0    0    0  501  0.00000000000E+00  0.00000000000E+00 -0.16009902925E+03  0.16009902933E+03  0.50400001928E-02 0. -1.
    10030    2    1    2    0    0  0.00000000000E+00  0.00000000000E+00  0.23008868455E+03  0.55028674316E+03  0.49987468123E+03 0.  0.
        2    1    3    3  502    0  0.11052061060E+03 -0.10046094981E+03  0.33565815037E+03  0.36738753615E+03  0.25500000920E-02 0.  1.
       -2    1    3    3    0  502 -0.11052061060E+03  0.10046094981E+03 -0.10556946581E+03  0.18289920701E+03  0.25500000920E-02 0. -1.
</event>
<event>
 5   0  0.4978779E-03  0.4996375E+03  0.7818609E-02  0.1013874E+00
        2   -1    0    0  501    0  0.00000000000E+00  0.00000000000E+00  0.76099254777E+03  0.76099254777E+03  0.25500000920E-02 0.  1.
       -2   -1    0    0    0  501  0.00000000000E+00  0.00000000000E+00 -0.82010549696E+02  0.82010549735E+02  0.25500000920E-02 0. -1.
    10030    2    1    2    0    0  0.00000000000E+00  0.00000000000E+00  0.67898199807E+03  0.84300309751E+03  0.49963753732E+03 0.  0.
        1    1    3    3  502    0 -0.52995584321E+00 -0.14716156552E+03 -0.11146331655E+01  0.14716674098E+03  0.50400001928E-02 0. -1.
       -1    1    3    3    0  502  0.52995584321E+00  0.14716156552E+03  0.68009663124E+03  0.69583635653E+03  0.50400001928E-02 0.  1.
</event>
<event>
 5   0  0.3211775E-03  0.4997560E+03  0.7818609E-02  0.1013843E+00
       -1   -1    0    0    0  501  0.00000000000E+00  0.00000000000E+00  0.14233045926E+03  0.14233045935E+03  0.50400001928E-02 0.  1.
        1   -1    0    0  501    0  0.00000000000E+00  0.00000000000E+00 -0.43869053277E+03  0.43869053280E+03  0.50400001928E-02 0. -1.
    10030    2    1    2    0    0  0.00000000000E+00  0.00000000000E+00 -0.29636007351E+03  0.58102099215E+03  0.49975604064E+03 0.  0.
        4    1    3    3  502    0 -0.14289513881E+03 -0.18787599242E+03 -0.52867327768E+02  0.24189455651E+03  0.12699999809E+01 0. -1.
       -4    1    3    3    0  502  0.14289513881E+03  0.18787599242E+03 -0.24349274574E+03  0.33912643564E+03  0.12699999809E+01 0.  1.
</event>
<event>
 5   0  0.5118882E-03  0.4995236E+03  0.7818609E-02  0.1013903E+00
       -2   -1    0    0    0  501  0.00000000000E+00  0.00000000000E+00  0.65538462603E+02  0.65538462653E+02  0.25500000920E-02 0.  1.
        2   -1    0    0  501    0  0.00000000000E+00  0.00000000000E+00 -0.95182203035E+03  0.95182203035E+03  0.25500000920E-02 0. -1.
    10030    2    1    2    0    0  0.00000000000E+00  0.00000000000E+00 -0.88628356775E+03  0.10173604930E+04  0.49952358330E+03 0.  0.
        3    1    3    3  502    0 -0.55312320618E+02  0.97598544926E+01  0.52509155908E+02  0.76889070920E+02  0.10100000352E+00 0.  1.
       -3    1    3    3    0  502  0.55312320618E+02 -0.97598544926E+01 -0.93879272366E+03  0.94047142209E+03  0.10100000352E+00 0. -1.
</event>
<event>
 5   0  0.3055293E-03  0.5000698E+03  0.7818609E-02  0.1013761E+00
       -1   -1    0    0    0  501  0.00000000000E+00  0.00000000000E+00  0.15354450014E+03  0.15354450022E+03  0.50400001928E-02 0.  1.
        1   -1    0    0  501    0  0.00000000000E+00  0.00000000000E+00 -0.40716182336E+03  0.40716182340E+03  0.50400001928E-02 0. -1.
    10030    2    1    2    0    0  0.00000000000E+00  0.00000000000E+00 -0.25361732323E+03  0.56070632361E+03  0.50006982982E+03 0.  0.
        3    1    3    3  502    0 -0.92930600559E+02 -0.17084875770E+02  0.13275535549E+03  0.16294779566E+03  0.10100000352E+00 0.  1.
       -3    1    3    3    0  502  0.92930600559E+02  0.17084875770E+02 -0.38637267871E+03  0.39775852795E+03  0.10100000352E+00 0. -1.
</event>
<event>
 5   0  0.3055293E-03  0.5009462E+03  0.7818609E-02  0.1013532E+00
        1   -1    0    0  501    0  0.00000000000E+00  0.00000000000E+00  0.15973119314E+04  0.15973119314E+04  0.50400001928E-02 0. -1.
       -1   -1    0    0    0  501  0.00000000000E+00  0.00000000000E+00 -0.39276463125E+02  0.39276463448E+02  0.50400001928E-02 0.  1.
    10030    2    1    2    0    0  0.00000000000E+00  0.00000000000E+00  0.15580354683E+04  0.16365883949E+04  0.50094615856E+03 0.  0.
        3    1    3    3  502    0 -0.17014347681E+03  0.17234912134E+03  0.98779200511E+03  0.10170477265E+04  0.10100000352E+00 0.  1.
       -3    1    3    3    0  502  0.17014347681E+03 -0.17234912134E+03  0.57024346321E+03  0.61954066845E+03  0.10100000352E+00 0. -1.
</event>
<event>
 5   0  0.3057783E-03  0.5010369E+03  0.7818609E-02  0.1013509E+00
        1   -1    0    0  501    0  0.00000000000E+00  0.00000000000E+00  0.66686563523E+02  0.66686563714E+02  0.50400001928E-02 0.  1.
       -1   -1    0    0    0  501  0.00000000000E+00  0.00000000000E+00 -0.94111149774E+03  0.94111149775E+03  0.50400001928E-02 0. -1.
    10030    2    1    2    0    0  0.00000000000E+00  0.00000000000E+00 -0.87442493421E+03  0.10077980615E+04  0.50103689197E+03 0.  0.
        5    1    3    3  502    0 -0.10014444847E+03  0.16762096014E+03 -0.12165775928E+03  0.23010518732E+03  0.46999998093E+01 0.  1.
       -5    1    3    3    0  502  0.10014444847E+03 -0.16762096014E+03 -0.75276717494E+03  0.77769287415E+03  0.46999998093E+01 0. -1.
</event>
<event>
 5   0  0.4989875E-03  0.4999427E+03  0.7818609E-02  0.1013794E+00
        2   -1    0    0  501    0  0.00000000000E+00  0.00000000000E+00  0.44428819137E+03  0.44428819138E+03  0.25500000920E-02 0. -1.
       -2   -1    0    0    0  501  0.00000000000E+00  0.00000000000E+00 -0.14064220866E+03  0.14064220868E+03  0.25500000920E-02 0.  1.
    10030    2    1    2    0    0  0.00000000000E+00  0.00000000000E+00  0.30364598271E+03  0.58493040006E+03  0.49994268681E+03 0.  0.
        2    1    3    3  502    0 -0.22186043741E+03 -0.69459758641E+02  0.44342793567E+02  0.23667064691E+03  0.25500000920E-02 0.  1.
       -2    1    3    3    0  502  0.22186043741E+03  0.69459758641E+02  0.25930318914E+03  0.34825975315E+03  0.25500000920E-02 0. -1.
</event>
<event>
 5   0  0.4889251E-03  0.4997830E+03  0.7818609E-02  0.1013836E+00
       -2   -1    0    0    0  501  0.00000000000E+00  0.00000000000E+00  0.14775837997E+03  0.14775838000E+03  0.25500000920E-02 0.  1.
        2   -1    0    0  501    0  0.00000000000E+00  0.00000000000E+00 -0.42262079199E+03  0.42262079200E+03  0.25500000920E-02 0. -1.
    10030    2    1    2    0    0  0.00000000000E+00  0.00000000000E+00 -0.27486241202E+03  0.57037917199E+03  0.49978300722E+03 0.  0.
        5    1    3    3  502    0 -0.17129454726E+03 -0.17650126545E+03 -0.87304896831E+02  0.26103400858E+03  0.46999998093E+01 0. -1.
       -5    1    3    3    0  502  0.17129454726E+03  0.17650126545E+03 -0.18755751519E+03  0.30934516341E+03  0.46999998093E+01 0.  1.
</event>
<event>
 5   0  0.3211775E-03  0.4997303E+03  0.7818609E-02  0.1013849E+00
       -1   -1    0    0    0  501  0.00000000000E+00  0.00000000000E+00  0.17035690950E+03  0.17035690957E+03  0.50400001928E-02 0.  1.
        1   -1    0    0  501    0  0.00000000000E+00  0.00000000000E+00 -0.36648111993E+03  0.36648111996E+03  0.50400001928E-02 0. -1.
    10030    2    1    2    0    0  0.00000000000E+00  0.00000000000E+00 -0.19612421043E+03  0.53683802953E+03  0.49973029129E+03 0.  0.
        4    1    3    3  502    0 -0.32128798669E+02 -0.28221493183E+02 -0.36251725539E+03  0.36503299267E+03  0.12699999809E+01 0. -1.
       -4    1    3    3    0  502  0.32128798669E+02  0.28221493183E+02  0.16639304496E+03  0.17180503686E+03  0.12699999809E+01 0.  1.
</event>
<event>
 5   0  0.5095783E-03  0.5003605E+03  0.7818609E-02  0.1013685E+00
        2   -1    0    0  501    0  0.00000000000E+00  0.00000000000E+00  0.17094848032E+03  0.17094848034E+03  0.25500000920E-02 0.  1.
       -2   -1    0    0    0  501  0.00000000000E+00  0.00000000000E+00 -0.36613468441E+03  0.36613468442E+03  0.25500000920E-02 0. -1.
    10030    2    1    2    0    0  0.00000000000E+00  0.00000000000E+00 -0.19518620409E+03  0.53708316476E+03  0.50036054161E+03 0.  0.
        4    1    3    3  502    0 -0.30719928844E+01  0.18727896335E+03  0.80427349175E+02  0.20384557549E+03  0.12699999809E+01 0.  1.
       -4    1    3    3    0  502  0.30719928844E+01 -0.18727896335E+03 -0.27561355327E+03  0.33323758927E+03  0.12699999809E+01 0. -1.
</event>
<event>
 5   0  0.3057783E-03  0.5001719E+03  0.7818609E-02  0.1013734E+00
       -1   -1    0    0    0  501  0.00000000000E+00  0.00000000000E+00  0.94000451260E+02  0.94000451395E+02  0.50400001928E-02 0. -1.
        1   -1    0    0  501    0  0.00000000000E+00  0.00000000000E+00 -0.66534777947E+03  0.66534777949E+03  0.50400001928E-02 0.  1.
    10030    2    1    2    0    0  0.00000000000E+00  0.00000000000E+00 -0.57134732821E+03  0.75934823089E+03  0.50017193673E+03 0.  0.
        5    1    3    3  502    0 -0.16118606806E+02 -0.24701481467E+03 -0.33923690150E+03  0.41997606299E+03  0.46999998093E+01 0.  1.
       -5    1    3    3    0  502  0.16118606806E+02  0.24701481467E+03 -0.23211042672E+03  0.33937216790E+03  0.46999998093E+01 0. -1.
</event>
<event>
 5   0  0.4989875E-03  0.4999721E+03  0.7818609E-02  0.1013786E+00
       -2   -1    0    0    0  501  0.00000000000E+00  0.00000000000E+00  0.23367298608E+03  0.23367298610E+03  0.25500000920E-02 0. -1.
        2   -1    0    0  501    0  0.00000000000E+00  0.00000000000E+00 -0.26743799608E+03  0.26743799609E+03  0.25500000920E-02 0.  1.
    10030    2    1    2    0    0  0.00000000000E+00  0.00000000000E+00 -0.33765010000E+02  0.50111098219E+03  0.49997213979E+03 0.  0.
        2    1    3    3  502    0  0.11958446639E+03 -0.12583313604E+03  0.16341223689E+03  0.23840717669E+03  0.25500000920E-02 0. -1.
       -2    1    3    3    0  502 -0.11958446639E+03  0.12583313604E+03 -0.19717724689E+03  0.26270380550E+03  0.25500000920E-02 0.  1.
</event>
<event>
 5   0  0.5118882E-03  0.4998027E+03  0.7818609E-02  0.1013830E+00
        2   -1    0    0  501    0  0.00000000000E+00  0.00000000000E+00  0.13738487024E+04  0.13738487024E+04  0.25500000920E-02 0.  1.
       -2   -1    0    0    0  501  0.00000000000E+00  0.00000000000E+00 -0.45456743268E+02  0.45456743339E+02  0.25500000920E-02 0. -1.
    10030    2    1    2    0    0  0.00000000000E+00  0.00000000000E+00  0.13283919591E+04  0.14193054457E+04  0.49980271230E+03 0.  0.
        3    1    3    3  502    0 -0.29048720692E+02  0.96474260882E+02  0.14775014479E+02  0.10183036109E+03  0.10100000352E+00 0. -1.
       -3    1    3    3    0  502  0.29048720692E+02 -0.96474260882E+02  0.13136169446E+04  0.13174750846E+04  0.10100000352E+00 0.  1.
</event>
<event>
 5   0  0.3013734E-03  0.4999706E+03  0.7818609E-02  0.1013787E+00
       -1   -1    0    0    0  501  0.00000000000E+00  0.00000000000E+00  0.14743609296E+03  0.14743609304E+03  0.50400001928E-02 0. -1.
        1   -1    0    0  501    0  0.00000000000E+00  0.00000000000E+00 -0.42386263050E+03  0.42386263053E+03  0.50400001928E-02 0.  1.
    10030    2    1    2    0    0  0.00000000000E+00  0.00000000000E+00 -0.27642653754E+03  0.57129872357E+03  0.49997060003E+03 0.  0.
        2    1    3    3  502    0 -0.13204828765E+03 -0.99352826142E+02  0.76123680607E+02  0.18194105939E+03  0.25500000920E-02 0. -1.
       -2    1    3    3    0  502  0.13204828765E+03  0.99352826142E+02 -0.35255021815E+03  0.38935766418E+03  0.25500000920E-02 0.  1.
</event>
<event>
 5   0  0.3057783E-03  0.5034624E+03  0.7818609E-02  0.1012879E+00
       -1   -1    0    0    0  501  0.00000000000E+00  0.00000000000E+00  0.74908275381E+03  0.74908275383E+03  0.50400001928E-02 0.  1.
        1   -1    0    0  501    0  0.00000000000E+00  0.00000000000E+00 -0.84594913919E+02  0.84594914069E+02  0.50400001928E-02 0. -1.
    10030    2    1    2    0    0  0.00000000000E+00  0.00000000000E+00  0.66448783989E+03  0.83367766790E+03  0.50346237653E+03 0.  0.
        5    1    3    3  502    0  0.31801752986E+02 -0.38038618836E+02 -0.76355514391E+02  0.91162177420E+02  0.46999998093E+01 0. -1.
       -5    1    3    3    0  502 -0.31801752986E+02  0.38038618836E+02  0.74084335428E+03  0.74251549047E+03  0.46999998093E+01 0.  1.
</event>
<event>
 5   0  0.5118882E-03  0.4999981E+03  0.7818609E-02  0.1013779E+00
        2   -1    0    0  501    0  0.00000000000E+00  0.00000000000E+00  0.11448031611E+03  0.11448031614E+03  0.25500000920E-02 0. -1.
       -2   -1    0    0    0  501  0.00000000000E+00  0.00000000000E+00 -0.54594115649E+03  0.54594115649E+03  0.25500000920E-02 0.  1.
    10030    2    1    2    0    0  0.00000000000E+00  0.00000000000E+00 -0.43146084038E+03  0.66042147263E+03  0.49999806473E+03 0.  0.
        3    1    3    3  502    0 -0.61949768896E+02 -0.19913799655E+03 -0.33636338804E+02  0.21124660713E+03  0.10100000352E+00 0. -1.
       -3    1    3    3    0  502  0.61949768896E+02  0.19913799655E+03 -0.39782450158E+03  0.44917486549E+03  0.10100000352E+00 0.  1.
</event>
<event>
 5   0  0.5118882E-03  0.5000971E+03  0.7818609E-02  0.1013754E+00
       -2   -1    0    0    0  501  0.00000000000E+00  0.00000000000E+00  0.47167687184E+03  0.47167687185E+03  0.25500000920E-02 0.  1.
        2   -1    0    0  501    0  0.00000000000E+00  0.00000000000E+00 -0.13255743751E+03  0.13255743754E+03  0.25500000920E-02 0. -1.
    10030    2    1    2    0    0  0.00000000000E+00  0.00000000000E+00  0.33911943433E+03  0.60423430939E+03  0.50009710047E+03 0.  0.
        3    1    3    3  502    0 -0.20500476247E+03 -0.89361458875E+02  0.30470836682E+03  0.37796775256E+03  0.10100000352E+00 0.  1.
       -3    1    3    3    0  502  0.20500476247E+03  0.89361458875E+02  0.34411067514E+02  0.22626655683E+03  0.10100000352E+00 0. -1.
</event>
<event>
 5   0  0.4989875E-03  0.4998406E+03  0.7818609E-02  0.1013821E+00
        2   -1    0    0  501    0  0.00000000000E+00  0.00000000000E+00  0.12870136021E+04  0.12870136021E+04  0.25500000920E-02 0. -1.
       -2   -1    0    0    0  501  0.00000000000E+00  0.00000000000E+00 -0.48531072406E+02  0.48531072473E+02  0.25500000920E-02 0.  1.
    10030    2    1    2    0    0  0.00000000000E+00  0.00000000000E+00  0.12384825297E+04  0.13355446745E+04  0.49984057601E+03 0.  0.
        2    1    3    3  502    0 -0.90931319702E+02  0.22823522416E+03  0.74169455607E+03  0.78132620394E+03  0.25500000920E-02 0. -1.
       -2    1    3    3    0  502  0.90931319702E+02 -0.22823522416E+03  0.49678797358E+03  0.55421847059E+03  0.25500000920E-02 0.  1.
</event>
<event>
 5   0  0.2863538E-03  0.4991535E+03  0.7818609E-02  0.1014000E+00
       -1   -1    0    0    0  501  0.00000000000E+00  0.00000000000E+00  0.82202065309E+02  0.82202065463E+02  0.50400001928E-02 0.  1.
        1   -1    0    0  501    0  0.00000000000E+00  0.00000000000E+00 -0.75774934707E+03  0.75774934709E+03  0.50400001928E-02 0. -1.
    10030    2    1    2    0    0  0.00000000000E+00  0.00000000000E+00 -0.67554728176E+03  0.83995141255E+03  0.49915352904E+03 0.  0.
        1    1    3    3  502    0  0.22063474306E+03 -0.43890370770E+02 -0.51965493740E+03  0.56625728118E+03  0.50400001928E-02 0. -1.
       -1    1    3    3    0  502 -0.22063474306E+03  0.43890370770E+02 -0.15589234436E+03  0.27369413137E+03  0.50400001928E-02 0.  1.
</event>
<event>
 5   0  0.5095783E-03  0.4999071E+03  0.7818609E-02  0.1013803E+00
        2   -1    0    0  501    0  0.00000000000E+00  0.00000000000E+00  0.13945151891E+04  0.13945151891E+04  0.25500000920E-02 0. -1.
       -2   -1    0    0    0  501  0.00000000000E+00  0.00000000000E+00 -0.44801786155E+02  0.44801786228E+02  0.25500000920E-02 0.  1.
    10030    2    1    2    0    0  0.00000000000E+00  0.00000000000E+00  0.13497134030E+04  0.14393169754E+04  0.49990707676E+03 0.  0.
        4    1    3    3  502    0  0.24946035327E+03 -0.29537015692E+01  0.71908417189E+03  0.76113261089E+03  0.12699999809E+01 0.  1.
       -4    1    3    3    0  502 -0.24946035327E+03  0.29537015692E+01  0.63062923110E+03  0.67818436448E+03  0.12699999809E+01 0. -1.
</event>
<event>
 5   0  0.5118882E-03  0.4999663E+03  0.7818609E-02  0.1013788E+00
        2   -1    0    0  501    0  0.00000000000E+00  0.00000000000E+00  0.20474653023E+03  0.20474653025E+03  0.25500000920E-02 0.  1.
       -2   -1    0    0    0  501  0.00000000000E+00  0.00000000000E+00 -0.30521429313E+03  0.30521429314E+03  0.25500000920E-02 0. -1.
    10030    2    1    2    0    0  0.00000000000E+00  0.00000000000E+00 -0.10046776290E+03  0.50996082339E+03  0.49996626887E+03 0.  0.
        3    1    3    3  502    0  0.15996185937E+03  0.13966902497E+03 -0.18476565157E+03  0.28148461626E+03  0.10100000352E+00 0. -1.
       -3    1    3    3    0  502 -0.15996185937E+03 -0.13966902497E+03  0.84297888676E+02  0.22847620713E+03  0.10100000352E+00 0.  1.
</event>
<event>
 5   0  0.2005125E-03  0.4999799E+03  0.7818609E-02  0.1013784E+00
       -4   -1    0    0    0  501  0.00000000000E+00  0.00000000000E+00  0.12073123619E+03  0.12073791571E+03  0.12699999809E+01 0. -1.
        4   -1    0    0  501    0  0.00000000000E+00  0.00000000000E+00 -0.51761545640E+03  0.51761701441E+03  0.12699999809E+01 0.  1.
    10030    2    1    2    0    0  0.00000000000E+00  0.00000000000E+00 -0.39688422022E+03  0.63835493012E+03  0.49997993215E+03 0.  0.
        3    1    3    3  502    0 -0.17125055775E+03 -0.59733609205E+01  0.33958357935E+02  0.17468719142E+03  0.10100000352E+00 0. -1.
       -3    1    3    3    0  502  0.17125055775E+03  0.59733609205E+01 -0.43084257815E+03  0.46366773871E+03  0.10100000352E+00 0.  1.
</event>
<event>
 5   0  0.2863538E-03  0.5001016E+03  0.7818609E-02  0.1013752E+00
       -1   -1    0    0    0  501  0.00000000000E+00  0.00000000000E+00  0.11416482053E+03  0.11416482064E+03  0.50400001928E-02 0. -1.
        1   -1    0    0  501    0  0.00000000000E+00  0.00000000000E+00 -0.54767669756E+03  0.54767669759E+03  0.50400001928E-02 0.  1.
    10030    2    1    2    0    0  0.00000000000E+00  0.00000000000E+00 -0.43351187703E+03  0.66184151823E+03  0.50010163739E+03 0.  0.
        1    1    3    3  502    0 -0.18754681335E+03 -0.34080865642E+02 -0.25831438541E+01  0.19063573972E+03  0.50400001928E-02 0. -1.
       -1    1    3    3    0  502  0.18754681335E+03  0.34080865642E+02 -0.43092873318E+03  0.47120577851E+03  0.50400001928E-02 0.  1.
</event>
<event>
 5   0  0.4978779E-03  0.4994796E+03  0.7818609E-02  0.1013915E+00
       -2   -1    0    0    0  501  0.00000000000E+00  0.00000000000E+00  0.17221641703E+03  0.17221641704E+03  0.25500000920E-02 0.  1.
        2   -1    0    0  501    0  0.00000000000E+00  0.00000000000E+00 -0.36216045233E+03  0.36216045234E+03  0.25500000920E-02 0. -1.
    10030    2    1    2    0    0  0.00000000000E+00  0.00000000000E+00 -0.18994403530E+03  0.53437686938E+03  0.49947963120E+03 0.  0.
        1    1    3    3  502    0 -0.18151006531E+01  0.10589191535E+03  0.14700153397E+03  0.18117903671E+03  0.50400001928E-02 0.  1.
       -1    1    3    3    0  502  0.18151006531E+01 -0.10589191535E+03 -0.33694556928E+03  0.35319783267E+03  0.50400001928E-02 0. -1.
</event>
<event>
 5   0  0.3057783E-03  0.4999708E+03  0.7818609E-02  0.1013787E+00
        1   -1    0    0  501    0  0.00000000000E+00  0.00000000000E+00  0.40952783018E+03  0.40952783021E+03  0.50400001928E-02 0. -1.
       -1   -1    0    0    0  501  0.00000000000E+00  0.00000000000E+00 -0.15259697587E+03  0.15259697595E+03  0.50400001928E-02 0.  1.
    10030    2    1    2    0    0  0.00000000000E+00  0.00000000000E+00  0.25693085431E+03  0.56212480616E+03  0.49997083296E+03 0.  0.
        5    1    3    3  502    0  0.21693545425E+03 -0.56205791522E+02  0.40238148423E+01  0.22418377148E+03  0.46999998093E+01 0.  1.
       -5    1    3    3    0  502 -0.21693545425E+03  0.56205791522E+02  0.25290703947E+03  0.33794103468E+03  0.46999998093E+01 0. -1.
</event>
<event>
 5   0  0.3211775E-03  0.4996307E+03  0.7818609E-02  0.1013875E+00
        1   -1    0    0  501    0  0.00000000000E+00  0.00000000000E+00  0.48542334629E+02  0.48542334891E+02  0.50400001928E-02 0.  1.
       -1   -1    0    0    0  501  0.00000000000E+00  0.00000000000E+00 -0.12856347318E+04  0.12856347318E+04  0.50400001928E-02 0. -1.
    10030    2    1    2    0    0  0.00000000000E+00  0.00000000000E+00 -0.12370923972E+04  0.13341770667E+04  0.49963070980E+03 0.  0.
        4    1    3    3  502    0 -0.53950299922E+02  0.16406331782E+02 -0.12684089328E+04  0.12696624103E+04  0.12699999809E+01 0. -1.
       -4    1    3    3    0  502  0.53950299922E+02 -0.16406331782E+02  0.31316535600E+02  0.64514656366E+02  0.12699999809E+01 0.  1.
</event>
<event>
 5   0  0.5118882E-03  0.5002177E+03  0.7818609E-02  0.1013722E+00
       -2   -1    0    0    0  501  0.00000000000E+00  0.00000000000E+00  0.35550756987E+03  0.35550756988E+03  0.25500000920E-02 0. -1.
        2   -1    0    0  501    0  0.00000000000E+00  0.00000000000E+00 -0.17595808301E+03  0.17595808303E+03  0.25500000920E-02 0.  1.
    10030    2    1    2    0    0  0.00000000000E+00  0.00000000000E+00  0.17954948687E+03  0.53146565291E+03  0.50021767461E+03 0.  0.
        3    1    3    3  502    0  0.11333260578E+03  0.64079393554E+02  0.31666586671E+03  0.34238535242E+03  0.10100000352E+00 0. -1.
       -3    1    3    3    0  502 -0.11333260578E+03 -0.64079393554E+02 -0.13711637984E+03  0.18908030049E+03  0.10100000352E+00 0.  1.
</event>
<event>
 5   0  0.3211775E-03  0.4993709E+03  0.7818609E-02  0.1013943E+00
        1   -1    0    0  501    0  0.00000000000E+00  0.00000000000E+00  0.40763242886E+03  0.40763242889E+03  0.50400001928E-02 0.  1.
       -1   -1    0    0    0  501  0.00000000000E+00  0.00000000000E+00 -0.15293881102E+03  0.15293881111E+03  0.50400001928E-02 0. -1.
    10030    2    1    2    0    0  0.00000000000E+00  0.00000000000E+00  0.25469361783E+03  0.56057123999E+03  0.49937088035E+03 0.  0.
        4    1    3    3  502    0  0.10769669817E+03  0.99325874518E+02  0.35430564498E+03  0.38340358776E+03  0.12699999809E+01 0.  1.
       -4    1    3    3    0  502 -0.10769669817E+03 -0.99325874518E+02 -0.99612027146E+02  0.17716765223E+03  0.12699999809E+01 0. -1.
</event>
<event>
 5   0  0.2863538E-03  0.5001141E+03  0.7818609E-02  0.1013749E+00
       -1   -1    0    0    0  501  0.00000000000E+00  0.00000000000E+00  0.15456931071E+03  0.15456931079E+03  0.50400001928E-02 0.  1.
        1   -1    0    0  501    0  0.00000000000E+00  0.00000000000E+00 -0.40453387907E+03  0.40453387910E+03  0.50400001928E-02 0. -1.
    10030    2    1    2    0    0  0.00000000000E+00  0.00000000000E+00 -0.24996456836E+03  0.55910318989E+03  0.50011407849E+03 0.  0.
        1    1    3    3  502    0  0.20002050473E+03  0.31421371609E+02  0.39067378188E+02  0.20620806233E+03  0.50400001928E-02 0.  1.
       -1    1    3    3    0  502 -0.20002050473E+03 -0.31421371609E+02 -0.28903194655E+03  0.35289512756E+03  0.50400001928E-02 0. -1.
</event>
<event>
 5   0  0.3013734E-03  0.5002646E+03  0.7818609E-02  0.1013710E+00
        1   -1    0    0  501    0  0.00000000000E+00  0.00000000000E+00  0.85107067794E+03  0.85107067795E+03  0.50400001928E-02 0.  1.
       -1   -1    0    0    0  501  0.00000000000E+00  0.00000000000E+00 -0.73514642674E+02  0.73514642847E+02  0.50400001928E-02 0. -1.
    10030    2    1    2    0    0  0.00000000000E+00  0.00000000000E+00  0.77755603526E+03  0.92458532080E+03  0.50026455747E+03 0.  0.
        2    1    3    3  502    0 -0.15479799514E+03  0.16680878294E+03  0.19689886954E+03  0.30092649301E+03  0.25500000920E-02 0. -1.
       -2    1    3    3    0  502  0.15479799514E+03 -0.16680878294E+03  0.58065716573E+03  0.62365882779E+03  0.25500000920E-02 0.  1.
</event>
<event>
 5   0  0.4978779E-03  0.5002356E+03  0.7818609E-02  0.1013717E+00
        2   -1    0    0  501    0  0.00000000000E+00  0.00000000000E+00  0.10265386917E+04  0.10265386917E+04  0.25500000920E-02 0. -1.
       -2   -1    0    0    0  501  0.00000000000E+00  0.00000000000E+00 -0.60941595017E+02  0.60941595070E+02  0.25500000920E-02 0.  1.
    10030    2    1    2    0    0  0.00000000000E+00  0.00000000000E+00  0.96559709666E+03  0.10874802867E+04  0.50023556550E+03 0.  0.
        1    1    3    3  502    0  0.83176881737E+02  0.87372571480E+02  0.95911661478E+03  0.96667318194E+03  0.50400001928E-02 0. -1.
       -1    1    3    3    0  502 -0.83176881737E+02 -0.87372571480E+02  0.64804818800E+01  0.12080710481E+03  0.50400001928E-02 0.  1.
</event>
<event>
 5   0  0.3057783E-03  0.5001603E+03  0.7818609E-02  0.1013737E+00
       -1   -1    0    0    0  501  0.00000000000E+00  0.00000000000E+00  0.22924039957E+03  0.22924039963E+03  0.50400001928E-02 0. -1.
        1   -1    0    0  501    0  0.00000000000E+00  0.00000000000E+00 -0.27281443318E+03  0.27281443323E+03  0.50400001928E-02 0.  1.
    10030    2    1    2    0    0  0.00000000000E+00  0.00000000000E+00 -0.43574033608E+02  0.50205483286E+03  0.50016033308E+03 0.  0.
        5    1    3    3  502    0  0.14841406898E+03  0.13754896239E+03  0.12564185766E+03  0.23823186042E+03  0.46999998093E+01 0. -1.
       -5    1    3    3    0  502 -0.14841406898E+03 -0.13754896239E+03 -0.16921589127E+03  0.26382297243E+03  0.46999998093E+01 0.  1.
</event>
<event>
 5   0  0.5118882E-03  0.5000001E+03  0.7818609E-02  0.1013779E+00
        2   -1    0    0  501    0  0.00000000000E+00  0.00000000000E+00  0.18714735994E+04  0.18714735994E+04  0.25500000920E-02 0. -1.
       -2   -1    0    0    0  501  0.00000000000E+00  0.00000000000E+00 -0.33396150872E+02  0.33396150970E+02  0.25500000920E-02 0.  1.
    10030    2    1    2    0    0  0.00000000000E+00  0.00000000000E+00  0.18380774486E+04  0.19048697504E+04  0.50000005910E+03 0.  0.
        3    1    3    3  502    0  0.13187078020E+03 -0.21090179456E+03  0.82337444298E+03  0.86012496369E+03  0.10100000352E+00 0.  1.
       -3    1    3    3    0  502 -0.13187078020E+03  0.21090179456E+03  0.10147030056E+04  0.10447447867E+04  0.10100000352E+00 0. -1.
</event>
<event>
 5   0  0.4989875E-03  0.4996574E+03  0.7818609E-02  0.1013868E+00
       -2   -1    0    0    0  501  0.00000000000E+00  0.00000000000E+00  0.12751645560E+03  0.12751645562E+03  0.25500000920E-02 0. -1.
        2   -1    0    0  501    0  0.00000000000E+00  0.00000000000E+00 -0.48946138033E+03  0.48946138033E+03  0.25500000920E-02 0.  1.
    10030    2    1    2    0    0  0.00000000000E+00  0.00000000000E+00 -0.36194492473E+03  0.61697783596E+03  0.49965740415E+03 0.  0.
        2    1    3    3  502    0  0.21860679625E+03  0.10091254700E+03 -0.26327092770E+03  0.35676862935E+03  0.25500000920E-02 0.  1.
       -2    1    3    3    0  502 -0.21860679625E+03 -0.10091254700E+03 -0.98673997025E+02  0.26020920661E+03  0.25500000920E-02 0. -1.
</event>
<event>
 5   0  0.4978779E-03  0.4999836E+03  0.7818609E-02  0.1013783E+00
       -2   -1    0    0    0  501  0.00000000000E+00  0.00000000000E+00  0.88009126712E+02  0.88009126749E+02  0.25500000920E-02 0.  1.
        2   -1    0    0  501    0  0.00000000000E+00  0.00000000000E+00 -0.71010709209E+03  0.71010709210E+03  0.25500000920E-02 0. -1.
    10030    2    1    2    0    0  0.00000000000E+00  0.00000000000E+00 -0.62209796538E+03  0.79811621885E+03  0.49998361999E+03 0.  0.
        1    1    3    3  502    0  0.11120411696E+03  0.21254017456E+03 -0.19866981643E+03  0.31146328422E+03  0.50400001928E-02 0.  1.
       -1    1    3    3    0  502 -0.11120411696E+03 -0.21254017456E+03 -0.42342814896E+03  0.48665293463E+03  0.50400001928E-02 0. -1.
</event>
<event>
 5   0  0.5118882E-03  0.4999845E+03  0.7818609E-02  0.1013783E+00
       -2   -1    0    0    0  501  0.00000000000E+00  0.00000000000E+00  0.66257112276E+02  0.66257112325E+02  0.25500000920E-02 0. -1.
        2   -1    0    0  501    0  0.00000000000E+00  0.00000000000E+00 -0.94323661844E+03  0.94323661844E+03  0.25500000920E-02 0.  1.
    10030    2    1    2    0    0  0.00000000000E+00  0.00000000000E+00 -0.87697950617E+03  0.10094937308E+04  0.49998453799E+03 0.  0.
        3    1    3    3  502    0 -0.15839458713E+03  0.78228800420E+02 -0.81354502447E+02  0.19449204538E+03  0.10100000352E+00 0. -1.
       -3    1    3    3    0  502  0.15839458713E+03 -0.78228800420E+02 -0.79562500372E+03  0.81500168539E+03  0.10100000352E+00 0.  1.
</event>
<event>
 5   0  0.2863538E-03  0.5001558E+03  0.7818609E-02  0.1013738E+00
        1   -1    0    0  501    0  0.00000000000E+00  0.00000000000E+00  0.20674055400E+03  0.20674055406E+03  0.50400001928E-02 0. -1.
       -1   -1    0    0    0  501  0.00000000000E+00  0.00000000000E+00 -0.30249965557E+03  0.30249965562E+03  0.50400001928E-02 0.  1.
    10030    2    1    2    0    0  0.00000000000E+00  0.00000000000E+00 -0.95759101578E+02  0.50924020967E+03  0.50015576135E+03 0.  0.
        1    1    3    3  502    0  0.91845190849E+02 -0.15421249641E+03 -0.22517423436E+03  0.28795914463E+03  0.50400001928E-02 0.  1.
       -1    1    3    3    0  502 -0.91845190849E+02  0.15421249641E+03  0.12941513278E+03  0.22128106505E+03  0.50400001928E-02 0. -1.
</event>
<event>
 5   0  0.3057783E-03  0.5003727E+03  0.7818609E-02  0.1013682E+00
        1   -1    0    0  501    0  0.00000000000E+00  0.00000000000E+00  0.47926978260E+03  0.47926978263E+03  0.50400001928E-02 0. -1.
       -1   -1    0    0    0  501  0.00000000000E+00  0.00000000000E+00 -0.13060121927E+03  0.13060121937E+03  0.50400001928E-02 0.  1.
    10030    2    1    2    0    0  0.00000000000E+00  0.00000000000E+00  0.34866856333E+03  0.60987100200E+03  0.50037273309E+03 0.  0.
        5    1    3    3  502    0  0.20284317205E+03  0.10894095361E+03  0.29349134128E+03  0.37305862974E+03  0.46999998093E+01 0. -1.
       -5    1    3    3    0  502 -0.20284317205E+03 -0.10894095361E+03  0.55177222048E+02  0.23681237225E+03  0.46999998093E+01 0.  1.
</event>
<event>
 5   0  0.3057783E-03  0.4999182E+03  0.7818609E-02  0.1013800E+00
        1   -1    0    0  501    0  0.00000000000E+00  0.00000000000E+00  0.86995696407E+03  0.86995696409E+03  0.50400001928E-02 0. -1.
       -1   -1    0    0    0  501  0.00000000000E+00  0.00000000000E+00 -0.71819140495E+02  0.71819140672E+02  0.50400001928E-02 0.  1.
    10030    2    1    2    0    0  0.00000000000E+00  0.00000000000E+00  0.79813782358E+03  0.94177610476E+03  0.49991823938E+03 0.  0.
        5    1    3    3  502    0  0.14036469237E+03  0.66767589451E+02  0.30403120732E+02  0.15845061570E+03  0.46999998093E+01 0.  1.
       -5    1    3    3    0  502 -0.14036469237E+03 -0.66767589451E+02  0.76773470284E+03  0.78332548906E+03  0.46999998093E+01 0. -1.
</event>
<event>
 5   0  0.5095783E-03  0.4999361E+03  0.7818609E-02  0.1013796E+00
        2   -1    0    0  501    0  0.00000000000E+00  0.00000000000E+00  0.79709346973E+03  0.79709346973E+03  0.25500000920E-02 0.  1.
       -2   -1    0    0    0  501  0.00000000000E+00  0.00000000000E+00 -0.78389826349E+02  0.78389826390E+02  0.25500000920E-02 0. -1.
    10030    2    1    2    0    0  0.00000000000E+00  0.00000000000E+00  0.71870364338E+03  0.87548329612E+03  0.49993607070E+03 0.  0.
        4    1    3    3  502    0  0.59465312882E+02 -0.19226601705E+03  0.61897761644E+03  0.65087421773E+03  0.12699999809E+01 0.  1.
       -4    1    3    3    0  502 -0.59465312882E+02  0.19226601705E+03  0.99726026937E+02  0.22460907839E+03  0.12699999809E+01 0. -1.
</event>
<event>
 5   0  0.4989875E-03  0.5003979E+03  0.7818609E-02  0.1013675E+00
        2   -1    0    0  501    0  0.00000000000E+00  0.00000000000E+00  0.75018833376E+03  0.75018833376E+03  0.25500000920E-02 0.  1.
       -2   -1    0    0    0  501  0.00000000000E+00  0.00000000000E+00 -0.83445072071E+02  0.83445072110E+02  0.25500000920E-02 0. -1.
    10030    2    1    2    0    0  0.00000000000E+00  0.00000000000E+00  0.66674326168E+03  0.83363340587E+03  0.50039792004E+03 0.  0.
        2    1    3    3  502    0 -0.16476854109E+02 -0.81270488203E+02  0.72662948638E+03  0.73134587540E+03  0.25500000920E-02 0.  1.
       -2    1    3    3    0  502  0.16476854109E+02  0.81270488203E+02 -0.59886224700E+02  0.10228753047E+03  0.25500000920E-02 0. -1.
</event>
<event>
 5   0  0.3013734E-03  0.4999148E+03  0.7818609E-02  0.1013801E+00
       -1   -1    0    0    0  501  0.00000000000E+00  0.00000000000E+00  0.16773072851E+03  0.16773072858E+03  0.50400001928E-02 0. -1.
        1   -1    0    0  501    0  0.00000000000E+00  0.00000000000E+00 -0.37249400179E+03  0.37249400182E+03  0.50400001928E-02 0.  1.
    10030    2    1    2    0    0  0.00000000000E+00  0.00000000000E+00 -0.20476327328E+03  0.54022473040E+03  0.49991475399E+03 0.  0.
        2    1    3    3  502    0  0.21104162344E+03 -0.10241618734E+03 -0.91019261848E+01  0.23475622956E+03  0.25500000920E-02 0. -1.
       -2    1    3    3    0  502 -0.21104162344E+03  0.10241618734E+03 -0.19566134710E+03  0.30546850084E+03  0.25500000920E-02 0.  1.
</event>
<event>
 5   0  0.2005125E-03  0.4995102E+03  0.7818609E-02  0.1013907E+00
       -3   -1    0    0    0  501  0.00000000000E+00  0.00000000000E+00  0.94363240468E+02  0.94363294520E+02  0.10100000352E+00 0.  1.
        3   -1    0    0  501    0  0.00000000000E+00  0.00000000000E+00 -0.66103685340E+03  0.66103686111E+03  0.10100000352E+00 0. -1.
    10030    2    1    2    0    0  0.00000000000E+00  0.00000000000E+00 -0.56667361293E+03  0.75540015563E+03  0.49951017161E+03 0.  0.
        5    1    3    3  502    0  0.15918969112E+03 -0.18023460244E+03 -0.38511734192E+03  0.45405211895E+03  0.46999998093E+01 0.  1.
       -5    1    3    3    0  502 -0.15918969112E+03  0.18023460244E+03 -0.18155627101E+03  0.30134803668E+03  0.46999998093E+01 0. -1.
</event>
<event>
 5   0  0.2005125E-03  0.5000261E+03  0.7818609E-02  0.1013772E+00
       -4   -1    0    0    0  501  0.00000000000E+00  0.00000000000E+00  0.52249152371E+03  0.52249306718E+03  0.12699999809E+01 0.  1.
        4   -1    0    0  501    0  0.00000000000E+00  0.00000000000E+00 -0.11962656680E+03  0.11963330801E+03  0.12699999809E+01 0. -1.
    10030    2    1    2    0    0  0.00000000000E+00  0.00000000000E+00  0.40286495691E+03  0.64212637518E+03  0.50002610752E+03 0.  0.
        4    1    3    3  502    0  0.18385644173E+01  0.75750488583E+02  0.50739062299E+03  0.51301888273E+03  0.12699999809E+01 0.  1.
       -4    1    3    3    0  502 -0.18385644173E+01 -0.75750488583E+02 -0.10452566608E+03  0.12910749246E+03  0.12699999809E+01 0. -1.
</event>
<event>
 5   0  0.4978779E-03  0.4998106E+03  0.7818609E-02  0.1013828E+00
       -2   -1    0    0    0  501  0.00000000000E+00  0.00000000000E+00  0.41011204240E+02  0.41011204319E+02  0.25500000920E-02 0. -1.
        2   -1    0    0  501    0  0.00000000000E+00  0.00000000000E+00 -0.15228195237E+04  0.15228195237E+04  0.25500000920E-02 0.  1.
    10030    2    1    2    0    0  0.00000000000E+00  0.00000000000E+00 -0.14818083195E+04  0.15638307281E+04  0.49981061442E+03 0.  0.
        1    1    3    3  502    0  0.18834228994E+03  0.13205942981E+03 -0.43529814316E+03  0.49233828273E+03  0.50400001928E-02 0.  1.
       -1    1    3    3    0  502 -0.18834228994E+03 -0.13205942981E+03 -0.10465101763E+04  0.10714924453E+04  0.50400001928E-02 0. -1.
</event>
<event>
 5   0  0.3211775E-03  0.4999568E+03  0.7818609E-02  0.1013790E+00
       -1   -1    0    0    0  501  0.00000000000E+00  0.00000000000E+00  0.13486074267E+03  0.13486074277E+03  0.50400001928E-02 0. -1.
        1   -1    0    0  501    0  0.00000000000E+00  0.00000000000E+00 -0.46336092585E+03  0.46336092587E+03  0.50400001928E-02 0.  1.
    10030    2    1    2    0    0  0.00000000000E+00  0.00000000000E+00 -0.32850018317E+03  0.59822166864E+03  0.49995679262E+03 0.  0.
        4    1    3    3  502    0 -0.16027630189E+03  0.10405704518E+03 -0.35708065787E+03  0.40499947003E+03  0.12699999809E+01 0.  1.
       -4    1    3    3    0  502  0.16027630189E+03 -0.10405704518E+03  0.28580474701E+02  0.19322219861E+03  0.12699999809E+01 0. -1.
</event>
<event>
 5   0  0.3057783E-03  0.4999571E+03  0.7818609E-02  0.1013790E+00
       -1   -1    0    0    0  501  0.00000000000E+00  0.00000000000E+00  0.47203777575E+03  0.47203777577E+03  0.50400001928E-02 0.  1.
        1   -1    0    0  501    0  0.00000000000E+00  0.00000000000E+00 -0.13238191206E+03  0.13238191216E+03  0.50400001928E-02 0. -1.
    10030    2    1    2    0    0  0.00000000000E+00  0.00000000000E+00  0.33965586368E+03  0.60441968793E+03  0.49995705158E+03 0.  0.
        5    1    3    3  502    0 -0.15326770842E+03 -0.19737387500E+03  0.17519874047E+03  0.30522798960E+03  0.46999998093E+01 0.  1.
       -5    1    3    3    0  502  0.15326770842E+03  0.19737387500E+03  0.16445712321E+03  0.29919169833E+03  0.46999998093E+01 0. -1.
</event>
<event>
 5   0  0.2863538E-03  0.5000490E+03  0.7818609E-02  0.1013766E+00
        1   -1    0    0  501    0  0.00000000000E+00  0.00000000000E+00  0.89045789207E+03  0.89045789208E+03  0.50400001928E-02 0. -1.
       -1   -1    0    0    0  501  0.00000000000E+00  0.00000000000E+00 -0.70202378510E+02  0.70202378691E+02  0.50400001928E-02 0.  1.
    10030    2    1    2    0    0  0.00000000000E+00  0.00000000000E+00  0.82025551356E+03  0.96066027078E+03  0.50004904592E+03 0.  0.
        1    1    3    3  502    0  0.20879571144E+03 -0.11980915628E+02  0.67335139285E+03  0.70508247017E+03  0.50400001928E-02 0. -1.
       -1    1    3    3    0  502 -0.20879571144E+03  0.11980915628E+02  0.14690412071E+03  0.25557780061E+03  0.50400001928E-02 0.  1.
</event>
<event>
 5   0  0.3055293E-03  0.4998129E+03  0.7818609E-02  0.1013828E+00
       -1   -1    0    0    0  501  0.00000000000E+00  0.00000000000E+00  0.96503601977E+02  0.96503602108E+02  0.50400001928E-02 0.  1.
        1   -1    0    0  501    0  0.00000000000E+00  0.00000000000E+00 -0.64715973113E+03  0.64715973115E+03  0.50400001928E-02 0. -1.
    10030    2    1    2    0    0  0.00000000000E+00  0.00000000000E+00 -0.55065612916E+03  0.74366333326E+03  0.49981294567E+03 0.  0.
        3    1    3    3  502    0  0.73796837021E+02 -0.22496545031E+03 -0.15631778683E+03  0.28370880788E+03  0.10100000352E+00 0. -1.
       -3    1    3    3    0  502 -0.73796837021E+02  0.22496545031E+03 -0.39433834233E+03  0.45995452538E+03  0.10100000352E+00 0.  1.
</event>
<event>
 5   0  0.5118882E-03  0.4999993E+03  0.7818609E-02  0.1013779E+00
       -2   -1    0    0    0  501  0.00000000000E+00  0.00000000000E+00  0.74287605497E+02  0.74287605541E+02  0.25500000920E-02 0.  1.
        2   -1    0    0  501    0  0.00000000000E+00  0.00000000000E+00 -0.84132253493E+03  0.84132253493E+03  0.25500000920E-02 0. -1.
    10030    2    1    2    0    0  0.00000000000E+00  0.00000000000E+00 -0.76703492943E+03  0.91561014047E+03  0.49999934637E+03 0.  0.
        3    1    3    3  502    0 -0.49719376062E+02 -0.17750972136E+02  0.63963493202E+02  0.82936433679E+02  0.10100000352E+00 0.  1.
       -3    1    3    3    0  502  0.49719376062E+02  0.17750972136E+02 -0.83099842263E+03  0.83267370679E+03  0.10100000352E+00 0. -1.
</event>
<event>
 5   0  0.4978779E-03  0.5000775E+03  0.7818609E-02  0.1013759E+00
        2   -1    0    0  501    0  0.00000000000E+00  0.00000000000E+00  0.17193124726E+04  0.17193124726E+04  0.25500000920E-02 0. -1.
       -2   -1    0    0    0  501  0.00000000000E+00  0.00000000000E+00 -0.36363012546E+02  0.36363012635E+02  0.25500000920E-02 0.  1.
    10030    2    1    2    0    0  0.00000000000E+00  0.00000000000E+00  0.16829494601E+04  0.17556754853E+04  0.50007751836E+03 0.  0.
        1    1    3    3  502    0 -0.69015148223E+02  0.13030054019E+03  0.15504322159E+04  0.15574278081E+04  0.50400001928E-02 0. -1.
       -1    1    3    3    0  502  0.69015148223E+02 -0.13030054019E+03  0.13251724422E+03  0.19824767715E+03  0.50400001928E-02 0.  1.
</event>
<event>
 5   0  0.3057783E-03  0.4998802E+03  0.7818609E-02  0.1013810E+00
        1   -1    0    0  501    0  0.00000000000E+00  0.00000000000E+00  0.21932974334E+03  0.21932974340E+03  0.50400001928E-02 0. -1.
       -1   -1    0    0    0  501  0.00000000000E+00  0.00000000000E+00 -0.28482256561E+03  0.28482256565E+03  0.50400001928E-02 0.  1.
    10030    2    1    2    0    0  0.00000000000E+00  0.00000000000E+00 -0.65492822270E+02  0.50415230905E+03  0.49988022660E+03 0.  0.
        5    1    3    3  502    0  0.79713430917E+02  0.20713422918E+03  0.83079096114E+02  0.23702963143E+03  0.46999998093E+01 0. -1.
       -5    1    3    3    0  502 -0.79713430917E+02 -0.20713422918E+03 -0.14857191838E+03  0.26712267762E+03  0.46999998093E+01 0.  1.
</event>
<event>
 5   0  0.5095783E-03  0.5006468E+03  0.7818609E-02  0.1013610E+00
       -2   -1    0    0    0  501  0.00000000000E+00  0.00000000000E+00  0.12878084485E+03  0.12878084488E+03  0.25500000920E-02 0. -1.
        2   -1    0    0  501    0  0.00000000000E+00  0.00000000000E+00 -0.48657715381E+03  0.48657715381E+03  0.25500000920E-02 0.  1.
    10030    2    1    2    0    0  0.00000000000E+00  0.00000000000E+00 -0.35779630895E+03  0.61535799869E+03  0.50064684943E+03 0.  0.
        4    1    3    3  502    0  0.15581656321E+03  0.18459193280E+03 -0.98231333442E+02  0.26077574809E+03  0.12699999809E+01 0.  1.
       -4    1    3    3    0  502 -0.15581656321E+03 -0.18459193280E+03 -0.25956497551E+03  0.35458225060E+03  0.12699999809E+01 0. -1.
</event>
<event>
 5   0  0.3013734E-03  0.5000062E+03  0.7818609E-02  0.1013777E+00
        1   -1    0    0  501    0  0.00000000000E+00  0.00000000000E+00  0.10804751984E+04  0.10804751984E+04  0.50400001928E-02 0.  1.
       -1   -1    0    0    0  501  0.00000000000E+00  0.00000000000E+00 -0.57846350394E+02  0.57846350614E+02  0.50400001928E-02 0. -1.
    10030    2    1    2    0    0  0.00000000000E+00  0.00000000000E+00  0.10226288480E+04  0.11383215490E+04  0.50000618815E+03 0.  0.
        2    1    3    3  502    0  0.14349777089E+03  0.14933128354E+02  0.97613953179E+03  0.98674363140E+03  0.25500000920E-02 0.  1.
       -2    1    3    3    0  502 -0.14349777089E+03 -0.14933128354E+02  0.46489316162E+02  0.15157791757E+03  0.25500000920E-02 0. -1.
</event>
<event>
 5   0  0.4889251E-03  0.5008671E+03  0.7818609E-02  0.1013553E+00
        2   -1    0    0  501    0  0.00000000000E+00  0.00000000000E+00  0.38747386415E+03  0.38747386416E+03  0.25500000920E-02 0. -1.
       -2   -1    0    0    0  501  0.00000000000E+00  0.00000000000E+00 -0.16186117152E+03  0.16186117154E+03  0.25500000920E-02 0.  1.
    10030    2    1    2    0    0  0.00000000000E+00  0.00000000000E+00  0.22561269263E+03  0.54933503570E+03  0.50086714243E+03 0.  0.
        5    1    3    3  502    0  0.87427427860E+02  0.20539494803E+03  0.23720248127E+03  0.32575719015E+03  0.46999998093E+01 0. -1.
       -5    1    3    3    0  502 -0.87427427860E+02 -0.20539494803E+03 -0.11589788641E+02  0.22357784554E+03  0.46999998093E+01 0.  1.
</event>
<event>
 5   0  0.4889251E-03  0.4999437E+03  0.7818609E-02  0.1013794E+00
       -2   -1    0    0    0  501  0.00000000000E+00  0.00000000000E+00  0.13317263395E+03  0.13317263398E+03  0.25500000920E-02 0. -1.
        2   -1    0    0  501    0  0.00000000000E+00  0.00000000000E+00 -0.46921003001E+03  0.46921003002E+03  0.25500000920E-02 0.  1.
    10030    2    1    2    0    0  0.00000000000E+00  0.00000000000E+00 -0.33603739606E+03  0.60238266400E+03  0.49994373917E+03 0.  0.
        5    1    3    3  502    0 -0.21325718937E+03 -0.86228949931E+02 -0.50272165426E+02  0.23550677536E+03  0.46999998093E+01 0. -1.
       -5    1    3    3    0  502  0.21325718937E+03  0.86228949931E+02 -0.28576523064E+03  0.36687588864E+03  0.46999998093E+01 0.  1.
</event>
<event>
 5   0  0.5118882E-03  0.4999791E+03  0.7818609E-02  0.1013784E+00
       -2   -1    0    0    0  501  0.00000000000E+00  0.00000000000E+00  0.31365544870E+03  0.31365544871E+03  0.25500000920E-02 0.  1.
        2   -1    0    0  501    0  0.00000000000E+00  0.00000000000E+00 -0.19924657263E+03  0.19924657264E+03  0.25500000920E-02 0. -1.
    10030    2    1    2    0    0  0.00000000000E+00  0.00000000000E+00  0.11440887607E+03  0.51290202135E+03  0.49997909215E+03 0.  0.
        3    1    3    3  502    0 -0.33043819495E+02 -0.48842855705E+02 -0.19200932955E+03  0.20086092551E+03  0.10100000352E+00 0. -1.
       -3    1    3    3    0  502  0.33043819495E+02  0.48842855705E+02  0.30641820562E+03  0.31204109585E+03  0.10100000352E+00 0.  1.
</event>
<event>
 5   0  0.4889251E-03  0.5004779E+03  0.7818609E-02  0.1013654E+00
        2   -1    0    0  501    0  0.00000000000E+00  0.00000000000E+00  0.29538061171E+03  0.29538061172E+03  0.25500000920E-02 0. -1.
       -2   -1    0    0    0  501  0.00000000000E+00  0.00000000000E+00 -0.21199604325E+03  0.21199604326E+03  0.25500000920E-02 0.  1.
    10030    2    1    2    0    0  0.00000000000E+00  0.00000000000E+00  0.83384568456E+02  0.50737665498E+03  0.50047785542E+03 0.  0.
        5    1    3    3  502    0  0.18338573248E+03 -0.10175095476E+03 -0.96620934471E+02  0.23095730914E+03  0.46999998093E+01 0.  1.
       -5    1    3    3    0  502 -0.18338573248E+03  0.10175095476E+03  0.18000550293E+03  0.27641934584E+03  0.46999998093E+01 0. -1.
</event>
<event>
 5   0  0.4989875E-03  0.5001324E+03  0.7818609E-02  0.1013744E+00
        2   -1    0    0  501    0  0.00000000000E+00  0.00000000000E+00  0.35920611141E+03  0.35920611142E+03  0.25500000920E-02 0.  1.
       -2   -1    0    0    0  501  0.00000000000E+00  0.00000000000E+00 -0.17408696840E+03  0.17408696842E+03  0.25500000920E-02 0. -1.
    10030    2    1    2    0    0  0.00000000000E+00  0.00000000000E+00  0.18511914302E+03  0.53329307984E+03  0.50013239436E+03 0.  0.
        2    1    3    3  502    0 -0.45432621339E+02 -0.19942398102E+03 -0.60851332518E+02  0.21339384237E+03  0.25500000920E-02 0. -1.
       -2    1    3    3    0  502  0.45432621339E+02  0.19942398102E+03  0.24597047553E+03  0.31989923746E+03  0.25500000920E-02 0.  1.
</event>
<event>
 5   0  0.4889251E-03  0.4998361E+03  0.7818609E-02  0.1013822E+00
       -2   -1    0    0    0  501  0.00000000000E+00  0.00000000000E+00  0.27103311232E+03  0.27103311233E+03  0.25500000920E-02 0.  1.
        2   -1    0    0  501    0  0.00000000000E+00  0.00000000000E+00 -0.23044801393E+03  0.23044801394E+03  0.25500000920E-02 0. -1.
    10030    2    1    2    0    0  0.00000000000E+00  0.00000000000E+00  0.40585098385E+02  0.50148112627E+03  0.49983614295E+03 0.  0.
        5    1    3    3  502    0  0.80562874035E+02  0.18752795364E+03 -0.12433401216E+03  0.23903586895E+03  0.46999998093E+01 0. -1.
       -5    1    3    3    0  502 -0.80562874035E+02 -0.18752795364E+03  0.16491911055E+03  0.26244525732E+03  0.46999998093E+01 0.  1.
</event>
<event>
 5   0  0.4989875E-03  0.4999763E+03  0.7818609E-02  0.1013785E+00
       -2   -1    0    0    0  501  0.00000000000E+00  0.00000000000E+00  0.43048820081E+02  0.43048820156E+02  0.25500000920E-02 0.  1.
        2   -1    0    0  501    0  0.00000000000E+00  0.00000000000E+00 -0.14517022342E+04  0.14517022342E+04  0.25500000920E-02 0. -1.
    10030    2    1    2    0    0  0.00000000000E+00  0.00000000000E+00 -0.14086534141E+04  0.14947510543E+04  0.49997627283E+03 0.  0.
        2    1    3    3  502    0  0.14349769932E+03 -0.10030786179E+03 -0.12377985937E+04  0.12501194405E+04  0.25500000920E-02 0. -1.
       -2    1    3    3    0  502 -0.14349769932E+03  0.10030786179E+03 -0.17085482039E+03  0.24463161386E+03  0.25500000920E-02 0.  1.
</event>
<event>
 5   0  0.5095783E-03  0.5002181E+03  0.7818609E-02  0.1013722E+00
        2   -1    0    0  501    0  0.00000000000E+00  0.00000000000E+00  0.60295366100E+03  0.60295366101E+03  0.25500000920E-02 0.  1.
       -2   -1    0    0    0  501  0.00000000000E+00  0.00000000000E+00 -0.10374682215E+03  0.10374682218E+03  0.25500000920E-02 0. -1.
    10030    2    1    2    0    0  0.00000000000E+00  0.00000000000E+00  0.49920683885E+03  0.70670048319E+03  0.50021805744E+03 0.  0.
        4    1    3    3  502    0 -0.17926871400E+03  0.24807930095E+02  0.49348874596E+03  0.52562863364E+03  0.12699999809E+01 0. -1.
       -4    1    3    3    0  502  0.17926871400E+03 -0.24807930095E+02  0.57180928866E+01  0.18107184955E+03  0.12699999809E+01 0.  1.
</event>
<event>
 5   0  0.4978779E-03  0.4999316E+03  0.7818609E-02  0.1013797E+00
       -2   -1    0    0    0  501  0.00000000000E+00  0.00000000000E+00  0.32960080835E+03  0.32960080836E+03  0.25500000920E-02 0.  1.
        2   -1    0    0  501    0  0.00000000000E+00  0.00000000000E+00 -0.18957145562E+03  0.18957145563E+03  0.25500000920E-02 0. -1.
    10030    2    1    2    0    0  0.00000000000E+00  0.00000000000E+00  0.14002935273E+03  0.51917226399E+03  0.49993161540E+03 0.  0.
        1    1    3    3  502    0 -0.11733178733E+03 -0.21594804967E+03  0.11740650316E+03  0.27236849209E+03  0.50400001928E-02 0.  1.
       -1    1    3    3    0  502  0.11733178733E+03  0.21594804967E+03  0.22622849568E+02  0.24680377190E+03  0.50400001928E-02 0. -1.
</event>
<event>
 5   0  0.2863538E-03  0.5000106E+03  0.7818609E-02  0.1013776E+00
        1   -1    0    0  501    0  0.00000000000E+00  0.00000000000E+00  0.75056560604E+02  0.75056560773E+02  0.50400001928E-02 0. -1.
       -1   -1    0    0    0  501  0.00000000000E+00  0.00000000000E+00 -0.83274077195E+03  0.83274077196E+03  0.50400001928E-02 0.  1.
    10030    2    1    2    0    0  0.00000000000E+00  0.00000000000E+00 -0.75768421135E+03  0.90779733274E+03  0.50001063309E+03 0.  0.
        1    1    3    3  502    0 -0.31480370773E+02 -0.20283439927E+03 -0.63796368889E+03  0.67017197468E+03  0.50400001928E-02 0.  1.
       -1    1    3    3    0  502  0.31480370773E+02  0.20283439927E+03 -0.11972052245E+03  0.23762535806E+03  0.50400001928E-02 0. -1.
</event>
<event>
 5   0  0.3057783E-03  0.5000308E+03  0.7818609E-02  0.1013771E+00
        1   -1    0    0  501    0  0.00000000000E+00  0.00000000000E+00  0.73724365091E+02  0.73724365264E+02  0.50400001928E-02 0.  1.
       -1   -1    0    0    0  501  0.00000000000E+00  0.00000000000E+00 -0.84785680841E+03  0.84785680842E+03  0.50400001928E-02 0. -1.
    10030    2    1    2    0    0  0.00000000000E+00  0.00000000000E+00 -0.77413244331E+03  0.92158117368E+03  0.50003081895E+03 0.  0.
        5    1    3    3  502    0 -0.20958038114E+03 -0.20523567746E+02 -0.63530006610E+03  0.66930816294E+03  0.46999998093E+01 0. -1.
       -5    1    3    3    0  502  0.20958038114E+03  0.20523567746E+02 -0.13883237721E+03  0.25227301074E+03  0.46999998093E+01 0.  1.
</event>
<event>
 5   0  0.3013734E-03  0.5001098E+03  0.7818609E-02  0.1013750E+00
       -1   -1    0    0    0  501  0.00000000000E+00  0.00000000000E+00  0.16805080086E+03  0.16805080093E+03  0.50400001928E-02 0. -1.
        1   -1    0    0  501    0  0.00000000000E+00  0.00000000000E+00 -0.37207465055E+03  0.37207465058E+03  0.50400001928E-02 0.  1.
    10030    2    1    2    0    0  0.00000000000E+00  0.00000000000E+00 -0.20402384969E+03  0.54012545151E+03  0.50010976008E+03 0.  0.
        2    1    3    3  502    0 -0.99218891230E+01  0.16465369061E+03 -0.30498029064E+03  0.34673081692E+03  0.25500000920E-02 0.  1.
       -2    1    3    3    0  502  0.99218891230E+01 -0.16465369061E+03  0.10095644095E+03  0.19339463460E+03  0.25500000920E-02 0. -1.
</event>
<event>
 5   0  0.3057783E-03  0.4999818E+03  0.7818609E-02  0.1013784E+00
        1   -1    0    0  501    0  0.00000000000E+00  0.00000000000E+00  0.11888896733E+04  0.11888896733E+04  0.50400001928E-02 0.  1.
       -1   -1    0    0    0  501  0.00000000000E+00  0.00000000000E+00 -0.52566222415E+02  0.52566222657E+02  0.50400001928E-02 0. -1.
    10030    2    1    2    0    0  0.00000000000E+00  0.00000000000E+00  0.11363234509E+04  0.12414558959E+04  0.49998175626E+03 0.  0.
        5    1    3    3  502    0 -0.54807766103E+02 -0.17717917613E+03  0.15210507428E+03  0.23990497139E+03  0.46999998093E+01 0. -1.
       -5    1    3    3    0  502  0.54807766103E+02  0.17717917613E+03  0.98421837657E+03  0.10015509245E+04  0.46999998093E+01 0.  1.
</event>
<event>
 5   0  0.5118882E-03  0.5000647E+03  0.7818609E-02  0.1013762E+00
       -2   -1    0    0    0  501  0.00000000000E+00  0.00000000000E+00  0.83302966497E+03  0.83302966498E+03  0.25500000920E-02 0. -1.
        2   -1    0    0  501    0  0.00000000000E+00  0.00000000000E+00 -0.75046757177E+02  0.75046757220E+02  0.25500000920E-02 0.  1.
    10030    2    1    2    0    0  0.00000000000E+00  0.00000000000E+00  0.75798290780E+03  0.90807642220E+03  0.50006469585E+03 0.  0.
        3    1    3    3  502    0 -0.18388708267E+03  0.11832213276E+03  0.59917161689E+03  0.63782538595E+03  0.10100000352E+00 0. -1.
       -3    1    3    3    0  502  0.18388708267E+03 -0.11832213276E+03  0.15881129091E+03  0.27025103625E+03  0.10100000352E+00 0.  1.
</event>
<event>
 5   0  0.5095783E-03  0.4997532E+03  0.7818609E-02  0.1013843E+00
        2   -1    0    0  501    0  0.00000000000E+00  0.00000000000E+00  0.86864753147E+03  0.86864753148E+03  0.25500000920E-02 0.  1.
       -2   -1    0    0    0  501  0.00000000000E+00  0.00000000000E+00 -0.71879915180E+02  0.71879915225E+02  0.25500000920E-02 0. -1.
    10030    2    1    2    0    0  0.00000000000E+00  0.00000000000E+00  0.79676761629E+03  0.94052744670E+03  0.49975318271E+03 0.  0.
        4    1    3    3  502    0 -0.97954581671E+01 -0.19209454073E+03  0.98206287122E+02  0.21596840350E+03  0.12699999809E+01 0. -1.
       -4    1    3    3    0  502  0.97954581671E+01  0.19209454073E+03  0.69856132917E+03  0.72455904321E+03  0.12699999809E+01 0.  1.
</event>
<event>
 5   0  0.3211775E-03  0.5002628E+03  0.7818609E-02  0.1013710E+00
        1   -1    0    0  501    0  0.00000000000E+00  0.00000000000E+00  0.42665841715E+03  0.42665841718E+03  0.50400001928E-02 0. -1.
       -1   -1    0    0    0  501  0.00000000000E+00  0.00000000000E+00 -0.14664124166E+03  0.14664124174E+03  0.50400001928E-02 0.  1.
    10030    2    1    2    0    0  0.00000000000E+00  0.00000000000E+00  0.28001717549E+03  0.57329965893E+03  0.50026281128E+03 0.  0.
        4    1    3    3  502    0 -0.13694878983E+03  0.20640612537E+03  0.17980039372E+03  0.30608537062E+03  0.12699999809E+01 0. -1.
       -4    1    3    3    0  502  0.13694878983E+03 -0.20640612537E+03  0.10021678177E+03  0.26721428830E+03  0.12699999809E+01 0.  1.
</event>
<event>
 5   0  0.3013734E-03  0.5001219E+03  0.7818609E-02  0.1013747E+00
        1   -1    0    0  501    0  0.00000000000E+00  0.00000000000E+00  0.84572133423E+03  0.84572133425E+03  0.50400001928E-02 0.  1.
       -1   -1    0    0    0  501  0.00000000000E+00  0.00000000000E+00 -0.73937455797E+02  0.73937455968E+02  0.50400001928E-02 0. -1.
    10030    2    1    2    0    0  0.00000000000E+00  0.00000000000E+00  0.77178387844E+03  0.91965879022E+03  0.50012192054E+03 0.  0.
        2    1    3    3  502    0  0.83827108815E+02 -0.24574884406E+02 -0.44967216518E+02  0.98249476760E+02  0.25500000920E-02 0. -1.
       -2    1    3    3    0  502 -0.83827108815E+02  0.24574884406E+02  0.81675109496E+03  0.82140931346E+03  0.25500000920E-02 0.  1.
</event>
<event>
 5   0  0.3013734E-03  0.4999881E+03  0.7818609E-02  0.1013782E+00
        1   -1    0    0  501    0  0.00000000000E+00  0.00000000000E+00  0.68944970636E+03  0.68944970637E+03  0.50400001928E-02 0. -1.
       -1   -1    0    0    0  501  0.00000000000E+00  0.00000000000E+00 -0.90647696040E+02  0.90647696180E+02  0.50400001928E-02 0.  1.
    10030    2    1    2    0    0  0.00000000000E+00  0.00000000000E+00  0.59880201032E+03  0.78009740256E+03  0.49998810977E+03 0.  0.
        2    1    3    3  502    0 -0.14440008005E+03 -0.20365475380E+03  0.31976699912E+03  0.40568161851E+03  0.25500000920E-02 0. -1.
       -2    1    3    3    0  502  0.14440008005E+03  0.20365475380E+03  0.27903501120E+03  0.37441578405E+03  0.25500000920E-02 0.  1.
</event>
<event>
 5   0  0.4989875E-03  0.4998946E+03  0.7818609E-02  0.1013806E+00
        2   -1    0    0  501    0  0.00000000000E+00  0.00000000000E+00  0.68235492701E+03  0.68235492701E+03  0.25500000920E-02 0. -1.
       -2   -1    0    0    0  501  0.00000000000E+00  0.00000000000E+00 -0.91555949034E+02  0.91555949070E+02  0.25500000920E-02 0.  1.
    10030    2    1    2    0    0  0.00000000000E+00  0.00000000000E+00  0.59079897797E+03  0.77391087608E+03  0.49989460063E+03 0.  0.
        2    1    3    3  502    0 -0.19742441907E+03  0.82617748731E+02  0.95505095006E+02  0.23435724190E+03  0.25500000920E-02 0.  1.
       -2    1    3    3    0  502  0.19742441907E+03 -0.82617748731E+02  0.49529388297E+03  0.53955363418E+03  0.25500000920E-02 0. -1.
</event>
<event>
 5   0  0.3211775E-03  0.4999787E+03  0.7818609E-02  0.1013784E+00
        1   -1    0    0  501    0  0.00000000000E+00  0.00000000000E+00  0.82491454111E+03  0.82491454113E+03  0.50400001928E-02 0. -1.
       -1   -1    0    0    0  501  0.00000000000E+00  0.00000000000E+00 -0.75758976266E+02  0.75758976434E+02  0.50400001928E-02 0.  1.
    10030    2    1    2    0    0  0.00000000000E+00  0.00000000000E+00  0.74915556485E+03  0.90067351756E+03  0.49997872444E+03 0.  0.
        4    1    3    3  502    0 -0.20076959725E+03 -0.10496949324E+02  0.10693173952E+03  0.22771611041E+03  0.12699999809E+01 0.  1.
       -4    1    3    3    0  502  0.20076959725E+03  0.10496949324E+02  0.64222382533E+03  0.67295740716E+03  0.12699999809E+01 0. -1.
</event>
<event>
 5   0  0.3013734E-03  0.4998935E+03  0.7818609E-02  0.1013807E+00
       -1   -1    0    0    0  501  0.00000000000E+00  0.00000000000E+00  0.15435364166E+03  0.15435364174E+03  0.50400001928E-02 0. -1.
        1   -1    0    0  501    0  0.00000000000E+00  0.00000000000E+00 -0.40474189016E+03  0.40474189019E+03  0.50400001928E-02 0.  1.
    10030    2    1    2    0    0  0.00000000000E+00  0.00000000000E+00 -0.25038824850E+03  0.55909553193E+03  0.49989352750E+03 0.  0.
        2    1    3    3  502    0 -0.12727573403E+03 -0.11651196634E+03 -0.32743889302E+03  0.37012211423E+03  0.25500000920E-02 0.  1.
       -2    1    3    3    0  502  0.12727573403E+03  0.11651196634E+03  0.77050644520E+02  0.18897341770E+03  0.25500000920E-02 0. -1.
</event>
<event>
 5   0  0.3055293E-03  0.5000205E+03  0.7818609E-02  0.1013774E+00
       -1   -1    0    0    0  501  0.00000000000E+00  0.00000000000E+00  0.21862734441E+03  0.21862734447E+03  0.50400001928E-02 0.  1.
        1   -1    0    0  501    0  0.00000000000E+00  0.00000000000E+00 -0.28589803243E+03  0.28589803247E+03  0.50400001928E-02 0. -1.
    10030    2    1    2    0    0  0.00000000000E+00  0.00000000000E+00 -0.67270688017E+02  0.50452537694E+03  0.50002051009E+03 0.  0.
        3    1    3    3  502    0 -0.40224406277E+02  0.24382208669E+03 -0.71896689188E+02  0.25736424953E+03  0.10100000352E+00 0. -1.
       -3    1    3    3    0  502  0.40224406277E+02 -0.24382208669E+03  0.46260011712E+01  0.24716112742E+03  0.10100000352E+00 0.  1.
</event>
<event>
 5   0  0.3211775E-03  0.4999146E+03  0.7818609E-02  0.1013801E+00
       -1   -1    0    0    0  501  0.00000000000E+00  0.00000000000E+00  0.10392518096E+03  0.10392518108E+03  0.50400001928E-02 0.  1.
        1   -1    0    0  501    0  0.00000000000E+00  0.00000000000E+00 -0.60118882405E+03  0.60118882407E+03  0.50400001928E-02 0. -1.
    10030    2    1    2    0    0  0.00000000000E+00  0.00000000000E+00 -0.49726364309E+03  0.70511400515E+03  0.49991462223E+03 0.  0.
        4    1    3    3  502    0  0.18869133143E+03 -0.66425199423E+01 -0.17605363452E+02  0.18963149356E+03  0.12699999809E+01 0.  1.
       -4    1    3    3    0  502 -0.18869133143E+03  0.66425199423E+01 -0.47965827964E+03  0.51548251159E+03  0.12699999809E+01 0. -1.
</event>
<event>
 5   0  0.5095783E-03  0.4997690E+03  0.7818609E-02  0.1013839E+00
       -2   -1    0    0    0  501  0.00000000000E+00  0.00000000000E+00  0.14463442742E+03  0.14463442744E+03  0.25500000920E-02 0. -1.
        2   -1    0    0  501    0  0.00000000000E+00  0.00000000000E+00 -0.43172479138E+03  0.43172479139E+03  0.25500000920E-02 0.  1.
    10030    2    1    2    0    0  0.00000000000E+00  0.00000000000E+00 -0.28709036396E+03  0.57635921883E+03  0.49976901870E+03 0.  0.
        4    1    3    3  502    0 -0.19827508970E+03  0.76013669064E+02  0.83584724240E+01  0.21251486076E+03  0.12699999809E+01 0. -1.
       -4    1    3    3    0  502  0.19827508970E+03 -0.76013669064E+02 -0.29544883638E+03  0.36384435807E+03  0.12699999809E+01 0.  1.
</event>
<event>
 5   0  0.4989875E-03  0.4998905E+03  0.7818609E-02  0.1013807E+00
       -2   -1    0    0    0  501  0.00000000000E+00  0.00000000000E+00  0.12094604558E+03  0.12094604561E+03  0.25500000920E-02 0. -1.
        2   -1    0    0  501    0  0.00000000000E+00  0.00000000000E+00 -0.51653309679E+03  0.51653309680E+03  0.25500000920E-02 0.  1.
    10030    2    1    2    0    0  0.00000000000E+00  0.00000000000E+00 -0.39558705121E+03  0.63747914241E+03  0.49989052994E+03 0.  0.
        2    1    3    3  502    0  0.12011270012E+03 -0.21691989544E+03 -0.15764209660E+03  0.29382364165E+03  0.25500000920E-02 0. -1.
       -2    1    3    3    0  502 -0.12011270012E+03  0.21691989544E+03 -0.23794495461E+03  0.34365550076E+03  0.25500000920E-02 0.  1.
</event>
<event>
 5   0  0.4889251E-03  0.5000938E+03  0.7818609E-02  0.1013754E+00
       -2   -1    0    0    0  501  0.00000000000E+00  0.00000000000E+00  0.31992787236E+03  0.31992787237E+03  0.25500000920E-02 0. -1.
        2   -1    0    0  501    0  0.00000000000E+00  0.00000000000E+00 -0.19542982885E+03  0.19542982887E+03  0.25500000920E-02 0.  1.
    10030    2    1    2    0    0  0.00000000000E+00  0.00000000000E+00  0.12449804351E+03  0.51535770124E+03  0.50009378860E+03 0.  0.
        5    1    3    3  502    0 -0.13535137034E+03  0.21012498944E+03  0.56713409381E+02  0.25634157962E+03  0.46999998093E+01 0. -1.
       -5    1    3    3    0  502  0.13535137034E+03 -0.21012498944E+03  0.67784634126E+02  0.25901612163E+03  0.46999998093E+01 0.  1.
</event>
<event>
 5   0  0.5118882E-03  0.4999726E+03  0.7818609E-02  0.1013786E+00
        2   -1    0    0  501    0  0.00000000000E+00  0.00000000000E+00  0.60447741825E+03  0.60447741825E+03  0.25500000920E-02 0. -1.
       -2   -1    0    0    0  501  0.00000000000E+00  0.00000000000E+00 -0.10338374972E+03  0.10338374975E+03  0.25500000920E-02 0.  1.
    10030    2    1    2    0    0  0.00000000000E+00  0.00000000000E+00  0.50109366852E+03  0.70786116801E+03  0.49997256778E+03 0.  0.
        3    1    3    3  502    0 -0.23496276011E+03 -0.83061593233E+02  0.27837748075E+03  0.37363184941E+03  0.10100000352E+00 0.  1.
       -3    1    3    3    0  502  0.23496276011E+03  0.83061593233E+02  0.22271618777E+03  0.33422931859E+03  0.10100000352E+00 0. -1.
</event>
<event>
 5   0  0.4978779E-03  0.5003547E+03  0.7818609E-02  0.1013686E+00
        2   -1    0    0  501    0  0.00000000000E+00  0.00000000000E+00  0.12581700689E+04  0.12581700689E+04  0.25500000920E-02 0.  1.
       -2   -1    0    0    0  501  0.00000000000E+00  0.00000000000E+00 -0.49745827821E+02  0.49745827886E+02  0.25500000920E-02 0. -1.
    10030    2    1    2    0    0  0.00000000000E+00  0.00000000000E+00  0.12084242411E+04  0.13079158968E+04  0.50035472081E+03 0.  0.
        1    1    3    3  502    0  0.69414335153E+02  0.81155632660E+02  0.12828273180E+02  0.10755998910E+03  0.50400001928E-02 0. -1.
       -1    1    3    3    0  502 -0.69414335153E+02 -0.81155632660E+02  0.11955959679E+04  0.12003559077E+04  0.50400001928E-02 0.  1.
</event>
<event>
 5   0  0.3055293E-03  0.4999431E+03  0.7818609E-02  0.1013794E+00
        1   -1    0    0  501    0  0.00000000000E+00  0.00000000000E+00  0.10152953501E+03  0.10152953513E+03  0.50400001928E-02 0. -1.
       -1   -1    0    0    0  501  0.00000000000E+00  0.00000000000E+00 -0.61544426356E+03  0.61544426358E+03  0.50400001928E-02 0.  1.
    10030    2    1    2    0    0  0.00000000000E+00  0.00000000000E+00 -0.51391472856E+03  0.71697379872E+03  0.49994307658E+03 0.  0.
        3    1    3    3  502    0  0.13111367421E+03 -0.87486351357E+02 -0.53519373145E+03  0.55792203543E+03  0.10100000352E+00 0.  1.
       -3    1    3    3    0  502 -0.13111367421E+03  0.87486351357E+02  0.21279002894E+02  0.15905176328E+03  0.10100000352E+00 0. -1.
</event>
<event>
 5   0  0.2863538E-03  0.5000825E+03  0.7818609E-02  0.1013757E+00
       -1   -1    0    0    0  501  0.00000000000E+00  0.00000000000E+00  0.62633201711E+02  0.62633201914E+02  0.50400001928E-02 0. -1.
        1   -1    0    0  501    0  0.00000000000E+00  0.00000000000E+00 -0.99820275400E+03  0.99820275402E+03  0.50400001928E-02 0.  1.
    10030    2    1    2    0    0  0.00000000000E+00  0.00000000000E+00 -0.93556955229E+03  0.10608359559E+04  0.50008253141E+03 0.  0.
        1    1    3    3  502    0 -0.12015372201E+03 -0.41493017353E+02 -0.11025002544E+02  0.12759364447E+03  0.50400001928E-02 0. -1.
       -1    1    3    3    0  502  0.12015372201E+03  0.41493017353E+02 -0.92454454975E+03  0.93324231146E+03  0.50400001928E-02 0.  1.
</event>
<event>
 5   0  0.4889251E-03  0.4996263E+03  0.7818609E-02  0.1013876E+00
        2   -1    0    0  501    0  0.00000000000E+00  0.00000000000E+00  0.25817072625E+03  0.25817072627E+03  0.25500000920E-02 0.  1.
       -2   -1    0    0    0  501  0.00000000000E+00  0.00000000000E+00 -0.24172614762E+03  0.24172614764E+03  0.25500000920E-02 0. -1.
    10030    2    1    2    0    0  0.00000000000E+00  0.00000000000E+00  0.16444578631E+02  0.49989687390E+03  0.49962632073E+03 0.  0.
        5    1    3    3  502    0  0.86721040340E+01 -0.29712423490E+01 -0.24151353611E+03  0.24173314169E+03  0.46999998093E+01 0. -1.
       -5    1    3    3    0  502 -0.86721040340E+01  0.29712423490E+01  0.25795811474E+03  0.25816373221E+03  0.46999998093E+01 0.  1.
</event>
<event>
 5   0  0.3013734E-03  0.5002019E+03  0.7818609E-02  0.1013726E+00
        1   -1    0    0  501    0  0.00000000000E+00  0.00000000000E+00  0.17137291095E+03  0.17137291103E+03  0.50400001928E-02 0.  1.
       -1   -1    0    0    0  501  0.00000000000E+00  0.00000000000E+00 -0.36499632878E+03  0.36499632881E+03  0.50400001928E-02 0. -1.
    10030    2    1    2    0    0  0.00000000000E+00  0.00000000000E+00 -0.19362341782E+03  0.53636923984E+03  0.50020189275E+03 0.  0.
        2    1    3    3  502    0  0.38567996448E+02  0.64895995059E+02 -0.35248744069E+03  0.36048075729E+03  0.25500000920E-02 0. -1.
       -2    1    3    3    0  502 -0.38567996448E+02 -0.64895995059E+02  0.15886402287E+03  0.17588848255E+03  0.25500000920E-02 0.  1.
</event>
<event>
 5   0  0.4978779E-03  0.5003397E+03  0.7818609E-02  0.1013690E+00
       -2   -1    0    0    0  501  0.00000000000E+00  0.00000000000E+00  0.14107071824E+03  0.14107071826E+03  0.25500000920E-02 0.  1.
        2   -1    0    0  501    0  0.00000000000E+00  0.00000000000E+00 -0.44364243777E+03  0.44364243777E+03  0.25500000920E-02 0. -1.
    10030    2    1    2    0    0  0.00000000000E+00  0.00000000000E+00 -0.30257171952E+03  0.58471315604E+03  0.50033971398E+03 0.  0.
        1    1    3    3  502    0  0.82263527838E+02 -0.10414865609E+03  0.96537843609E+02  0.16411516034E+03  0.50400001928E-02 0.  1.
       -1    1    3    3    0  502 -0.82263527838E+02  0.10414865609E+03 -0.39910956313E+03  0.42059799570E+03  0.50400001928E-02 0. -1.
</event>
<event>
 5   0  0.2005125E-03  0.4999697E+03  0.7818609E-02  0.1013787E+00
       -3   -1    0    0    0  501  0.00000000000E+00  0.00000000000E+00  0.67776302794E+03  0.67776303546E+03  0.10100000352E+00 0.  1.
        3   -1    0    0  501    0  0.00000000000E+00  0.00000000000E+00 -0.92203911073E+02  0.92203966391E+02  0.10100000352E+00 0. -1.
    10030    2    1    2    0    0  0.00000000000E+00  0.00000000000E+00  0.58555911686E+03  0.76996700185E+03  0.49996970368E+03 0.  0.
        3    1    3    3  502    0  0.14627527568E+03  0.16645264548E+03  0.11457852301E+03  0.24946179587E+03  0.10100000352E+00 0. -1.
       -3    1    3    3    0  502 -0.14627527568E+03 -0.16645264548E+03  0.47098059386E+03  0.52050520598E+03  0.10100000352E+00 0.  1.
</event>
<event>
 5   0  0.5118882E-03  0.5000861E+03  0.7818609E-02  0.1013756E+00
        2   -1    0    0  501    0  0.00000000000E+00  0.00000000000E+00  0.65486223784E+03  0.65486223784E+03  0.25500000920E-02 0.  1.
       -2   -1    0    0    0  501  0.00000000000E+00  0.00000000000E+00 -0.95472792799E+02  0.95472792833E+02  0.25500000920E-02 0. -1.
    10030    2    1    2    0    0  0.00000000000E+00  0.00000000000E+00  0.55938944504E+03  0.75033503068E+03  0.50008609962E+03 0.  0.
        3    1    3    3  502    0 -0.20326663048E+03  0.30579928808E+02  0.49330751589E+03  0.53442003195E+03  0.10100000352E+00 0.  1.
       -3    1    3    3    0  502  0.20326663048E+03 -0.30579928808E+02  0.66081929151E+02  0.21591499873E+03  0.10100000352E+00 0. -1.
</event>
<event>
 5   0  0.2005125E-03  0.4999848E+03  0.7818609E-02  0.1013783E+00
        3   -1    0    0  501    0  0.00000000000E+00  0.00000000000E+00  0.80256349525E+03  0.80256350161E+03  0.10100000352E+00 0. -1.
       -3   -1    0    0    0  501  0.00000000000E+00  0.00000000000E+00 -0.77870697912E+02  0.77870763412E+02  0.10100000352E+00 0.  1.
    10030    2    1    2    0    0  0.00000000000E+00  0.00000000000E+00  0.72469279734E+03  0.88043426502E+03  0.49998484427E+03 0.  0.
        4    1    3    3  502    0 -0.33088440208E+02 -0.17065714460E+03  0.45988104359E+02  0.17981997809E+03  0.12699999809E+01 0.  1.
       -4    1    3    3    0  502  0.33088440208E+02  0.17065714460E+03  0.67870469298E+03  0.70061428693E+03  0.12699999809E+01 0. -1.
</event>
<event>
 5   0  0.2863538E-03  0.4997330E+03  0.7818609E-02  0.1013849E+00
        1   -1    0    0  501    0  0.00000000000E+00  0.00000000000E+00  0.46718742688E+03  0.46718742691E+03  0.50400001928E-02 0.  1.
       -1   -1    0    0    0  501  0.00000000000E+00  0.00000000000E+00 -0.13363646752E+03  0.13363646762E+03  0.50400001928E-02 0. -1.
    10030    2    1    2    0    0  0.00000000000E+00  0.00000000000E+00  0.33355095936E+03  0.60082389453E+03  0.49973303848E+03 0.  0.
        1    1    3    3  502    0  0.90067493886E+02  0.22465388531E+03  0.92158355909E+02  0.25898780711E+03  0.50400001928E-02 0. -1.
       -1    1    3    3    0  502 -0.90067493886E+02 -0.22465388531E+03  0.24139260345E+03  0.34183608742E+03  0.50400001928E-02 0.  1.
</event>
<event>
 5   0  0.5118882E-03  0.5003963E+03  0.7818609E-02  0.1013676E+00
        2   -1    0    0  501    0  0.00000000000E+00  0.00000000000E+00  0.58512044786E+03  0.58512044787E+03  0.25500000920E-02 0. -1.
       -2   -1    0    0    0  501  0.00000000000E+00  0.00000000000E+00 -0.10698500127E+03  0.10698500131E+03  0.25500000920E-02 0.  1.
    10030    2    1    2    0    0  0.00000000000E+00  0.00000000000E+00  0.47813544658E+03  0.69210544917E+03  0.50039629044E+03 0.  0.
        3    1    3    3  502    0  0.20355568610E+03 -0.80447603023E+02  0.71417522294E+02  0.23023294045E+03  0.10100000352E+00 0.  1.
       -3    1    3    3    0  502 -0.20355568610E+03  0.80447603023E+02  0.40671792429E+03  0.46187250872E+03  0.10100000352E+00 0. -1.
</event>
<event>
 5   0  0.4978779E-03  0.5001071E+03  0.7818609E-02  0.1013751E+00
        2   -1    0    0  501    0  0.00000000000E+00  0.00000000000E+00  0.52561175324E+03  0.52561175325E+03  0.25500000920E-02 0.  1.
       -2   -1    0    0    0  501  0.00000000000E+00  0.00000000000E+00 -0.11895998717E+03  0.11895998720E+03  0.25500000920E-02 0. -1.
    10030    2    1    2    0    0  0.00000000000E+00  0.00000000000E+00  0.40665176607E+03  0.64457174045E+03  0.50010705827E+03 0.  0.
        1    1    3    3  502    0  0.11303044588E+03  0.25069700159E+02  0.48898497235E+03  0.50250440274E+03  0.50400001928E-02 0.  1.
       -1    1    3    3    0  502 -0.11303044588E+03 -0.25069700159E+02 -0.82333206277E+02  0.14206733771E+03  0.50400001928E-02 0. -1.
</event>
<event>
 5   0  0.3013734E-03  0.4999386E+03  0.7818609E-02  0.1013795E+00
       -1   -1    0    0    0  501  0.00000000000E+00  0.00000000000E+00  0.36676611308E+02  0.36676611655E+02  0.50400001928E-02 0. -1.
        1   -1    0    0  501    0  0.00000000000E+00  0.00000000000E+00 -0.17036645956E+04  0.17036645956E+04  0.50400001928E-02 0.  1.
    10030    2    1    2    0    0  0.00000000000E+00  0.00000000000E+00 -0.16669879843E+04  0.17403412073E+04  0.49993857415E+03 0.  0.
        2    1    3    3  502    0  0.21756062171E+03  0.21055338704E+01 -0.40505451058E+03  0.45978931473E+03  0.25500000920E-02 0. -1.
       -2    1    3    3    0  502 -0.21756062171E+03 -0.21055338704E+01 -0.12619334737E+04  0.12805518925E+04  0.25500000920E-02 0.  1.
</event>
<event>
 5   0  0.5095783E-03  0.4998561E+03  0.7818609E-02  0.1013816E+00
        2   -1    0    0  501    0  0.00000000000E+00  0.00000000000E+00  0.56233939317E+03  0.56233939318E+03  0.25500000920E-02 0.  1.
       -2   -1    0    0    0  501  0.00000000000E+00  0.00000000000E+00 -0.11107887452E+03  0.11107887455E+03  0.25500000920E-02 0. -1.
    10030    2    1    2    0    0  0.00000000000E+00  0.00000000000E+00  0.45126051865E+03  0.67341826773E+03  0.49985608691E+03 0.  0.
        4    1    3    3  502    0 -0.22560724477E+03  0.45299279118E+02  0.35702269390E+03  0.42475577741E+03  0.12699999809E+01 0.  1.
       -4    1    3    3    0  502  0.22560724477E+03 -0.45299279118E+02  0.94237824748E+02  0.24866249032E+03  0.12699999809E+01 0. -1.
</event>
<event>
 5   0  0.4989875E-03  0.4994786E+03  0.7818609E-02  0.1013915E+00
       -2   -1    0    0    0  501  0.00000000000E+00  0.00000000000E+00  0.10188547213E+04  0.10188547213E+04  0.25500000920E-02 0. -1.
        2   -1    0    0  501    0  0.00000000000E+00  0.00000000000E+00 -0.61215510788E+02  0.61215510841E+02  0.25500000920E-02 0.  1.
    10030    2    1    2    0    0  0.00000000000E+00  0.00000000000E+00  0.95763921051E+03  0.10800702321E+04  0.49947857697E+03 0.  0.
        2    1    3    3  502    0  0.16835385380E+03  0.86830933925E+02  0.83074627595E+03  0.85206924964E+03  0.25500000920E-02 0. -1.
       -2    1    3    3    0  502 -0.16835385380E+03 -0.86830933925E+02  0.12689293457E+03  0.22800098251E+03  0.25500000920E-02 0.  1.
</event>
<event>
 5   0  0.3055293E-03  0.5000050E+03  0.7818609E-02  0.1013778E+00
        1   -1    0    0  501    0  0.00000000000E+00  0.00000000000E+00  0.29042670703E+03  0.29042670707E+03  0.50400001928E-02 0.  1.
       -1   -1    0    0    0  501  0.00000000000E+00  0.00000000000E+00 -0.21520494042E+03  0.21520494048E+03  0.50400001928E-02 0. -1.
    10030    2    1    2    0    0  0.00000000000E+00  0.00000000000E+00  0.75221766609E+02  0.50563164756E+03  0.50000504881E+03 0.  0.
        3    1    3    3  502    0 -0.41291513633E+02  0.15844362604E+03 -0.15343803046E+03  0.22439387497E+03  0.10100000352E+00 0. -1.
       -3    1    3    3    0  502  0.41291513633E+02 -0.15844362604E+03  0.22865979707E+03  0.28123777259E+03  0.10100000352E+00 0.  1.
</event>
<event>
 5   0  0.3211775E-03  0.5001106E+03  0.7818609E-02  0.1013750E+00
       -1   -1    0    0    0  501  0.00000000000E+00  0.00000000000E+00  0.78000091707E+03  0.78000091708E+03  0.50400001928E-02 0.  1.
        1   -1    0    0  501    0  0.00000000000E+00  0.00000000000E+00 -0.80163569051E+02  0.80163569210E+02  0.50400001928E-02 0. -1.
    10030    2    1    2    0    0  0.00000000000E+00  0.00000000000E+00  0.69983734801E+03  0.86016448629E+03  0.50011061756E+03 0.  0.
        4    1    3    3  502    0  0.11613815537E+03 -0.20357312956E+03  0.20001695759E+03  0.30812089581E+03  0.12699999809E+01 0. -1.
       -4    1    3    3    0  502 -0.11613815537E+03  0.20357312956E+03  0.49982039042E+03  0.55204359048E+03  0.12699999809E+01 0.  1.
</event>
<event>
 5   0  0.3057783E-03  0.5004091E+03  0.7818609E-02  0.1013672E+00
       -1   -1    0    0    0  501  0.00000000000E+00  0.00000000000E+00  0.23292271219E+03  0.23292271224E+03  0.50400001928E-02 0. -1.
        1   -1    0    0  501    0  0.00000000000E+00  0.00000000000E+00 -0.26876864848E+03  0.26876864853E+03  0.50400001928E-02 0.  1.
    10030    2    1    2    0    0  0.00000000000E+00  0.00000000000E+00 -0.35845936296E+02  0.50169136077E+03  0.50040912294E+03 0.  0.
        5    1    3    3  502    0 -0.11503290917E+03  0.19909813633E+03 -0.11670255770E+03  0.25790349950E+03  0.46999998093E+01 0. -1.
       -5    1    3    3    0  502  0.11503290917E+03 -0.19909813633E+03  0.80856621403E+02  0.24378786127E+03  0.46999998093E+01 0.  1.
</event>
<event>
 5   0  0.3211775E-03  0.5001904E+03  0.7818609E-02  0.1013729E+00
        1   -1    0    0  501    0  0.00000000000E+00  0.00000000000E+00  0.35166914999E+03  0.35166915002E+03  0.50400001928E-02 0. -1.
       -1   -1    0    0    0  501  0.00000000000E+00  0.00000000000E+00 -0.17785923633E+03  0.17785923641E+03  0.50400001928E-02 0.  1.
    10030    2    1    2    0    0  0.00000000000E+00  0.00000000000E+00  0.17380991365E+03  0.52952838643E+03  0.50019038970E+03 0.  0.
        4    1    3    3  502    0  0.50281454841E+02 -0.33696237547E+02 -0.16998457400E+03  0.18044397863E+03  0.12699999809E+01 0.  1.
       -4    1    3    3    0  502 -0.50281454841E+02  0.33696237547E+02  0.34379448765E+03  0.34908440780E+03  0.12699999809E+01 0. -1.
</event>
<event>
 5   0  0.2863538E-03  0.5004408E+03  0.7818609E-02  0.1013664E+00
        1   -1    0    0  501    0  0.00000000000E+00  0.00000000000E+00  0.34081149121E+03  0.34081149125E+03  0.50400001928E-02 0. -1.
       -1   -1    0    0    0  501  0.00000000000E+00  0.00000000000E+00 -0.18370933724E+03  0.18370933731E+03  0.50400001928E-02 0.  1.
    10030    2    1    2    0    0  0.00000000000E+00  0.00000000000E+00  0.15710215397E+03  0.52452082856E+03  0.50044081849E+03 0.  0.
        1    1    3    3  502    0 -0.21921385808E+03  0.11757708637E+03  0.10689226918E+03  0.27074904256E+03  0.50400001928E-02 0.  1.
       -1    1    3    3    0  502  0.21921385808E+03 -0.11757708637E+03  0.50209884793E+02  0.25377178600E+03  0.50400001928E-02 0. -1.
</event>
<event>
 5   0  0.4889251E-03  0.4999273E+03  0.7818609E-02  0.1013798E+00
       -2   -1    0    0    0  501  0.00000000000E+00  0.00000000000E+00  0.41203985054E+02  0.41203985133E+02  0.25500000920E-02 0. -1.
        2   -1    0    0  501    0  0.00000000000E+00  0.00000000000E+00 -0.15164025863E+04  0.15164025863E+04  0.25500000920E-02 0.  1.
    10030    2    1    2    0    0  0.00000000000E+00  0.00000000000E+00 -0.14751986013E+04  0.15576065715E+04  0.49992731299E+03 0.  0.
        5    1    3    3  502    0  0.96258176165E+02 -0.22913753306E+03 -0.81944672976E+03  0.85632042977E+03  0.46999998093E+01 0. -1.
       -5    1    3    3    0  502 -0.96258176165E+02  0.22913753306E+03 -0.65575187154E+03  0.70128614171E+03  0.46999998093E+01 0.  1.
</event>
<event>
 5   0  0.3211775E-03  0.5000777E+03  0.7818609E-02  0.1013759E+00
       -1   -1    0    0    0  501  0.00000000000E+00  0.00000000000E+00  0.39407152046E+03  0.39407152049E+03  0.50400001928E-02 0. -1.
        1   -1    0    0  501    0  0.00000000000E+00  0.00000000000E+00 -0.15864997703E+03  0.15864997711E+03  0.50400001928E-02 0.  1.
    10030    2    1    2    0    0  0.00000000000E+00  0.00000000000E+00  0.23542154342E+03  0.55272149760E+03  0.50007774476E+03 0.  0.
        4    1    3    3  502    0 -0.14544033883E+03 -0.19540495787E+03  0.18005663776E+03  0.30291582233E+03  0.12699999809E+01 0. -1.
       -4    1    3    3    0  502  0.14544033883E+03  0.19540495787E+03  0.55364905663E+02  0.24980567527E+03  0.12699999809E+01 0.  1.
</event>
<event>
 5   0  0.2005125E-03  0.4999193E+03  0.7818609E-02  0.1013800E+00
       -4   -1    0    0    0  501  0.00000000000E+00  0.00000000000E+00  0.61734308786E+02  0.61747370642E+02  0.12699999809E+01 0. -1.
        4   -1    0    0  501    0  0.00000000000E+00  0.00000000000E+00 -0.10119557294E+04  0.10119565264E+04  0.12699999809E+01 0.  1.
    10030    2    1    2    0    0  0.00000000000E+00  0.00000000000E+00 -0.95022142065E+03  0.10737038970E+04  0.49991930366E+03 0.  0.
        4    1    3    3  502    0 -0.64588746024E+02  0.24119055167E+03 -0.49993807475E+03  0.55882401507E+03  0.12699999809E+01 0. -1.
       -4    1    3    3    0  502  0.64588746024E+02 -0.24119055167E+03 -0.45028334589E+03  0.51487988193E+03  0.12699999809E+01 0.  1.
</event>
<event>
 5   0  0.5118882E-03  0.4999831E+03  0.7818609E-02  0.1013783E+00
       -2   -1    0    0    0  501  0.00000000000E+00  0.00000000000E+00  0.49641350735E+02  0.49641350801E+02  0.25500000920E-02 0. -1.
        2   -1    0    0  501    0  0.00000000000E+00  0.00000000000E+00 -0.12589461340E+04  0.12589461340E+04  0.25500000920E-02 0.  1.
    10030    2    1    2    0    0  0.00000000000E+00  0.00000000000E+00 -0.12093047833E+04  0.13085874848E+04  0.49998314628E+03 0.  0.
        3    1    3    3  502    0 -0.20310790821E+03 -0.10449525106E+02 -0.22416891773E+03  0.30267759882E+03  0.10100000352E+00 0. -1.
       -3    1    3    3    0  502  0.20310790821E+03  0.10449525106E+02 -0.98513586557E+03  0.10059098860E+04  0.10100000352E+00 0.  1.
</event>
<event>
 5   0  0.5118882E-03  0.5003854E+03  0.7818609E-02  0.1013678E+00
       -2   -1    0    0    0  501  0.00000000000E+00  0.00000000000E+00  0.94393459268E+02  0.94393459303E+02  0.25500000920E-02 0. -1.
        2   -1    0    0  501    0  0.00000000000E+00  0.00000000000E+00 -0.66314330875E+03  0.66314330875E+03  0.25500000920E-02 0.  1.
    10030    2    1    2    0    0  0.00000000000E+00  0.00000000000E+00 -0.56874984948E+03  0.75753676805E+03  0.50038541513E+03 0.  0.
        3    1    3    3  502    0  0.20352498340E+02  0.12635232281E+02  0.92653187819E+02  0.95700034992E+02  0.10100000352E+00 0. -1.
       -3    1    3    3    0  502 -0.20352498340E+02 -0.12635232281E+02 -0.66140303730E+03  0.66183673306E+03  0.10100000352E+00 0.  1.
</event>
<event>
 5   0  0.3057783E-03  0.4997946E+03  0.7818609E-02  0.1013833E+00
        1   -1    0    0  501    0  0.00000000000E+00  0.00000000000E+00  0.31426327123E+03  0.31426327127E+03  0.50400001928E-02 0.  1.
       -1   -1    0    0    0  501  0.00000000000E+00  0.00000000000E+00 -0.19871444975E+03  0.19871444982E+03  0.50400001928E-02 0. -1.
    10030    2    1    2    0    0  0.00000000000E+00  0.00000000000E+00  0.11554882148E+03  0.51297772108E+03  0.49979456998E+03 0.  0.
        5    1    3    3  502    0  0.10266939746E+02  0.18265454470E+03 -0.11688612137E+03  0.21714637487E+03  0.46999998093E+01 0. -1.
       -5    1    3    3    0  502 -0.10266939746E+02 -0.18265454470E+03  0.23243494285E+03  0.29583134622E+03  0.46999998093E+01 0.  1.
</event>
<event>
 5   0  0.4889251E-03  0.4998362E+03  0.7818609E-02  0.1013822E+00
        2   -1    0    0  501    0  0.00000000000E+00  0.00000000000E+00  0.11356228159E+03  0.11356228162E+03  0.25500000920E-02 0. -1.
       -2   -1    0    0    0  501  0.00000000000E+00  0.00000000000E+00 -0.54999833799E+03  0.54999833799E+03  0.25500000920E-02 0.  1.
    10030    2    1    2    0    0  0.00000000000E+00  0.00000000000E+00 -0.43643605640E+03  0.66356061962E+03  0.49983623776E+03 0.  0.
        5    1    3    3  502    0  0.20919450793E+03  0.12200586885E+03 -0.29993772415E+03  0.38552886085E+03  0.46999998093E+01 0.  1.
       -5    1    3    3    0  502 -0.20919450793E+03 -0.12200586885E+03 -0.13649833224E+03  0.27803175877E+03  0.46999998093E+01 0. -1.
</event>
<event>
 5   0  0.5118882E-03  0.5002587E+03  0.7818609E-02  0.1013711E+00
        2   -1    0    0  501    0  0.00000000000E+00  0.00000000000E+00  0.11718985887E+04  0.11718985887E+04  0.25500000920E-02 0.  1.
       -2   -1    0    0    0  501  0.00000000000E+00  0.00000000000E+00 -0.53387471305E+02  0.53387471366E+02  0.25500000920E-02 0. -1.
    10030    2    1    2    0    0  0.00000000000E+00  0.00000000000E+00  0.11185111173E+04  0.12252860600E+04  0.50025874231E+03 0.  0.
        3    1    3    3  502    0  0.15840129404E+03 -0.50739858972E+00  0.10333935223E+04  0.10454632511E+04  0.10100000352E+00 0.  1.
       -3    1    3    3    0  502 -0.15840129404E+03  0.50739858972E+00  0.85117595095E+02  0.17982280890E+03  0.10100000352E+00 0. -1.
</event>
<event>
 5   0  0.2863538E-03  0.4993693E+03  0.7818609E-02  0.1013944E+00
        1   -1    0    0  501    0  0.00000000000E+00  0.00000000000E+00  0.11768236624E+04  0.11768236624E+04  0.50400001928E-02 0.  1.
       -1   -1    0    0    0  501  0.00000000000E+00  0.00000000000E+00 -0.52975154882E+02  0.52975155121E+02  0.50400001928E-02 0. -1.
    10030    2    1    2    0    0  0.00000000000E+00  0.00000000000E+00  0.11238485075E+04  0.12297988175E+04  0.49936926592E+03 0.  0.
        1    1    3    3  502    0 -0.19570353096E+03 -0.90663057739E+01  0.18071906470E+03  0.26653602064E+03  0.50400001928E-02 0. -1.
       -1    1    3    3    0  502  0.19570353096E+03  0.90663057739E+01  0.94312944278E+03  0.96326279685E+03  0.50400001928E-02 0.  1.
</event>
<event>
 5   0  0.3055293E-03  0.4999178E+03  0.7818609E-02  0.1013800E+00
        1   -1    0    0  501    0  0.00000000000E+00  0.00000000000E+00  0.19282898399E+03  0.19282898406E+03  0.50400001928E-02 0. -1.
       -1   -1    0    0    0  501  0.00000000000E+00  0.00000000000E+00 -0.32401482097E+03  0.32401482101E+03  0.50400001928E-02 0.  1.
    10030    2    1    2    0    0  0.00000000000E+00  0.00000000000E+00 -0.13118583698E+03  0.51684380507E+03  0.49991778825E+03 0.  0.
        3    1    3    3  502    0  0.12841494162E+03 -0.14196945109E+03 -0.23176351072E+03  0.30059949663E+03  0.10100000352E+00 0.  1.
       -3    1    3    3    0  502 -0.12841494162E+03  0.14196945109E+03  0.10057767374E+03  0.21624430843E+03  0.10100000352E+00 0. -1.
</event>
<event>
 5   0  0.3013734E-03  0.5001204E+03  0.7818609E-02  0.1013747E+00
       -1   -1    0    0    0  501  0.00000000000E+00  0.00000000000E+00  0.24481616569E+03  0.24481616574E+03  0.50400001928E-02 0.  1.
        1   -1    0    0  501    0  0.00000000000E+00  0.00000000000E+00 -0.25541655704E+03  0.25541655709E+03  0.50400001928E-02 0. -1.
    10030    2    1    2    0    0  0.00000000000E+00  0.00000000000E+00 -0.10600391352E+02  0.50023272283E+03  0.50012039420E+03 0.  0.
        2    1    3    3  502    0 -0.11916357586E+03  0.20854639254E+03 -0.74875480551E+02  0.25159072568E+03  0.25500000920E-02 0. -1.
       -2    1    3    3    0  502  0.11916357586E+03 -0.20854639254E+03  0.64275089199E+02  0.24864199716E+03  0.25500000920E-02 0.  1.
</event>
<event>
 5   0  0.2005125E-03  0.5008652E+03  0.7818609E-02  0.1013553E+00
        3   -1    0    0  501    0  0.00000000000E+00  0.00000000000E+00  0.46456969697E+02  0.46457079487E+02  0.10100000352E+00 0. -1.
       -3   -1    0    0    0  501  0.00000000000E+00  0.00000000000E+00 -0.13499890282E+04  0.13499890319E+04  0.10100000352E+00 0.  1.
    10030    2    1    2    0    0  0.00000000000E+00  0.00000000000E+00 -0.13035320585E+04  0.13964461114E+04  0.50086516616E+03 0.  0.
        4    1    3    3  502    0  0.10298246015E+03  0.12170632241E+03 -0.11332196676E+03  0.19560495153E+03  0.12699999809E+01 0. -1.
       -4    1    3    3    0  502 -0.10298246015E+03 -0.12170632241E+03 -0.11902100917E+04  0.12008411599E+04  0.12699999809E+01 0.  1.
</event>
<event>
 5   0  0.4978779E-03  0.5004589E+03  0.7818609E-02  0.1013659E+00
        2   -1    0    0  501    0  0.00000000000E+00  0.00000000000E+00  0.15070612451E+03  0.15070612453E+03  0.25500000920E-02 0. -1.
       -2   -1    0    0    0  501  0.00000000000E+00  0.00000000000E+00 -0.41547599744E+03  0.41547599744E+03  0.25500000920E-02 0.  1.
    10030    2    1    2    0    0  0.00000000000E+00  0.00000000000E+00 -0.26476987293E+03  0.56618212197E+03  0.50045889904E+03 0.  0.
        1    1    3    3  502    0 -0.19586870707E+03  0.61949771533E+00  0.43789220896E+02  0.20070483322E+03  0.50400001928E-02 0. -1.
       -1    1    3    3    0  502  0.19586870707E+03 -0.61949771533E+00 -0.30855909382E+03  0.36547728875E+03  0.50400001928E-02 0.  1.
</event>
<event>
 5   0  0.2005125E-03  0.4997162E+03  0.7818609E-02  0.1013853E+00
       -4   -1    0    0    0  501  0.00000000000E+00  0.00000000000E+00  0.85741343900E+02  0.85750748998E+02  0.12699999809E+01 0.  1.
        4   -1    0    0  501    0  0.00000000000E+00  0.00000000000E+00 -0.72805937214E+03  0.72806047981E+03  0.12699999809E+01 0. -1.
    10030    2    1    2    0    0  0.00000000000E+00  0.00000000000E+00 -0.64231802824E+03  0.81381122881E+03  0.49971618618E+03 0.  0.
        2    1    3    3  502    0 -0.12615525855E+02  0.23064722864E+03 -0.16604669077E+03  0.28447987467E+03  0.25500000920E-02 0. -1.
       -2    1    3    3    0  502  0.12615525855E+02 -0.23064722864E+03 -0.47627133747E+03  0.52933135414E+03  0.25500000920E-02 0.  1.
</event>
<event>
 5   0  0.4989875E-03  0.4999364E+03  0.7818609E-02  0.1013796E+00
       -2   -1    0    0    0  501  0.00000000000E+00  0.00000000000E+00  0.14077647989E+03  0.14077647992E+03  0.25500000920E-02 0.  1.
        2   -1    0    0  501    0  0.00000000000E+00  0.00000000000E+00 -0.44385329511E+03  0.44385329512E+03  0.25500000920E-02 0. -1.
    10030    2    1    2    0    0  0.00000000000E+00  0.00000000000E+00 -0.30307681522E+03  0.58462977504E+03  0.49993641389E+03 0.  0.
        2    1    3    3  502    0 -0.21392092720E+03  0.11831396567E+03 -0.21256927394E+03  0.32395378343E+03  0.25500000920E-02 0. -1.
       -2    1    3    3    0  502  0.21392092720E+03 -0.11831396567E+03 -0.90507541279E+02  0.26067599161E+03  0.25500000920E-02 0.  1.
</event>
<event>
 5   0  0.5118882E-03  0.4998914E+03  0.7818609E-02  0.1013807E+00
        2   -1    0    0  501    0  0.00000000000E+00  0.00000000000E+00  0.11553237495E+04  0.11553237495E+04  0.25500000920E-02 0. -1.
       -2   -1    0    0    0  501  0.00000000000E+00  0.00000000000E+00 -0.54073883764E+02  0.54073883824E+02  0.25500000920E-02 0.  1.
    10030    2    1    2    0    0  0.00000000000E+00  0.00000000000E+00  0.11012498657E+04  0.12093976333E+04  0.49989135690E+03 0.  0.
        3    1    3    3  502    0 -0.21820603742E+03  0.79742657903E+02  0.32757369990E+03  0.40159345777E+03  0.10100000352E+00 0.  1.
       -3    1    3    3    0  502  0.21820603742E+03 -0.79742657903E+02  0.77367616581E+03  0.80780417553E+03  0.10100000352E+00 0. -1.
</event>
<event>
 5   0  0.3013734E-03  0.4999479E+03  0.7818609E-02  0.1013793E+00
       -1   -1    0    0    0  501  0.00000000000E+00  0.00000000000E+00  0.22889055491E+03  0.22889055497E+03  0.50400001928E-02 0. -1.
        1   -1    0    0  501    0  0.00000000000E+00  0.00000000000E+00 -0.27299931760E+03  0.27299931765E+03  0.50400001928E-02 0.  1.
    10030    2    1    2    0    0  0.00000000000E+00  0.00000000000E+00 -0.44108762695E+02  0.50188987262E+03  0.49994785857E+03 0.  0.
        2    1    3    3  502    0  0.15569580357E+03 -0.22724368970E+02 -0.21704942991E+03  0.26808214268E+03  0.25500000920E-02 0.  1.
       -2    1    3    3    0  502 -0.15569580357E+03  0.22724368970E+02  0.17294066721E+03  0.23380772994E+03  0.25500000920E-02 0. -1.
</event>
<event>
 5   0  0.2863538E-03  0.5005177E+03  0.7818609E-02  0.1013644E+00
       -1   -1    0    0    0  501  0.00000000000E+00  0.00000000000E+00  0.45181426172E+03  0.45181426175E+03  0.50400001928E-02 0. -1.
        1   -1    0    0  501    0  0.00000000000E+00  0.00000000000E+00 -0.13861780439E+03  0.13861780448E+03  0.50400001928E-02 0.  1.
    10030    2    1    2    0    0  0.00000000000E+00  0.00000000000E+00  0.31319645733E+03  0.59043206623E+03  0.50051773590E+03 0.  0.
        1    1    3    3  502    0  0.16525034943E+03 -0.18104156718E+03  0.21611788044E+03  0.32678841061E+03  0.50400001928E-02 0. -1.
       -1    1    3    3    0  502 -0.16525034943E+03  0.18104156718E+03  0.97078576885E+02  0.26364365562E+03  0.50400001928E-02 0.  1.
</event>
<event>
 5   0  0.5118882E-03  0.4998815E+03  0.7818609E-02  0.1013810E+00
        2   -1    0    0  501    0  0.00000000000E+00  0.00000000000E+00  0.93792808805E+03  0.93792808806E+03  0.25500000920E-02 0.  1.
       -2   -1    0    0    0  501  0.00000000000E+00  0.00000000000E+00 -0.66604655829E+02  0.66604655878E+02  0.25500000920E-02 0. -1.
    10030    2    1    2    0    0  0.00000000000E+00  0.00000000000E+00  0.87132343222E+03  0.10045327439E+04  0.49988149605E+03 0.  0.
        3    1    3    3  502    0 -0.14773987092E+03 -0.20120234113E+03  0.46115327311E+03  0.52437753865E+03  0.10100000352E+00 0.  1.
       -3    1    3    3    0  502  0.14773987092E+03  0.20120234113E+03  0.41017015911E+03  0.48015520528E+03  0.10100000352E+00 0. -1.
</event>
<event>
 5   0  0.4889251E-03  0.4999661E+03  0.7818609E-02  0.1013788E+00
       -2   -1    0    0    0  501  0.00000000000E+00  0.00000000000E+00  0.99459326640E+02  0.99459326673E+02  0.25500000920E-02 0.  1.
        2   -1    0    0  501    0  0.00000000000E+00  0.00000000000E+00 -0.62831234867E+03  0.62831234868E+03  0.25500000920E-02 0. -1.
    10030    2    1    2    0    0  0.00000000000E+00  0.00000000000E+00 -0.52885302203E+03  0.72777167535E+03  0.49996609138E+03 0.  0.
        5    1    3    3  502    0  0.13600234444E+03 -0.10827241930E+03 -0.52583437039E+03  0.55384422861E+03  0.46999998093E+01 0. -1.
       -5    1    3    3    0  502 -0.13600234444E+03  0.10827241930E+03 -0.30186516410E+01  0.17392744675E+03  0.46999998093E+01 0.  1.
</event>
<event>
 5   0  0.3055293E-03  0.5002704E+03  0.7818609E-02  0.1013708E+00
        1   -1    0    0  501    0  0.00000000000E+00  0.00000000000E+00  0.40061371203E+03  0.40061371206E+03  0.50400001928E-02 0.  1.
       -1   -1    0    0    0  501  0.00000000000E+00  0.00000000000E+00 -0.15617945182E+03  0.15617945190E+03  0.50400001928E-02 0. -1.
    10030    2    1    2    0    0  0.00000000000E+00  0.00000000000E+00  0.24443426020E+03  0.55679316396E+03  0.50027044673E+03 0.  0.
        3    1    3    3  502    0  0.10399524173E+03  0.17661868246E+03  0.28179925210E+03  0.34845372430E+03  0.10100000352E+00 0.  1.
       -3    1    3    3    0  502 -0.10399524173E+03 -0.17661868246E+03 -0.37364991896E+02  0.20833943966E+03  0.10100000352E+00 0. -1.
</event>
<event>
 5   0  0.3013734E-03  0.5000009E+03  0.7818609E-02  0.1013779E+00
        1   -1    0    0  501    0  0.00000000000E+00  0.00000000000E+00  0.56978043420E+03  0.56978043422E+03  0.50400001928E-02 0. -1.
       -1   -1    0    0    0  501  0.00000000000E+00  0.00000000000E+00 -0.10969176740E+03  0.10969176751E+03  0.50400001928E-02 0.  1.
    10030    2    1    2    0    0  0.00000000000E+00  0.00000000000E+00  0.46008866680E+03  0.67947220173E+03  0.50000089161E+03 0.  0.
        2    1    3    3  502    0  0.10822535198E+03  0.20585389337E+03  0.10540875155E+03  0.25534203950E+03  0.25500000920E-02 0. -1.
       -2    1    3    3    0  502 -0.10822535198E+03 -0.20585389337E+03  0.35467991525E+03  0.42413016223E+03  0.25500000920E-02 0.  1.
</event>
<event>
 5   0  0.3013734E-03  0.5001407E+03  0.7818609E-02  0.1013742E+00
        1   -1    0    0  501    0  0.00000000000E+00  0.00000000000E+00  0.15817475879E+03  0.15817475887E+03  0.50400001928E-02 0.  1.
       -1   -1    0    0    0  501  0.00000000000E+00  0.00000000000E+00 -0.39535491840E+03  0.39535491843E+03  0.50400001928E-02 0. -1.
    10030    2    1    2    0    0  0.00000000000E+00  0.00000000000E+00 -0.23718015961E+03  0.55352967730E+03  0.50014065575E+03 0.  0.
        2    1    3    3  502    0 -0.62481799193E+02  0.27849457811E+02 -0.38479829714E+03  0.39083154558E+03  0.25500000920E-02 0. -1.
       -2    1    3    3    0  502  0.62481799193E+02 -0.27849457811E+02  0.14761813753E+03  0.16269813172E+03  0.25500000920E-02 0.  1.
</event>
<event>
 5   0  0.5095783E-03  0.4999204E+03  0.7818609E-02  0.1013800E+00
       -2   -1    0    0    0  501  0.00000000000E+00  0.00000000000E+00  0.89682702383E+02  0.89682702419E+02  0.25500000920E-02 0.  1.
        2   -1    0    0  501    0  0.00000000000E+00  0.00000000000E+00 -0.69667961283E+03  0.69667961283E+03  0.25500000920E-02 0. -1.
    10030    2    1    2    0    0  0.00000000000E+00  0.00000000000E+00 -0.60699691045E+03  0.78636231525E+03  0.49992043523E+03 0.  0.
        4    1    3    3  502    0 -0.27461987209E+02  0.22771345625E+03 -0.14721946803E+03  0.27254864440E+03  0.12699999809E+01 0.  1.
       -4    1    3    3    0  502  0.27461987209E+02 -0.22771345625E+03 -0.45977744242E+03  0.51381367085E+03  0.12699999809E+01 0. -1.
</event>
<event>
 5   0  0.2005125E-03  0.5003020E+03  0.7818609E-02  0.1013700E+00
       -3   -1    0    0    0  501  0.00000000000E+00  0.00000000000E+00  0.10419320429E+03  0.10419325324E+03  0.10100000352E+00 0. -1.
        3   -1    0    0  501    0  0.00000000000E+00  0.00000000000E+00 -0.60057182230E+03  0.60057183079E+03  0.10100000352E+00 0.  1.
    10030    2    1    2    0    0  0.00000000000E+00  0.00000000000E+00 -0.49637861801E+03  0.70476508404E+03  0.50030200006E+03 0.  0.
        3    1    3    3  502    0  0.59020709524E+02 -0.36337500583E+02 -0.58677573523E+03  0.59085500062E+03  0.10100000352E+00 0.  1.
       -3    1    3    3    0  502 -0.59020709524E+02  0.36337500583E+02  0.90397117221E+02  0.11391008342E+03  0.10100000352E+00 0. -1.
</event>
<event>
 5   0  0.3057783E-03  0.4998877E+03  0.7818609E-02  0.1013808E+00
       -1   -1    0    0    0  501  0.00000000000E+00  0.00000000000E+00  0.96032406861E+02  0.96032406993E+02  0.50400001928E-02 0. -1.
        1   -1    0    0  501    0  0.00000000000E+00  0.00000000000E+00 -0.65052959173E+03  0.65052959175E+03  0.50400001928E-02 0.  1.
    10030    2    1    2    0    0  0.00000000000E+00  0.00000000000E+00 -0.55449718487E+03  0.74656199875E+03  0.49988767732E+03 0.  0.
        5    1    3    3  502    0 -0.20371403589E+03 -0.12656255673E+03 -0.38213521407E+03  0.45118388825E+03  0.46999998093E+01 0. -1.
       -5    1    3    3    0  502  0.20371403589E+03  0.12656255673E+03 -0.17236197080E+03  0.29537811049E+03  0.46999998093E+01 0.  1.
</event>
<event>
 5   0  0.4889251E-03  0.5000403E+03  0.7818609E-02  0.1013768E+00
       -2   -1    0    0    0  501  0.00000000000E+00  0.00000000000E+00  0.15288774548E+03  0.15288774550E+03  0.25500000920E-02 0. -1.
        2   -1    0    0  501    0  0.00000000000E+00  0.00000000000E+00 -0.40886261009E+03  0.40886261010E+03  0.25500000920E-02 0.  1.
    10030    2    1    2    0    0  0.00000000000E+00  0.00000000000E+00 -0.25597486461E+03  0.56175035559E+03  0.50004032907E+03 0.  0.
        5    1    3    3  502    0  0.15657134829E+03  0.62713523687E+02  0.79282247049E+02  0.18642783552E+03  0.46999998093E+01 0. -1.
       -5    1    3    3    0  502 -0.15657134829E+03 -0.62713523687E+02 -0.33525711166E+03  0.37532252008E+03  0.46999998093E+01 0.  1.
</event>
<event>
 5   0  0.3013734E-03  0.4999178E+03  0.7818609E-02  0.1013800E+00
       -1   -1    0    0    0  501  0.00000000000E+00  0.00000000000E+00  0.96872470808E+02  0.96872470939E+02  0.50400001928E-02 0.  1.
        1   -1    0    0  501    0  0.00000000000E+00  0.00000000000E+00 -0.64496611883E+03  0.64496611885E+03  0.50400001928E-02 0. -1.
    10030    2    1    2    0    0  0.00000000000E+00  0.00000000000E+00 -0.54809364802E+03  0.74183858979E+03  0.49991783955E+03 0.  0.
        2    1    3    3  502    0 -0.20053479855E+03  0.54309204616E+02 -0.67809740269E+02  0.21854486043E+03  0.25500000920E-02 0.  1.
       -2    1    3    3    0  502  0.20053479855E+03 -0.54309204616E+02 -0.48028390776E+03  0.52329372936E+03  0.25500000920E-02 0. -1.
</event>
<event>
 5   0  0.2005125E-03  0.5001545E+03  0.7818609E-02  0.1013739E+00
       -3   -1    0    0    0  501  0.00000000000E+00  0.00000000000E+00  0.35732450534E+03  0.35732451961E+03  0.10100000352E+00 0. -1.
        3   -1    0    0  501    0  0.00000000000E+00  0.00000000000E+00 -0.17501912494E+03  0.17501915408E+03  0.10100000352E+00 0.  1.
    10030    2    1    2    0    0  0.00000000000E+00  0.00000000000E+00  0.18230538040E+03  0.53234367369E+03  0.50015451132E+03 0.  0.
        5    1    3    3  502    0 -0.22160349983E+03 -0.11548434983E+03  0.82134012025E+02  0.26308331783E+03  0.46999998093E+01 0.  1.
       -5    1    3    3    0  502  0.22160349983E+03  0.11548434983E+03  0.10017136838E+03  0.26926035585E+03  0.46999998093E+01 0. -1.
</event>
<event>
 5   0  0.2005125E-03  0.4997396E+03  0.7818609E-02  0.1013847E+00
       -3   -1    0    0    0  501  0.00000000000E+00  0.00000000000E+00  0.52486431363E+03  0.52486432335E+03  0.10100000352E+00 0.  1.
        3   -1    0    0  501    0  0.00000000000E+00  0.00000000000E+00 -0.11895436687E+03  0.11895440975E+03  0.10100000352E+00 0. -1.
    10030    2    1    2    0    0  0.00000000000E+00  0.00000000000E+00  0.40590994676E+03  0.64381873310E+03  0.49973960840E+03 0.  0.
        1    1    3    3  502    0  0.14761089063E+02  0.15941125506E+03 -0.44202488177E+02  0.16608340668E+03  0.50400001928E-02 0. -1.
       -1    1    3    3    0  502 -0.14761089063E+02 -0.15941125506E+03  0.45011243494E+03  0.47773532641E+03  0.50400001928E-02 0.  1.
</event>
<event>
 5   0  0.4978779E-03  0.4999930E+03  0.7818609E-02  0.1013781E+00
        2   -1    0    0  501    0  0.00000000000E+00  0.00000000000E+00  0.55614261245E+03  0.55614261246E+03  0.25500000920E-02 0.  1.
       -2   -1    0    0    0  501  0.00000000000E+00  0.00000000000E+00 -0.11237810316E+03  0.11237810318E+03  0.25500000920E-02 0. -1.
    10030    2    1    2    0    0  0.00000000000E+00  0.00000000000E+00  0.44376450930E+03  0.66852071564E+03  0.49999300748E+03 0.  0.
        1    1    3    3  502    0 -0.91351018290E+02 -0.18463693796E+03  0.32498438955E+02  0.20854725115E+03  0.50400001928E-02 0. -1.
       -1    1    3    3    0  502  0.91351018290E+02  0.18463693796E+03  0.41126607034E+03  0.45997346449E+03  0.50400001928E-02 0.  1.
</event>
<event>
 5   0  0.3055293E-03  0.5002070E+03  0.7818609E-02  0.1013725E+00
        1   -1    0    0  501    0  0.00000000000E+00  0.00000000000E+00  0.15707703127E+04  0.15707703127E+04  0.50400001928E-02 0.  1.
       -1   -1    0    0    0  501  0.00000000000E+00  0.00000000000E+00 -0.39822341593E+02  0.39822341912E+02  0.50400001928E-02 0. -1.
    10030    2    1    2    0    0  0.00000000000E+00  0.00000000000E+00  0.15309479711E+04  0.16105926546E+04  0.50020696605E+03 0.  0.
        3    1    3    3  502    0  0.20685242584E+03  0.12067028392E+03  0.53323134467E+03  0.58453821144E+03  0.10100000352E+00 0. -1.
       -3    1    3    3    0  502 -0.20685242584E+03 -0.12067028392E+03  0.99771662646E+03  0.10260544432E+04  0.10100000352E+00 0.  1.
</event>
<event>
 5   0  0.2005125E-03  0.5000449E+03  0.7818609E-02  0.1013767E+00
        4   -1    0    0  501    0  0.00000000000E+00  0.00000000000E+00  0.91871549387E+02  0.91880326984E+02  0.12699999809E+01 0. -1.
       -4   -1    0    0    0  501  0.00000000000E+00  0.00000000000E+00 -0.68037791776E+03  0.68037910306E+03  0.12699999809E+01 0.  1.
    10030    2    1    2    0    0  0.00000000000E+00  0.00000000000E+00 -0.58850636837E+03  0.77225943004E+03  0.50004487966E+03 0.  0.
        1    1    3    3  502    0  0.23545110211E+03 -0.81787177325E+02 -0.32455046611E+03  0.40921799683E+03  0.50400001928E-02 0. -1.
       -1    1    3    3    0  502 -0.23545110211E+03  0.81787177325E+02 -0.26395590227E+03  0.36304143321E+03  0.50400001928E-02 0.  1.
</event>
<event>
 5   0  0.4989875E-03  0.5000656E+03  0.7818609E-02  0.1013762E+00
        2   -1    0    0  501    0  0.00000000000E+00  0.00000000000E+00  0.91345399941E+02  0.91345399977E+02  0.25500000920E-02 0.  1.
       -2   -1    0    0    0  501  0.00000000000E+00  0.00000000000E+00 -0.68439584381E+03  0.68439584382E+03  0.25500000920E-02 0. -1.
    10030    2    1    2    0    0  0.00000000000E+00  0.00000000000E+00 -0.59305044387E+03  0.77574124379E+03  0.50006564404E+03 0.  0.
        2    1    3    3  502    0 -0.17317169732E+03 -0.16637408394E+03 -0.40453299770E+03  0.47044204616E+03  0.25500000920E-02 0.  1.
       -2    1    3    3    0  502  0.17317169732E+03  0.16637408394E+03 -0.18851744617E+03  0.30529919764E+03  0.25500000920E-02 0. -1.
</event>
<event>
 5   0  0.4989875E-03  0.5003148E+03  0.7818609E-02  0.1013697E+00
       -2   -1    0    0    0  501  0.00000000000E+00  0.00000000000E+00  0.95609753753E+02  0.95609753787E+02  0.25500000920E-02 0.  1.
        2   -1    0    0  501    0  0.00000000000E+00  0.00000000000E+00 -0.65452251300E+03  0.65452251300E+03  0.25500000920E-02 0. -1.
    10030    2    1    2    0    0  0.00000000000E+00  0.00000000000E+00 -0.55891275925E+03  0.75013226679E+03  0.50031484611E+03 0.  0.
        2    1    3    3  502    0  0.20659888632E+01 -0.20223421386E+03 -0.58715925523E+02  0.21059559701E+03  0.25500000920E-02 0.  1.
       -2    1    3    3    0  502 -0.20659888632E+01  0.20223421386E+03 -0.50019683372E+03  0.53953666978E+03  0.25500000920E-02 0. -1.
</event>
<event>
 5   0  0.5095783E-03  0.5001187E+03  0.7818609E-02  0.1013748E+00
        2   -1    0    0  501    0  0.00000000000E+00  0.00000000000E+00  0.11914963820E+04  0.11914963820E+04  0.25500000920E-02 0. -1.
       -2   -1    0    0    0  501  0.00000000000E+00  0.00000000000E+00 -0.52479949844E+02  0.52479949906E+02  0.25500000920E-02 0.  1.
    10030    2    1    2    0    0  0.00000000000E+00  0.00000000000E+00  0.11390164321E+04  0.12439763319E+04  0.50011866754E+03 0.  0.
        4    1    3    3  502    0 -0.17872503195E+03 -0.11455153586E+03  0.24080569786E+03  0.32101976331E+03  0.12699999809E+01 0.  1.
       -4    1    3    3    0  502  0.17872503195E+03  0.11455153586E+03  0.89821073425E+03  0.92295656855E+03  0.12699999809E+01 0. -1.
</event>
<event>
 5   0  0.4989875E-03  0.4995716E+03  0.7818609E-02  0.1013891E+00
       -2   -1    0    0    0  501  0.00000000000E+00  0.00000000000E+00  0.21977578626E+03  0.21977578628E+03  0.25500000920E-02 0.  1.
        2   -1    0    0  501    0  0.00000000000E+00  0.00000000000E+00 -0.28389364562E+03  0.28389364563E+03  0.25500000920E-02 0. -1.
    10030    2    1    2    0    0  0.00000000000E+00  0.00000000000E+00 -0.64117859355E+02  0.50366943190E+03  0.49957161323E+03 0.  0.
        2    1    3    3  502    0 -0.84273216220E+02 -0.25068945614E+02  0.20365903062E+03  0.22182747297E+03  0.25500000920E-02 0.  1.
       -2    1    3    3    0  502  0.84273216220E+02  0.25068945614E+02 -0.26777688997E+03  0.28184195893E+03  0.25500000920E-02 0. -1.
</event>
<event>
 5   0  0.4989875E-03  0.5000046E+03  0.7818609E-02  0.1013778E+00
        2   -1    0    0  501    0  0.00000000000E+00  0.00000000000E+00  0.37984907029E+03  0.37984907030E+03  0.25500000920E-02 0. -1.
       -2   -1    0    0    0  501  0.00000000000E+00  0.00000000000E+00 -0.16454203452E+03  0.16454203454E+03  0.25500000920E-02 0.  1.
    10030    2    1    2    0    0  0.00000000000E+00  0.00000000000E+00  0.21530703577E+03  0.54439110484E+03  0.50000455536E+03 0.  0.
        2    1    3    3  502    0 -0.15243778215E+03  0.45770652189E+02  0.31756053882E+03  0.35521391562E+03  0.25500000920E-02 0. -1.
       -2    1    3    3    0  502  0.15243778215E+03 -0.45770652189E+02 -0.10225350305E+03  0.18917718922E+03  0.25500000920E-02 0.  1.
</event>
<event>
 5   0  0.5118882E-03  0.4998726E+03  0.7818609E-02  0.1013812E+00
       -2   -1    0    0    0  501  0.00000000000E+00  0.00000000000E+00  0.67151410347E+02  0.67151410395E+02  0.25500000920E-02 0.  1.
        2   -1    0    0  501    0  0.00000000000E+00  0.00000000000E+00 -0.93025813851E+03  0.93025813852E+03  0.25500000920E-02 0. -1.
    10030    2    1    2    0    0  0.00000000000E+00  0.00000000000E+00 -0.86310672817E+03  0.99740954891E+03  0.49987256781E+03 0.  0.
        3    1    3    3  502    0  0.19950104451E+03 -0.13624680472E+03 -0.30372343057E+03  0.38808734975E+03  0.10100000352E+00 0.  1.
       -3    1    3    3    0  502 -0.19950104451E+03  0.13624680472E+03 -0.55938329760E+03  0.60932219916E+03  0.10100000352E+00 0. -1.
</event>
<event>
 5   0  0.3013734E-03  0.5001921E+03  0.7818609E-02  0.1013729E+00
       -1   -1    0    0    0  501  0.00000000000E+00  0.00000000000E+00  0.12771019727E+03  0.12771019737E+03  0.50400001928E-02 0. -1.
        1   -1    0    0  501    0  0.00000000000E+00  0.00000000000E+00 -0.48976547854E+03  0.48976547857E+03  0.50400001928E-02 0.  1.
    10030    2    1    2    0    0  0.00000000000E+00  0.00000000000E+00 -0.36205528127E+03  0.61747567594E+03  0.50019214676E+03 0.  0.
        2    1    3    3  502    0  0.43762955335E+02 -0.11707405064E+03 -0.44844656816E+03  0.46553824128E+03  0.25500000920E-02 0.  1.
       -2    1    3    3    0  502 -0.43762955335E+02  0.11707405064E+03  0.86391286891E+02  0.15193743466E+03  0.25500000920E-02 0. -1.
</event>
<event>
 5   0  0.2863538E-03  0.4999574E+03  0.7818609E-02  0.1013790E+00
        1   -1    0    0  501    0  0.00000000000E+00  0.00000000000E+00  0.11316259303E+03  0.11316259314E+03  0.50400001928E-02 0.  1.
       -1   -1    0    0    0  501  0.00000000000E+00  0.00000000000E+00 -0.55220857609E+03  0.55220857612E+03  0.50400001928E-02 0. -1.
    10030    2    1    2    0    0  0.00000000000E+00  0.00000000000E+00 -0.43904598307E+03  0.66537116926E+03  0.49995741582E+03 0.  0.
        1    1    3    3  502    0  0.14461628459E+03 -0.20360405681E+03 -0.20489128399E+03  0.32303083444E+03  0.50400001928E-02 0. -1.
       -1    1    3    3    0  502 -0.14461628459E+03  0.20360405681E+03 -0.23415469907E+03  0.34234033481E+03  0.50400001928E-02 0.  1.
</event>
<event>
 5   0  0.3055293E-03  0.4999655E+03  0.7818609E-02  0.1013788E+00
       -1   -1    0    0    0  501  0.00000000000E+00  0.00000000000E+00  0.54219507231E+02  0.54219507466E+02  0.50400001928E-02 0. -1.
        1   -1    0    0  501    0  0.00000000000E+00  0.00000000000E+00 -0.11525624006E+04  0.11525624006E+04  0.50400001928E-02 0.  1.
    10030    2    1    2    0    0  0.00000000000E+00  0.00000000000E+00 -0.10983428933E+04  0.12067819080E+04  0.49996546104E+03 0.  0.
        3    1    3    3  502    0  0.48697759891E+02  0.18086717135E+03 -0.14957727954E+03  0.23970352155E+03  0.10100000352E+00 0. -1.
       -3    1    3    3    0  502 -0.48697759891E+02 -0.18086717135E+03 -0.94876561378E+03  0.96707838648E+03  0.10100000352E+00 0.  1.
</event>
<event>
 5   0  0.2005125E-03  0.5000295E+03  0.7818609E-02  0.1013771E+00
        3   -1    0    0  501    0  0.00000000000E+00  0.00000000000E+00  0.96775417049E+03  0.96775417576E+03  0.10100000352E+00 0. -1.
       -3   -1    0    0    0  501  0.00000000000E+00  0.00000000000E+00 -0.64590103563E+02  0.64590182530E+02  0.10100000352E+00 0.  1.
    10030    2    1    2    0    0  0.00000000000E+00  0.00000000000E+00  0.90316406693E+03  0.10323443583E+04  0.50002954144E+03 0.  0.
        4    1    3    3  502    0  0.24316044770E+03 -0.50761803999E+02  0.39311400623E+03  0.46502042843E+03  0.12699999809E+01 0. -1.
       -4    1    3    3    0  502 -0.24316044770E+03  0.50761803999E+02  0.51005006070E+03  0.56732392986E+03  0.12699999809E+01 0.  1.
</event>
<event>
 5   0  0.3013734E-03  0.5000529E+03  0.7818609E-02  0.1013765E+00
        1   -1    0    0  501    0  0.00000000000E+00  0.00000000000E+00  0.73628728229E+03  0.73628728230E+03  0.50400001928E-02 0. -1.
       -1   -1    0    0    0  501  0.00000000000E+00  0.00000000000E+00 -0.84903293516E+02  0.84903293665E+02  0.50400001928E-02 0.  1.
    10030    2    1    2    0    0  0.00000000000E+00  0.00000000000E+00  0.65138398877E+03  0.82119057597E+03  0.50005285844E+03 0.  0.
        2    1    3    3  502    0 -0.61576693256E+01  0.45640383231E+02  0.72926179609E+03  0.73071453299E+03  0.25500000920E-02 0. -1.
       -2    1    3    3    0  502  0.61576693256E+01 -0.45640383231E+02 -0.77877807324E+02  0.90476042979E+02  0.25500000920E-02 0.  1.
</event>
<event>
 5   0  0.2863538E-03  0.5000321E+03  0.7818609E-02  0.1013771E+00
        1   -1    0    0  501    0  0.00000000000E+00  0.00000000000E+00  0.67684232128E+03  0.67684232129E+03  0.50400001928E-02 0. -1.
       -1   -1    0    0    0  501  0.00000000000E+00  0.00000000000E+00 -0.92352434131E+02  0.92352434269E+02  0.50400001928E-02 0.  1.
    10030    2    1    2    0    0  0.00000000000E+00  0.00000000000E+00  0.58448988714E+03  0.76919475556E+03  0.50003214278E+03 0.  0.
        1    1    3    3  502    0  0.78389843977E+02 -0.29319962700E+02  0.65465331217E+03  0.65998150505E+03  0.50400001928E-02 0. -1.
       -1    1    3    3    0  502 -0.78389843977E+02  0.29319962700E+02 -0.70163425023E+02  0.10921325051E+03  0.50400001928E-02 0.  1.
</event>
<event>
 5   0  0.5095783E-03  0.4998759E+03  0.7818609E-02  0.1013811E+00
       -2   -1    0    0    0  501  0.00000000000E+00  0.00000000000E+00  0.65657544198E+03  0.65657544198E+03  0.25500000920E-02 0. -1.
        2   -1    0    0  501    0  0.00000000000E+00  0.00000000000E+00 -0.95143649602E+02  0.95143649637E+02  0.25500000920E-02 0.  1.
    10030    2    1    2    0    0  0.00000000000E+00  0.00000000000E+00  0.56143179237E+03  0.75171909162E+03  0.49987591982E+03 0.  0.
        4    1    3    3  502    0  0.76632805803E+02 -0.16801190407E+03  0.53399444862E+03  0.56502413302E+03  0.12699999809E+01 0. -1.
       -4    1    3    3    0  502 -0.76632805803E+02  0.16801190407E+03  0.27437343755E+02  0.18669495860E+03  0.12699999809E+01 0.  1.
</event>
<event>
 5   0  0.5095783E-03  0.4999865E+03  0.7818609E-02  0.1013782E+00
        2   -1    0    0  501    0  0.00000000000E+00  0.00000000000E+00  0.55147712897E+03  0.55147712898E+03  0.25500000920E-02 0. -1.
       -2   -1    0    0    0  501  0.00000000000E+00  0.00000000000E+00 -0.11332585973E+03  0.11332585976E+03  0.25500000920E-02 0.  1.
    10030    2    1    2    0    0  0.00000000000E+00  0.00000000000E+00  0.43815126924E+03  0.66480298874E+03  0.49998647891E+03 0.  0.
        4    1    3    3  502    0 -0.84691570117E+02 -0.13821536311E+03 -0.33971882837E+02  0.16562563320E+03  0.12699999809E+01 0.  1.
       -4    1    3    3    0  502  0.84691570117E+02  0.13821536311E+03  0.47212315208E+03  0.49917735553E+03  0.12699999809E+01 0. -1.
</event>
<event>
 5   0  0.4989875E-03  0.4999308E+03  0.7818609E-02  0.1013797E+00
       -2   -1    0    0    0  501  0.00000000000E+00  0.00000000000E+00  0.66677877774E+02  0.66677877823E+02  0.25500000920E-02 0. -1.
        2   -1    0    0  501    0  0.00000000000E+00  0.00000000000E+00 -0.93708311807E+03  0.93708311807E+03  0.25500000920E-02 0.  1.
    10030    2    1    2    0    0  0.00000000000E+00  0.00000000000E+00 -0.87040524030E+03  0.10037609959E+04  0.49993084977E+03 0.  0.
        2    1    3    3  502    0  0.18336508783E+03  0.15114385504E+03 -0.27947845842E+03  0.36684523859E+03  0.25500000920E-02 0. -1.
       -2    1    3    3    0  502 -0.18336508783E+03 -0.15114385504E+03 -0.59092678188E+03  0.63691575730E+03  0.25500000920E-02 0.  1.
</event>
<event>
 5   0  0.3057783E-03  0.5000519E+03  0.7818609E-02  0.1013765E+00
       -1   -1    0    0    0  501  0.00000000000E+00  0.00000000000E+00  0.11365767983E+03  0.11365767995E+03  0.50400001928E-02 0. -1.
        1   -1    0    0  501    0  0.00000000000E+00  0.00000000000E+00 -0.55001092049E+03  0.55001092052E+03  0.50400001928E-02 0.  1.
    10030    2    1    2    0    0  0.00000000000E+00  0.00000000000E+00 -0.43635324066E+03  0.66366860046E+03  0.50005185792E+03 0.  0.
        5    1    3    3  502    0  0.13367780292E+03  0.20972018873E+03 -0.18463855827E+03  0.30978347237E+03  0.46999998093E+01 0. -1.
       -5    1    3    3    0  502 -0.13367780292E+03 -0.20972018873E+03 -0.25171468239E+03  0.35388512810E+03  0.46999998093E+01 0.  1.
</event>
<event>
 5   0  0.3211775E-03  0.4988314E+03  0.7818609E-02  0.1014084E+00
        1   -1    0    0  501    0  0.00000000000E+00  0.00000000000E+00  0.56413560603E+02  0.56413560828E+02  0.50400001928E-02 0. -1.
       -1   -1    0    0    0  501  0.00000000000E+00  0.00000000000E+00 -0.11027168705E+04  0.11027168705E+04  0.50400001928E-02 0.  1.
    10030    2    1    2    0    0  0.00000000000E+00  0.00000000000E+00 -0.10463033099E+04  0.11591304313E+04  0.49883137486E+03 0.  0.
        4    1    3    3  502    0 -0.11882564089E+03 -0.85204304888E+02 -0.53632089938E+02  0.15574761788E+03  0.12699999809E+01 0. -1.
       -4    1    3    3    0  502  0.11882564089E+03  0.85204304888E+02 -0.99267121992E+03  0.10033828134E+04  0.12699999809E+01 0.  1.
</event>
<event>
 5   0  0.3055293E-03  0.5000361E+03  0.7818609E-02  0.1013769E+00
       -1   -1    0    0    0  501  0.00000000000E+00  0.00000000000E+00  0.10248713476E+03  0.10248713489E+03  0.50400001928E-02 0. -1.
        1   -1    0    0  501    0  0.00000000000E+00  0.00000000000E+00 -0.60992065935E+03  0.60992065937E+03  0.50400001928E-02 0.  1.
    10030    2    1    2    0    0  0.00000000000E+00  0.00000000000E+00 -0.50743352458E+03  0.71240779425E+03  0.50003608214E+03 0.  0.
        3    1    3    3  502    0 -0.80286018794E+02  0.16198093827E+03 -0.76686536602E+01  0.18094885362E+03  0.10100000352E+00 0. -1.
       -3    1    3    3    0  502  0.80286018794E+02 -0.16198093827E+03 -0.49976487092E+03  0.53145894064E+03  0.10100000352E+00 0.  1.
</event>
<event>
 5   0  0.2005125E-03  0.4999929E+03  0.7818609E-02  0.1013781E+00
        3   -1    0    0  501    0  0.00000000000E+00  0.00000000000E+00  0.39080405205E+03  0.39080406510E+03  0.10100000352E+00 0.  1.
       -3   -1    0    0    0  501  0.00000000000E+00  0.00000000000E+00 -0.15992209580E+03  0.15992212769E+03  0.10100000352E+00 0. -1.
    10030    2    1    2    0    0  0.00000000000E+00  0.00000000000E+00  0.23088195625E+03  0.55072619279E+03  0.49999286165E+03 0.  0.
        4    1    3    3  502    0 -0.24402007090E+02 -0.20846749011E+03 -0.34141676820E+02  0.21265328443E+03  0.12699999809E+01 0. -1.
       -4    1    3    3    0  502  0.24402007090E+02  0.20846749011E+03  0.26502363307E+03  0.33807290836E+03  0.12699999809E+01 0.  1.
</event>
<event>
 5   0  0.3211775E-03  0.4995109E+03  0.7818609E-02  0.1013907E+00
       -1   -1    0    0    0  501  0.00000000000E+00  0.00000000000E+00  0.34306545450E+03  0.34306545454E+03  0.50400001928E-02 0.  1.
        1   -1    0    0  501    0  0.00000000000E+00  0.00000000000E+00 -0.18182470870E+03  0.18182470876E+03  0.50400001928E-02 0. -1.
    10030    2    1    2    0    0  0.00000000000E+00  0.00000000000E+00  0.16124074581E+03  0.52489016330E+03  0.49951086617E+03 0.  0.
        4    1    3    3  502    0 -0.13197138185E+03  0.11959462128E+03 -0.10336666119E+03  0.20592619700E+03  0.12699999809E+01 0. -1.
       -4    1    3    3    0  502  0.13197138185E+03 -0.11959462128E+03  0.26460740699E+03  0.31896396631E+03  0.12699999809E+01 0.  1.
</event>
<event>
 5   0  0.3013734E-03  0.5000215E+03  0.7818609E-02  0.1013773E+00
        1   -1    0    0  501    0  0.00000000000E+00  0.00000000000E+00  0.15057870104E+03  0.15057870113E+03  0.50400001928E-02 0. -1.
       -1   -1    0    0    0  501  0.00000000000E+00  0.00000000000E+00 -0.41510096552E+03  0.41510096556E+03  0.50400001928E-02 0.  1.
    10030    2    1    2    0    0  0.00000000000E+00  0.00000000000E+00 -0.26452226448E+03  0.56567966668E+03  0.50002145643E+03 0.  0.
        2    1    3    3  502    0 -0.12009754297E+03  0.17200962956E+03  0.21591443534E+02  0.21089552610E+03  0.25500000920E-02 0. -1.
       -2    1    3    3    0  502  0.12009754297E+03 -0.17200962956E+03 -0.28611370802E+03  0.35478414058E+03  0.25500000920E-02 0.  1.
</event>
<event>
 5   0  0.4978779E-03  0.5000950E+03  0.7818609E-02  0.1013754E+00
       -2   -1    0    0    0  501  0.00000000000E+00  0.00000000000E+00  0.12564167290E+03  0.12564167293E+03  0.25500000920E-02 0.  1.
        2   -1    0    0  501    0  0.00000000000E+00  0.00000000000E+00 -0.49763542876E+03  0.49763542877E+03  0.25500000920E-02 0. -1.
    10030    2    1    2    0    0  0.00000000000E+00  0.00000000000E+00 -0.37199375586E+03  0.62327710170E+03  0.50009498208E+03 0.  0.
        1    1    3    3  502    0 -0.16908763861E+03 -0.36235595332E+02  0.39100957090E+02  0.17729222422E+03  0.50400001928E-02 0.  1.
       -1    1    3    3    0  502  0.16908763861E+03  0.36235595332E+02 -0.41109471295E+03  0.44598487748E+03  0.50400001928E-02 0. -1.
</event>
<event>
 5   0  0.4989875E-03  0.5001019E+03  0.7818609E-02  0.1013752E+00
       -2   -1    0    0    0  501  0.00000000000E+00  0.00000000000E+00  0.16371526449E+03  0.16371526451E+03  0.25500000920E-02 0. -1.
        2   -1    0    0  501    0  0.00000000000E+00  0.00000000000E+00 -0.38191600844E+03  0.38191600845E+03  0.25500000920E-02 0.  1.
    10030    2    1    2    0    0  0.00000000000E+00  0.00000000000E+00 -0.21820074395E+03  0.54563127296E+03  0.50010191099E+03 0.  0.
        2    1    3    3  502    0  0.51596532635E+02  0.89887238139E+02  0.13917675016E+03  0.17352834222E+03  0.25500000920E-02 0. -1.
       -2    1    3    3    0  502 -0.51596532635E+02 -0.89887238139E+02 -0.35737749412E+03  0.37210293074E+03  0.25500000920E-02 0.  1.
</event>
<event>
 5   0  0.5118882E-03  0.4999883E+03  0.7818609E-02  0.1013782E+00
        2   -1    0    0  501    0  0.00000000000E+00  0.00000000000E+00  0.12960817107E+04  0.12960817107E+04  0.25500000920E-02 0. -1.
       -2   -1    0    0    0  501  0.00000000000E+00  0.00000000000E+00 -0.48220008708E+02  0.48220008776E+02  0.25500000920E-02 0.  1.
    10030    2    1    2    0    0  0.00000000000E+00  0.00000000000E+00  0.12478617020E+04  0.13443017195E+04  0.49998828556E+03 0.  0.
        3    1    3    3  502    0 -0.92148474586E+02  0.88178886017E+02  0.45835030573E+02  0.13552755268E+03  0.10100000352E+00 0.  1.
       -3    1    3    3    0  502  0.92148474586E+02 -0.88178886017E+02  0.12020266714E+04  0.12087741668E+04  0.10100000352E+00 0. -1.
</event>
<event>
 5   0  0.4889251E-03  0.5000468E+03  0.7818609E-02  0.1013767E+00
       -2   -1    0    0    0  501  0.00000000000E+00  0.00000000000E+00  0.19053628769E+03  0.19053628771E+03  0.25500000920E-02 0.  1.
        2   -1    0    0  501    0  0.00000000000E+00  0.00000000000E+00 -0.32808292949E+03  0.32808292950E+03  0.25500000920E-02 0. -1.
    10030    2    1    2    0    0  0.00000000000E+00  0.00000000000E+00 -0.13754664180E+03  0.51861921722E+03  0.50004681160E+03 0.  0.
        5    1    3    3  502    0  0.67442572079E+02  0.24006423016E+03 -0.87042273848E+02  0.26415484581E+03  0.46999998093E+01 0. -1.
       -5    1    3    3    0  502 -0.67442572079E+02 -0.24006423016E+03 -0.50504367953E+02  0.25446437140E+03  0.46999998093E+01 0.  1.
</event>
<event>
 5   0  0.2005125E-03  0.4999152E+03  0.7818609E-02  0.1013801E+00
       -3   -1    0    0    0  501  0.00000000000E+00  0.00000000000E+00  0.75708948647E+03  0.75708949321E+03  0.10100000352E+00 0.  1.
        3   -1    0    0  501    0  0.00000000000E+00  0.00000000000E+00 -0.82524948677E+02  0.82525010483E+02  0.10100000352E+00 0. -1.
    10030    2    1    2    0    0  0.00000000000E+00  0.00000000000E+00  0.67456453779E+03  0.83961450369E+03  0.49991519197E+03 0.  0.
        1    1    3    3  502    0 -0.26371510001E+02 -0.11231603581E+03  0.70969700905E+03  0.71901334697E+03  0.50400001928E-02 0.  1.
       -1    1    3    3    0  502  0.26371510001E+02  0.11231603581E+03 -0.35132471261E+02  0.12060115672E+03  0.50400001928E-02 0. -1.
</event>
<event>
 5   0  0.3055293E-03  0.5003999E+03  0.7818609E-02  0.1013675E+00
       -1   -1    0    0    0  501  0.00000000000E+00  0.00000000000E+00  0.60368724929E+02  0.60368725140E+02  0.50400001928E-02 0.  1.
        1   -1    0    0  501    0  0.00000000000E+00  0.00000000000E+00 -0.10369608712E+04  0.10369608712E+04  0.50400001928E-02 0. -1.
    10030    2    1    2    0    0  0.00000000000E+00  0.00000000000E+00 -0.97659214631E+03  0.10973295964E+04  0.50039986299E+03 0.  0.
        3    1    3    3  502    0  0.15143094837E+03 -0.17447011649E+03 -0.27763052752E+03  0.36117845130E+03  0.10100000352E+00 0.  1.
       -3    1    3    3    0  502 -0.15143094837E+03  0.17447011649E+03 -0.69896161879E+03  0.73615114508E+03  0.10100000352E+00 0. -1.
</event>
<event>
 5   0  0.2005125E-03  0.4996059E+03  0.7818609E-02  0.1013882E+00
        3   -1    0    0  501    0  0.00000000000E+00  0.00000000000E+00  0.65186022351E+03  0.65186023133E+03  0.10100000352E+00 0.  1.
       -3   -1    0    0    0  501  0.00000000000E+00  0.00000000000E+00 -0.95728329553E+02  0.95728382834E+02  0.10100000352E+00 0. -1.
    10030    2    1    2    0    0  0.00000000000E+00  0.00000000000E+00  0.55613189395E+03  0.74758861417E+03  0.49960589724E+03 0.  0.
        5    1    3    3  502    0  0.23047579551E+02 -0.24865617068E+03  0.28447430265E+03  0.37856148907E+03  0.46999998093E+01 0. -1.
       -5    1    3    3    0  502 -0.23047579551E+02  0.24865617068E+03  0.27165759130E+03  0.36902712509E+03  0.46999998093E+01 0.  1.
</event>
<event>
 5   0  0.3013734E-03  0.5000006E+03  0.7818609E-02  0.1013779E+00
       -1   -1    0    0    0  501  0.00000000000E+00  0.00000000000E+00  0.52659180795E+02  0.52659181036E+02  0.50400001928E-02 0.  1.
        1   -1    0    0  501    0  0.00000000000E+00  0.00000000000E+00 -0.11868806396E+04  0.11868806397E+04  0.50400001928E-02 0. -1.
    10030    2    1    2    0    0  0.00000000000E+00  0.00000000000E+00 -0.11342214589E+04  0.12395398207E+04  0.50000064937E+03 0.  0.
        2    1    3    3  502    0 -0.69495253066E+02 -0.14317724903E+03 -0.89151176298E+02  0.18242052264E+03  0.25500000920E-02 0.  1.
       -2    1    3    3    0  502  0.69495253066E+02  0.14317724903E+03 -0.10450702826E+04  0.10571192981E+04  0.25500000920E-02 0. -1.
</event>
<event>
 5   0  0.3055293E-03  0.5001175E+03  0.7818609E-02  0.1013748E+00
       -1   -1    0    0    0  501  0.00000000000E+00  0.00000000000E+00  0.20695031764E+03  0.20695031770E+03  0.50400001928E-02 0. -1.
        1   -1    0    0  501    0  0.00000000000E+00  0.00000000000E+00 -0.30214675699E+03  0.30214675703E+03  0.50400001928E-02 0.  1.
    10030    2    1    2    0    0  0.00000000000E+00  0.00000000000E+00 -0.95196439350E+02  0.50909707473E+03  0.50011745564E+03 0.  0.
        3    1    3    3  502    0 -0.23261766847E+03 -0.91417475581E+02 -0.39633241595E+02  0.25305916021E+03  0.10100000352E+00 0. -1.
       -3    1    3    3    0  502  0.23261766847E+03  0.91417475581E+02 -0.55563197755E+02  0.25603791452E+03  0.10100000352E+00 0.  1.
</event>
<event>
 5   0  0.4989875E-03  0.4999581E+03  0.7818609E-02  0.1013790E+00
       -2   -1    0    0    0  501  0.00000000000E+00  0.00000000000E+00  0.71297987597E+02  0.71297987642E+02  0.25500000920E-02 0.  1.
        2   -1    0    0  501    0  0.00000000000E+00  0.00000000000E+00 -0.87645564850E+03  0.87645564850E+03  0.25500000920E-02 0. -1.
    10030    2    1    2    0    0  0.00000000000E+00  0.00000000000E+00 -0.80515766090E+03  0.94775363614E+03  0.49995809416E+03 0.  0.
        2    1    3    3  502    0  0.52868064018E+02 -0.16890636999E+03 -0.67924594485E+02  0.18957358613E+03  0.25500000920E-02 0.  1.
       -2    1    3    3    0  502 -0.52868064018E+02  0.16890636999E+03 -0.73723306641E+03  0.75818005001E+03  0.25500000920E-02 0. -1.
</event>
<event>
 5   0  0.4978779E-03  0.5003871E+03  0.7818609E-02  0.1013678E+00
        2   -1    0    0  501    0  0.00000000000E+00  0.00000000000E+00  0.47855900612E+03  0.47855900612E+03  0.25500000920E-02 0.  1.
       -2   -1    0    0    0  501  0.00000000000E+00  0.00000000000E+00 -0.13080272383E+03  0.13080272386E+03  0.25500000920E-02 0. -1.
    10030    2    1    2    0    0  0.00000000000E+00  0.00000000000E+00  0.34775628228E+03  0.60936172998E+03  0.50038713622E+03 0.  0.
        1    1    3    3  502    0  0.11671588429E+03 -0.23737053433E+02 -0.94063406686E+02  0.15176946285E+03  0.50400001928E-02 0. -1.
       -1    1    3    3    0  502 -0.11671588429E+03  0.23737053433E+02  0.44181968897E+03  0.45759226713E+03  0.50400001928E-02 0.  1.
</event>
<event>
 5   0  0.4978779E-03  0.5000821E+03  0.7818609E-02  0.1013757E+00
        2   -1    0    0  501    0  0.00000000000E+00  0.00000000000E+00  0.12428889918E+04  0.12428889918E+04  0.25500000920E-02 0.  1.
       -2   -1    0    0    0  501  0.00000000000E+00  0.00000000000E+00 -0.50302575682E+02  0.50302575747E+02  0.25500000920E-02 0. -1.
    10030    2    1    2    0    0  0.00000000000E+00  0.00000000000E+00  0.11925864161E+04  0.12931915675E+04  0.50008206373E+03 0.  0.
        1    1    3    3  502    0 -0.11206752154E+03 -0.14665471604E+03  0.16008725382E+03  0.24432491478E+03  0.50400001928E-02 0. -1.
       -1    1    3    3    0  502  0.11206752154E+03  0.14665471604E+03  0.10324991623E+04  0.10488666527E+04  0.50400001928E-02 0.  1.
</event>
<event>
 5   0  0.5118882E-03  0.5008166E+03  0.7818609E-02  0.1013566E+00
       -2   -1    0    0    0  501  0.00000000000E+00  0.00000000000E+00  0.10868747102E+03  0.10868747105E+03  0.25500000920E-02 0. -1.
        2   -1    0    0  501    0  0.00000000000E+00  0.00000000000E+00 -0.57692302462E+03  0.57692302463E+03  0.25500000920E-02 0.  1.
    10030    2    1    2    0    0  0.00000000000E+00  0.00000000000E+00 -0.46823555361E+03  0.68561049568E+03  0.50081655137E+03 0.  0.
        3    1    3    3  502    0  0.11360267098E+03  0.14234995414E+03 -0.46938903479E+03  0.50348302104E+03  0.10100000352E+00 0.  1.
       -3    1    3    3    0  502 -0.11360267098E+03 -0.14234995414E+03  0.11534811855E+01  0.18212747463E+03  0.10100000352E+00 0. -1.
</event>
<event>
 5   0  0.3211775E-03  0.5000133E+03  0.7818609E-02  0.1013775E+00
       -1   -1    0    0    0  501  0.00000000000E+00  0.00000000000E+00  0.14977070720E+03  0.14977070729E+03  0.50400001928E-02 0. -1.
        1   -1    0    0  501    0  0.00000000000E+00  0.00000000000E+00 -0.41732676398E+03  0.41732676401E+03  0.50400001928E-02 0.  1.
    10030    2    1    2    0    0  0.00000000000E+00  0.00000000000E+00 -0.26755605677E+03  0.56709747130E+03  0.50001329826E+03 0.  0.
        4    1    3    3  502    0  0.20964468696E+03 -0.11032122995E+03 -0.22436963549E+03  0.32628977119E+03  0.12699999809E+01 0.  1.
       -4    1    3    3    0  502 -0.20964468696E+03  0.11032122995E+03 -0.43186421281E+02  0.24080770011E+03  0.12699999809E+01 0. -1.
</event>
<event>
 5   0  0.5118882E-03  0.5001511E+03  0.7818609E-02  0.1013739E+00
       -2   -1    0    0    0  501  0.00000000000E+00  0.00000000000E+00  0.26428533360E+02  0.26428533483E+02  0.25500000920E-02 0.  1.
        2   -1    0    0  501    0  0.00000000000E+00  0.00000000000E+00 -0.23662976115E+04  0.23662976115E+04  0.25500000920E-02 0. -1.
    10030    2    1    2    0    0  0.00000000000E+00  0.00000000000E+00 -0.23398690781E+04  0.23927261450E+04  0.50015107923E+03 0.  0.
        3    1    3    3  502    0 -0.27492411251E+01 -0.13750068604E+03 -0.21691367215E+04  0.21734921495E+04  0.10100000352E+00 0. -1.
       -3    1    3    3    0  502  0.27492411251E+01  0.13750068604E+03 -0.17073235663E+03  0.21923399552E+03  0.10100000352E+00 0.  1.
</event>
<event>
 5   0  0.3013734E-03  0.4997134E+03  0.7818609E-02  0.1013854E+00
       -1   -1    0    0    0  501  0.00000000000E+00  0.00000000000E+00  0.70832705677E+02  0.70832705856E+02  0.50400001928E-02 0.  1.
        1   -1    0    0  501    0  0.00000000000E+00  0.00000000000E+00 -0.88134948149E+03  0.88134948150E+03  0.50400001928E-02 0. -1.
    10030    2    1    2    0    0  0.00000000000E+00  0.00000000000E+00 -0.81051677581E+03  0.95218218736E+03  0.49971339191E+03 0.  0.
        2    1    3    3  502    0  0.25120263752E+02  0.16051785408E+03 -0.43565983909E+02  0.16821118896E+03  0.25500000920E-02 0.  1.
       -2    1    3    3    0  502 -0.25120263752E+02 -0.16051785408E+03 -0.76695079190E+03  0.78397099840E+03  0.25500000920E-02 0. -1.
</event>
<event>
 5   0  0.2005125E-03  0.5000798E+03  0.7818609E-02  0.1013758E+00
       -4   -1    0    0    0  501  0.00000000000E+00  0.00000000000E+00  0.57561423640E+02  0.57575432186E+02  0.12699999809E+01 0. -1.
        4   -1    0    0  501    0  0.00000000000E+00  0.00000000000E+00 -0.10859969023E+04  0.10859976449E+04  0.12699999809E+01 0.  1.
    10030    2    1    2    0    0  0.00000000000E+00  0.00000000000E+00 -0.10284354787E+04  0.11435730771E+04  0.50007984247E+03 0.  0.
        2    1    3    3  502    0 -0.36440632218E+02  0.95742226499E+01  0.51040000178E+02  0.63440263560E+02  0.25500000920E-02 0. -1.
       -2    1    3    3    0  502  0.36440632218E+02 -0.95742226499E+01 -0.10794754788E+04  0.10801328135E+04  0.25500000920E-02 0.  1.
</event>
<event>
 5   0  0.5118882E-03  0.4999365E+03  0.7818609E-02  0.1013795E+00
       -2   -1    0    0    0  501  0.00000000000E+00  0.00000000000E+00  0.53232382150E+02  0.53232382211E+02  0.25500000920E-02 0. -1.
        2   -1    0    0  501    0  0.00000000000E+00  0.00000000000E+00 -0.11737990860E+04  0.11737990860E+04  0.25500000920E-02 0.  1.
    10030    2    1    2    0    0  0.00000000000E+00  0.00000000000E+00 -0.11205667039E+04  0.12270314682E+04  0.49993648218E+03 0.  0.
        3    1    3    3  502    0 -0.73326679889E+01  0.91380224206E+02  0.10484105981E+02  0.92271556154E+02  0.10100000352E+00 0. -1.
       -3    1    3    3    0  502  0.73326679889E+01 -0.91380224206E+02 -0.11310508099E+04  0.11347599121E+04  0.10100000352E+00 0.  1.
</event>
<event>
 5   0  0.3013734E-03  0.5001714E+03  0.7818609E-02  0.1013734E+00
        1   -1    0    0  501    0  0.00000000000E+00  0.00000000000E+00  0.90197401239E+03  0.90197401241E+03  0.50400001928E-02 0. -1.
       -1   -1    0    0    0  501  0.00000000000E+00  0.00000000000E+00 -0.69339968661E+02  0.69339968844E+02  0.50400001928E-02 0.  1.
    10030    2    1    2    0    0  0.00000000000E+00  0.00000000000E+00  0.83263404373E+03  0.97131398125E+03  0.50017137002E+03 0.  0.
        2    1    3    3  502    0 -0.22505241700E+02  0.24830912213E+03  0.37851385221E+03  0.45325119124E+03  0.25500000920E-02 0. -1.
       -2    1    3    3    0  502  0.22505241700E+02 -0.24830912213E+03  0.45412019152E+03  0.51806279001E+03  0.25500000920E-02 0.  1.
</event>
<event>
 5   0  0.3013734E-03  0.5001672E+03  0.7818609E-02  0.1013735E+00
        1   -1    0    0  501    0  0.00000000000E+00  0.00000000000E+00  0.24950080860E+03  0.24950080865E+03  0.50400001928E-02 0.  1.
       -1   -1    0    0    0  501  0.00000000000E+00  0.00000000000E+00 -0.25066779058E+03  0.25066779063E+03  0.50400001928E-02 0. -1.
    10030    2    1    2    0    0  0.00000000000E+00  0.00000000000E+00 -0.11669819721E+01  0.50016859928E+03  0.50016723789E+03 0.  0.
        2    1    3    3  502    0 -0.21149867278E+03  0.13345072805E+03 -0.15989015988E+01  0.25008666877E+03  0.25500000920E-02 0.  1.
       -2    1    3    3    0  502  0.21149867278E+03 -0.13345072805E+03  0.43191962673E+00  0.25008193051E+03  0.25500000920E-02 0. -1.
</event>
<event>
 5   0  0.2005125E-03  0.4999625E+03  0.7818609E-02  0.1013789E+00
       -3   -1    0    0    0  501  0.00000000000E+00  0.00000000000E+00  0.12178376698E+03  0.12178380886E+03  0.10100000352E+00 0.  1.
        3   -1    0    0  501    0  0.00000000000E+00  0.00000000000E+00 -0.51312766323E+03  0.51312767317E+03  0.10100000352E+00 0. -1.
    10030    2    1    2    0    0  0.00000000000E+00  0.00000000000E+00 -0.39134389625E+03  0.63491148202E+03  0.49996254347E+03 0.  0.
        1    1    3    3  502    0  0.25458184531E+02 -0.19509718246E+03  0.15751963360E+00  0.19675125057E+03  0.50400001928E-02 0.  1.
       -1    1    3    3    0  502 -0.25458184531E+02  0.19509718246E+03 -0.39150141588E+03  0.43816023145E+03  0.50400001928E-02 0. -1.
</event>
<event>
 5   0  0.3057783E-03  0.5000366E+03  0.7818609E-02  0.1013769E+00
        1   -1    0    0  501    0  0.00000000000E+00  0.00000000000E+00  0.37475461145E+03  0.37475461148E+03  0.50400001928E-02 0.  1.
       -1   -1    0    0    0  501  0.00000000000E+00  0.00000000000E+00 -0.16680024820E+03  0.16680024828E+03  0.50400001928E-02 0. -1.
    10030    2    1    2    0    0  0.00000000000E+00  0.00000000000E+00  0.20795436325E+03  0.54155485977E+03  0.50003664760E+03 0.  0.
        5    1    3    3  502    0  0.20152630306E+03 -0.63681525751E+02  0.24854808050E+03  0.32629193350E+03  0.46999998093E+01 0.  1.
       -5    1    3    3    0  502 -0.20152630306E+03  0.63681525751E+02 -0.40593717253E+02  0.21526292627E+03  0.46999998093E+01 0. -1.
</event>
<event>
 5   0  0.4989875E-03  0.5006783E+03  0.7818609E-02  0.1013602E+00
       -2   -1    0    0    0  501  0.00000000000E+00  0.00000000000E+00  0.31835196706E+03  0.31835196707E+03  0.25500000920E-02 0. -1.
        2   -1    0    0  501    0  0.00000000000E+00  0.00000000000E+00 -0.19685662874E+03  0.19685662876E+03  0.25500000920E-02 0.  1.
    10030    2    1    2    0    0  0.00000000000E+00  0.00000000000E+00  0.12149533831E+03  0.51520859583E+03  0.50067831986E+03 0.  0.
        2    1    3    3  502    0  0.96792005898E+01  0.24860731248E+03  0.89309490763E+02  0.26433968278E+03  0.25500000920E-02 0. -1.
       -2    1    3    3    0  502 -0.96792005898E+01 -0.24860731248E+03  0.32185847551E+02  0.25086891305E+03  0.25500000920E-02 0.  1.
</event>
<event>
 5   0  0.4989875E-03  0.5001701E+03  0.7818609E-02  0.1013735E+00
        2   -1    0    0  501    0  0.00000000000E+00  0.00000000000E+00  0.13398350284E+04  0.13398350284E+04  0.25500000920E-02 0. -1.
       -2   -1    0    0    0  501  0.00000000000E+00  0.00000000000E+00 -0.46679283655E+02  0.46679283725E+02  0.25500000920E-02 0.  1.
    10030    2    1    2    0    0  0.00000000000E+00  0.00000000000E+00  0.12931557448E+04  0.13865143122E+04  0.50017012863E+03 0.  0.
        2    1    3    3  502    0  0.15656483812E+02  0.24160178004E+03  0.47288523504E+03  0.53125981509E+03  0.25500000920E-02 0. -1.
       -2    1    3    3    0  502 -0.15656483812E+02 -0.24160178004E+03  0.82027050973E+03  0.85525449706E+03  0.25500000920E-02 0.  1.
</event>
<event>
 5   0  0.3055293E-03  0.4999365E+03  0.7818609E-02  0.1013795E+00
       -1   -1    0    0    0  501  0.00000000000E+00  0.00000000000E+00  0.74441755155E+02  0.74441755325E+02  0.50400001928E-02 0.  1.
        1   -1    0    0  501    0  0.00000000000E+00  0.00000000000E+00 -0.83936923411E+03  0.83936923412E+03  0.50400001928E-02 0. -1.
    10030    2    1    2    0    0  0.00000000000E+00  0.00000000000E+00 -0.76492747895E+03  0.91381098945E+03  0.49993647234E+03 0.  0.
        3    1    3    3  502    0  0.93819911795E+02 -0.15266785357E+03 -0.63900371182E+02  0.19024436128E+03  0.10100000352E+00 0.  1.
       -3    1    3    3    0  502 -0.93819911795E+02  0.15266785357E+03 -0.70102710777E+03  0.72356662816E+03  0.10100000352E+00 0. -1.
</event>
<event>
 5   0  0.5095783E-03  0.5000464E+03  0.7818609E-02  0.1013767E+00
       -2   -1    0    0    0  501  0.00000000000E+00  0.00000000000E+00  0.91474608228E+02  0.91474608264E+02  0.25500000920E-02 0. -1.
        2   -1    0    0  501    0  0.00000000000E+00  0.00000000000E+00 -0.68337649620E+03  0.68337649621E+03  0.25500000920E-02 0.  1.
    10030    2    1    2    0    0  0.00000000000E+00  0.00000000000E+00 -0.59190188797E+03  0.77485110447E+03  0.50004638696E+03 0.  0.
        4    1    3    3  502    0  0.16948110950E+03 -0.63459894890E+02 -0.56326203650E+03  0.59162212552E+03  0.12699999809E+01 0.  1.
       -4    1    3    3    0  502 -0.16948110950E+03  0.63459894890E+02 -0.28639851469E+02  0.18322897895E+03  0.12699999809E+01 0. -1.
</event>
<event>
 5   0  0.2863538E-03  0.4999657E+03  0.7818609E-02  0.1013788E+00
       -1   -1    0    0    0  501  0.00000000000E+00  0.00000000000E+00  0.33278306839E+02  0.33278307221E+02  0.50400001928E-02 0.  1.
        1   -1    0    0  501    0  0.00000000000E+00  0.00000000000E+00 -0.18778429499E+04  0.18778429499E+04  0.50400001928E-02 0. -1.
    10030    2    1    2    0    0  0.00000000000E+00  0.00000000000E+00 -0.18445646431E+04  0.19111212571E+04  0.49996573584E+03 0.  0.
        1    1    3    3  502    0 -0.82981228425E+02  0.10018546103E+03 -0.17382632391E+04  0.17431242352E+04  0.50400001928E-02 0. -1.
       -1    1    3    3    0  502  0.82981228425E+02 -0.10018546103E+03 -0.10630140398E+03  0.16799702196E+03  0.50400001928E-02 0.  1.
</event>
<event>
 5   0  0.4989875E-03  0.4997779E+03  0.7818609E-02  0.1013837E+00
        2   -1    0    0  501    0  0.00000000000E+00  0.00000000000E+00  0.70221678708E+03  0.70221678708E+03  0.25500000920E-02 0.  1.
       -2   -1    0    0    0  501  0.00000000000E+00  0.00000000000E+00 -0.88924805759E+02  0.88924805795E+02  0.25500000920E-02 0. -1.
    10030    2    1    2    0    0  0.00000000000E+00  0.00000000000E+00  0.61329198132E+03  0.79114159288E+03  0.49977791631E+03 0.  0.
        2    1    3    3  502    0  0.24397031016E+03 -0.52580425357E+02  0.28673066222E+03  0.38013245854E+03  0.25500000920E-02 0. -1.
       -2    1    3    3    0  502 -0.24397031016E+03  0.52580425357E+02  0.32656131910E+03  0.41100913434E+03  0.25500000920E-02 0.  1.
</event>
<event>
 5   0  0.3055293E-03  0.5000208E+03  0.7818609E-02  0.1013773E+00
        1   -1    0    0  501    0  0.00000000000E+00  0.00000000000E+00  0.46763244661E+03  0.46763244664E+03  0.50400001928E-02 0.  1.
       -1   -1    0    0    0  501  0.00000000000E+00  0.00000000000E+00 -0.13366308906E+03  0.13366308916E+03  0.50400001928E-02 0. -1.
    10030    2    1    2    0    0  0.00000000000E+00  0.00000000000E+00  0.33396935755E+03  0.60129553579E+03  0.50002078915E+03 0.  0.
        3    1    3    3  502    0  0.18774417086E+03  0.67561559772E+02 -0.14167463568E+02  0.20003291048E+03  0.10100000352E+00 0. -1.
       -3    1    3    3    0  502 -0.18774417086E+03 -0.67561559772E+02  0.34813682112E+03  0.40126262531E+03  0.10100000352E+00 0.  1.
</event>
<event>
 5   0  0.2005125E-03  0.5000122E+03  0.7818609E-02  0.1013776E+00
       -3   -1    0    0    0  501  0.00000000000E+00  0.00000000000E+00  0.85465333419E+02  0.85465393098E+02  0.10100000352E+00 0.  1.
        3   -1    0    0  501    0  0.00000000000E+00  0.00000000000E+00 -0.73132590195E+03  0.73132590893E+03  0.10100000352E+00 0. -1.
    10030    2    1    2    0    0  0.00000000000E+00  0.00000000000E+00 -0.64586056853E+03  0.81679130202E+03  0.50001215693E+03 0.  0.
        1    1    3    3  502    0  0.10252613684E+03  0.12193686572E+02  0.49011125709E+02  0.11429079227E+03  0.50400001928E-02 0.  1.
       -1    1    3    3    0  502 -0.10252613684E+03 -0.12193686572E+02 -0.69487169424E+03  0.70250050976E+03  0.50400001928E-02 0. -1.
</event>
<event>
 5   0  0.4978779E-03  0.4999134E+03  0.7818609E-02  0.1013802E+00
       -2   -1    0    0    0  501  0.00000000000E+00  0.00000000000E+00  0.12672688072E+03  0.12672688074E+03  0.25500000920E-02 0. -1.
        2   -1    0    0  501    0  0.00000000000E+00  0.00000000000E+00 -0.49301586692E+03  0.49301586693E+03  0.25500000920E-02 0.  1.
    10030    2    1    2    0    0  0.00000000000E+00  0.00000000000E+00 -0.36628898620E+03  0.61974274767E+03  0.49991344439E+03 0.  0.
        1    1    3    3  502    0  0.11511167017E+03 -0.17533567009E+03 -0.14595106538E+02  0.21025296900E+03  0.50400001928E-02 0. -1.
       -1    1    3    3    0  502 -0.11511167017E+03  0.17533567009E+03 -0.35169387966E+03  0.40948977867E+03  0.50400001928E-02 0.  1.
</event>
<event>
 5   0  0.2005125E-03  0.4999823E+03  0.7818609E-02  0.1013784E+00
       -4   -1    0    0    0  501  0.00000000000E+00  0.00000000000E+00  0.68231241550E+02  0.68243059892E+02  0.12699999809E+01 0.  1.
        4   -1    0    0  501    0  0.00000000000E+00  0.00000000000E+00 -0.91584633172E+03  0.91584721227E+03  0.12699999809E+01 0. -1.
    10030    2    1    2    0    0  0.00000000000E+00  0.00000000000E+00 -0.84761509017E+03  0.98409027216E+03  0.49998232237E+03 0.  0.
        2    1    3    3  502    0  0.11731516169E+03  0.16687671227E+03 -0.70825133203E+03  0.73704181264E+03  0.25500000920E-02 0. -1.
       -2    1    3    3    0  502 -0.11731516169E+03 -0.16687671227E+03 -0.13936375814E+03  0.24704845952E+03  0.25500000920E-02 0.  1.
</event>
<event>
 5   0  0.2863538E-03  0.5003248E+03  0.7818609E-02  0.1013694E+00
       -1   -1    0    0    0  501  0.00000000000E+00  0.00000000000E+00  0.14421293517E+03  0.14421293525E+03  0.50400001928E-02 0. -1.
        1   -1    0    0  501    0  0.00000000000E+00  0.00000000000E+00 -0.43395022955E+03  0.43395022958E+03  0.50400001928E-02 0.  1.
    10030    2    1    2    0    0  0.00000000000E+00  0.00000000000E+00 -0.28973729438E+03  0.57816316483E+03  0.50032483989E+03 0.  0.
        1    1    3    3  502    0  0.24520127869E+03  0.45968494519E+02 -0.12342137718E+03  0.27833362343E+03  0.50400001928E-02 0. -1.
       -1    1    3    3    0  502 -0.24520127869E+03 -0.45968494519E+02 -0.16631591720E+03  0.29982954141E+03  0.50400001928E-02 0.  1.
</event>
<event>
 5   0  0.3013734E-03  0.4992645E+03  0.7818609E-02  0.1013971E+00
        1   -1    0    0  501    0  0.00000000000E+00  0.00000000000E+00  0.14421797904E+04  0.14421797904E+04  0.50400001928E-02 0.  1.
       -1   -1    0    0    0  501  0.00000000000E+00  0.00000000000E+00 -0.43209776222E+02  0.43209776516E+02  0.50400001928E-02 0. -1.
    10030    2    1    2    0    0  0.00000000000E+00  0.00000000000E+00  0.13989700142E+04  0.14853895670E+04  0.49926452404E+03 0.  0.
        2    1    3    3  502    0 -0.41862122913E+02  0.13296129826E+03  0.13156017158E+04  0.13229659931E+04  0.25500000920E-02 0.  1.
       -2    1    3    3    0  502  0.41862122913E+02 -0.13296129826E+03  0.83368298407E+02  0.16242357389E+03  0.25500000920E-02 0. -1.
</event>
<event>
 5   0  0.3211775E-03  0.4998201E+03  0.7818609E-02  0.1013826E+00
        1   -1    0    0  501    0  0.00000000000E+00  0.00000000000E+00  0.13103494877E+04  0.13103494877E+04  0.50400001928E-02 0.  1.
       -1   -1    0    0    0  501  0.00000000000E+00  0.00000000000E+00 -0.47662873607E+02  0.47662873873E+02  0.50400001928E-02 0. -1.
    10030    2    1    2    0    0  0.00000000000E+00  0.00000000000E+00  0.12626866141E+04  0.13580123616E+04  0.49982005643E+03 0.  0.
        4    1    3    3  502    0  0.17150497316E+03  0.18000829117E+03  0.56279787254E+03  0.61527229658E+03  0.12699999809E+01 0. -1.
       -4    1    3    3    0  502 -0.17150497316E+03 -0.18000829117E+03  0.69988874158E+03  0.74274006503E+03  0.12699999809E+01 0.  1.
</event>
<event>
 5   0  0.4989875E-03  0.5001519E+03  0.7818609E-02  0.1013739E+00
        2   -1    0    0  501    0  0.00000000000E+00  0.00000000000E+00  0.21713355289E+03  0.21713355291E+03  0.25500000920E-02 0.  1.
       -2   -1    0    0    0  501  0.00000000000E+00  0.00000000000E+00 -0.28801621106E+03  0.28801621107E+03  0.25500000920E-02 0. -1.
    10030    2    1    2    0    0  0.00000000000E+00  0.00000000000E+00 -0.70882658163E+02  0.50514976398E+03  0.50015190974E+03 0.  0.
        2    1    3    3  502    0  0.21848160829E+03  0.58436523571E+02 -0.14322672664E+03  0.26769933821E+03  0.25500000920E-02 0. -1.
       -2    1    3    3    0  502 -0.21848160829E+03 -0.58436523571E+02  0.72344068477E+02  0.23745042577E+03  0.25500000920E-02 0.  1.
</event>
<event>
 5   0  0.4989875E-03  0.4999203E+03  0.7818609E-02  0.1013800E+00
       -2   -1    0    0    0  501  0.00000000000E+00  0.00000000000E+00  0.15014156065E+03  0.15014156068E+03  0.25500000920E-02 0. -1.
        2   -1    0    0  501    0  0.00000000000E+00  0.00000000000E+00 -0.41614116737E+03  0.41614116738E+03  0.25500000920E-02 0.  1.
    10030    2    1    2    0    0  0.00000000000E+00  0.00000000000E+00 -0.26599960672E+03  0.56628272806E+03  0.49992033097E+03 0.  0.
        2    1    3    3  502    0  0.24138193043E+03 -0.47133071672E+02 -0.18357309210E+03  0.30689712109E+03  0.25500000920E-02 0. -1.
       -2    1    3    3    0  502 -0.24138193043E+03  0.47133071672E+02 -0.82426514615E+02  0.25938560697E+03  0.25500000920E-02 0.  1.
</event>
<event>
 5   0  0.5095783E-03  0.5000372E+03  0.7818609E-02  0.1013769E+00
        2   -1    0    0  501    0  0.00000000000E+00  0.00000000000E+00  0.31009628590E+03  0.31009628591E+03  0.25500000920E-02 0. -1.
       -2   -1    0    0    0  501  0.00000000000E+00  0.00000000000E+00 -0.20158026394E+03  0.20158026396E+03  0.25500000920E-02 0.  1.
    10030    2    1    2    0    0  0.00000000000E+00  0.00000000000E+00  0.10851602195E+03  0.51167654986E+03  0.50003716328E+03 0.  0.
        4    1    3    3  502    0 -0.11674102865E+03 -0.14364122313E+03 -0.11772076616E+03  0.21936513040E+03  0.12699999809E+01 0.  1.
       -4    1    3    3    0  502  0.11674102865E+03  0.14364122313E+03  0.22623678811E+03  0.29231141946E+03  0.12699999809E+01 0. -1.
</event>
<event>
 5   0  0.2005125E-03  0.4999338E+03  0.7818609E-02  0.1013796E+00
       -3   -1    0    0    0  501  0.00000000000E+00  0.00000000000E+00  0.70092424917E+02  0.70092497685E+02  0.10100000352E+00 0. -1.
        3   -1    0    0  501    0  0.00000000000E+00  0.00000000000E+00 -0.89144317600E+03  0.89144318172E+03  0.10100000352E+00 0.  1.
    10030    2    1    2    0    0  0.00000000000E+00  0.00000000000E+00 -0.82135075108E+03  0.96153567941E+03  0.49993380209E+03 0.  0.
        3    1    3    3  502    0  0.72627514486E+02  0.22900852827E+03 -0.27792714846E+03  0.36737334134E+03  0.10100000352E+00 0.  1.
       -3    1    3    3    0  502 -0.72627514486E+02 -0.22900852827E+03 -0.54342360263E+03  0.59416233807E+03  0.10100000352E+00 0. -1.
</event>
<event>
 5   0  0.4889251E-03  0.4999169E+03  0.7818609E-02  0.1013801E+00
       -2   -1    0    0    0  501  0.00000000000E+00  0.00000000000E+00  0.81451341435E+02  0.81451341475E+02  0.25500000920E-02 0. -1.
        2   -1    0    0  501    0  0.00000000000E+00  0.00000000000E+00 -0.76707431024E+03  0.76707431025E+03  0.25500000920E-02 0.  1.
    10030    2    1    2    0    0  0.00000000000E+00  0.00000000000E+00 -0.68562296881E+03  0.84852565172E+03  0.49991691937E+03 0.  0.
        5    1    3    3  502    0  0.57294870700E+02 -0.21163446480E+03 -0.13923552433E+03  0.25977003317E+03  0.46999998093E+01 0. -1.
       -5    1    3    3    0  502 -0.57294870700E+02  0.21163446480E+03 -0.54638744447E+03  0.58875561855E+03  0.46999998093E+01 0.  1.
</event>
<event>
 5   0  0.4989875E-03  0.4998442E+03  0.7818609E-02  0.1013820E+00
        2   -1    0    0  501    0  0.00000000000E+00  0.00000000000E+00  0.42138799582E+03  0.42138799583E+03  0.25500000920E-02 0. -1.
       -2   -1    0    0    0  501  0.00000000000E+00  0.00000000000E+00 -0.14822696554E+03  0.14822696556E+03  0.25500000920E-02 0.  1.
    10030    2    1    2    0    0  0.00000000000E+00  0.00000000000E+00  0.27316103028E+03  0.56961496138E+03  0.49984423151E+03 0.  0.
        2    1    3    3  502    0  0.15761107949E+02  0.23349269298E+03  0.23653851040E+03  0.33274271909E+03  0.25500000920E-02 0. -1.
       -2    1    3    3    0  502 -0.15761107949E+02 -0.23349269298E+03  0.36622519881E+02  0.23687224229E+03  0.25500000920E-02 0.  1.
</event>
<event>
 5   0  0.4978779E-03  0.4990139E+03  0.7818609E-02  0.1014037E+00
       -2   -1    0    0    0  501  0.00000000000E+00  0.00000000000E+00  0.88677740146E+02  0.88677740183E+02  0.25500000920E-02 0. -1.
        2   -1    0    0  501    0  0.00000000000E+00  0.00000000000E+00 -0.70202206645E+03  0.70202206646E+03  0.25500000920E-02 0.  1.
    10030    2    1    2    0    0  0.00000000000E+00  0.00000000000E+00 -0.61334432631E+03  0.79069980664E+03  0.49901394931E+03 0.  0.
        1    1    3    3  502    0  0.20696751297E+03 -0.45795002837E+02 -0.51521025037E+03  0.55711249835E+03  0.50400001928E-02 0.  1.
       -1    1    3    3    0  502 -0.20696751297E+03  0.45795002837E+02 -0.98134075936E+02  0.23358730829E+03  0.50400001928E-02 0. -1.
</event>
<event>
 5   0  0.5095783E-03  0.4997005E+03  0.7818609E-02  0.1013857E+00
        2   -1    0    0  501    0  0.00000000000E+00  0.00000000000E+00  0.76614473978E+03  0.76614473978E+03  0.25500000920E-02 0.  1.
       -2   -1    0    0    0  501  0.00000000000E+00  0.00000000000E+00 -0.81479585671E+02  0.81479585711E+02  0.25500000920E-02 0. -1.
    10030    2    1    2    0    0  0.00000000000E+00  0.00000000000E+00  0.68466515411E+03  0.84762432550E+03  0.49970053424E+03 0.  0.
        4    1    3    3  502    0  0.91980424299E+02  0.22428278205E+03  0.44495838379E+03  0.50670774711E+03  0.12699999809E+01 0.  1.
       -4    1    3    3    0  502 -0.91980424299E+02 -0.22428278205E+03  0.23970677032E+03  0.34091657838E+03  0.12699999809E+01 0. -1.
</event>
<event>
 5   0  0.5095783E-03  0.4997023E+03  0.7818609E-02  0.1013857E+00
        2   -1    0    0  501    0  0.00000000000E+00  0.00000000000E+00  0.16983022605E+03  0.16983022607E+03  0.25500000920E-02 0. -1.
       -2   -1    0    0    0  501  0.00000000000E+00  0.00000000000E+00 -0.36757650206E+03  0.36757650207E+03  0.25500000920E-02 0.  1.
    10030    2    1    2    0    0  0.00000000000E+00  0.00000000000E+00 -0.19774627601E+03  0.53740672813E+03  0.49970231315E+03 0.  0.
        4    1    3    3  502    0  0.13481552390E+03 -0.12396083937E+03 -0.28164482597E+03  0.33595674733E+03  0.12699999809E+01 0.  1.
       -4    1    3    3    0  502 -0.13481552390E+03  0.12396083937E+03  0.83898549960E+02  0.20144998080E+03  0.12699999809E+01 0. -1.
</event>
<event>
 5   0  0.4889251E-03  0.5001310E+03  0.7818609E-02  0.1013745E+00
       -2   -1    0    0    0  501  0.00000000000E+00  0.00000000000E+00  0.15045643479E+03  0.15045643481E+03  0.25500000920E-02 0. -1.
        2   -1    0    0  501    0  0.00000000000E+00  0.00000000000E+00 -0.41562026654E+03  0.41562026655E+03  0.25500000920E-02 0.  1.
    10030    2    1    2    0    0  0.00000000000E+00  0.00000000000E+00 -0.26516383175E+03  0.56607670136E+03  0.50013095700E+03 0.  0.
        5    1    3    3  502    0  0.19359742055E+03  0.15507497506E+03 -0.16805880541E+03  0.29965657210E+03  0.46999998093E+01 0. -1.
       -5    1    3    3    0  502 -0.19359742055E+03 -0.15507497506E+03 -0.97105026346E+02  0.26642012926E+03  0.46999998093E+01 0.  1.
</event>
<event>
 5   0  0.3013734E-03  0.5000227E+03  0.7818609E-02  0.1013773E+00
        1   -1    0    0  501    0  0.00000000000E+00  0.00000000000E+00  0.50407231682E+03  0.50407231685E+03  0.50400001928E-02 0. -1.
       -1   -1    0    0    0  501  0.00000000000E+00  0.00000000000E+00 -0.12400138377E+03  0.12400138387E+03  0.50400001928E-02 0.  1.
    10030    2    1    2    0    0  0.00000000000E+00  0.00000000000E+00  0.38007093305E+03  0.62807370072E+03  0.50002265888E+03 0.  0.
        2    1    3    3  502    0  0.22329175786E+03  0.92004186135E+02  0.10880917898E+03  0.26488377985E+03  0.25500000920E-02 0.  1.
       -2    1    3    3    0  502 -0.22329175786E+03 -0.92004186135E+02  0.27126175407E+03  0.36318992087E+03  0.25500000920E-02 0. -1.
</event>
<event>
 5   0  0.4889251E-03  0.5000855E+03  0.7818609E-02  0.1013757E+00
        2   -1    0    0  501    0  0.00000000000E+00  0.00000000000E+00  0.15326780554E+04  0.15326780554E+04  0.25500000920E-02 0.  1.
       -2   -1    0    0    0  501  0.00000000000E+00  0.00000000000E+00 -0.40792249367E+02  0.40792249447E+02  0.25500000920E-02 0. -1.
    10030    2    1    2    0    0  0.00000000000E+00  0.00000000000E+00  0.14918858060E+04  0.15734703048E+04  0.50008553468E+03 0.  0.
        5    1    3    3  502    0  0.18906615566E+03 -0.94295015090E+02  0.32543315047E+03  0.38802884752E+03  0.46999998093E+01 0. -1.
       -5    1    3    3    0  502 -0.18906615566E+03  0.94295015090E+02  0.11664526555E+04  0.11854414573E+04  0.46999998093E+01 0.  1.
</event>
<event>
 5   0  0.5118882E-03  0.4999340E+03  0.7818609E-02  0.1013796E+00
        2   -1    0    0  501    0  0.00000000000E+00  0.00000000000E+00  0.61752285601E+03  0.61752285601E+03  0.25500000920E-02 0. -1.
       -2   -1    0    0    0  501  0.00000000000E+00  0.00000000000E+00 -0.10118412920E+03  0.10118412923E+03  0.25500000920E-02 0.  1.
    10030    2    1    2    0    0  0.00000000000E+00  0.00000000000E+00  0.51633872681E+03  0.71870698524E+03  0.49993404548E+03 0.  0.
        3    1    3    3  502    0  0.31005928592E+02  0.19861496803E+03  0.47175986012E+03  0.51280273883E+03  0.10100000352E+00 0. -1.
       -3    1    3    3    0  502 -0.31005928592E+02 -0.19861496803E+03  0.44578866686E+02  0.20590424641E+03  0.10100000352E+00 0.  1.
</event>
<event>
 5   0  0.2005125E-03  0.4999755E+03  0.7818609E-02  0.1013785E+00
       -4   -1    0    0    0  501  0.00000000000E+00  0.00000000000E+00  0.79528905241E+02  0.79539044932E+02  0.12699999809E+01 0. -1.
        4   -1    0    0  501    0  0.00000000000E+00  0.00000000000E+00 -0.78574011859E+03  0.78574114495E+03  0.12699999809E+01 0.  1.
    10030    2    1    2    0    0  0.00000000000E+00  0.00000000000E+00 -0.70621121335E+03  0.86528018988E+03  0.49997552854E+03 0.  0.
        4    1    3    3  502    0 -0.45097210548E+02  0.90483694195E+02 -0.74878123260E+03  0.75557660400E+03  0.12699999809E+01 0.  1.
       -4    1    3    3    0  502  0.45097210548E+02 -0.90483694195E+02  0.42570019256E+02  0.10970358588E+03  0.12699999809E+01 0. -1.
</event>
<event>
 5   0  0.3211775E-03  0.4990889E+03  0.7818609E-02  0.1014017E+00
       -1   -1    0    0    0  501  0.00000000000E+00  0.00000000000E+00  0.59160356846E+02  0.59160357061E+02  0.50400001928E-02 0.  1.
        1   -1    0    0  501    0  0.00000000000E+00  0.00000000000E+00 -0.10526039574E+04  0.10526039574E+04  0.50400001928E-02 0. -1.
    10030    2    1    2    0    0  0.00000000000E+00  0.00000000000E+00 -0.99344360059E+03  0.11117643145E+04  0.49908887331E+03 0.  0.
        4    1    3    3  502    0 -0.24261899524E+02 -0.14660137698E+03 -0.94329738644E+03  0.95493045593E+03  0.12699999809E+01 0. -1.
       -4    1    3    3    0  502  0.24261899524E+02  0.14660137698E+03 -0.50146214143E+02  0.15683385857E+03  0.12699999809E+01 0.  1.
</event>
<event>
 5   0  0.3057783E-03  0.5000485E+03  0.7818609E-02  0.1013766E+00
        1   -1    0    0  501    0  0.00000000000E+00  0.00000000000E+00  0.31192433005E+03  0.31192433009E+03  0.50400001928E-02 0. -1.
       -1   -1    0    0    0  501  0.00000000000E+00  0.00000000000E+00 -0.20040801090E+03  0.20040801097E+03  0.50400001928E-02 0.  1.
    10030    2    1    2    0    0  0.00000000000E+00  0.00000000000E+00  0.11151631914E+03  0.51233234106E+03  0.50004853590E+03 0.  0.
        5    1    3    3  502    0 -0.17251834055E+02 -0.41122299804E+02 -0.19625442880E+03  0.20131209636E+03  0.46999998093E+01 0.  1.
       -5    1    3    3    0  502  0.17251834055E+02  0.41122299804E+02  0.30777074795E+03  0.31102024469E+03  0.46999998093E+01 0. -1.
</event>
<event>
 5   0  0.3057783E-03  0.5002546E+03  0.7818609E-02  0.1013712E+00
        1   -1    0    0  501    0  0.00000000000E+00  0.00000000000E+00  0.65480929483E+03  0.65480929485E+03  0.50400001928E-02 0. -1.
       -1   -1    0    0    0  501  0.00000000000E+00  0.00000000000E+00 -0.95544873037E+02  0.95544873170E+02  0.50400001928E-02 0.  1.
    10030    2    1    2    0    0  0.00000000000E+00  0.00000000000E+00  0.55926442180E+03  0.75035416802E+03  0.50025461915E+03 0.  0.
        5    1    3    3  502    0  0.23444379224E+03  0.50369355746E+02  0.17314019368E+03  0.29580497018E+03  0.46999998093E+01 0. -1.
       -5    1    3    3    0  502 -0.23444379224E+03 -0.50369355746E+02  0.38612422812E+03  0.45454919784E+03  0.46999998093E+01 0.  1.
</event>
<event>
 5   0  0.2005125E-03  0.5001887E+03  0.7818609E-02  0.1013730E+00
        3   -1    0    0  501    0  0.00000000000E+00  0.00000000000E+00  0.19979495342E+03  0.19979497895E+03  0.10100000352E+00 0.  1.
       -3   -1    0    0    0  501  0.00000000000E+00  0.00000000000E+00 -0.31305678969E+03  0.31305680599E+03  0.10100000352E+00 0. -1.
    10030    2    1    2    0    0  0.00000000000E+00  0.00000000000E+00 -0.11326183628E+03  0.51285178494E+03  0.50018867416E+03 0.  0.
        5    1    3    3  502    0 -0.21379142047E+02  0.20065481043E+03  0.94774948426E+02  0.22298834389E+03  0.46999998093E+01 0.  1.
       -5    1    3    3    0  502  0.21379142047E+02 -0.20065481043E+03 -0.20803678470E+03  0.28986344104E+03  0.46999998093E+01 0. -1.
</event>
<event>
 5   0  0.2005125E-03  0.5007408E+03  0.7818609E-02  0.1013586E+00
        3   -1    0    0  501    0  0.00000000000E+00  0.00000000000E+00  0.35494651625E+03  0.35494653062E+03  0.10100000352E+00 0. -1.
       -3   -1    0    0    0  501  0.00000000000E+00  0.00000000000E+00 -0.17660502213E+03  0.17660505101E+03  0.10100000352E+00 0.  1.
    10030    2    1    2    0    0  0.00000000000E+00  0.00000000000E+00  0.17834149412E+03  0.53155158163E+03  0.50074084655E+03 0.  0.
        4    1    3    3  502    0 -0.21388277361E+03 -0.18386945228E+00  0.22732418017E+03  0.31212781107E+03  0.12699999809E+01 0.  1.
       -4    1    3    3    0  502  0.21388277361E+03  0.18386945228E+00 -0.48982686050E+02  0.21942377056E+03  0.12699999809E+01 0. -1.
</event>
<event>
 5   0  0.4978779E-03  0.4999663E+03  0.7818609E-02  0.1013788E+00
        2   -1    0    0  501    0  0.00000000000E+00  0.00000000000E+00  0.38369373744E+03  0.38369373745E+03  0.25500000920E-02 0.  1.
       -2   -1    0    0    0  501  0.00000000000E+00  0.00000000000E+00 -0.16286839912E+03  0.16286839914E+03  0.25500000920E-02 0. -1.
    10030    2    1    2    0    0  0.00000000000E+00  0.00000000000E+00  0.22082533832E+03  0.54656213660E+03  0.49996633798E+03 0.  0.
        1    1    3    3  502    0 -0.18954054812E+03  0.11427719746E+03 -0.16636902041E+02  0.22194973254E+03  0.50400001928E-02 0. -1.
       -1    1    3    3    0  502  0.18954054812E+03 -0.11427719746E+03  0.23746224036E+03  0.32461240405E+03  0.50400001928E-02 0.  1.
</event>
<event>
 5   0  0.4978779E-03  0.4999581E+03  0.7818609E-02  0.1013790E+00
       -2   -1    0    0    0  501  0.00000000000E+00  0.00000000000E+00  0.94738571460E+02  0.94738571494E+02  0.25500000920E-02 0. -1.
        2   -1    0    0  501    0  0.00000000000E+00  0.00000000000E+00 -0.65959952170E+03  0.65959952171E+03  0.25500000920E-02 0.  1.
    10030    2    1    2    0    0  0.00000000000E+00  0.00000000000E+00 -0.56486095024E+03  0.75433809320E+03  0.49995806399E+03 0.  0.
        1    1    3    3  502    0  0.19885702541E+03  0.40218768721E+02 -0.50277689869E+03  0.54216812503E+03  0.50400001928E-02 0.  1.
       -1    1    3    3    0  502 -0.19885702541E+03 -0.40218768721E+02 -0.62084051551E+02  0.21216996817E+03  0.50400001928E-02 0. -1.
</event>
<event>
 5   0  0.3211775E-03  0.4999952E+03  0.7818609E-02  0.1013780E+00
       -1   -1    0    0    0  501  0.00000000000E+00  0.00000000000E+00  0.96320151900E+02  0.96320152031E+02  0.50400001928E-02 0.  1.
        1   -1    0    0  501    0  0.00000000000E+00  0.00000000000E+00 -0.64886520389E+03  0.64886520391E+03  0.50400001928E-02 0. -1.
    10030    2    1    2    0    0  0.00000000000E+00  0.00000000000E+00 -0.55254505199E+03  0.74518535594E+03  0.49999518021E+03 0.  0.
        4    1    3    3  502    0  0.15033632042E+03  0.16844657896E+03 -0.43625078909E+03  0.49121443696E+03  0.12699999809E+01 0. -1.
       -4    1    3    3    0  502 -0.15033632042E+03 -0.16844657896E+03 -0.11629426290E+03  0.25397091897E+03  0.12699999809E+01 0.  1.
</event>
<event>
 5   0  0.4989875E-03  0.4997523E+03  0.7818609E-02  0.1013844E+00
        2   -1    0    0  501    0  0.00000000000E+00  0.00000000000E+00  0.92918539229E+03  0.92918539229E+03  0.25500000920E-02 0.  1.
       -2   -1    0    0    0  501  0.00000000000E+00  0.00000000000E+00 -0.67196585162E+02  0.67196585210E+02  0.25500000920E-02 0. -1.
    10030    2    1    2    0    0  0.00000000000E+00  0.00000000000E+00  0.86198880712E+03  0.99638197750E+03  0.49975228011E+03 0.  0.
        2    1    3    3  502    0  0.21112256873E+03 -0.13365331799E+03  0.42807989033E+03  0.49566958848E+03  0.25500000920E-02 0.  1.
       -2    1    3    3    0  502 -0.21112256873E+03  0.13365331799E+03  0.43390891679E+03  0.50071238902E+03  0.25500000920E-02 0. -1.
</event>
<event>
 5   0  0.3057783E-03  0.4999935E+03  0.7818609E-02  0.1013781E+00
        1   -1    0    0  501    0  0.00000000000E+00  0.00000000000E+00  0.20728954309E+03  0.20728954315E+03  0.50400001928E-02 0.  1.
       -1   -1    0    0    0  501  0.00000000000E+00  0.00000000000E+00 -0.30150278107E+03  0.30150278111E+03  0.50400001928E-02 0. -1.
    10030    2    1    2    0    0  0.00000000000E+00  0.00000000000E+00 -0.94213237977E+02  0.50879232426E+03  0.49999349497E+03 0.  0.
        5    1    3    3  502    0  0.14393370956E+03 -0.18737107288E+03 -0.13009827475E+03  0.26976375366E+03  0.46999998093E+01 0. -1.
       -5    1    3    3    0  502 -0.14393370956E+03  0.18737107288E+03  0.35885036774E+02  0.23902857060E+03  0.46999998093E+01 0.  1.
</event>
<event>
 5   0  0.4889251E-03  0.5000208E+03  0.7818609E-02  0.1013773E+00
       -2   -1    0    0    0  501  0.00000000000E+00  0.00000000000E+00  0.86672646791E+03  0.86672646792E+03  0.25500000920E-02 0.  1.
        2   -1    0    0  501    0  0.00000000000E+00  0.00000000000E+00 -0.72116419260E+02  0.72116419305E+02  0.25500000920E-02 0. -1.
    10030    2    1    2    0    0  0.00000000000E+00  0.00000000000E+00  0.79461004866E+03  0.93884288722E+03  0.50002083703E+03 0.  0.
        5    1    3    3  502    0 -0.39752690171E+02  0.13611775841E+02  0.85996505471E+03  0.86100379915E+03  0.46999998093E+01 0.  1.
       -5    1    3    3    0  502  0.39752690171E+02 -0.13611775841E+02 -0.65355006059E+02  0.77839088077E+02  0.46999998093E+01 0. -1.
</event>
<event>
 5   0  0.4889251E-03  0.5004302E+03  0.7818609E-02  0.1013667E+00
        2   -1    0    0  501    0  0.00000000000E+00  0.00000000000E+00  0.10482254583E+04  0.10482254583E+04  0.25500000920E-02 0.  1.
       -2   -1    0    0    0  501  0.00000000000E+00  0.00000000000E+00 -0.59727217941E+02  0.59727217995E+02  0.25500000920E-02 0. -1.
    10030    2    1    2    0    0  0.00000000000E+00  0.00000000000E+00  0.98849824033E+03  0.11079526763E+04  0.50043017666E+03 0.  0.
        5    1    3    3  502    0 -0.11174865714E+03  0.22325742158E+03  0.45897336073E+03  0.52250385120E+03  0.46999998093E+01 0.  1.
       -5    1    3    3    0  502  0.11174865714E+03 -0.22325742158E+03  0.52952487959E+03  0.58544882506E+03  0.46999998093E+01 0. -1.
</event>
<event>
 5   0  0.2863538E-03  0.5000471E+03  0.7818609E-02  0.1013767E+00
        1   -1    0    0  501    0  0.00000000000E+00  0.00000000000E+00  0.46579719689E+03  0.46579719691E+03  0.50400001928E-02 0. -1.
       -1   -1    0    0    0  501  0.00000000000E+00  0.00000000000E+00 -0.13420387129E+03  0.13420387139E+03  0.50400001928E-02 0.  1.
    10030    2    1    2    0    0  0.00000000000E+00  0.00000000000E+00  0.33159332559E+03  0.60000106830E+03  0.50004714616E+03 0.  0.
        1    1    3    3  502    0 -0.18117800607E+03 -0.12251326588E+03  0.31116071076E+03  0.38033663792E+03  0.50400001928E-02 0. -1.
       -1    1    3    3    0  502  0.18117800607E+03  0.12251326588E+03  0.20432614837E+02  0.21966443038E+03  0.50400001928E-02 0.  1.
</event>
<event>
 5   0  0.3211775E-03  0.5001165E+03  0.7818609E-02  0.1013749E+00
        1   -1    0    0  501    0  0.00000000000E+00  0.00000000000E+00  0.44847325986E+03  0.44847325989E+03  0.50400001928E-02 0. -1.
       -1   -1    0    0    0  501  0.00000000000E+00  0.00000000000E+00 -0.13942667510E+03  0.13942667519E+03  0.50400001928E-02 0.  1.
    10030    2    1    2    0    0  0.00000000000E+00  0.00000000000E+00  0.30904658477E+03  0.58789993508E+03  0.50011652853E+03 0.  0.
        4    1    3    3  502    0  0.21897855017E+02 -0.21929876651E+03  0.29339493759E+03  0.36695185972E+03  0.12699999809E+01 0. -1.
       -4    1    3    3    0  502 -0.21897855017E+02  0.21929876651E+03  0.15651647179E+02  0.22094807536E+03  0.12699999809E+01 0.  1.
</event>
<event>
 5   0  0.5118882E-03  0.5004180E+03  0.7818609E-02  0.1013670E+00
        2   -1    0    0  501    0  0.00000000000E+00  0.00000000000E+00  0.18570891302E+04  0.18570891302E+04  0.25500000920E-02 0. -1.
       -2   -1    0    0    0  501  0.00000000000E+00  0.00000000000E+00 -0.33711115786E+02  0.33711115882E+02  0.25500000920E-02 0.  1.
    10030    2    1    2    0    0  0.00000000000E+00  0.00000000000E+00  0.18233780144E+04  0.18908002461E+04  0.50041801241E+03 0.  0.
        3    1    3    3  502    0 -0.21369118024E+03 -0.45723812740E+02  0.45124672493E+03  0.50137631029E+03  0.10100000352E+00 0.  1.
       -3    1    3    3    0  502  0.21369118024E+03  0.45723812740E+02  0.13721312895E+04  0.13894239358E+04  0.10100000352E+00 0. -1.
</event>
<event>
 5   0  0.4978779E-03  0.4997987E+03  0.7818609E-02  0.1013831E+00
        2   -1    0    0  501    0  0.00000000000E+00  0.00000000000E+00  0.18360708204E+03  0.18360708205E+03  0.25500000920E-02 0. -1.
       -2   -1    0    0    0  501  0.00000000000E+00  0.00000000000E+00 -0.34012675247E+03  0.34012675248E+03  0.25500000920E-02 0.  1.
    10030    2    1    2    0    0  0.00000000000E+00  0.00000000000E+00 -0.15651967043E+03  0.52373383453E+03  0.49979868167E+03 0.  0.
        1    1    3    3  502    0  0.19666259742E+03  0.53524146932E+01 -0.23973297337E+03  0.31012372387E+03  0.50400001928E-02 0.  1.
       -1    1    3    3    0  502 -0.19666259742E+03 -0.53524146932E+01  0.83213302934E+02  0.21361011066E+03  0.50400001928E-02 0. -1.
</event>
<event>
 5   0  0.4889251E-03  0.5000513E+03  0.7818609E-02  0.1013766E+00
        2   -1    0    0  501    0  0.00000000000E+00  0.00000000000E+00  0.67688947220E+03  0.67688947220E+03  0.25500000920E-02 0. -1.
       -2   -1    0    0    0  501  0.00000000000E+00  0.00000000000E+00 -0.92353090483E+02  0.92353090518E+02  0.25500000920E-02 0.  1.
    10030    2    1    2    0    0  0.00000000000E+00  0.00000000000E+00  0.58453638172E+03  0.76924256272E+03  0.50005133612E+03 0.  0.
        5    1    3    3  502    0 -0.10137375270E+02 -0.12916750008E+03  0.62113842052E+03  0.63452504828E+03  0.46999998093E+01 0. -1.
       -5    1    3    3    0  502  0.10137375270E+02  0.12916750008E+03 -0.36602038806E+02  0.13471751444E+03  0.46999998093E+01 0.  1.
</event>
<event>
 5   0  0.2005125E-03  0.5002264E+03  0.7818609E-02  0.1013720E+00
        4   -1    0    0  501    0  0.00000000000E+00  0.00000000000E+00  0.83457469740E+03  0.83457566370E+03  0.12699999809E+01 0.  1.
       -4   -1    0    0    0  501  0.00000000000E+00  0.00000000000E+00 -0.74949895806E+02  0.74960654889E+02  0.12699999809E+01 0. -1.
    10030    2    1    2    0    0  0.00000000000E+00  0.00000000000E+00  0.75962480160E+03  0.90953631859E+03  0.50022642437E+03 0.  0.
        4    1    3    3  502    0  0.22127328618E+03  0.43324674779E+02  0.18300330687E+03  0.29039751694E+03  0.12699999809E+01 0.  1.
       -4    1    3    3    0  502 -0.22127328618E+03 -0.43324674779E+02  0.57662149473E+03  0.61913880165E+03  0.12699999809E+01 0. -1.
</event>
<event>
 5   0  0.5118882E-03  0.5000001E+03  0.7818609E-02  0.1013779E+00
       -2   -1    0    0    0  501  0.00000000000E+00  0.00000000000E+00  0.17236192956E+03  0.17236192958E+03  0.25500000920E-02 0. -1.
        2   -1    0    0  501    0  0.00000000000E+00  0.00000000000E+00 -0.36260915426E+03  0.36260915427E+03  0.25500000920E-02 0.  1.
    10030    2    1    2    0    0  0.00000000000E+00  0.00000000000E+00 -0.19024722470E+03  0.53497108385E+03  0.50000005405E+03 0.  0.
        3    1    3    3  502    0  0.13138286617E+03 -0.15440116331E+03 -0.25163834953E+03  0.32314554912E+03  0.10100000352E+00 0.  1.
       -3    1    3    3    0  502 -0.13138286617E+03  0.15440116331E+03  0.61391124838E+02  0.21182553474E+03  0.10100000352E+00 0. -1.
</event>
<event>
 5   0  0.5095783E-03  0.4999679E+03  0.7818609E-02  0.1013787E+00
       -2   -1    0    0    0  501  0.00000000000E+00  0.00000000000E+00  0.46337591586E+02  0.46337591656E+02  0.25500000920E-02 0.  1.
        2   -1    0    0  501    0  0.00000000000E+00  0.00000000000E+00 -0.13486236068E+04  0.13486236068E+04  0.25500000920E-02 0. -1.
    10030    2    1    2    0    0  0.00000000000E+00  0.00000000000E+00 -0.13022860152E+04  0.13949611985E+04  0.49996787876E+03 0.  0.
        4    1    3    3  502    0  0.36225162474E+02 -0.20112403532E+03 -0.10528325470E+04  0.10724836245E+04  0.12699999809E+01 0. -1.
       -4    1    3    3    0  502 -0.36225162474E+02  0.20112403532E+03 -0.24945346824E+03  0.32247757394E+03  0.12699999809E+01 0.  1.
</event>
<event>
 5   0  0.3057783E-03  0.4999790E+03  0.7818609E-02  0.1013784E+00
        1   -1    0    0  501    0  0.00000000000E+00  0.00000000000E+00  0.75044355716E+03  0.75044355718E+03  0.50400001928E-02 0. -1.
       -1   -1    0    0    0  501  0.00000000000E+00  0.00000000000E+00 -0.83277092282E+02  0.83277092435E+02  0.50400001928E-02 0.  1.
    10030    2    1    2    0    0  0.00000000000E+00  0.00000000000E+00  0.66716646488E+03  0.83372064961E+03  0.49997902929E+03 0.  0.
        5    1    3    3  502    0 -0.24638629638E+03  0.11417502278E+02  0.40103197049E+03  0.47083468198E+03  0.46999998093E+01 0. -1.
       -5    1    3    3    0  502  0.24638629638E+03 -0.11417502278E+02  0.26613449439E+03  0.36288596764E+03  0.46999998093E+01 0.  1.
</event>
<event>
 5   0  0.5118882E-03  0.5002231E+03  0.7818609E-02  0.1013721E+00
        2   -1    0    0  501    0  0.00000000000E+00  0.00000000000E+00  0.13107504899E+03  0.13107504902E+03  0.25500000920E-02 0.  1.
       -2   -1    0    0    0  501  0.00000000000E+00  0.00000000000E+00 -0.47725165447E+03  0.47725165448E+03  0.25500000920E-02 0. -1.
    10030    2    1    2    0    0  0.00000000000E+00  0.00000000000E+00 -0.34617660548E+03  0.60832670349E+03  0.50022308624E+03 0.  0.
        3    1    3    3  502    0  0.50130589959E+02  0.21844858044E+03 -0.30808709525E+03  0.38098625540E+03  0.10100000352E+00 0. -1.
       -3    1    3    3    0  502 -0.50130589959E+02 -0.21844858044E+03 -0.38089510234E+02  0.22734044809E+03  0.10100000352E+00 0.  1.
</event>
<event>
 5   0  0.5095783E-03  0.5000102E+03  0.7818609E-02  0.1013776E+00
       -2   -1    0    0    0  501  0.00000000000E+00  0.00000000000E+00  0.27960274907E+03  0.27960274909E+03  0.25500000920E-02 0. -1.
        2   -1    0    0  501    0  0.00000000000E+00  0.00000000000E+00 -0.22354058421E+03  0.22354058422E+03  0.25500000920E-02 0.  1.
    10030    2    1    2    0    0  0.00000000000E+00  0.00000000000E+00  0.56062164868E+02  0.50314333330E+03  0.50001024741E+03 0.  0.
        4    1    3    3  502    0 -0.10489792134E+03 -0.94298704485E+02 -0.17967239227E+03  0.22842854685E+03  0.12699999809E+01 0.  1.
       -4    1    3    3    0  502  0.10489792134E+03  0.94298704485E+02  0.23573455714E+03  0.27471478646E+03  0.12699999809E+01 0. -1.
</event>
<event>
 5   0  0.4978779E-03  0.5000387E+03  0.7818609E-02  0.1013769E+00
       -2   -1    0    0    0  501  0.00000000000E+00  0.00000000000E+00  0.52570452720E+02  0.52570452782E+02  0.25500000920E-02 0. -1.
        2   -1    0    0  501    0  0.00000000000E+00  0.00000000000E+00 -0.11890645791E+04  0.11890645791E+04  0.25500000920E-02 0.  1.
    10030    2    1    2    0    0  0.00000000000E+00  0.00000000000E+00 -0.11364941264E+04  0.12416350319E+04  0.50003865161E+03 0.  0.
        1    1    3    3  502    0  0.87618680460E+02 -0.23416255428E+03 -0.57005179400E+03  0.62246942324E+03  0.50400001928E-02 0.  1.
       -1    1    3    3    0  502 -0.87618680460E+02  0.23416255428E+03 -0.56644233236E+03  0.61916560863E+03  0.50400001928E-02 0. -1.
</event>
<event>
 5   0  0.3211775E-03  0.4998402E+03  0.7818609E-02  0.1013821E+00
        1   -1    0    0  501    0  0.00000000000E+00  0.00000000000E+00  0.11048434205E+04  0.11048434206E+04  0.50400001928E-02 0.  1.
       -1   -1    0    0    0  501  0.00000000000E+00  0.00000000000E+00 -0.56532952370E+02  0.56532952594E+02  0.50400001928E-02 0. -1.
    10030    2    1    2    0    0  0.00000000000E+00  0.00000000000E+00  0.10483104682E+04  0.11613763731E+04  0.49984021690E+03 0.  0.
        4    1    3    3  502    0  0.21213201529E+03  0.11307853526E+03  0.68296576363E+03  0.72403770222E+03  0.12699999809E+01 0.  1.
       -4    1    3    3    0  502 -0.21213201529E+03 -0.11307853526E+03  0.36534470454E+03  0.43733867092E+03  0.12699999809E+01 0. -1.
</event>
<event>
 5   0  0.5118882E-03  0.5000769E+03  0.7818609E-02  0.1013759E+00
        2   -1    0    0  501    0  0.00000000000E+00  0.00000000000E+00  0.81509526253E+02  0.81509526293E+02  0.25500000920E-02 0. -1.
       -2   -1    0    0    0  501  0.00000000000E+00  0.00000000000E+00 -0.76701753817E+03  0.76701753817E+03  0.25500000920E-02 0.  1.
    10030    2    1    2    0    0  0.00000000000E+00  0.00000000000E+00 -0.68550801192E+03  0.84852706447E+03  0.50007693881E+03 0.  0.
        3    1    3    3  502    0 -0.87953427912E+02 -0.22618192236E+03 -0.24059130382E+03  0.34172833239E+03  0.10100000352E+00 0. -1.
       -3    1    3    3    0  502  0.87953427912E+02  0.22618192236E+03 -0.44491670810E+03  0.50679873207E+03  0.10100000352E+00 0.  1.
</event>
<event>
 5   0  0.4889251E-03  0.5001208E+03  0.7818609E-02  0.1013747E+00
        2   -1    0    0  501    0  0.00000000000E+00  0.00000000000E+00  0.10087505721E+04  0.10087505721E+04  0.25500000920E-02 0.  1.
       -2   -1    0    0    0  501  0.00000000000E+00  0.00000000000E+00 -0.61987786102E+02  0.61987786155E+02  0.25500000920E-02 0. -1.
    10030    2    1    2    0    0  0.00000000000E+00  0.00000000000E+00  0.94676278596E+03  0.10707383582E+04  0.50012084428E+03 0.  0.
        5    1    3    3  502    0  0.22861745612E+03  0.97518158987E+02  0.53132162701E+03  0.58660079603E+03  0.46999998093E+01 0.  1.
       -5    1    3    3    0  502 -0.22861745612E+03 -0.97518158987E+02  0.41544115895E+03  0.48413756219E+03  0.46999998093E+01 0. -1.
</event>
<event>
 5   0  0.2863538E-03  0.4998698E+03  0.7818609E-02  0.1013813E+00
       -1   -1    0    0    0  501  0.00000000000E+00  0.00000000000E+00  0.32392167523E+03  0.32392167527E+03  0.50400001928E-02 0. -1.
        1   -1    0    0  501    0  0.00000000000E+00  0.00000000000E+00 -0.19284741735E+03  0.19284741742E+03  0.50400001928E-02 0.  1.
    10030    2    1    2    0    0  0.00000000000E+00  0.00000000000E+00  0.13107425787E+03  0.51676909268E+03  0.49986981713E+03 0.  0.
        1    1    3    3  502    0 -0.18387866259E+03 -0.16003702313E+03  0.12257713620E+03  0.27285227811E+03  0.50400001928E-02 0. -1.
       -1    1    3    3    0  502  0.18387866259E+03  0.16003702313E+03  0.84971216709E+01  0.24391681457E+03  0.50400001928E-02 0.  1.
</event>
<event>
 5   0  0.2005125E-03  0.4999319E+03  0.7818609E-02  0.1013797E+00
       -3   -1    0    0    0  501  0.00000000000E+00  0.00000000000E+00  0.68972217365E+03  0.68972218105E+03  0.10100000352E+00 0. -1.
        3   -1    0    0  501    0  0.00000000000E+00  0.00000000000E+00 -0.90591461130E+02  0.90591517432E+02  0.10100000352E+00 0.  1.
    10030    2    1    2    0    0  0.00000000000E+00  0.00000000000E+00  0.59913071252E+03  0.78031369848E+03  0.49993185270E+03 0.  0.
        2    1    3    3  502    0 -0.14241665233E+03 -0.91996218298E+01 -0.20752461183E+02  0.14421442561E+03  0.25500000920E-02 0.  1.
       -2    1    3    3    0  502  0.14241665233E+03  0.91996218298E+01  0.61988317370E+03  0.63609927287E+03  0.25500000920E-02 0. -1.
</event>
<event>
 5   0  0.3211775E-03  0.4998768E+03  0.7818609E-02  0.1013811E+00
       -1   -1    0    0    0  501  0.00000000000E+00  0.00000000000E+00  0.63227106989E+02  0.63227107190E+02  0.50400001928E-02 0. -1.
        1   -1    0    0  501    0  0.00000000000E+00  0.00000000000E+00 -0.98801302711E+03  0.98801302712E+03  0.50400001928E-02 0.  1.
    10030    2    1    2    0    0  0.00000000000E+00  0.00000000000E+00 -0.92478592012E+03  0.10512401343E+04  0.49987680676E+03 0.  0.
        4    1    3    3  502    0  0.20969330376E+03 -0.12906174565E+03 -0.37219965687E+03  0.44627616261E+03  0.12699999809E+01 0. -1.
       -4    1    3    3    0  502 -0.20969330376E+03  0.12906174565E+03 -0.55258626325E+03  0.60496397171E+03  0.12699999809E+01 0.  1.
</event>
<event>
 5   0  0.5095783E-03  0.5000009E+03  0.7818609E-02  0.1013779E+00
        2   -1    0    0  501    0  0.00000000000E+00  0.00000000000E+00  0.90201844467E+03  0.90201844468E+03  0.25500000920E-02 0.  1.
       -2   -1    0    0    0  501  0.00000000000E+00  0.00000000000E+00 -0.69289285049E+02  0.69289285096E+02  0.25500000920E-02 0. -1.
    10030    2    1    2    0    0  0.00000000000E+00  0.00000000000E+00  0.83272915962E+03  0.97130772977E+03  0.50000085263E+03 0.  0.
        4    1    3    3  502    0  0.18966805255E+02 -0.55991304810E+02 -0.55509603692E+02  0.81102989574E+02  0.12699999809E+01 0. -1.
       -4    1    3    3    0  502 -0.18966805255E+02  0.55991304810E+02  0.88823876332E+03  0.89020474020E+03  0.12699999809E+01 0.  1.
</event>
<event>
 5   0  0.3055293E-03  0.4985939E+03  0.7818609E-02  0.1014147E+00
       -1   -1    0    0    0  501  0.00000000000E+00  0.00000000000E+00  0.16222194877E+03  0.16222194885E+03  0.50400001928E-02 0. -1.
        1   -1    0    0  501    0  0.00000000000E+00  0.00000000000E+00 -0.38311077811E+03  0.38311077814E+03  0.50400001928E-02 0.  1.
    10030    2    1    2    0    0  0.00000000000E+00  0.00000000000E+00 -0.22088882934E+03  0.54533272699E+03  0.49859393117E+03 0.  0.
        3    1    3    3  502    0  0.23339316390E+03 -0.64104454523E+02 -0.17576940080E+03  0.29912646574E+03  0.10100000352E+00 0.  1.
       -3    1    3    3    0  502 -0.23339316390E+03  0.64104454523E+02 -0.45119428534E+02  0.24620626125E+03  0.10100000352E+00 0. -1.
</event>
<event>
 5   0  0.4889251E-03  0.4997749E+03  0.7818609E-02  0.1013838E+00
       -2   -1    0    0    0  501  0.00000000000E+00  0.00000000000E+00  0.19224495450E+03  0.19224495451E+03  0.25500000920E-02 0. -1.
        2   -1    0    0  501    0  0.00000000000E+00  0.00000000000E+00 -0.32481339435E+03  0.32481339436E+03  0.25500000920E-02 0.  1.
    10030    2    1    2    0    0  0.00000000000E+00  0.00000000000E+00 -0.13256843985E+03  0.51705834887E+03  0.49977489422E+03 0.  0.
        5    1    3    3  502    0  0.15367353691E+03  0.11212011709E+03  0.10128994249E+03  0.21556488362E+03  0.46999998093E+01 0. -1.
       -5    1    3    3    0  502 -0.15367353691E+03 -0.11212011709E+03 -0.23385838234E+03  0.30149346525E+03  0.46999998093E+01 0.  1.
</event>
<event>
 5   0  0.4989875E-03  0.5000210E+03  0.7818609E-02  0.1013773E+00
       -2   -1    0    0    0  501  0.00000000000E+00  0.00000000000E+00  0.62710199650E+02  0.62710199702E+02  0.25500000920E-02 0.  1.
        2   -1    0    0  501    0  0.00000000000E+00  0.00000000000E+00 -0.99673162605E+03  0.99673162605E+03  0.25500000920E-02 0. -1.
    10030    2    1    2    0    0  0.00000000000E+00  0.00000000000E+00 -0.93402142640E+03  0.10594418258E+04  0.50002095674E+03 0.  0.
        2    1    3    3  502    0 -0.20066107691E+02 -0.16081081112E+03 -0.87037535265E+03  0.88533384672E+03  0.25500000920E-02 0. -1.
       -2    1    3    3    0  502  0.20066107691E+02  0.16081081112E+03 -0.63646073751E+02  0.17410797903E+03  0.25500000920E-02 0.  1.
</event>
<event>
 5   0  0.4889251E-03  0.5001865E+03  0.7818609E-02  0.1013730E+00
       -2   -1    0    0    0  501  0.00000000000E+00  0.00000000000E+00  0.25583382294E+03  0.25583382296E+03  0.25500000920E-02 0. -1.
        2   -1    0    0  501    0  0.00000000000E+00  0.00000000000E+00 -0.24448145164E+03  0.24448145166E+03  0.25500000920E-02 0.  1.
    10030    2    1    2    0    0  0.00000000000E+00  0.00000000000E+00  0.11352371302E+02  0.50031527461E+03  0.50018646291E+03 0.  0.
        5    1    3    3  502    0  0.17267953483E+03 -0.13733540242E+03 -0.11202016909E+03  0.24748705580E+03  0.46999998093E+01 0. -1.
       -5    1    3    3    0  502 -0.17267953483E+03  0.13733540242E+03  0.12337254039E+03  0.25282821881E+03  0.46999998093E+01 0.  1.
</event>
<event>
 5   0  0.3055293E-03  0.5036752E+03  0.7818609E-02  0.1012824E+00
        1   -1    0    0  501    0  0.00000000000E+00  0.00000000000E+00  0.19609133569E+04  0.19609133570E+04  0.50400001928E-02 0. -1.
       -1   -1    0    0    0  501  0.00000000000E+00  0.00000000000E+00 -0.32343183780E+02  0.32343184173E+02  0.50400001928E-02 0.  1.
    10030    2    1    2    0    0  0.00000000000E+00  0.00000000000E+00  0.19285701732E+04  0.19932565411E+04  0.50367521868E+03 0.  0.
        3    1    3    3  502    0 -0.20517129861E+03  0.14208799864E+03  0.10977805782E+04  0.11257914857E+04  0.10100000352E+00 0. -1.
       -3    1    3    3    0  502  0.20517129861E+03 -0.14208799864E+03  0.83078959495E+03  0.86746505544E+03  0.10100000352E+00 0.  1.
</event>
<event>
 5   0  0.3013734E-03  0.5018101E+03  0.7818609E-02  0.1013308E+00
       -1   -1    0    0    0  501  0.00000000000E+00  0.00000000000E+00  0.88352360040E+02  0.88352360184E+02  0.50400001928E-02 0. -1.
        1   -1    0    0  501    0  0.00000000000E+00  0.00000000000E+00 -0.71252603033E+03  0.71252603035E+03  0.50400001928E-02 0.  1.
    10030    2    1    2    0    0  0.00000000000E+00  0.00000000000E+00 -0.62417367029E+03  0.80087839053E+03  0.50181014910E+03 0.  0.
        2    1    3    3  502    0 -0.15706838660E+03  0.91950677509E+02 -0.36448989192E+02  0.18561770924E+03  0.25500000920E-02 0. -1.
       -2    1    3    3    0  502  0.15706838660E+03 -0.91950677509E+02 -0.58772468110E+03  0.61526068129E+03  0.25500000920E-02 0.  1.
</event>
<event>
 5   0  0.5118882E-03  0.4998509E+03  0.7818609E-02  0.1013818E+00
       -2   -1    0    0    0  501  0.00000000000E+00  0.00000000000E+00  0.41144409355E+03  0.41144409356E+03  0.25500000920E-02 0. -1.
        2   -1    0    0  501    0  0.00000000000E+00  0.00000000000E+00 -0.15181343931E+03  0.15181343933E+03  0.25500000920E-02 0.  1.
    10030    2    1    2    0    0  0.00000000000E+00  0.00000000000E+00  0.25963065424E+03  0.56325753290E+03  0.49985094952E+03 0.  0.
        3    1    3    3  502    0  0.96997386435E+02  0.87032987160E+02  0.37012669896E+03  0.39239905366E+03  0.10100000352E+00 0. -1.
       -3    1    3    3    0  502 -0.96997386435E+02 -0.87032987160E+02 -0.11049604471E+03  0.17085847924E+03  0.10100000352E+00 0.  1.
</event>
<event>
 5   0  0.3013734E-03  0.5000098E+03  0.7818609E-02  0.1013776E+00
       -1   -1    0    0    0  501  0.00000000000E+00  0.00000000000E+00  0.38100255066E+02  0.38100255400E+02  0.50400001928E-02 0.  1.
        1   -1    0    0  501    0  0.00000000000E+00  0.00000000000E+00 -0.16404735319E+04  0.16404735319E+04  0.50400001928E-02 0. -1.
    10030    2    1    2    0    0  0.00000000000E+00  0.00000000000E+00 -0.16023732768E+04  0.16785737873E+04  0.50000984103E+03 0.  0.
        2    1    3    3  502    0  0.94929821717E+02 -0.11347713947E+03 -0.12463910817E+03  0.19345190495E+03  0.25500000920E-02 0.  1.
       -2    1    3    3    0  502 -0.94929821717E+02  0.11347713947E+03 -0.14777341687E+04  0.14851218824E+04  0.25500000920E-02 0. -1.
</event>
<event>
 5   0  0.5095783E-03  0.4999900E+03  0.7818609E-02  0.1013782E+00
       -2   -1    0    0    0  501  0.00000000000E+00  0.00000000000E+00  0.73513363607E+03  0.73513363607E+03  0.25500000920E-02 0. -1.
        2   -1    0    0  501    0  0.00000000000E+00  0.00000000000E+00 -0.85015142870E+02  0.85015142908E+02  0.25500000920E-02 0.  1.
    10030    2    1    2    0    0  0.00000000000E+00  0.00000000000E+00  0.65011849320E+03  0.82014877898E+03  0.49998996436E+03 0.  0.
        4    1    3    3  502    0  0.52940793021E+02 -0.12215750754E+03  0.67213819148E+03  0.68519817977E+03  0.12699999809E+01 0. -1.
       -4    1    3    3    0  502 -0.52940793021E+02  0.12215750754E+03 -0.22019698280E+02  0.13495059921E+03  0.12699999809E+01 0.  1.
</event>
<event>
 5   0  0.2005125E-03  0.4998766E+03  0.7818609E-02  0.1013811E+00
       -3   -1    0    0    0  501  0.00000000000E+00  0.00000000000E+00  0.14078502608E+04  0.14078502645E+04  0.10100000352E+00 0. -1.
        3   -1    0    0  501    0  0.00000000000E+00  0.00000000000E+00 -0.44371954198E+02  0.44372069146E+02  0.10100000352E+00 0.  1.
    10030    2    1    2    0    0  0.00000000000E+00  0.00000000000E+00  0.13634783066E+04  0.14522223336E+04  0.49987659832E+03 0.  0.
        5    1    3    3  502    0  0.21089213292E+03 -0.97315560774E+02  0.41387673608E+03  0.47461758582E+03  0.46999998093E+01 0. -1.
       -5    1    3    3    0  502 -0.21089213292E+03  0.97315560774E+02  0.94960157056E+03  0.97760474779E+03  0.46999998093E+01 0.  1.
</event>
<event>
 5   0  0.3211775E-03  0.4999805E+03  0.7818609E-02  0.1013784E+00
        1   -1    0    0  501    0  0.00000000000E+00  0.00000000000E+00  0.23940993580E+03  0.23940993586E+03  0.50400001928E-02 0.  1.
       -1   -1    0    0    0  501  0.00000000000E+00  0.00000000000E+00 -0.26103810354E+03  0.26103810359E+03  0.50400001928E-02 0. -1.
    10030    2    1    2    0    0  0.00000000000E+00  0.00000000000E+00 -0.21628167735E+02  0.50044803944E+03  0.49998046216E+03 0.  0.
        4    1    3    3  502    0  0.23453648866E+03  0.78750914285E+02 -0.46686569442E+02  0.25177434278E+03  0.12699999809E+01 0. -1.
       -4    1    3    3    0  502 -0.23453648866E+03 -0.78750914285E+02  0.25058401707E+02  0.24867369666E+03  0.12699999809E+01 0.  1.
</event>
<event>
 5   0  0.2863538E-03  0.4999663E+03  0.7818609E-02  0.1013788E+00
       -1   -1    0    0    0  501  0.00000000000E+00  0.00000000000E+00  0.27923760467E+03  0.27923760472E+03  0.50400001928E-02 0.  1.
        1   -1    0    0  501    0  0.00000000000E+00  0.00000000000E+00 -0.22379359616E+03  0.22379359622E+03  0.50400001928E-02 0. -1.
    10030    2    1    2    0    0  0.00000000000E+00  0.00000000000E+00  0.55444008511E+02  0.50303120094E+03  0.49996634990E+03 0.  0.
        1    1    3    3  502    0 -0.53061596388E+02  0.14484122764E+03  0.22564361162E+03  0.27333048444E+03  0.50400001928E-02 0.  1.
       -1    1    3    3    0  502  0.53061596388E+02 -0.14484122764E+03 -0.17019960311E+03  0.22970071650E+03  0.50400001928E-02 0. -1.
</event>
<event>
 5   0  0.3057783E-03  0.4997849E+03  0.7818609E-02  0.1013835E+00
       -1   -1    0    0    0  501  0.00000000000E+00  0.00000000000E+00  0.46928152764E+02  0.46928153034E+02  0.50400001928E-02 0. -1.
        1   -1    0    0  501    0  0.00000000000E+00  0.00000000000E+00 -0.13306774354E+04  0.13306774354E+04  0.50400001928E-02 0.  1.
    10030    2    1    2    0    0  0.00000000000E+00  0.00000000000E+00 -0.12837492826E+04  0.13776055885E+04  0.49978489037E+03 0.  0.
        5    1    3    3  502    0 -0.17956578165E+03  0.11108159421E+03 -0.27370053583E+03  0.34571240045E+03  0.46999998093E+01 0. -1.
       -5    1    3    3    0  502  0.17956578165E+03 -0.11108159421E+03 -0.10100487468E+04  0.10318931880E+04  0.46999998093E+01 0.  1.
</event>
<event>
 5   0  0.3055293E-03  0.5002190E+03  0.7818609E-02  0.1013722E+00
       -1   -1    0    0    0  501  0.00000000000E+00  0.00000000000E+00  0.14065518841E+03  0.14065518850E+03  0.50400001928E-02 0. -1.
        1   -1    0    0  501    0  0.00000000000E+00  0.00000000000E+00 -0.44473842278E+03  0.44473842280E+03  0.50400001928E-02 0.  1.
    10030    2    1    2    0    0  0.00000000000E+00  0.00000000000E+00 -0.30408323437E+03  0.58539361130E+03  0.50021901876E+03 0.  0.
        3    1    3    3  502    0 -0.19447591100E+03 -0.86398370319E+02  0.17468840933E+01  0.21281123127E+03  0.10100000352E+00 0. -1.
       -3    1    3    3    0  502  0.19447591100E+03  0.86398370319E+02 -0.30583011846E+03  0.37258238003E+03  0.10100000352E+00 0.  1.
</event>
<event>
 5   0  0.4989875E-03  0.4997250E+03  0.7818609E-02  0.1013851E+00
       -2   -1    0    0    0  501  0.00000000000E+00  0.00000000000E+00  0.70060261556E+02  0.70060261602E+02  0.25500000920E-02 0.  1.
        2   -1    0    0  501    0  0.00000000000E+00  0.00000000000E+00 -0.89110799815E+03  0.89110799815E+03  0.25500000920E-02 0. -1.
    10030    2    1    2    0    0  0.00000000000E+00  0.00000000000E+00 -0.82104773659E+03  0.96116825975E+03  0.49972496215E+03 0.  0.
        2    1    3    3  502    0  0.36215732407E+02 -0.82300540302E+02  0.37863503638E+02  0.97563328777E+02  0.25500000920E-02 0.  1.
       -2    1    3    3    0  502 -0.36215732407E+02  0.82300540302E+02 -0.85891124023E+03  0.86360493098E+03  0.25500000920E-02 0. -1.
</event>
<event>
 5   0  0.3211775E-03  0.4998949E+03  0.7818609E-02  0.1013806E+00
        1   -1    0    0  501    0  0.00000000000E+00  0.00000000000E+00  0.33625344560E+03  0.33625344564E+03  0.50400001928E-02 0.  1.
       -1   -1    0    0    0  501  0.00000000000E+00  0.00000000000E+00 -0.18579358236E+03  0.18579358243E+03  0.50400001928E-02 0. -1.
    10030    2    1    2    0    0  0.00000000000E+00  0.00000000000E+00  0.15045986324E+03  0.52204702807E+03  0.49989491803E+03 0.  0.
        4    1    3    3  502    0  0.11883992199E+02 -0.22952380791E+03 -0.27356063406E+02  0.23145706896E+03  0.12699999809E+01 0. -1.
       -4    1    3    3    0  502 -0.11883992199E+02  0.22952380791E+03  0.17781592665E+03  0.29058995911E+03  0.12699999809E+01 0.  1.
</event>
<event>
 5   0  0.4889251E-03  0.5001775E+03  0.7818609E-02  0.1013733E+00
        2   -1    0    0  501    0  0.00000000000E+00  0.00000000000E+00  0.23368512494E+04  0.23368512494E+04  0.25500000920E-02 0.  1.
       -2   -1    0    0    0  501  0.00000000000E+00  0.00000000000E+00 -0.26764386892E+02  0.26764387014E+02  0.25500000920E-02 0. -1.
    10030    2    1    2    0    0  0.00000000000E+00  0.00000000000E+00  0.23100868625E+04  0.23636156364E+04  0.50017753286E+03 0.  0.
        5    1    3    3  502    0 -0.16775049231E+03 -0.18399367236E+03  0.10464171571E+04  0.10756416020E+04  0.46999998093E+01 0.  1.
       -5    1    3    3    0  502  0.16775049231E+03  0.18399367236E+03  0.12636697054E+04  0.12879740344E+04  0.46999998093E+01 0. -1.
</event>
<event>
 5   0  0.2005125E-03  0.5001030E+03  0.7818609E-02  0.1013752E+00
        3   -1    0    0  501    0  0.00000000000E+00  0.00000000000E+00  0.17148624874E+04  0.17148624904E+04  0.10100000352E+00 0. -1.
       -3   -1    0    0    0  501  0.00000000000E+00  0.00000000000E+00 -0.36461014089E+02  0.36461153978E+02  0.10100000352E+00 0.  1.
    10030    2    1    2    0    0  0.00000000000E+00  0.00000000000E+00  0.16784014734E+04  0.17513236444E+04  0.50010299106E+03 0.  0.
        2    1    3    3  502    0 -0.72583443567E+02  0.23852199516E+03  0.77232844110E+03  0.81157397654E+03  0.25500000920E-02 0. -1.
       -2    1    3    3    0  502  0.72583443567E+02 -0.23852199516E+03  0.90607303225E+03  0.93974966786E+03  0.25500000920E-02 0.  1.
</event>
<event>
 5   0  0.5095783E-03  0.4997489E+03  0.7818609E-02  0.1013844E+00
        2   -1    0    0  501    0  0.00000000000E+00  0.00000000000E+00  0.25285665658E+03  0.25285665659E+03  0.25500000920E-02 0.  1.
       -2   -1    0    0    0  501  0.00000000000E+00  0.00000000000E+00 -0.24692746485E+03  0.24692746487E+03  0.25500000920E-02 0. -1.
    10030    2    1    2    0    0  0.00000000000E+00  0.00000000000E+00  0.59291917278E+01  0.49978412146E+03  0.49974894972E+03 0.  0.
        4    1    3    3  502    0 -0.13847987956E+03 -0.55528865977E+02 -0.19748780122E+03  0.24751399259E+03  0.12699999809E+01 0. -1.
       -4    1    3    3    0  502  0.13847987956E+03  0.55528865977E+02  0.20341699294E+03  0.25227012887E+03  0.12699999809E+01 0.  1.
</event>
<event>
 5   0  0.2863538E-03  0.4998945E+03  0.7818609E-02  0.1013806E+00
       -1   -1    0    0    0  501  0.00000000000E+00  0.00000000000E+00  0.21149539454E+03  0.21149539460E+03  0.50400001928E-02 0.  1.
        1   -1    0    0  501    0  0.00000000000E+00  0.00000000000E+00 -0.29538999021E+03  0.29538999026E+03  0.50400001928E-02 0. -1.
    10030    2    1    2    0    0  0.00000000000E+00  0.00000000000E+00 -0.83894595670E+02  0.50688538486E+03  0.49989447907E+03 0.  0.
        1    1    3    3  502    0 -0.59729691100E+02 -0.65067534098E+02 -0.27903810440E+03  0.29268358978E+03  0.50400001928E-02 0. -1.
       -1    1    3    3    0  502  0.59729691100E+02  0.65067534098E+02  0.19514350873E+03  0.21420179508E+03  0.50400001928E-02 0.  1.
</event>
<event>
 5   0  0.4889251E-03  0.5008110E+03  0.7818609E-02  0.1013567E+00
       -2   -1    0    0    0  501  0.00000000000E+00  0.00000000000E+00  0.59946353262E+02  0.59946353317E+02  0.25500000920E-02 0. -1.
        2   -1    0    0  501    0  0.00000000000E+00  0.00000000000E+00 -0.10459836575E+04  0.10459836575E+04  0.25500000920E-02 0.  1.
    10030    2    1    2    0    0  0.00000000000E+00  0.00000000000E+00 -0.98603730428E+03  0.11059300109E+04  0.50081096583E+03 0.  0.
        5    1    3    3  502    0 -0.21603757820E+03 -0.67600685266E+02 -0.72919841428E+03  0.76354076854E+03  0.46999998093E+01 0.  1.
       -5    1    3    3    0  502  0.21603757820E+03  0.67600685266E+02 -0.25683889000E+03  0.34238924232E+03  0.46999998093E+01 0. -1.
</event>
<event>
 5   0  0.2005125E-03  0.4998639E+03  0.7818609E-02  0.1013814E+00
       -3   -1    0    0    0  501  0.00000000000E+00  0.00000000000E+00  0.10995018453E+03  0.10995023092E+03  0.10100000352E+00 0.  1.
        3   -1    0    0  501    0  0.00000000000E+00  0.00000000000E+00 -0.56812960577E+03  0.56812961475E+03  0.10100000352E+00 0. -1.
    10030    2    1    2    0    0  0.00000000000E+00  0.00000000000E+00 -0.45817942124E+03  0.67807984567E+03  0.49986387652E+03 0.  0.
        2    1    3    3  502    0  0.67001073529E+02 -0.59135006850E+02 -0.54571613601E+03  0.55298480449E+03  0.25500000920E-02 0. -1.
       -2    1    3    3    0  502 -0.67001073529E+02  0.59135006850E+02  0.87536714765E+02  0.12509504118E+03  0.25500000920E-02 0.  1.
</event>
<event>
 5   0  0.4978779E-03  0.4992916E+03  0.7818609E-02  0.1013964E+00
        2   -1    0    0  501    0  0.00000000000E+00  0.00000000000E+00  0.89849919942E+03  0.89849919942E+03  0.25500000920E-02 0.  1.
       -2   -1    0    0    0  501  0.00000000000E+00  0.00000000000E+00 -0.69363469250E+02  0.69363469297E+02  0.25500000920E-02 0. -1.
    10030    2    1    2    0    0  0.00000000000E+00  0.00000000000E+00  0.82913573017E+03  0.96786266872E+03  0.49929158460E+03 0.  0.
        1    1    3    3  502    0  0.68357708263E+02  0.17560109966E+03  0.73199521054E+03  0.75586077472E+03  0.50400001928E-02 0.  1.
       -1    1    3    3    0  502 -0.68357708263E+02 -0.17560109966E+03  0.97140519627E+02  0.21200189400E+03  0.50400001928E-02 0. -1.
</event>
<event>
 5   0  0.5118882E-03  0.4999745E+03  0.7818609E-02  0.1013786E+00
        2   -1    0    0  501    0  0.00000000000E+00  0.00000000000E+00  0.14253378868E+03  0.14253378870E+03  0.25500000920E-02 0. -1.
       -2   -1    0    0    0  501  0.00000000000E+00  0.00000000000E+00 -0.43844776318E+03  0.43844776319E+03  0.25500000920E-02 0.  1.
    10030    2    1    2    0    0  0.00000000000E+00  0.00000000000E+00 -0.29591397450E+03  0.58098155189E+03  0.49997448268E+03 0.  0.
        3    1    3    3  502    0  0.19473034609E+03  0.15669406792E+03 -0.15324029577E+03  0.29318174749E+03  0.10100000352E+00 0. -1.
       -3    1    3    3    0  502 -0.19473034609E+03 -0.15669406792E+03 -0.14267367873E+03  0.28779980441E+03  0.10100000352E+00 0.  1.
</event>
<event>
 5   0  0.2863538E-03  0.4996707E+03  0.7818609E-02  0.1013865E+00
       -1   -1    0    0    0  501  0.00000000000E+00  0.00000000000E+00  0.19003645671E+03  0.19003645678E+03  0.50400001928E-02 0.  1.
        1   -1    0    0  501    0  0.00000000000E+00  0.00000000000E+00 -0.32845118022E+03  0.32845118026E+03  0.50400001928E-02 0. -1.
    10030    2    1    2    0    0  0.00000000000E+00  0.00000000000E+00 -0.13841472351E+03  0.51848763704E+03  0.49967068563E+03 0.  0.
        1    1    3    3  502    0  0.51499616406E+02  0.16126796168E+03 -0.25986040463E+03  0.31014028418E+03  0.50400001928E-02 0. -1.
       -1    1    3    3    0  502 -0.51499616406E+02 -0.16126796168E+03  0.12144568112E+03  0.20834735286E+03  0.50400001928E-02 0.  1.
</event>
<event>
 5   0  0.2005125E-03  0.5004290E+03  0.7818609E-02  0.1013667E+00
        4   -1    0    0  501    0  0.00000000000E+00  0.00000000000E+00  0.90708462307E+02  0.90717352442E+02  0.12699999809E+01 0.  1.
       -4   -1    0    0    0  501  0.00000000000E+00  0.00000000000E+00 -0.69016008359E+03  0.69016125208E+03  0.12699999809E+01 0. -1.
    10030    2    1    2    0    0  0.00000000000E+00  0.00000000000E+00 -0.59945162128E+03  0.78087860452E+03  0.50042896474E+03 0.  0.
        3    1    3    3  502    0  0.23309324508E+03 -0.30847936965E+02 -0.16619172057E+03  0.28793012052E+03  0.10100000352E+00 0.  1.
       -3    1    3    3    0  502 -0.23309324508E+03  0.30847936965E+02 -0.43325990071E+03  0.49294848400E+03  0.10100000352E+00 0. -1.
</event>
<event>
 5   0  0.4978779E-03  0.5003042E+03  0.7818609E-02  0.1013700E+00
       -2   -1    0    0    0  501  0.00000000000E+00  0.00000000000E+00  0.31234206542E+03  0.31234206543E+03  0.25500000920E-02 0. -1.
        2   -1    0    0  501    0  0.00000000000E+00  0.00000000000E+00 -0.20034464672E+03  0.20034464674E+03  0.25500000920E-02 0.  1.
    10030    2    1    2    0    0  0.00000000000E+00  0.00000000000E+00  0.11199741870E+03  0.51268671217E+03  0.50030415053E+03 0.  0.
        1    1    3    3  502    0 -0.78007670387E+00  0.10095831240E+03 -0.17853896047E+03  0.20510814171E+03  0.50400001928E-02 0.  1.
       -1    1    3    3    0  502  0.78007670387E+00 -0.10095831240E+03  0.29053637917E+03  0.30757857046E+03  0.50400001928E-02 0. -1.
</event>
<event>
 5   0  0.5118882E-03  0.4998481E+03  0.7818609E-02  0.1013819E+00
        2   -1    0    0  501    0  0.00000000000E+00  0.00000000000E+00  0.37587546805E+03  0.37587546806E+03  0.25500000920E-02 0.  1.
       -2   -1    0    0    0  501  0.00000000000E+00  0.00000000000E+00 -0.16617747637E+03  0.16617747639E+03  0.25500000920E-02 0. -1.
    10030    2    1    2    0    0  0.00000000000E+00  0.00000000000E+00  0.20969799168E+03  0.54205294445E+03  0.49984812381E+03 0.  0.
        3    1    3    3  502    0 -0.17721943666E+02  0.11549829809E+03  0.34442846758E+03  0.36370991687E+03  0.10100000352E+00 0.  1.
       -3    1    3    3    0  502  0.17721943666E+02 -0.11549829809E+03 -0.13473047590E+03  0.17834302758E+03  0.10100000352E+00 0. -1.
</event>
<event>
 5   0  0.3057783E-03  0.4998226E+03  0.7818609E-02  0.1013825E+00
       -1   -1    0    0    0  501  0.00000000000E+00  0.00000000000E+00  0.91809941751E+02  0.91809941889E+02  0.50400001928E-02 0.  1.
        1   -1    0    0  501    0  0.00000000000E+00  0.00000000000E+00 -0.68027110571E+03  0.68027110573E+03  0.50400001928E-02 0. -1.
    10030    2    1    2    0    0  0.00000000000E+00  0.00000000000E+00 -0.58846116396E+03  0.77208104762E+03  0.49982257112E+03 0.  0.
        5    1    3    3  502    0 -0.10892589219E+03  0.19241510874E+03 -0.47400948336E+03  0.52306357584E+03  0.46999998093E+01 0. -1.
       -5    1    3    3    0  502  0.10892589219E+03 -0.19241510874E+03 -0.11445168060E+03  0.24901747178E+03  0.46999998093E+01 0.  1.
</event>
<event>
 5   0  0.5118882E-03  0.4999351E+03  0.7818609E-02  0.1013796E+00
       -2   -1    0    0    0  501  0.00000000000E+00  0.00000000000E+00  0.50300414177E+02  0.50300414242E+02  0.25500000920E-02 0. -1.
        2   -1    0    0  501    0  0.00000000000E+00  0.00000000000E+00 -0.12422118664E+04  0.12422118664E+04  0.25500000920E-02 0.  1.
    10030    2    1    2    0    0  0.00000000000E+00  0.00000000000E+00 -0.11919114522E+04  0.12925122806E+04  0.49993508145E+03 0.  0.
        3    1    3    3  502    0  0.89133861328E+02 -0.17111618719E+03 -0.10068423237E+04  0.10251619725E+04  0.10100000352E+00 0.  1.
       -3    1    3    3    0  502 -0.89133861328E+02  0.17111618719E+03 -0.18506912848E+03  0.26735030816E+03  0.10100000352E+00 0. -1.
</event>
<event>
 5   0  0.3013734E-03  0.4999368E+03  0.7818609E-02  0.1013795E+00
        1   -1    0    0  501    0  0.00000000000E+00  0.00000000000E+00  0.40930927894E+03  0.40930927897E+03  0.50400001928E-02 0.  1.
       -1   -1    0    0    0  501  0.00000000000E+00  0.00000000000E+00 -0.15265769407E+03  0.15265769415E+03  0.50400001928E-02 0. -1.
    10030    2    1    2    0    0  0.00000000000E+00  0.00000000000E+00  0.25665158487E+03  0.56196697312E+03  0.49993683887E+03 0.  0.
        2    1    3    3  502    0  0.14470987028E+03 -0.20358524532E+03  0.11729425739E+03  0.27594535961E+03  0.25500000920E-02 0.  1.
       -2    1    3    3    0  502 -0.14470987028E+03  0.20358524532E+03  0.13935732748E+03  0.28602161351E+03  0.25500000920E-02 0. -1.
</event>
<event>
 5   0  0.3211775E-03  0.5001183E+03  0.7818609E-02  0.1013748E+00
       -1   -1    0    0    0  501  0.00000000000E+00  0.00000000000E+00  0.20139964236E+03  0.20139964243E+03  0.50400001928E-02 0. -1.
        1   -1    0    0  501    0  0.00000000000E+00  0.00000000000E+00 -0.31047512801E+03  0.31047512806E+03  0.50400001928E-02 0.  1.
    10030    2    1    2    0    0  0.00000000000E+00  0.00000000000E+00 -0.10907548565E+03  0.51187477048E+03  0.50011830509E+03 0.  0.
        4    1    3    3  502    0  0.18686635373E+03  0.16611104902E+03 -0.50437052173E+02  0.25506356834E+03  0.12699999809E+01 0.  1.
       -4    1    3    3    0  502 -0.18686635373E+03 -0.16611104902E+03 -0.58638433477E+02  0.25681120214E+03  0.12699999809E+01 0. -1.
</event>
<event>
 5   0  0.5118882E-03  0.5001104E+03  0.7818609E-02  0.1013750E+00
       -2   -1    0    0    0  501  0.00000000000E+00  0.00000000000E+00  0.13266814946E+03  0.13266814948E+03  0.25500000920E-02 0. -1.
        2   -1    0    0  501    0  0.00000000000E+00  0.00000000000E+00 -0.47130827141E+03  0.47130827142E+03  0.25500000920E-02 0.  1.
    10030    2    1    2    0    0  0.00000000000E+00  0.00000000000E+00 -0.33864012196E+03  0.60397642090E+03  0.50011037263E+03 0.  0.
        3    1    3    3  502    0  0.70293297270E+02  0.20879195553E+03 -0.31217641798E+03  0.38208553294E+03  0.10100000352E+00 0.  1.
       -3    1    3    3    0  502 -0.70293297270E+02 -0.20879195553E+03 -0.26463703973E+02  0.22189088797E+03  0.10100000352E+00 0. -1.
</event>
<event>
 5   0  0.3055293E-03  0.4998962E+03  0.7818609E-02  0.1013806E+00
       -1   -1    0    0    0  501  0.00000000000E+00  0.00000000000E+00  0.11283564347E+03  0.11283564358E+03  0.50400001928E-02 0.  1.
        1   -1    0    0  501    0  0.00000000000E+00  0.00000000000E+00 -0.55367300053E+03  0.55367300056E+03  0.50400001928E-02 0. -1.
    10030    2    1    2    0    0  0.00000000000E+00  0.00000000000E+00 -0.44083735706E+03  0.66650864414E+03  0.49989618655E+03 0.  0.
        3    1    3    3  502    0  0.36930203093E+02  0.99722472550E+02 -0.52200741358E+03  0.53272897562E+03  0.10100000352E+00 0. -1.
       -3    1    3    3    0  502 -0.36930203093E+02 -0.99722472550E+02  0.81170056519E+02  0.13377966852E+03  0.10100000352E+00 0.  1.
</event>
<event>
 5   0  0.2863538E-03  0.4999627E+03  0.7818609E-02  0.1013789E+00
       -1   -1    0    0    0  501  0.00000000000E+00  0.00000000000E+00  0.14312688078E+03  0.14312688086E+03  0.50400001928E-02 0. -1.
        1   -1    0    0  501    0  0.00000000000E+00  0.00000000000E+00 -0.43661026585E+03  0.43661026588E+03  0.50400001928E-02 0.  1.
    10030    2    1    2    0    0  0.00000000000E+00  0.00000000000E+00 -0.29348338508E+03  0.57973714675E+03  0.49996266061E+03 0.  0.
        1    1    3    3  502    0  0.17986463052E+03  0.16571578018E+03 -0.20674446298E+03  0.32024409146E+03  0.50400001928E-02 0.  1.
       -1    1    3    3    0  502 -0.17986463052E+03 -0.16571578018E+03 -0.86738922094E+02  0.25949305529E+03  0.50400001928E-02 0. -1.
</event>
<event>
 5   0  0.3211775E-03  0.4998660E+03  0.7818609E-02  0.1013814E+00
       -1   -1    0    0    0  501  0.00000000000E+00  0.00000000000E+00  0.33145058066E+03  0.33145058070E+03  0.50400001928E-02 0.  1.
        1   -1    0    0  501    0  0.00000000000E+00  0.00000000000E+00 -0.18846398948E+03  0.18846398955E+03  0.50400001928E-02 0. -1.
    10030    2    1    2    0    0  0.00000000000E+00  0.00000000000E+00  0.14298659118E+03  0.51991457025E+03  0.49986597714E+03 0.  0.
        4    1    3    3  502    0  0.65433082055E+02 -0.23491494660E+03  0.12844683218E+03  0.27562061237E+03  0.12699999809E+01 0. -1.
       -4    1    3    3    0  502 -0.65433082055E+02  0.23491494660E+03  0.14539758998E+02  0.24429395788E+03  0.12699999809E+01 0.  1.
</event>
<event>
 5   0  0.4989875E-03  0.5000865E+03  0.7818609E-02  0.1013756E+00
        2   -1    0    0  501    0  0.00000000000E+00  0.00000000000E+00  0.13324775087E+04  0.13324775087E+04  0.25500000920E-02 0. -1.
       -2   -1    0    0    0  501  0.00000000000E+00  0.00000000000E+00 -0.46921332471E+02  0.46921332540E+02  0.25500000920E-02 0.  1.
    10030    2    1    2    0    0  0.00000000000E+00  0.00000000000E+00  0.12855561762E+04  0.13793988412E+04  0.50008647350E+03 0.  0.
        2    1    3    3  502    0  0.24633640573E+03 -0.31048225482E+02  0.56113910592E+03  0.61361446634E+03  0.25500000920E-02 0.  1.
       -2    1    3    3    0  502 -0.24633640573E+03  0.31048225482E+02  0.72441707031E+03  0.76578437491E+03  0.25500000920E-02 0. -1.
</event>
<event>
 5   0  0.4989875E-03  0.5001532E+03  0.7818609E-02  0.1013739E+00
       -2   -1    0    0    0  501  0.00000000000E+00  0.00000000000E+00  0.24796049255E+03  0.24796049256E+03  0.25500000920E-02 0. -1.
        2   -1    0    0  501    0  0.00000000000E+00  0.00000000000E+00 -0.25221078389E+03  0.25221078391E+03  0.25500000920E-02 0.  1.
    10030    2    1    2    0    0  0.00000000000E+00  0.00000000000E+00 -0.42502913472E+01  0.50017127647E+03  0.50015321735E+03 0.  0.
        2    1    3    3  502    0 -0.90202276720E+02  0.22559268394E+03  0.57120562111E+02  0.24958218765E+03  0.25500000920E-02 0. -1.
       -2    1    3    3    0  502  0.90202276720E+02 -0.22559268394E+03 -0.61370853458E+02  0.25058908881E+03  0.25500000920E-02 0.  1.
</event>
<event>
 5   0  0.4989875E-03  0.4997253E+03  0.7818609E-02  0.1013851E+00
       -2   -1    0    0    0  501  0.00000000000E+00  0.00000000000E+00  0.95147139963E+02  0.95147139997E+02  0.25500000920E-02 0.  1.
        2   -1    0    0  501    0  0.00000000000E+00  0.00000000000E+00 -0.65615569073E+03  0.65615569074E+03  0.25500000920E-02 0. -1.
    10030    2    1    2    0    0  0.00000000000E+00  0.00000000000E+00 -0.56100855077E+03  0.75130283073E+03  0.49972527396E+03 0.  0.
        2    1    3    3  502    0 -0.18911603121E+03  0.12436810518E+03 -0.43960570402E+03  0.49445472377E+03  0.25500000920E-02 0. -1.
       -2    1    3    3    0  502  0.18911603121E+03 -0.12436810518E+03 -0.12140284675E+03  0.25684810697E+03  0.25500000920E-02 0.  1.
</event>
<event>
 5   0  0.2005125E-03  0.4990001E+03  0.7818609E-02  0.1014040E+00
       -4   -1    0    0    0  501  0.00000000000E+00  0.00000000000E+00  0.88609163728E+03  0.88609254740E+03  0.12699999809E+01 0. -1.
        4   -1    0    0  501    0  0.00000000000E+00  0.00000000000E+00 -0.70245958436E+02  0.70257437873E+02  0.12699999809E+01 0.  1.
    10030    2    1    2    0    0  0.00000000000E+00  0.00000000000E+00  0.81584567884E+03  0.95634998527E+03  0.49900012289E+03 0.  0.
        3    1    3    3  502    0  0.10027951133E+03 -0.21224834681E+03  0.24592278066E+03  0.33997553642E+03  0.10100000352E+00 0. -1.
       -3    1    3    3    0  502 -0.10027951133E+03  0.21224834681E+03  0.56992289818E+03  0.61637444885E+03  0.10100000352E+00 0.  1.
</event>
<event>
 5   0  0.3211775E-03  0.5002505E+03  0.7818609E-02  0.1013714E+00
        1   -1    0    0  501    0  0.00000000000E+00  0.00000000000E+00  0.21943990875E+03  0.21943990881E+03  0.50400001928E-02 0.  1.
       -1   -1    0    0    0  501  0.00000000000E+00  0.00000000000E+00 -0.28510146147E+03  0.28510146151E+03  0.50400001928E-02 0. -1.
    10030    2    1    2    0    0  0.00000000000E+00  0.00000000000E+00 -0.65661552715E+02  0.50454137033E+03  0.50025049212E+03 0.  0.
        4    1    3    3  502    0 -0.15978596582E+02 -0.15713148231E+03  0.16277971482E+03  0.22681372696E+03  0.12699999809E+01 0.  1.
       -4    1    3    3    0  502  0.15978596582E+02  0.15713148231E+03 -0.22844126753E+03  0.27772764337E+03  0.12699999809E+01 0. -1.
</event>
<event>
 5   0  0.3055293E-03  0.5014203E+03  0.7818609E-02  0.1013409E+00
       -1   -1    0    0    0  501  0.00000000000E+00  0.00000000000E+00  0.35637064562E+03  0.35637064565E+03  0.50400001928E-02 0. -1.
        1   -1    0    0  501    0  0.00000000000E+00  0.00000000000E+00 -0.17637694805E+03  0.17637694812E+03  0.50400001928E-02 0.  1.
    10030    2    1    2    0    0  0.00000000000E+00  0.00000000000E+00  0.17999369757E+03  0.53274759377E+03  0.50142025039E+03 0.  0.
        3    1    3    3  502    0  0.90842373130E+02 -0.16539341264E+03 -0.85386697435E+02  0.20711884511E+03  0.10100000352E+00 0.  1.
       -3    1    3    3    0  502 -0.90842373130E+02  0.16539341264E+03  0.26538039501E+03  0.32562874866E+03  0.10100000352E+00 0. -1.
</event>
<event>
 5   0  0.4889251E-03  0.5001210E+03  0.7818609E-02  0.1013747E+00
        2   -1    0    0  501    0  0.00000000000E+00  0.00000000000E+00  0.27391127443E+03  0.27391127445E+03  0.25500000920E-02 0. -1.
       -2   -1    0    0    0  501  0.00000000000E+00  0.00000000000E+00 -0.22828654188E+03  0.22828654189E+03  0.25500000920E-02 0.  1.
    10030    2    1    2    0    0  0.00000000000E+00  0.00000000000E+00  0.45624732557E+02  0.50219781634E+03  0.50012101587E+03 0.  0.
        5    1    3    3  502    0  0.20345136546E+03  0.12218923186E+03  0.10178691645E+03  0.25827375564E+03  0.46999998093E+01 0.  1.
       -5    1    3    3    0  502 -0.20345136546E+03 -0.12218923186E+03 -0.56162183894E+02  0.24392406070E+03  0.46999998093E+01 0. -1.
</event>
<event>
 5   0  0.3013734E-03  0.5002470E+03  0.7818609E-02  0.1013714E+00
       -1   -1    0    0    0  501  0.00000000000E+00  0.00000000000E+00  0.41078564220E+03  0.41078564223E+03  0.50400001928E-02 0.  1.
        1   -1    0    0  501    0  0.00000000000E+00  0.00000000000E+00 -0.15229786510E+03  0.15229786518E+03  0.50400001928E-02 0. -1.
    10030    2    1    2    0    0  0.00000000000E+00  0.00000000000E+00  0.25848777710E+03  0.56308350741E+03  0.50024704438E+03 0.  0.
        2    1    3    3  502    0  0.10366683194E+03 -0.53871900812E+02  0.37818662599E+03  0.39582081530E+03  0.25500000920E-02 0.  1.
       -2    1    3    3    0  502 -0.10366683194E+03  0.53871900812E+02 -0.11969884889E+03  0.16726269212E+03  0.25500000920E-02 0. -1.
</event>
<event>
 5   0  0.4889251E-03  0.5002284E+03  0.7818609E-02  0.1013719E+00
       -2   -1    0    0    0  501  0.00000000000E+00  0.00000000000E+00  0.54198910331E+02  0.54198910391E+02  0.25500000920E-02 0.  1.
        2   -1    0    0  501    0  0.00000000000E+00  0.00000000000E+00 -0.11542134435E+04  0.11542134435E+04  0.25500000920E-02 0. -1.
    10030    2    1    2    0    0  0.00000000000E+00  0.00000000000E+00 -0.11000145332E+04  0.12084123539E+04  0.50022839170E+03 0.  0.
        5    1    3    3  502    0  0.45213407212E+02 -0.15832311389E+02 -0.11429185089E+04  0.11439316948E+04  0.46999998093E+01 0. -1.
       -5    1    3    3    0  502 -0.45213407212E+02  0.15832311389E+02  0.42903975711E+02  0.64480659160E+02  0.46999998093E+01 0.  1.
</event>
<event>
 5   0  0.3211775E-03  0.5000586E+03  0.7818609E-02  0.1013764E+00
       -1   -1    0    0    0  501  0.00000000000E+00  0.00000000000E+00  0.48797561608E+02  0.48797561869E+02  0.50400001928E-02 0. -1.
        1   -1    0    0  501    0  0.00000000000E+00  0.00000000000E+00 -0.12811019376E+04  0.12811019376E+04  0.50400001928E-02 0.  1.
    10030    2    1    2    0    0  0.00000000000E+00  0.00000000000E+00 -0.12323043760E+04  0.13298994995E+04  0.50005860020E+03 0.  0.
        4    1    3    3  502    0 -0.16506571978E+03 -0.91762438255E+02 -0.18040185923E+03  0.26117710588E+03  0.12699999809E+01 0. -1.
       -4    1    3    3    0  502  0.16506571978E+03  0.91762438255E+02 -0.10519025168E+04  0.10687223936E+04  0.12699999809E+01 0.  1.
</event>
<event>
 5   0  0.3057783E-03  0.5000838E+03  0.7818609E-02  0.1013757E+00
        1   -1    0    0  501    0  0.00000000000E+00  0.00000000000E+00  0.63618553296E+03  0.63618553298E+03  0.50400001928E-02 0.  1.
       -1   -1    0    0    0  501  0.00000000000E+00  0.00000000000E+00 -0.98274698141E+02  0.98274698270E+02  0.50400001928E-02 0. -1.
    10030    2    1    2    0    0  0.00000000000E+00  0.00000000000E+00  0.53791083482E+03  0.73446023125E+03  0.50008375806E+03 0.  0.
        5    1    3    3  502    0  0.10264496975E+03 -0.22368189138E+03  0.20444611139E+03  0.31998418837E+03  0.46999998093E+01 0.  1.
       -5    1    3    3    0  502 -0.10264496975E+03  0.22368189138E+03  0.33346472343E+03  0.41447604288E+03  0.46999998093E+01 0. -1.
</event>
<event>
 5   0  0.3055293E-03  0.5000985E+03  0.7818609E-02  0.1013753E+00
        1   -1    0    0  501    0  0.00000000000E+00  0.00000000000E+00  0.26897865479E+04  0.26897865479E+04  0.50400001928E-02 0.  1.
       -1   -1    0    0    0  501  0.00000000000E+00  0.00000000000E+00 -0.23245197287E+02  0.23245197834E+02  0.50400001928E-02 0. -1.
    10030    2    1    2    0    0  0.00000000000E+00  0.00000000000E+00  0.26665413506E+04  0.27130317457E+04  0.50009846916E+03 0.  0.
        3    1    3    3  502    0  0.74198346977E+01 -0.24968290629E+03  0.12718934126E+04  0.12961903683E+04  0.10100000352E+00 0.  1.
       -3    1    3    3    0  502 -0.74198346977E+01  0.24968290629E+03  0.13946479380E+04  0.14168413774E+04  0.10100000352E+00 0. -1.
</event>
<event>
 5   0  0.2863538E-03  0.5021378E+03  0.7818609E-02  0.1013222E+00
        1   -1    0    0  501    0  0.00000000000E+00  0.00000000000E+00  0.10322079560E+04  0.10322079560E+04  0.50400001928E-02 0. -1.
       -1   -1    0    0    0  501  0.00000000000E+00  0.00000000000E+00 -0.61068697343E+02  0.61068697551E+02  0.50400001928E-02 0.  1.
    10030    2    1    2    0    0  0.00000000000E+00  0.00000000000E+00  0.97113925864E+03  0.10932766535E+04  0.50213781128E+03 0.  0.
        1    1    3    3  502    0 -0.20720127116E+03 -0.11040991633E+03  0.67924500635E+03  0.71867690590E+03  0.50400001928E-02 0. -1.
       -1    1    3    3    0  502  0.20720127116E+03  0.11040991633E+03  0.29189425229E+03  0.37459974765E+03  0.50400001928E-02 0.  1.
</event>
<event>
 5   0  0.5095783E-03  0.5000475E+03  0.7818609E-02  0.1013767E+00
       -2   -1    0    0    0  501  0.00000000000E+00  0.00000000000E+00  0.13306893681E+03  0.13306893684E+03  0.25500000920E-02 0. -1.
        2   -1    0    0  501    0  0.00000000000E+00  0.00000000000E+00 -0.46977060141E+03  0.46977060141E+03  0.25500000920E-02 0.  1.
    10030    2    1    2    0    0  0.00000000000E+00  0.00000000000E+00 -0.33670166459E+03  0.60283953825E+03  0.50004749568E+03 0.  0.
        4    1    3    3  502    0 -0.22155979659E+03 -0.82526798163E+02 -0.26637179926E+03  0.35616704539E+03  0.12699999809E+01 0.  1.
       -4    1    3    3    0  502  0.22155979659E+03  0.82526798163E+02 -0.70329865329E+02  0.24667249286E+03  0.12699999809E+01 0. -1.
</event>
<event>
 5   0  0.4989875E-03  0.5001670E+03  0.7818609E-02  0.1013735E+00
        2   -1    0    0  501    0  0.00000000000E+00  0.00000000000E+00  0.12192529680E+04  0.12192529680E+04  0.25500000920E-02 0. -1.
       -2   -1    0    0    0  501  0.00000000000E+00  0.00000000000E+00 -0.51295136804E+02  0.51295136867E+02  0.25500000920E-02 0.  1.
    10030    2    1    2    0    0  0.00000000000E+00  0.00000000000E+00  0.11679578312E+04  0.12705481049E+04  0.50016696346E+03 0.  0.
        2    1    3    3  502    0 -0.80295845704E+02  0.12478298140E+03  0.10953424541E+04  0.11053475955E+04  0.25500000920E-02 0. -1.
       -2    1    3    3    0  502  0.80295845704E+02 -0.12478298140E+03  0.72615377150E+02  0.16520050935E+03  0.25500000920E-02 0.  1.
</event>
<event>
 5   0  0.3055293E-03  0.4997897E+03  0.7818609E-02  0.1013834E+00
       -1   -1    0    0    0  501  0.00000000000E+00  0.00000000000E+00  0.24813118381E+03  0.24813118386E+03  0.50400001928E-02 0.  1.
        1   -1    0    0  501    0  0.00000000000E+00  0.00000000000E+00 -0.25167104516E+03  0.25167104521E+03  0.50400001928E-02 0. -1.
    10030    2    1    2    0    0  0.00000000000E+00  0.00000000000E+00 -0.35398613482E+01  0.49980222906E+03  0.49978969333E+03 0.  0.
        3    1    3    3  502    0 -0.24985488487E+03  0.44607980779E+01 -0.20188855039E+01  0.24990287776E+03  0.10100000352E+00 0. -1.
       -3    1    3    3    0  502  0.24985488487E+03 -0.44607980779E+01 -0.15209758443E+01  0.24989935130E+03  0.10100000352E+00 0.  1.
</event>
<event>
 5   0  0.5118882E-03  0.5001511E+03  0.7818609E-02  0.1013739E+00
       -2   -1    0    0    0  501  0.00000000000E+00  0.00000000000E+00  0.28405470753E+03  0.28405470754E+03  0.25500000920E-02 0. -1.
        2   -1    0    0  501    0  0.00000000000E+00  0.00000000000E+00 -0.22016106851E+03  0.22016106853E+03  0.25500000920E-02 0.  1.
    10030    2    1    2    0    0  0.00000000000E+00  0.00000000000E+00  0.63893639012E+02  0.50421577606E+03  0.50015112889E+03 0.  0.
        3    1    3    3  502    0  0.31921501586E+02 -0.21773196221E+03 -0.87810791043E+02  0.23693234236E+03  0.10100000352E+00 0. -1.
       -3    1    3    3    0  502 -0.31921501586E+02  0.21773196221E+03  0.15170443006E+03  0.26728343370E+03  0.10100000352E+00 0.  1.
</event>
<event>
 5   0  0.2863538E-03  0.5002110E+03  0.7818609E-02  0.1013724E+00
        1   -1    0    0  501    0  0.00000000000E+00  0.00000000000E+00  0.22036818307E+03  0.22036818313E+03  0.50400001928E-02 0.  1.
       -1   -1    0    0    0  501  0.00000000000E+00  0.00000000000E+00 -0.28385564153E+03  0.28385564158E+03  0.50400001928E-02 0. -1.
    10030    2    1    2    0    0  0.00000000000E+00  0.00000000000E+00 -0.63487458456E+02  0.50422382471E+03  0.50021096352E+03 0.  0.
        1    1    3    3  502    0  0.53565363234E+02 -0.16906534775E+03  0.14602412387E+03  0.22972893750E+03  0.50400001928E-02 0.  1.
       -1    1    3    3    0  502 -0.53565363234E+02  0.16906534775E+03 -0.20951158233E+03  0.27449488721E+03  0.50400001928E-02 0. -1.
</event>
<event>
 5   0  0.3211775E-03  0.4997194E+03  0.7818609E-02  0.1013852E+00
        1   -1    0    0  501    0  0.00000000000E+00  0.00000000000E+00  0.44276489827E+03  0.44276489830E+03  0.50400001928E-02 0. -1.
       -1   -1    0    0    0  501  0.00000000000E+00  0.00000000000E+00 -0.14100005058E+03  0.14100005067E+03  0.50400001928E-02 0.  1.
    10030    2    1    2    0    0  0.00000000000E+00  0.00000000000E+00  0.30176484769E+03  0.58376494897E+03  0.49971941362E+03 0.  0.
        4    1    3    3  502    0 -0.22500522221E+03  0.64754010048E+02  0.48989940761E+02  0.23921132715E+03  0.12699999809E+01 0.  1.
       -4    1    3    3    0  502  0.22500522221E+03 -0.64754010048E+02  0.25277490693E+03  0.34455362182E+03  0.12699999809E+01 0. -1.
</event>
<event>
 5   0  0.3057783E-03  0.5004299E+03  0.7818609E-02  0.1013667E+00
        1   -1    0    0  501    0  0.00000000000E+00  0.00000000000E+00  0.95003515017E+02  0.95003515151E+02  0.50400001928E-02 0. -1.
       -1   -1    0    0    0  501  0.00000000000E+00  0.00000000000E+00 -0.65900212804E+03  0.65900212806E+03  0.50400001928E-02 0.  1.
    10030    2    1    2    0    0  0.00000000000E+00  0.00000000000E+00 -0.56399861302E+03  0.75400564321E+03  0.50042988970E+03 0.  0.
        5    1    3    3  502    0  0.15758092779E+03  0.32884802211E+02  0.65368545955E+01  0.16117685779E+03  0.46999998093E+01 0. -1.
       -5    1    3    3    0  502 -0.15758092779E+03 -0.32884802211E+02 -0.57053546762E+03  0.59282878542E+03  0.46999998093E+01 0.  1.
</event>
<event>
 5   0  0.5118882E-03  0.4997699E+03  0.7818609E-02  0.1013839E+00
       -2   -1    0    0    0  501  0.00000000000E+00  0.00000000000E+00  0.56622484602E+02  0.56622484660E+02  0.25500000920E-02 0. -1.
        2   -1    0    0  501    0  0.00000000000E+00  0.00000000000E+00 -0.11027862458E+04  0.11027862458E+04  0.25500000920E-02 0.  1.
    10030    2    1    2    0    0  0.00000000000E+00  0.00000000000E+00 -0.10461637612E+04  0.11594087304E+04  0.49976993609E+03 0.  0.
        3    1    3    3  502    0  0.19584676554E+03 -0.15119185048E+03 -0.44180124975E+03  0.50636280048E+03  0.10100000352E+00 0. -1.
       -3    1    3    3    0  502 -0.19584676554E+03  0.15119185048E+03 -0.60436251141E+03  0.65304592995E+03  0.10100000352E+00 0.  1.
</event>
<event>
 5   0  0.2863538E-03  0.4999066E+03  0.7818609E-02  0.1013803E+00
       -1   -1    0    0    0  501  0.00000000000E+00  0.00000000000E+00  0.11302102603E+03  0.11302102615E+03  0.50400001928E-02 0.  1.
        1   -1    0    0  501    0  0.00000000000E+00  0.00000000000E+00 -0.55278781517E+03  0.55278781519E+03  0.50400001928E-02 0. -1.
    10030    2    1    2    0    0  0.00000000000E+00  0.00000000000E+00 -0.43976678914E+03  0.66580884134E+03  0.49990657565E+03 0.  0.
        1    1    3    3  502    0 -0.16984037170E+03  0.84424781867E+02 -0.30575244725E+01  0.18969091737E+03  0.50400001928E-02 0.  1.
       -1    1    3    3    0  502  0.16984037170E+03 -0.84424781867E+02 -0.43670926466E+03  0.47611792396E+03  0.50400001928E-02 0. -1.
</event>
<event>
 5   0  0.4978779E-03  0.4999507E+03  0.7818609E-02  0.1013792E+00
        2   -1    0    0  501    0  0.00000000000E+00  0.00000000000E+00  0.11312786100E+03  0.11312786102E+03  0.25500000920E-02 0.  1.
       -2   -1    0    0    0  501  0.00000000000E+00  0.00000000000E+00 -0.55236337242E+03  0.55236337243E+03  0.25500000920E-02 0. -1.
    10030    2    1    2    0    0  0.00000000000E+00  0.00000000000E+00 -0.43923551142E+03  0.66549123345E+03  0.49995074488E+03 0.  0.
        1    1    3    3  502    0 -0.64368082616E+02 -0.19242946263E+03 -0.41395732577E+03  0.46101303206E+03  0.50400001928E-02 0. -1.
       -1    1    3    3    0  502  0.64368082616E+02  0.19242946263E+03 -0.25278185651E+02  0.20447820139E+03  0.50400001928E-02 0.  1.
</event>
<event>
 5   0  0.3211775E-03  0.4998591E+03  0.7818609E-02  0.1013816E+00
       -1   -1    0    0    0  501  0.00000000000E+00  0.00000000000E+00  0.11557661422E+03  0.11557661433E+03  0.50400001928E-02 0.  1.
        1   -1    0    0  501    0  0.00000000000E+00  0.00000000000E+00 -0.54046219851E+03  0.54046219854E+03  0.50400001928E-02 0. -1.
    10030    2    1    2    0    0  0.00000000000E+00  0.00000000000E+00 -0.42488558430E+03  0.65603881287E+03  0.49985914440E+03 0.  0.
        4    1    3    3  502    0 -0.14723455349E+03  0.20186244931E+03 -0.22039539772E+03  0.33316993625E+03  0.12699999809E+01 0.  1.
       -4    1    3    3    0  502  0.14723455349E+03 -0.20186244931E+03 -0.20449018657E+03  0.32286887662E+03  0.12699999809E+01 0. -1.
</event>
<event>
 5   0  0.3057783E-03  0.4999373E+03  0.7818609E-02  0.1013795E+00
        1   -1    0    0  501    0  0.00000000000E+00  0.00000000000E+00  0.13652588879E+03  0.13652588888E+03  0.50400001928E-02 0. -1.
       -1   -1    0    0    0  501  0.00000000000E+00  0.00000000000E+00 -0.45767385852E+03  0.45767385855E+03  0.50400001928E-02 0.  1.
    10030    2    1    2    0    0  0.00000000000E+00  0.00000000000E+00 -0.32114796973E+03  0.59419974743E+03  0.49993731745E+03 0.  0.
        5    1    3    3  502    0 -0.20642031106E+03  0.65441721284E+02 -0.30888215338E+03  0.37725619727E+03  0.46999998093E+01 0.  1.
       -5    1    3    3    0  502  0.20642031106E+03 -0.65441721284E+02 -0.12265816350E+02  0.21694355015E+03  0.46999998093E+01 0. -1.
</event>
<event>
 5   0  0.2005125E-03  0.4997310E+03  0.7818609E-02  0.1013849E+00
        3   -1    0    0  501    0  0.00000000000E+00  0.00000000000E+00  0.13354921833E+03  0.13354925652E+03  0.10100000352E+00 0. -1.
       -3   -1    0    0    0  501  0.00000000000E+00  0.00000000000E+00 -0.46748866994E+03  0.46748868086E+03  0.10100000352E+00 0.  1.
    10030    2    1    2    0    0  0.00000000000E+00  0.00000000000E+00 -0.33393945162E+03  0.60103793737E+03  0.49973097244E+03 0.  0.
        1    1    3    3  502    0  0.13810746250E+03  0.13686345051E+03  0.21775362064E+02  0.19565132686E+03  0.50400001928E-02 0.  1.
       -1    1    3    3    0  502 -0.13810746250E+03 -0.13686345051E+03 -0.35571481368E+03  0.40538661051E+03  0.50400001928E-02 0. -1.
</event>
<event>
 5   0  0.2005125E-03  0.5001143E+03  0.7818609E-02  0.1013749E+00
        3   -1    0    0  501    0  0.00000000000E+00  0.00000000000E+00  0.29583671682E+03  0.29583673406E+03  0.10100000352E+00 0. -1.
       -3   -1    0    0    0  501  0.00000000000E+00  0.00000000000E+00 -0.21136172512E+03  0.21136174925E+03  0.10100000352E+00 0.  1.
    10030    2    1    2    0    0  0.00000000000E+00  0.00000000000E+00  0.84474991699E+02  0.50719848332E+03  0.50011426420E+03 0.  0.
        3    1    3    3  502    0  0.68527616904E+02 -0.14416634611E+02  0.28568929510E+03  0.29414665928E+03  0.10100000352E+00 0. -1.
       -3    1    3    3    0  502 -0.68527616904E+02  0.14416634611E+02 -0.20121430340E+03  0.21305182403E+03  0.10100000352E+00 0.  1.
</event>
<event>
 5   0  0.3013734E-03  0.5000166E+03  0.7818609E-02  0.1013775E+00
        1   -1    0    0  501    0  0.00000000000E+00  0.00000000000E+00  0.12143060659E+03  0.12143060669E+03  0.50400001928E-02 0. -1.
       -1   -1    0    0    0  501  0.00000000000E+00  0.00000000000E+00 -0.51473135067E+03  0.51473135070E+03  0.50400001928E-02 0.  1.
    10030    2    1    2    0    0  0.00000000000E+00  0.00000000000E+00 -0.39330074408E+03  0.63616195739E+03  0.50001656046E+03 0.  0.
        2    1    3    3  502    0 -0.10342759462E+03 -0.93652941590E+01 -0.48599075698E+03  0.49696276716E+03  0.25500000920E-02 0.  1.
       -2    1    3    3    0  502  0.10342759462E+03  0.93652941590E+01  0.92690012895E+02  0.13919919023E+03  0.25500000920E-02 0. -1.
</event>
<event>
 5   0  0.2005125E-03  0.5005412E+03  0.7818609E-02  0.1013638E+00
       -3   -1    0    0    0  501  0.00000000000E+00  0.00000000000E+00  0.59465456010E+02  0.59465541783E+02  0.10100000352E+00 0. -1.
        3   -1    0    0  501    0  0.00000000000E+00  0.00000000000E+00 -0.10533060089E+04  0.10533060138E+04  0.10100000352E+00 0.  1.
    10030    2    1    2    0    0  0.00000000000E+00  0.00000000000E+00 -0.99384055292E+03  0.11127715556E+04  0.50054119733E+03 0.  0.
        3    1    3    3  502    0 -0.52044274833E+02  0.33508900462E+02 -0.10360202215E+04  0.10378676999E+04  0.10100000352E+00 0.  1.
       -3    1    3    3    0  502  0.52044274833E+02 -0.33508900462E+02  0.42179668560E+02  0.74903855668E+02  0.10100000352E+00 0. -1.
</event>
<event>
 5   0  0.3013734E-03  0.5000266E+03  0.7818609E-02  0.1013772E+00
        1   -1    0    0  501    0  0.00000000000E+00  0.00000000000E+00  0.14047279131E+04  0.14047279131E+04  0.50400001928E-02 0. -1.
       -1   -1    0    0    0  501  0.00000000000E+00  0.00000000000E+00 -0.44497334980E+02  0.44497335265E+02  0.50400001928E-02 0.  1.
    10030    2    1    2    0    0  0.00000000000E+00  0.00000000000E+00  0.13602305781E+04  0.14492252484E+04  0.50002659417E+03 0.  0.
        2    1    3    3  502    0 -0.21102036191E+03  0.10511357046E+03  0.92135720749E+03  0.95104025133E+03  0.25500000920E-02 0. -1.
       -2    1    3    3    0  502  0.21102036191E+03 -0.10511357046E+03  0.43887337065E+03  0.49818499707E+03  0.25500000920E-02 0.  1.
</event>
<event>
 5   0  0.2005125E-03  0.5002341E+03  0.7818609E-02  0.1013718E+00
       -3   -1    0    0    0  501  0.00000000000E+00  0.00000000000E+00  0.13766896286E+03  0.13766899991E+03  0.10100000352E+00 0. -1.
        3   -1    0    0  501    0  0.00000000000E+00  0.00000000000E+00 -0.45441277058E+03  0.45441278181E+03  0.10100000352E+00 0.  1.
    10030    2    1    2    0    0  0.00000000000E+00  0.00000000000E+00 -0.31674380772E+03  0.59208178172E+03  0.50023414169E+03 0.  0.
        1    1    3    3  502    0 -0.19803907566E+03 -0.14708946017E+03 -0.20722736629E+03  0.32217691746E+03  0.50400001928E-02 0.  1.
       -1    1    3    3    0  502  0.19803907566E+03  0.14708946017E+03 -0.10951644143E+03  0.26990486426E+03  0.50400001928E-02 0. -1.
</event>
<event>
 5   0  0.3057783E-03  0.5000639E+03  0.7818609E-02  0.1013762E+00
       -1   -1    0    0    0  501  0.00000000000E+00  0.00000000000E+00  0.19521054054E+03  0.19521054061E+03  0.50400001928E-02 0. -1.
        1   -1    0    0  501    0  0.00000000000E+00  0.00000000000E+00 -0.32024894869E+03  0.32024894873E+03  0.50400001928E-02 0.  1.
    10030    2    1    2    0    0  0.00000000000E+00  0.00000000000E+00 -0.12503840814E+03  0.51545948934E+03  0.50006387756E+03 0.  0.
        5    1    3    3  502    0  0.17682575414E+03 -0.17535098088E+03 -0.85068876790E+02  0.26319976751E+03  0.46999998093E+01 0.  1.
       -5    1    3    3    0  502 -0.17682575414E+03  0.17535098088E+03 -0.39969531352E+02  0.25225972183E+03  0.46999998093E+01 0. -1.
</event>
<event>
 5   0  0.2005125E-03  0.4995671E+03  0.7818609E-02  0.1013892E+00
       -3   -1    0    0    0  501  0.00000000000E+00  0.00000000000E+00  0.78145677452E+03  0.78145678105E+03  0.10100000352E+00 0. -1.
        3   -1    0    0  501    0  0.00000000000E+00  0.00000000000E+00 -0.79840365913E+02  0.79840429797E+02  0.10100000352E+00 0.  1.
    10030    2    1    2    0    0  0.00000000000E+00  0.00000000000E+00  0.70161640861E+03  0.86129721085E+03  0.49956711319E+03 0.  0.
        5    1    3    3  502    0  0.40129827169E+02 -0.91685105381E+02 -0.43676988692E+02  0.10929927226E+03  0.46999998093E+01 0.  1.
       -5    1    3    3    0  502 -0.40129827169E+02  0.91685105381E+02  0.74529339730E+03  0.75199793859E+03  0.46999998093E+01 0. -1.
</event>
<event>
 5   0  0.4989875E-03  0.4997578E+03  0.7818609E-02  0.1013842E+00
       -2   -1    0    0    0  501  0.00000000000E+00  0.00000000000E+00  0.19985798142E+02  0.19985798305E+02  0.25500000920E-02 0. -1.
        2   -1    0    0  501    0  0.00000000000E+00  0.00000000000E+00 -0.31241919549E+04  0.31241919549E+04  0.25500000920E-02 0.  1.
    10030    2    1    2    0    0  0.00000000000E+00  0.00000000000E+00 -0.31042061567E+04  0.31441777532E+04  0.49975782145E+03 0.  0.
        2    1    3    3  502    0 -0.20512477115E+03  0.36384851573E+02 -0.24202127320E+04  0.24291623448E+04  0.25500000920E-02 0.  1.
       -2    1    3    3    0  502  0.20512477115E+03 -0.36384851573E+02 -0.68399342471E+03  0.71501540838E+03  0.25500000920E-02 0. -1.
</event>
<event>
 5   0  0.3211775E-03  0.4999696E+03  0.7818609E-02  0.1013787E+00
        1   -1    0    0  501    0  0.00000000000E+00  0.00000000000E+00  0.60800277688E+03  0.60800277690E+03  0.50400001928E-02 0. -1.
       -1   -1    0    0    0  501  0.00000000000E+00  0.00000000000E+00 -0.10278310179E+03  0.10278310191E+03  0.50400001928E-02 0.  1.
    10030    2    1    2    0    0  0.00000000000E+00  0.00000000000E+00  0.50521967508E+03  0.71078587881E+03  0.49996964450E+03 0.  0.
        4    1    3    3  502    0  0.17471283886E+03  0.91231336930E+02  0.34011403142E+02  0.20001530277E+03  0.12699999809E+01 0.  1.
       -4    1    3    3    0  502 -0.17471283886E+03 -0.91231336930E+02  0.47120827194E+03  0.51077057604E+03  0.12699999809E+01 0. -1.
</event>
<event>
 5   0  0.2863538E-03  0.4999243E+03  0.7818609E-02  0.1013799E+00
        1   -1    0    0  501    0  0.00000000000E+00  0.00000000000E+00  0.29132804319E+03  0.29132804324E+03  0.50400001928E-02 0.  1.
       -1   -1    0    0    0  501  0.00000000000E+00  0.00000000000E+00 -0.21446986626E+03  0.21446986632E+03  0.50400001928E-02 0. -1.
    10030    2    1    2    0    0  0.00000000000E+00  0.00000000000E+00  0.76858176932E+02  0.50579790956E+03  0.49992434023E+03 0.  0.
        1    1    3    3  502    0 -0.13586647418E+03 -0.20579122539E+03  0.79791671043E+02  0.25918417785E+03  0.50400001928E-02 0.  1.
       -1    1    3    3    0  502  0.13586647418E+03  0.20579122539E+03 -0.29334941102E+01  0.24661373171E+03  0.50400001928E-02 0. -1.
</event>
<event>
 5   0  0.2863538E-03  0.4999118E+03  0.7818609E-02  0.1013802E+00
       -1   -1    0    0    0  501  0.00000000000E+00  0.00000000000E+00  0.10614244428E+03  0.10614244440E+03  0.50400001928E-02 0. -1.
        1   -1    0    0  501    0  0.00000000000E+00  0.00000000000E+00 -0.58862358862E+03  0.58862358865E+03  0.50400001928E-02 0.  1.
    10030    2    1    2    0    0  0.00000000000E+00  0.00000000000E+00 -0.48248114434E+03  0.69476603305E+03  0.49991177825E+03 0.  0.
        1    1    3    3  502    0  0.25574151099E+02  0.24522157205E+03 -0.18410247094E+03  0.30770339035E+03  0.50400001928E-02 0.  1.
       -1    1    3    3    0  502 -0.25574151099E+02 -0.24522157205E+03 -0.29837867340E+03  0.38706264269E+03  0.50400001928E-02 0. -1.
</event>
<event>
 5   0  0.2005125E-03  0.5001016E+03  0.7818609E-02  0.1013752E+00
       -3   -1    0    0    0  501  0.00000000000E+00  0.00000000000E+00  0.17443352491E+03  0.17443355415E+03  0.10100000352E+00 0. -1.
        3   -1    0    0  501    0  0.00000000000E+00  0.00000000000E+00 -0.35844827228E+03  0.35844828651E+03  0.10100000352E+00 0.  1.
    10030    2    1    2    0    0  0.00000000000E+00  0.00000000000E+00 -0.18401474737E+03  0.53288184066E+03  0.50010161853E+03 0.  0.
        4    1    3    3  502    0  0.13457943021E+03 -0.21031910884E+03 -0.77789455608E+02  0.26153118912E+03  0.12699999809E+01 0. -1.
       -4    1    3    3    0  502 -0.13457943021E+03  0.21031910884E+03 -0.10622529177E+03  0.27135065154E+03  0.12699999809E+01 0.  1.
</event>
<event>
 5   0  0.5095783E-03  0.4991458E+03  0.7818609E-02  0.1014002E+00
       -2   -1    0    0    0  501  0.00000000000E+00  0.00000000000E+00  0.57512216549E+03  0.57512216549E+03  0.25500000920E-02 0.  1.
        2   -1    0    0  501    0  0.00000000000E+00  0.00000000000E+00 -0.10830157426E+03  0.10830157429E+03  0.25500000920E-02 0. -1.
    10030    2    1    2    0    0  0.00000000000E+00  0.00000000000E+00  0.46682059123E+03  0.68342373978E+03  0.49914581407E+03 0.  0.
        4    1    3    3  502    0 -0.19618852311E+03  0.11144749403E+03  0.87384494977E+02  0.24196723619E+03  0.12699999809E+01 0. -1.
       -4    1    3    3    0  502  0.19618852311E+03 -0.11144749403E+03  0.37943609625E+03  0.44145650359E+03  0.12699999809E+01 0.  1.
</event>
<event>
 5   0  0.2863538E-03  0.4999685E+03  0.7818609E-02  0.1013787E+00
       -1   -1    0    0    0  501  0.00000000000E+00  0.00000000000E+00  0.62081639076E+02  0.62081639281E+02  0.50400001928E-02 0.  1.
        1   -1    0    0  501    0  0.00000000000E+00  0.00000000000E+00 -0.10066118660E+04  0.10066118660E+04  0.50400001928E-02 0. -1.
    10030    2    1    2    0    0  0.00000000000E+00  0.00000000000E+00 -0.94453022696E+03  0.10686935053E+04  0.49996845770E+03 0.  0.
        1    1    3    3  502    0 -0.11829587428E+03  0.16435308954E+03 -0.78558719635E+03  0.81126635269E+03  0.50400001928E-02 0. -1.
       -1    1    3    3    0  502  0.11829587428E+03 -0.16435308954E+03 -0.15894303061E+03  0.25742715264E+03  0.50400001928E-02 0.  1.
</event>
<event>
 5   0  0.5095783E-03  0.4994384E+03  0.7818609E-02  0.1013926E+00
       -2   -1    0    0    0  501  0.00000000000E+00  0.00000000000E+00  0.47346174055E+02  0.47346174124E+02  0.25500000920E-02 0. -1.
        2   -1    0    0  501    0  0.00000000000E+00  0.00000000000E+00 -0.13171009384E+04  0.13171009384E+04  0.25500000920E-02 0.  1.
    10030    2    1    2    0    0  0.00000000000E+00  0.00000000000E+00 -0.12697547643E+04  0.13644471125E+04  0.49943844596E+03 0.  0.
        4    1    3    3  502    0  0.17947264387E+03 -0.79396285777E+02 -0.10567323575E+04  0.10748018833E+04  0.12699999809E+01 0.  1.
       -4    1    3    3    0  502 -0.17947264387E+03  0.79396285777E+02 -0.21302240688E+03  0.28964522924E+03  0.12699999809E+01 0. -1.
</event>
<event>
 5   0  0.5118882E-03  0.5004656E+03  0.7818609E-02  0.1013657E+00
       -2   -1    0    0    0  501  0.00000000000E+00  0.00000000000E+00  0.24693572805E+02  0.24693572936E+02  0.25500000920E-02 0.  1.
        2   -1    0    0  501    0  0.00000000000E+00  0.00000000000E+00 -0.25357386370E+04  0.25357386370E+04  0.25500000920E-02 0. -1.
    10030    2    1    2    0    0  0.00000000000E+00  0.00000000000E+00 -0.25110450642E+04  0.25604322099E+04  0.50046557051E+03 0.  0.
        3    1    3    3  502    0  0.92541438779E+02 -0.57288606507E+02 -0.10274648687E+03  0.14967549262E+03  0.10100000352E+00 0.  1.
       -3    1    3    3    0  502 -0.92541438779E+02  0.57288606507E+02 -0.24082985773E+04  0.24107567173E+04  0.10100000352E+00 0. -1.
</event>
<event>
 5   0  0.4978779E-03  0.5000505E+03  0.7818609E-02  0.1013766E+00
        2   -1    0    0  501    0  0.00000000000E+00  0.00000000000E+00  0.42221592148E+03  0.42221592149E+03  0.25500000920E-02 0. -1.
       -2   -1    0    0    0  501  0.00000000000E+00  0.00000000000E+00 -0.14805843406E+03  0.14805843408E+03  0.25500000920E-02 0.  1.
    10030    2    1    2    0    0  0.00000000000E+00  0.00000000000E+00  0.27415748742E+03  0.57027435557E+03  0.50005051016E+03 0.  0.
        1    1    3    3  502    0  0.11760233803E+03  0.10746816823E+03 -0.82681671224E+02  0.17948809396E+03  0.50400001928E-02 0.  1.
       -1    1    3    3    0  502 -0.11760233803E+03 -0.10746816823E+03  0.35683915865E+03  0.39078626161E+03  0.50400001928E-02 0. -1.
</event>
<event>
 5   0  0.5095783E-03  0.5016895E+03  0.7818609E-02  0.1013339E+00
       -2   -1    0    0    0  501  0.00000000000E+00  0.00000000000E+00  0.39919107342E+03  0.39919107343E+03  0.25500000920E-02 0. -1.
        2   -1    0    0  501    0  0.00000000000E+00  0.00000000000E+00 -0.15762651667E+03  0.15762651669E+03  0.25500000920E-02 0.  1.
    10030    2    1    2    0    0  0.00000000000E+00  0.00000000000E+00  0.24156455676E+03  0.55681759012E+03  0.50168953904E+03 0.  0.
        4    1    3    3  502    0 -0.19957968466E+03  0.94267882799E+02 -0.11489734761E+02  0.22102513694E+03  0.12699999809E+01 0.  1.
       -4    1    3    3    0  502  0.19957968466E+03 -0.94267882799E+02  0.25305429152E+03  0.33579245318E+03  0.12699999809E+01 0. -1.
</event>
<event>
 5   0  0.2863538E-03  0.4998825E+03  0.7818609E-02  0.1013810E+00
        1   -1    0    0  501    0  0.00000000000E+00  0.00000000000E+00  0.15350318739E+04  0.15350318739E+04  0.50400001928E-02 0. -1.
       -1   -1    0    0    0  501  0.00000000000E+00  0.00000000000E+00 -0.40696638630E+02  0.40696638943E+02  0.50400001928E-02 0.  1.
    10030    2    1    2    0    0  0.00000000000E+00  0.00000000000E+00  0.14943352353E+04  0.15757285129E+04  0.49988253705E+03 0.  0.
        1    1    3    3  502    0  0.13065839824E+03 -0.12541131864E+03  0.12901424248E+04  0.13027920372E+04  0.50400001928E-02 0. -1.
       -1    1    3    3    0  502 -0.13065839824E+03  0.12541131864E+03  0.20419281048E+03  0.27293647567E+03  0.50400001928E-02 0.  1.
</event>
<event>
 5   0  0.5118882E-03  0.4997911E+03  0.7818609E-02  0.1013833E+00
       -2   -1    0    0    0  501  0.00000000000E+00  0.00000000000E+00  0.11900477089E+03  0.11900477092E+03  0.25500000920E-02 0. -1.
        2   -1    0    0  501    0  0.00000000000E+00  0.00000000000E+00 -0.52475030833E+03  0.52475030834E+03  0.25500000920E-02 0.  1.
    10030    2    1    2    0    0  0.00000000000E+00  0.00000000000E+00 -0.40574553744E+03  0.64375507925E+03  0.49979111728E+03 0.  0.
        3    1    3    3  502    0  0.45005529734E+02 -0.17355460809E+03  0.21340438936E+02  0.18056058327E+03  0.10100000352E+00 0. -1.
       -3    1    3    3    0  502 -0.45005529734E+02  0.17355460809E+03 -0.42708597638E+03  0.46319449599E+03  0.10100000352E+00 0.  1.
</event>
<event>
 5   0  0.2863538E-03  0.4998699E+03  0.7818609E-02  0.1013813E+00
        1   -1    0    0  501    0  0.00000000000E+00  0.00000000000E+00  0.26716958896E+03  0.26716958900E+03  0.50400001928E-02 0. -1.
       -1   -1    0    0    0  501  0.00000000000E+00  0.00000000000E+00 -0.23381209736E+03  0.23381209742E+03  0.50400001928E-02 0.  1.
    10030    2    1    2    0    0  0.00000000000E+00  0.00000000000E+00  0.33357491595E+02  0.50098168642E+03  0.49986991096E+03 0.  0.
        1    1    3    3  502    0 -0.37088122453E+01  0.24901322169E+03 -0.44903080498E+01  0.24908131756E+03  0.50400001928E-02 0. -1.
       -1    1    3    3    0  502  0.37088122453E+01 -0.24901322169E+03  0.37847799645E+02  0.25190036886E+03  0.50400001928E-02 0.  1.
</event>
<event>
 5   0  0.5095783E-03  0.5002134E+03  0.7818609E-02  0.1013723E+00
        2   -1    0    0  501    0  0.00000000000E+00  0.00000000000E+00  0.63957584494E+03  0.63957584494E+03  0.25500000920E-02 0.  1.
       -2   -1    0    0    0  501  0.00000000000E+00  0.00000000000E+00 -0.97804461598E+02  0.97804461632E+02  0.25500000920E-02 0. -1.
    10030    2    1    2    0    0  0.00000000000E+00  0.00000000000E+00  0.54177138334E+03  0.73738030657E+03  0.50021343916E+03 0.  0.
        4    1    3    3  502    0  0.20243942100E+03  0.98051379603E+02  0.10969924711E+03  0.25026252203E+03  0.12699999809E+01 0. -1.
       -4    1    3    3    0  502 -0.20243942100E+03 -0.98051379603E+02  0.43207213623E+03  0.48711778454E+03  0.12699999809E+01 0.  1.
</event>
<event>
 5   0  0.4989875E-03  0.4997476E+03  0.7818609E-02  0.1013845E+00
        2   -1    0    0  501    0  0.00000000000E+00  0.00000000000E+00  0.75436166420E+03  0.75436166421E+03  0.25500000920E-02 0.  1.
       -2   -1    0    0    0  501  0.00000000000E+00  0.00000000000E+00 -0.82767893911E+02  0.82767893950E+02  0.25500000920E-02 0. -1.
    10030    2    1    2    0    0  0.00000000000E+00  0.00000000000E+00  0.67159377029E+03  0.83712955816E+03  0.49974764116E+03 0.  0.
        2    1    3    3  502    0  0.74342703636E+02 -0.88873458611E+02 -0.35047194928E+02  0.12105219993E+03  0.25500000920E-02 0. -1.
       -2    1    3    3    0  502 -0.74342703636E+02  0.88873458611E+02  0.70664096522E+03  0.71607735823E+03  0.25500000920E-02 0.  1.
</event>
<event>
 5   0  0.4978779E-03  0.5001199E+03  0.7818609E-02  0.1013748E+00
        2   -1    0    0  501    0  0.00000000000E+00  0.00000000000E+00  0.59152932649E+03  0.59152932649E+03  0.25500000920E-02 0.  1.
       -2   -1    0    0    0  501  0.00000000000E+00  0.00000000000E+00 -0.10570902781E+03  0.10570902784E+03  0.25500000920E-02 0. -1.
    10030    2    1    2    0    0  0.00000000000E+00  0.00000000000E+00  0.48582029868E+03  0.69723835433E+03  0.50011994575E+03 0.  0.
        1    1    3    3  502    0  0.22990334548E+03 -0.60451847456E+02  0.35107992087E+03  0.42398948688E+03  0.50400001928E-02 0.  1.
       -1    1    3    3    0  502 -0.22990334548E+03  0.60451847456E+02  0.13474037781E+03  0.27324886745E+03  0.50400001928E-02 0. -1.
</event>
<event>
 5   0  0.5118882E-03  0.4999092E+03  0.7818609E-02  0.1013803E+00
       -2   -1    0    0    0  501  0.00000000000E+00  0.00000000000E+00  0.51308768195E+02  0.51308768259E+02  0.25500000920E-02 0. -1.
        2   -1    0    0  501    0  0.00000000000E+00  0.00000000000E+00 -0.12176729665E+04  0.12176729665E+04  0.25500000920E-02 0.  1.
    10030    2    1    2    0    0  0.00000000000E+00  0.00000000000E+00 -0.11663641983E+04  0.12689817347E+04  0.49990919182E+03 0.  0.
        3    1    3    3  502    0 -0.70060032123E+02  0.13276912734E+03 -0.10904939687E+04  0.11007784315E+04  0.10100000352E+00 0.  1.
       -3    1    3    3    0  502  0.70060032123E+02 -0.13276912734E+03 -0.75870229531E+02  0.16820330319E+03  0.10100000352E+00 0. -1.
</event>
<event>
 5   0  0.2005125E-03  0.5000101E+03  0.7818609E-02  0.1013776E+00
        3   -1    0    0  501    0  0.00000000000E+00  0.00000000000E+00  0.48867589091E+03  0.48867590134E+03  0.10100000352E+00 0. -1.
       -3   -1    0    0    0  501  0.00000000000E+00  0.00000000000E+00 -0.12790178719E+03  0.12790182707E+03  0.10100000352E+00 0.  1.
    10030    2    1    2    0    0  0.00000000000E+00  0.00000000000E+00  0.36077410371E+03  0.61657772841E+03  0.50001014116E+03 0.  0.
        4    1    3    3  502    0  0.12252871004E+02  0.23701324230E+03  0.27729190434E+03  0.36499016834E+03  0.12699999809E+01 0. -1.
       -4    1    3    3    0  502 -0.12252871004E+02 -0.23701324230E+03  0.83482199372E+02  0.25158756007E+03  0.12699999809E+01 0.  1.
</event>
<event>
 5   0  0.4989875E-03  0.4995074E+03  0.7818609E-02  0.1013908E+00
       -2   -1    0    0    0  501  0.00000000000E+00  0.00000000000E+00  0.14831170459E+03  0.14831170462E+03  0.25500000920E-02 0.  1.
        2   -1    0    0  501    0  0.00000000000E+00  0.00000000000E+00 -0.42057981116E+03  0.42057981116E+03  0.25500000920E-02 0. -1.
    10030    2    1    2    0    0  0.00000000000E+00  0.00000000000E+00 -0.27226810656E+03  0.56889151578E+03  0.49950739222E+03 0.  0.
        2    1    3    3  502    0  0.18716335066E+03 -0.87732665027E+02  0.23514965936E+02  0.20803868383E+03  0.25500000920E-02 0.  1.
       -2    1    3    3    0  502 -0.18716335066E+03  0.87732665027E+02 -0.29578307250E+03  0.36085283195E+03  0.25500000920E-02 0. -1.
</event>
<event>
 5   0  0.3013734E-03  0.4997206E+03  0.7818609E-02  0.1013852E+00
       -1   -1    0    0    0  501  0.00000000000E+00  0.00000000000E+00  0.39030507591E+03  0.39030507594E+03  0.50400001928E-02 0. -1.
        1   -1    0    0  501    0  0.00000000000E+00  0.00000000000E+00 -0.15995226160E+03  0.15995226167E+03  0.50400001928E-02 0.  1.
    10030    2    1    2    0    0  0.00000000000E+00  0.00000000000E+00  0.23035281431E+03  0.55025733761E+03  0.49972064050E+03 0.  0.
        2    1    3    3  502    0  0.26554744463E+02  0.87351548834E+01 -0.15822490490E+03  0.16067538057E+03  0.25500000920E-02 0.  1.
       -2    1    3    3    0  502 -0.26554744463E+02 -0.87351548834E+01  0.38857771921E+03  0.38958195705E+03  0.25500000920E-02 0. -1.
</event>
<event>
 5   0  0.3013734E-03  0.5000926E+03  0.7818609E-02  0.1013755E+00
       -1   -1    0    0    0  501  0.00000000000E+00  0.00000000000E+00  0.66456290317E+02  0.66456290508E+02  0.50400001928E-02 0.  1.
        1   -1    0    0  501    0  0.00000000000E+00  0.00000000000E+00 -0.94081600406E+03  0.94081600407E+03  0.50400001928E-02 0. -1.
    10030    2    1    2    0    0  0.00000000000E+00  0.00000000000E+00 -0.87435971374E+03  0.10072722946E+04  0.50009255785E+03 0.  0.
        2    1    3    3  502    0  0.22004991228E+03 -0.44652840278E+02 -0.21555412803E+03  0.31125459379E+03  0.25500000920E-02 0.  1.
       -2    1    3    3    0  502 -0.22004991228E+03  0.44652840278E+02 -0.65880558571E+03  0.69601770079E+03  0.25500000920E-02 0. -1.
</event>
<event>
 5   0  0.3211775E-03  0.5001616E+03  0.7818609E-02  0.1013737E+00
        1   -1    0    0  501    0  0.00000000000E+00  0.00000000000E+00  0.30277954507E+03  0.30277954511E+03  0.50400001928E-02 0.  1.
       -1   -1    0    0    0  501  0.00000000000E+00  0.00000000000E+00 -0.20655429125E+03  0.20655429131E+03  0.50400001928E-02 0. -1.
    10030    2    1    2    0    0  0.00000000000E+00  0.00000000000E+00  0.96225253826E+02  0.50933383642E+03  0.50016163132E+03 0.  0.
        4    1    3    3  502    0  0.66638926507E+02  0.11235214416E+03 -0.16904683222E+03  0.21364034078E+03  0.12699999809E+01 0. -1.
       -4    1    3    3    0  502 -0.66638926507E+02 -0.11235214416E+03  0.26527208605E+03  0.29569349564E+03  0.12699999809E+01 0.  1.
</event>
<event>
 5   0  0.3057783E-03  0.5003087E+03  0.7818609E-02  0.1013698E+00
       -1   -1    0    0    0  501  0.00000000000E+00  0.00000000000E+00  0.65306511872E+02  0.65306512067E+02  0.50400001928E-02 0.  1.
        1   -1    0    0  501    0  0.00000000000E+00  0.00000000000E+00 -0.95820749071E+03  0.95820749072E+03  0.50400001928E-02 0. -1.
    10030    2    1    2    0    0  0.00000000000E+00  0.00000000000E+00 -0.89290097884E+03  0.10235140028E+04  0.50030866063E+03 0.  0.
        5    1    3    3  502    0  0.74356616368E+02  0.11718226541E+02 -0.93439388424E+03  0.93743279446E+03  0.46999998093E+01 0. -1.
       -5    1    3    3    0  502 -0.74356616368E+02 -0.11718226541E+02  0.41492905399E+02  0.86081208331E+02  0.46999998093E+01 0.  1.
</event>
<event>
 5   0  0.3057783E-03  0.4999433E+03  0.7818609E-02  0.1013794E+00
       -1   -1    0    0    0  501  0.00000000000E+00  0.00000000000E+00  0.12687195645E+03  0.12687195655E+03  0.50400001928E-02 0. -1.
        1   -1    0    0  501    0  0.00000000000E+00  0.00000000000E+00 -0.49251096317E+03  0.49251096320E+03  0.50400001928E-02 0.  1.
    10030    2    1    2    0    0  0.00000000000E+00  0.00000000000E+00 -0.36563900672E+03  0.61938291975E+03  0.49994331483E+03 0.  0.
        5    1    3    3  502    0 -0.12392344147E+03  0.20265824169E+02 -0.45053799940E+03  0.46773315242E+03  0.46999998093E+01 0.  1.
       -5    1    3    3    0  502  0.12392344147E+03 -0.20265824169E+02  0.84898992678E+02  0.15164976733E+03  0.46999998093E+01 0. -1.
</event>
<event>
 5   0  0.5118882E-03  0.5000908E+03  0.7818609E-02  0.1013755E+00
        2   -1    0    0  501    0  0.00000000000E+00  0.00000000000E+00  0.41139705708E+03  0.41139705708E+03  0.25500000920E-02 0. -1.
       -2   -1    0    0    0  501  0.00000000000E+00  0.00000000000E+00 -0.15197655611E+03  0.15197655613E+03  0.25500000920E-02 0.  1.
    10030    2    1    2    0    0  0.00000000000E+00  0.00000000000E+00  0.25942050097E+03  0.56337361321E+03  0.50009082349E+03 0.  0.
        3    1    3    3  502    0 -0.24713171863E+03 -0.26025160395E+02  0.16099696506E+03  0.29609361406E+03  0.10100000352E+00 0.  1.
       -3    1    3    3    0  502  0.24713171863E+03  0.26025160395E+02  0.98423535909E+02  0.26727999915E+03  0.10100000352E+00 0. -1.
</event>
<event>
 5   0  0.5118882E-03  0.5000119E+03  0.7818609E-02  0.1013776E+00
        2   -1    0    0  501    0  0.00000000000E+00  0.00000000000E+00  0.16736844668E+04  0.16736844668E+04  0.25500000920E-02 0. -1.
       -2   -1    0    0    0  501  0.00000000000E+00  0.00000000000E+00 -0.37344532848E+02  0.37344532935E+02  0.25500000920E-02 0.  1.
    10030    2    1    2    0    0  0.00000000000E+00  0.00000000000E+00  0.16363399340E+04  0.17110289997E+04  0.50001185835E+03 0.  0.
        3    1    3    3  502    0  0.23176946589E+03 -0.89204979641E+02  0.91665757044E+03  0.94970296691E+03  0.10100000352E+00 0.  1.
       -3    1    3    3    0  502 -0.23176946589E+03  0.89204979641E+02  0.71968236352E+03  0.76132603283E+03  0.10100000352E+00 0. -1.
</event>
<event>
 5   0  0.3057783E-03  0.4987465E+03  0.7818609E-02  0.1014107E+00
        1   -1    0    0  501    0  0.00000000000E+00  0.00000000000E+00  0.22316105146E+03  0.22316105152E+03  0.50400001928E-02 0.  1.
       -1   -1    0    0    0  501  0.00000000000E+00  0.00000000000E+00 -0.27866424456E+03  0.27866424461E+03  0.50400001928E-02 0. -1.
    10030    2    1    2    0    0  0.00000000000E+00  0.00000000000E+00 -0.55503193104E+02  0.50182529613E+03  0.49874645200E+03 0.  0.
        5    1    3    3  502    0  0.11249375536E+03 -0.19055673866E+02  0.19530805808E+03  0.22624166559E+03  0.46999998093E+01 0.  1.
       -5    1    3    3    0  502 -0.11249375536E+03  0.19055673866E+02 -0.25081125118E+03  0.27558363053E+03  0.46999998093E+01 0. -1.
</event>
<event>
 5   0  0.4978779E-03  0.4999338E+03  0.7818609E-02  0.1013796E+00
       -2   -1    0    0    0  501  0.00000000000E+00  0.00000000000E+00  0.66444883249E+02  0.66444883298E+02  0.25500000920E-02 0. -1.
        2   -1    0    0  501    0  0.00000000000E+00  0.00000000000E+00 -0.94038031523E+03  0.94038031523E+03  0.25500000920E-02 0.  1.
    10030    2    1    2    0    0  0.00000000000E+00  0.00000000000E+00 -0.87393543198E+03  0.10068251985E+04  0.49993383675E+03 0.  0.
        1    1    3    3  502    0  0.10070038411E+03 -0.63161348039E+02  0.58812841076E+01  0.11901475864E+03  0.50400001928E-02 0. -1.
       -1    1    3    3    0  502 -0.10070038411E+03  0.63161348039E+02 -0.87981671609E+03  0.88781043989E+03  0.50400001928E-02 0.  1.
</event>
<event>
 5   0  0.3013734E-03  0.5000329E+03  0.7818609E-02  0.1013770E+00
       -1   -1    0    0    0  501  0.00000000000E+00  0.00000000000E+00  0.23712815995E+03  0.23712816001E+03  0.50400001928E-02 0. -1.
        1   -1    0    0  501    0  0.00000000000E+00  0.00000000000E+00 -0.26360528822E+03  0.26360528826E+03  0.50400001928E-02 0.  1.
    10030    2    1    2    0    0  0.00000000000E+00  0.00000000000E+00 -0.26477128261E+02  0.50073344827E+03  0.50003294681E+03 0.  0.
        2    1    3    3  502    0  0.97459762874E+02 -0.21477896416E+03 -0.96299491715E+02  0.25475871121E+03  0.25500000920E-02 0.  1.
       -2    1    3    3    0  502 -0.97459762874E+02  0.21477896416E+03  0.69822363454E+02  0.24597473706E+03  0.25500000920E-02 0. -1.
</event>
<event>
 5   0  0.5118882E-03  0.5000531E+03  0.7818609E-02  0.1013765E+00
        2   -1    0    0  501    0  0.00000000000E+00  0.00000000000E+00  0.69862254065E+03  0.69862254065E+03  0.25500000920E-02 0. -1.
       -2   -1    0    0    0  501  0.00000000000E+00  0.00000000000E+00 -0.89480763017E+02  0.89480763053E+02  0.25500000920E-02 0.  1.
    10030    2    1    2    0    0  0.00000000000E+00  0.00000000000E+00  0.60914177763E+03  0.78810330371E+03  0.50005310924E+03 0.  0.
        3    1    3    3  502    0 -0.20606279545E+02 -0.28562582446E+02  0.69469337077E+03  0.69558560182E+03  0.10100000352E+00 0. -1.
       -3    1    3    3    0  502  0.20606279545E+02  0.28562582446E+02 -0.85551593136E+02  0.92517701884E+02  0.10100000352E+00 0.  1.
</event>
<event>
 5   0  0.5095783E-03  0.5000614E+03  0.7818609E-02  0.1013763E+00
       -2   -1    0    0    0  501  0.00000000000E+00  0.00000000000E+00  0.30145606468E+03  0.30145606469E+03  0.25500000920E-02 0.  1.
        2   -1    0    0  501    0  0.00000000000E+00  0.00000000000E+00 -0.20737796375E+03  0.20737796377E+03  0.25500000920E-02 0. -1.
    10030    2    1    2    0    0  0.00000000000E+00  0.00000000000E+00  0.94078100927E+02  0.50883402846E+03  0.50006137567E+03 0.  0.
        4    1    3    3  502    0 -0.93478420339E+02 -0.50082726887E+02 -0.18335581355E+03  0.21181940861E+03  0.12699999809E+01 0. -1.
       -4    1    3    3    0  502  0.93478420339E+02  0.50082726887E+02  0.27743391448E+03  0.29701461985E+03  0.12699999809E+01 0.  1.
</event>
<event>
 5   0  0.4889251E-03  0.5000459E+03  0.7818609E-02  0.1013767E+00
        2   -1    0    0  501    0  0.00000000000E+00  0.00000000000E+00  0.29520277460E+03  0.29520277462E+03  0.25500000920E-02 0. -1.
       -2   -1    0    0    0  501  0.00000000000E+00  0.00000000000E+00 -0.21175773837E+03  0.21175773838E+03  0.25500000920E-02 0.  1.
    10030    2    1    2    0    0  0.00000000000E+00  0.00000000000E+00  0.83445036236E+02  0.50696051300E+03  0.50004588556E+03 0.  0.
        5    1    3    3  502    0  0.15609246117E+03  0.32654110951E+02 -0.15344459497E+03  0.22135600539E+03  0.46999998093E+01 0.  1.
       -5    1    3    3    0  502 -0.15609246117E+03 -0.32654110951E+02  0.23688963121E+03  0.28560450761E+03  0.46999998093E+01 0. -1.
</event>
<event>
 5   0  0.2863538E-03  0.5010635E+03  0.7818609E-02  0.1013502E+00
        1   -1    0    0  501    0  0.00000000000E+00  0.00000000000E+00  0.38542775003E+03  0.38542775006E+03  0.50400001928E-02 0. -1.
       -1   -1    0    0    0  501  0.00000000000E+00  0.00000000000E+00 -0.16284808129E+03  0.16284808137E+03  0.50400001928E-02 0.  1.
    10030    2    1    2    0    0  0.00000000000E+00  0.00000000000E+00  0.22257966874E+03  0.54827583143E+03  0.50106354726E+03 0.  0.
        1    1    3    3  502    0 -0.18753164838E+03  0.11782940179E+03  0.23943223008E+03  0.32615897948E+03  0.50400001928E-02 0. -1.
       -1    1    3    3    0  502  0.18753164838E+03 -0.11782940179E+03 -0.16852561342E+02  0.22211685195E+03  0.50400001928E-02 0.  1.
</event>
<event>
 5   0  0.2005125E-03  0.4997808E+03  0.7818609E-02  0.1013836E+00
        3   -1    0    0  501    0  0.00000000000E+00  0.00000000000E+00  0.17130836712E+03  0.17130839690E+03  0.10100000352E+00 0.  1.
       -3   -1    0    0    0  501  0.00000000000E+00  0.00000000000E+00 -0.36451925389E+03  0.36451926788E+03  0.10100000352E+00 0. -1.
    10030    2    1    2    0    0  0.00000000000E+00  0.00000000000E+00 -0.19321088677E+03  0.53582766478E+03  0.49978079153E+03 0.  0.
        1    1    3    3  502    0  0.16186182088E+03  0.18869176352E+03 -0.12375751707E+03  0.27770443594E+03  0.50400001928E-02 0. -1.
       -1    1    3    3    0  502 -0.16186182088E+03 -0.18869176352E+03 -0.69453369695E+02  0.25812322884E+03  0.50400001928E-02 0.  1.
</event>
<event>
 5   0  0.2863538E-03  0.5000984E+03  0.7818609E-02  0.1013753E+00
       -1   -1    0    0    0  501  0.00000000000E+00  0.00000000000E+00  0.33603407256E+02  0.33603407634E+02  0.50400001928E-02 0. -1.
        1   -1    0    0  501    0  0.00000000000E+00  0.00000000000E+00 -0.18606624027E+04  0.18606624027E+04  0.50400001928E-02 0.  1.
    10030    2    1    2    0    0  0.00000000000E+00  0.00000000000E+00 -0.18270589954E+04  0.18942658103E+04  0.50009837772E+03 0.  0.
        1    1    3    3  502    0  0.20184257435E+03  0.63337521631E+02 -0.14184931372E+04  0.14341808975E+04  0.50400001928E-02 0.  1.
       -1    1    3    3    0  502 -0.20184257435E+03 -0.63337521631E+02 -0.40856585823E+03  0.46008491282E+03  0.50400001928E-02 0. -1.
</event>
<event>
 5   0  0.3211775E-03  0.5001539E+03  0.7818609E-02  0.1013739E+00
        1   -1    0    0  501    0  0.00000000000E+00  0.00000000000E+00  0.30712548678E+03  0.30712548682E+03  0.50400001928E-02 0. -1.
       -1   -1    0    0    0  501  0.00000000000E+00  0.00000000000E+00 -0.20362513675E+03  0.20362513682E+03  0.50400001928E-02 0.  1.
    10030    2    1    2    0    0  0.00000000000E+00  0.00000000000E+00  0.10350035002E+03  0.51075062363E+03  0.50015385342E+03 0.  0.
        4    1    3    3  502    0  0.37036330314E+02 -0.16176884220E+03  0.24278587844E+03  0.29408747634E+03  0.12699999809E+01 0. -1.
       -4    1    3    3    0  502 -0.37036330314E+02  0.16176884220E+03 -0.13928552841E+03  0.21666314730E+03  0.12699999809E+01 0.  1.
</event>
<event>
 5   0  0.3055293E-03  0.5001445E+03  0.7818609E-02  0.1013741E+00
        1   -1    0    0  501    0  0.00000000000E+00  0.00000000000E+00  0.25089112760E+03  0.25089112765E+03  0.50400001928E-02 0.  1.
       -1   -1    0    0    0  501  0.00000000000E+00  0.00000000000E+00 -0.24925599851E+03  0.24925599856E+03  0.50400001928E-02 0. -1.
    10030    2    1    2    0    0  0.00000000000E+00  0.00000000000E+00  0.16351290841E+01  0.50014712621E+03  0.50014445334E+03 0.  0.
        3    1    3    3  502    0 -0.17497326635E+03 -0.15836595414E+03 -0.81891335206E+02  0.24980316321E+03  0.10100000352E+00 0.  1.
       -3    1    3    3    0  502  0.17497326635E+03  0.15836595414E+03  0.83526464290E+02  0.25034396299E+03  0.10100000352E+00 0. -1.
</event>
<event>
 5   0  0.5118882E-03  0.5001329E+03  0.7818609E-02  0.1013744E+00
        2   -1    0    0  501    0  0.00000000000E+00  0.00000000000E+00  0.15756260842E+03  0.15756260844E+03  0.25500000920E-02 0. -1.
       -2   -1    0    0    0  501  0.00000000000E+00  0.00000000000E+00 -0.39687856621E+03  0.39687856622E+03  0.25500000920E-02 0.  1.
    10030    2    1    2    0    0  0.00000000000E+00  0.00000000000E+00 -0.23931595779E+03  0.55444117466E+03  0.50013287085E+03 0.  0.
        3    1    3    3  502    0 -0.43230619277E+02 -0.24140374835E+03 -0.17383782516E+03  0.30060648000E+03  0.10100000352E+00 0.  1.
       -3    1    3    3    0  502  0.43230619277E+02  0.24140374835E+03 -0.65478132623E+02  0.25383469466E+03  0.10100000352E+00 0. -1.
</event>
<event>
 5   0  0.3013734E-03  0.5016176E+03  0.7818609E-02  0.1013358E+00
        1   -1    0    0  501    0  0.00000000000E+00  0.00000000000E+00  0.27308003640E+03  0.27308003644E+03  0.50400001928E-02 0. -1.
       -1   -1    0    0    0  501  0.00000000000E+00  0.00000000000E+00 -0.23035393624E+03  0.23035393630E+03  0.50400001928E-02 0.  1.
    10030    2    1    2    0    0  0.00000000000E+00  0.00000000000E+00  0.42726100155E+02  0.50343397274E+03  0.50161762855E+03 0.  0.
        2    1    3    3  502    0  0.62098417581E+02  0.16677572827E+03 -0.15601032424E+03  0.23666342828E+03  0.25500000920E-02 0.  1.
       -2    1    3    3    0  502 -0.62098417581E+02 -0.16677572827E+03  0.19873642439E+03  0.26677054447E+03  0.25500000920E-02 0. -1.
</event>
<event>
 5   0  0.3211775E-03  0.5000627E+03  0.7818609E-02  0.1013763E+00
       -1   -1    0    0    0  501  0.00000000000E+00  0.00000000000E+00  0.70305581104E+02  0.70305581285E+02  0.50400001928E-02 0. -1.
        1   -1    0    0  501    0  0.00000000000E+00  0.00000000000E+00 -0.88919926782E+03  0.88919926783E+03  0.50400001928E-02 0.  1.
    10030    2    1    2    0    0  0.00000000000E+00  0.00000000000E+00 -0.81889368671E+03  0.95950484912E+03  0.50006268141E+03 0.  0.
        4    1    3    3  502    0 -0.38523749342E+02  0.18988250668E+03 -0.71267680481E+03  0.73854538562E+03  0.12699999809E+01 0.  1.
       -4    1    3    3    0  502  0.38523749342E+02 -0.18988250668E+03 -0.10621688190E+03  0.22095946350E+03  0.12699999809E+01 0. -1.
</event>
<event>
 5   0  0.3055293E-03  0.5001892E+03  0.7818609E-02  0.1013730E+00
       -1   -1    0    0    0  501  0.00000000000E+00  0.00000000000E+00  0.12116784890E+03  0.12116784900E+03  0.50400001928E-02 0. -1.
        1   -1    0    0  501    0  0.00000000000E+00  0.00000000000E+00 -0.51620380777E+03  0.51620380780E+03  0.50400001928E-02 0.  1.
    10030    2    1    2    0    0  0.00000000000E+00  0.00000000000E+00 -0.39503595887E+03  0.63737165680E+03  0.50018918430E+03 0.  0.
        3    1    3    3  502    0 -0.22683432546E+03 -0.74744922867E+02 -0.10295886963E+03  0.26007912976E+03  0.10100000352E+00 0. -1.
       -3    1    3    3    0  502  0.22683432546E+03  0.74744922867E+02 -0.29207708924E+03  0.37729252704E+03  0.10100000352E+00 0.  1.
</event>
<event>
 5   0  0.3211775E-03  0.4999860E+03  0.7818609E-02  0.1013783E+00
       -1   -1    0    0    0  501  0.00000000000E+00  0.00000000000E+00  0.36774415291E+03  0.36774415294E+03  0.50400001928E-02 0.  1.
        1   -1    0    0  501    0  0.00000000000E+00  0.00000000000E+00 -0.16994557764E+03  0.16994557772E+03  0.50400001928E-02 0. -1.
    10030    2    1    2    0    0  0.00000000000E+00  0.00000000000E+00  0.19779857527E+03  0.53768973066E+03  0.49998596988E+03 0.  0.
        4    1    3    3  502    0 -0.66391525567E+02  0.14743397594E+02 -0.15980251450E+03  0.17367688096E+03  0.12699999809E+01 0. -1.
       -4    1    3    3    0  502  0.66391525567E+02 -0.14743397594E+02  0.35760108977E+03  0.36401284970E+03  0.12699999809E+01 0.  1.
</event>
<event>
 5   0  0.4989875E-03  0.5000890E+03  0.7818609E-02  0.1013756E+00
       -2   -1    0    0    0  501  0.00000000000E+00  0.00000000000E+00  0.58812385603E+02  0.58812385658E+02  0.25500000920E-02 0.  1.
        2   -1    0    0  501    0  0.00000000000E+00  0.00000000000E+00 -0.10630797167E+04  0.10630797167E+04  0.25500000920E-02 0. -1.
    10030    2    1    2    0    0  0.00000000000E+00  0.00000000000E+00 -0.10042673311E+04  0.11218921023E+04  0.50008900910E+03 0.  0.
        2    1    3    3  502    0 -0.57543941266E+02  0.11231119449E+03 -0.98639905784E+03  0.99443864109E+03  0.25500000920E-02 0. -1.
       -2    1    3    3    0  502  0.57543941266E+02 -0.11231119449E+03 -0.17868273219E+02  0.12745346123E+03  0.25500000920E-02 0.  1.
</event>
<event>
 5   0  0.4889251E-03  0.5001789E+03  0.7818609E-02  0.1013732E+00
       -2   -1    0    0    0  501  0.00000000000E+00  0.00000000000E+00  0.41203289509E+03  0.41203289510E+03  0.25500000920E-02 0. -1.
        2   -1    0    0  501    0  0.00000000000E+00  0.00000000000E+00 -0.15179549826E+03  0.15179549828E+03  0.25500000920E-02 0.  1.
    10030    2    1    2    0    0  0.00000000000E+00  0.00000000000E+00  0.26023739683E+03  0.56382839339E+03  0.50017892246E+03 0.  0.
        5    1    3    3  502    0 -0.24633942388E+03  0.18625305545E+01  0.81816608956E+02  0.25962016154E+03  0.46999998093E+01 0.  1.
       -5    1    3    3    0  502  0.24633942388E+03 -0.18625305545E+01  0.17842078788E+03  0.30420823185E+03  0.46999998093E+01 0. -1.
</event>
<event>
 5   0  0.5118882E-03  0.5004653E+03  0.7818609E-02  0.1013658E+00
       -2   -1    0    0    0  501  0.00000000000E+00  0.00000000000E+00  0.45515983268E+02  0.45515983339E+02  0.25500000920E-02 0. -1.
        2   -1    0    0  501    0  0.00000000000E+00  0.00000000000E+00 -0.13757009705E+04  0.13757009705E+04  0.25500000920E-02 0.  1.
    10030    2    1    2    0    0  0.00000000000E+00  0.00000000000E+00 -0.13301849873E+04  0.14212169539E+04  0.50046531312E+03 0.  0.
        3    1    3    3  502    0 -0.10502116071E+03 -0.19338426267E+03 -0.32681799869E+03  0.39400118238E+03  0.10100000352E+00 0.  1.
       -3    1    3    3    0  502  0.10502116071E+03  0.19338426267E+03 -0.10033669886E+04  0.10272157715E+04  0.10100000352E+00 0. -1.
</event>
<event>
 5   0  0.4889251E-03  0.4998745E+03  0.7818609E-02  0.1013812E+00
        2   -1    0    0  501    0  0.00000000000E+00  0.00000000000E+00  0.57769917263E+03  0.57769917264E+03  0.25500000920E-02 0.  1.
       -2   -1    0    0    0  501  0.00000000000E+00  0.00000000000E+00 -0.10813350386E+03  0.10813350389E+03  0.25500000920E-02 0. -1.
    10030    2    1    2    0    0  0.00000000000E+00  0.00000000000E+00  0.46956566877E+03  0.68583267653E+03  0.49987452717E+03 0.  0.
        5    1    3    3  502    0  0.94717310126E+02  0.10436707877E+03 -0.48339227282E+02  0.14907255569E+03  0.46999998093E+01 0. -1.
       -5    1    3    3    0  502 -0.94717310126E+02 -0.10436707877E+03  0.51790489605E+03  0.53676012084E+03  0.46999998093E+01 0.  1.
</event>
<event>
 5   0  0.3211775E-03  0.4999533E+03  0.7818609E-02  0.1013791E+00
        1   -1    0    0  501    0  0.00000000000E+00  0.00000000000E+00  0.42072539861E+03  0.42072539864E+03  0.50400001928E-02 0.  1.
       -1   -1    0    0    0  501  0.00000000000E+00  0.00000000000E+00 -0.14852519913E+03  0.14852519922E+03  0.50400001928E-02 0. -1.
    10030    2    1    2    0    0  0.00000000000E+00  0.00000000000E+00  0.27220019948E+03  0.56925059786E+03  0.49995329239E+03 0.  0.
        4    1    3    3  502    0  0.13465862494E+03  0.14724179446E+03  0.30754891530E+03  0.36660747334E+03  0.12699999809E+01 0.  1.
       -4    1    3    3    0  502 -0.13465862494E+03 -0.14724179446E+03 -0.35348715823E+02  0.20264312452E+03  0.12699999809E+01 0. -1.
</event>
<event>
 5   0  0.3055293E-03  0.4998900E+03  0.7818609E-02  0.1013808E+00
        1   -1    0    0  501    0  0.00000000000E+00  0.00000000000E+00  0.12235302848E+03  0.12235302859E+03  0.50400001928E-02 0.  1.
       -1   -1    0    0    0  501  0.00000000000E+00  0.00000000000E+00 -0.51059221502E+03  0.51059221504E+03  0.50400001928E-02 0. -1.
    10030    2    1    2    0    0  0.00000000000E+00  0.00000000000E+00 -0.38823918653E+03  0.63294524363E+03  0.49989000337E+03 0.  0.
        3    1    3    3  502    0  0.49252594673E+02 -0.46444840993E+02 -0.49876300064E+03  0.50333635110E+03  0.10100000352E+00 0. -1.
       -3    1    3    3    0  502 -0.49252594673E+02  0.46444840993E+02  0.11052381410E+03  0.12960889253E+03  0.10100000352E+00 0.  1.
</event>
<event>
 5   0  0.3055293E-03  0.5025190E+03  0.7818609E-02  0.1013123E+00
        1   -1    0    0  501    0  0.00000000000E+00  0.00000000000E+00  0.84154852566E+03  0.84154852568E+03  0.50400001928E-02 0. -1.
       -1   -1    0    0    0  501  0.00000000000E+00  0.00000000000E+00 -0.75018066203E+02  0.75018066372E+02  0.50400001928E-02 0.  1.
    10030    2    1    2    0    0  0.00000000000E+00  0.00000000000E+00  0.76653045946E+03  0.91656659205E+03  0.50251902689E+03 0.  0.
        3    1    3    3  502    0  0.98855578017E+02  0.98319332742E+02  0.20119824112E+01  0.13943878503E+03  0.10100000352E+00 0.  1.
       -3    1    3    3    0  502 -0.98855578017E+02 -0.98319332742E+02  0.76451847705E+03  0.77712780702E+03  0.10100000352E+00 0. -1.
</event>
<event>
 5   0  0.3057783E-03  0.4998943E+03  0.7818609E-02  0.1013807E+00
       -1   -1    0    0    0  501  0.00000000000E+00  0.00000000000E+00  0.12163966199E+04  0.12163966199E+04  0.50400001928E-02 0. -1.
        1   -1    0    0  501    0  0.00000000000E+00  0.00000000000E+00 -0.51359541953E+02  0.51359542201E+02  0.50400001928E-02 0.  1.
    10030    2    1    2    0    0  0.00000000000E+00  0.00000000000E+00  0.11650370779E+04  0.12677561621E+04  0.49989428240E+03 0.  0.
        5    1    3    3  502    0 -0.29807074761E+01 -0.18537450946E+01 -0.51184945264E+02  0.51519992312E+02  0.46999998093E+01 0.  1.
       -5    1    3    3    0  502  0.29807074761E+01  0.18537450946E+01  0.12162220232E+04  0.12162361698E+04  0.46999998093E+01 0. -1.
</event>
<event>
 5   0  0.4989875E-03  0.5000237E+03  0.7818609E-02  0.1013773E+00
       -2   -1    0    0    0  501  0.00000000000E+00  0.00000000000E+00  0.79461472391E+02  0.79461472432E+02  0.25500000920E-02 0.  1.
        2   -1    0    0  501    0  0.00000000000E+00  0.00000000000E+00 -0.78661933185E+03  0.78661933186E+03  0.25500000920E-02 0. -1.
    10030    2    1    2    0    0  0.00000000000E+00  0.00000000000E+00 -0.70715785946E+03  0.86608080429E+03  0.50002372080E+03 0.  0.
        2    1    3    3  502    0  0.50946336892E+01 -0.24757386139E+03 -0.41325800753E+03  0.48176856781E+03  0.25500000920E-02 0.  1.
       -2    1    3    3    0  502 -0.50946336892E+01  0.24757386139E+03 -0.29389985193E+03  0.38431223648E+03  0.25500000920E-02 0. -1.
</event>
<event>
 5   0  0.5118882E-03  0.4998873E+03  0.7818609E-02  0.1013808E+00
       -2   -1    0    0    0  501  0.00000000000E+00  0.00000000000E+00  0.23786345926E+03  0.23786345928E+03  0.25500000920E-02 0. -1.
        2   -1    0    0  501    0  0.00000000000E+00  0.00000000000E+00 -0.26263732182E+03  0.26263732184E+03  0.25500000920E-02 0.  1.
    10030    2    1    2    0    0  0.00000000000E+00  0.00000000000E+00 -0.24773862561E+02  0.50050078111E+03  0.49988727492E+03 0.  0.
        3    1    3    3  502    0 -0.43886929728E+02  0.24084675619E+03  0.38059318587E+02  0.24775339453E+03  0.10100000352E+00 0.  1.
       -3    1    3    3    0  502  0.43886929728E+02 -0.24084675619E+03 -0.62833181148E+02  0.25274738658E+03  0.10100000352E+00 0. -1.
</event>
<event>
 5   0  0.5118882E-03  0.5002293E+03  0.7818609E-02  0.1013719E+00
        2   -1    0    0  501    0  0.00000000000E+00  0.00000000000E+00  0.38233810412E+03  0.38233810413E+03  0.25500000920E-02 0. -1.
       -2   -1    0    0    0  501  0.00000000000E+00  0.00000000000E+00 -0.16361786963E+03  0.16361786965E+03  0.25500000920E-02 0.  1.
    10030    2    1    2    0    0  0.00000000000E+00  0.00000000000E+00  0.21872023449E+03  0.54595597378E+03  0.50022933173E+03 0.  0.
        3    1    3    3  502    0 -0.23359831406E+03 -0.87453041675E+02  0.89202099597E+02  0.26490230577E+03  0.10100000352E+00 0.  1.
       -3    1    3    3    0  502  0.23359831406E+03  0.87453041675E+02  0.12951813489E+03  0.28105366800E+03  0.10100000352E+00 0. -1.
</event>
<event>
 5   0  0.3013734E-03  0.5003852E+03  0.7818609E-02  0.1013678E+00
        1   -1    0    0  501    0  0.00000000000E+00  0.00000000000E+00  0.10252058407E+04  0.10252058407E+04  0.50400001928E-02 0. -1.
       -1   -1    0    0    0  501  0.00000000000E+00  0.00000000000E+00 -0.61057337681E+02  0.61057337889E+02  0.50400001928E-02 0.  1.
    10030    2    1    2    0    0  0.00000000000E+00  0.00000000000E+00  0.96414850305E+03  0.10862631786E+04  0.50038520893E+03 0.  0.
        2    1    3    3  502    0  0.16628022707E+03  0.17846741529E+03  0.36127238451E+03  0.43590993112E+03  0.25500000920E-02 0.  1.
       -2    1    3    3    0  502 -0.16628022707E+03 -0.17846741529E+03  0.60287611854E+03  0.65035324751E+03  0.25500000920E-02 0. -1.
</event>
<event>
 5   0  0.5095783E-03  0.5001658E+03  0.7818609E-02  0.1013736E+00
        2   -1    0    0  501    0  0.00000000000E+00  0.00000000000E+00  0.38506667304E+03  0.38506667305E+03  0.25500000920E-02 0. -1.
       -2   -1    0    0    0  501  0.00000000000E+00  0.00000000000E+00 -0.16241720213E+03  0.16241720215E+03  0.25500000920E-02 0.  1.
    10030    2    1    2    0    0  0.00000000000E+00  0.00000000000E+00  0.22264947091E+03  0.54748387519E+03  0.50016577922E+03 0.  0.
        4    1    3    3  502    0 -0.61602663562E+02  0.23628974075E+03  0.52255523907E+02  0.24971980783E+03  0.12699999809E+01 0.  1.
       -4    1    3    3    0  502  0.61602663562E+02 -0.23628974075E+03  0.17039394700E+03  0.29776406737E+03  0.12699999809E+01 0. -1.
</event>
<event>
 5   0  0.5118882E-03  0.5013020E+03  0.7818609E-02  0.1013440E+00
        2   -1    0    0  501    0  0.00000000000E+00  0.00000000000E+00  0.50476527793E+03  0.50476527793E+03  0.25500000920E-02 0. -1.
       -2   -1    0    0    0  501  0.00000000000E+00  0.00000000000E+00 -0.12446559788E+03  0.12446559791E+03  0.25500000920E-02 0.  1.
    10030    2    1    2    0    0  0.00000000000E+00  0.00000000000E+00  0.38029968005E+03  0.62923087584E+03  0.50130195338E+03 0.  0.
        3    1    3    3  502    0 -0.21397240184E+01 -0.72816416758E+02 -0.11088491766E+03  0.13267359999E+03  0.10100000352E+00 0.  1.
       -3    1    3    3    0  502  0.21397240184E+01  0.72816416758E+02  0.49118459771E+03  0.49655727585E+03  0.10100000352E+00 0. -1.
</event>
<event>
 5   0  0.5118882E-03  0.5000647E+03  0.7818609E-02  0.1013762E+00
       -2   -1    0    0    0  501  0.00000000000E+00  0.00000000000E+00  0.12966627176E+03  0.12966627179E+03  0.25500000920E-02 0. -1.
        2   -1    0    0  501    0  0.00000000000E+00  0.00000000000E+00 -0.48213131168E+03  0.48213131169E+03  0.25500000920E-02 0.  1.
    10030    2    1    2    0    0  0.00000000000E+00  0.00000000000E+00 -0.35246503992E+03  0.61179758348E+03  0.50006467460E+03 0.  0.
        3    1    3    3  502    0  0.15312066452E+03  0.59206909803E+02  0.54490826911E+02  0.17297588413E+03  0.10100000352E+00 0. -1.
       -3    1    3    3    0  502 -0.15312066452E+03 -0.59206909803E+02 -0.40695586683E+03  0.43882169935E+03  0.10100000352E+00 0.  1.
</event>
<event>
 5   0  0.2005125E-03  0.5000051E+03  0.7818609E-02  0.1013778E+00
        3   -1    0    0  501    0  0.00000000000E+00  0.00000000000E+00  0.28321814452E+03  0.28321816253E+03  0.10100000352E+00 0.  1.
       -3   -1    0    0    0  501  0.00000000000E+00  0.00000000000E+00 -0.22068242519E+03  0.22068244830E+03  0.10100000352E+00 0. -1.
    10030    2    1    2    0    0  0.00000000000E+00  0.00000000000E+00  0.62535719326E+02  0.50390061083E+03  0.50000510938E+03 0.  0.
        4    1    3    3  502    0 -0.92331731654E+02  0.34952077667E+02 -0.20020148423E+03  0.22322420028E+03  0.12699999809E+01 0. -1.
       -4    1    3    3    0  502  0.92331731654E+02 -0.34952077667E+02  0.26273720356E+03  0.28067641055E+03  0.12699999809E+01 0.  1.
</event>
<event>
 5   0  0.5118882E-03  0.4995539E+03  0.7818609E-02  0.1013895E+00
       -2   -1    0    0    0  501  0.00000000000E+00  0.00000000000E+00  0.45035598214E+02  0.45035598286E+02  0.25500000920E-02 0. -1.
        2   -1    0    0  501    0  0.00000000000E+00  0.00000000000E+00 -0.13853158862E+04  0.13853158862E+04  0.25500000920E-02 0.  1.
    10030    2    1    2    0    0  0.00000000000E+00  0.00000000000E+00 -0.13402802880E+04  0.14303514845E+04  0.49955391983E+03 0.  0.
        3    1    3    3  502    0  0.57448295275E+02 -0.16865760597E+03 -0.16892429066E+03  0.24552213924E+03  0.10100000352E+00 0.  1.
       -3    1    3    3    0  502 -0.57448295275E+02  0.16865760597E+03 -0.11713559973E+04  0.11848293453E+04  0.10100000352E+00 0. -1.
</event>
<event>
 5   0  0.4889251E-03  0.4998585E+03  0.7818609E-02  0.1013816E+00
       -2   -1    0    0    0  501  0.00000000000E+00  0.00000000000E+00  0.38292980808E+02  0.38292980893E+02  0.25500000920E-02 0. -1.
        2   -1    0    0  501    0  0.00000000000E+00  0.00000000000E+00 -0.16312289775E+04  0.16312289775E+04  0.25500000920E-02 0.  1.
    10030    2    1    2    0    0  0.00000000000E+00  0.00000000000E+00 -0.15929359967E+04  0.16695219584E+04  0.49985845997E+03 0.  0.
        5    1    3    3  502    0 -0.11219630484E+03  0.13357431702E+03 -0.19887658493E+03  0.26458286985E+03  0.46999998093E+01 0. -1.
       -5    1    3    3    0  502  0.11219630484E+03 -0.13357431702E+03 -0.13940594117E+04  0.14049390885E+04  0.46999998093E+01 0.  1.
</event>
<event>
 5   0  0.3055293E-03  0.4998902E+03  0.7818609E-02  0.1013808E+00
        1   -1    0    0  501    0  0.00000000000E+00  0.00000000000E+00  0.65916701725E+03  0.65916701727E+03  0.50400001928E-02 0.  1.
       -1   -1    0    0    0  501  0.00000000000E+00  0.00000000000E+00 -0.94775012343E+02  0.94775012477E+02  0.50400001928E-02 0. -1.
    10030    2    1    2    0    0  0.00000000000E+00  0.00000000000E+00  0.56439200491E+03  0.75394202975E+03  0.49989023697E+03 0.  0.
        3    1    3    3  502    0 -0.59055575628E+02  0.71210394443E+01 -0.83944098858E+02  0.10288290504E+03  0.10100000352E+00 0. -1.
       -3    1    3    3    0  502  0.59055575628E+02 -0.71210394443E+01  0.64833610377E+03  0.65105912471E+03  0.10100000352E+00 0.  1.
</event>
<event>
 5   0  0.2005125E-03  0.5013431E+03  0.7818609E-02  0.1013429E+00
       -3   -1    0    0    0  501  0.00000000000E+00  0.00000000000E+00  0.24932556391E+03  0.24932558437E+03  0.10100000352E+00 0. -1.
        3   -1    0    0  501    0  0.00000000000E+00  0.00000000000E+00 -0.25202475260E+03  0.25202477284E+03  0.10100000352E+00 0.  1.
    10030    2    1    2    0    0  0.00000000000E+00  0.00000000000E+00 -0.26991886918E+01  0.50135035721E+03  0.50134309116E+03 0.  0.
        4    1    3    3  502    0 -0.16835717659E+02  0.49947287789E+02 -0.24641729672E+03  0.25199458321E+03  0.12699999809E+01 0.  1.
       -4    1    3    3    0  502  0.16835717659E+02 -0.49947287789E+02  0.24371810803E+03  0.24935577400E+03  0.12699999809E+01 0. -1.
</event>
<event>
 5   0  0.3013734E-03  0.4995378E+03  0.7818609E-02  0.1013900E+00
        1   -1    0    0  501    0  0.00000000000E+00  0.00000000000E+00  0.55820339316E+03  0.55820339318E+03  0.50400001928E-02 0.  1.
       -1   -1    0    0    0  501  0.00000000000E+00  0.00000000000E+00 -0.11175945949E+03  0.11175945961E+03  0.50400001928E-02 0. -1.
    10030    2    1    2    0    0  0.00000000000E+00  0.00000000000E+00  0.44644393367E+03  0.66996285279E+03  0.49953782461E+03 0.  0.
        2    1    3    3  502    0  0.12976329635E+03 -0.78053316571E+02  0.48961697536E+03  0.51249938134E+03  0.25500000920E-02 0.  1.
       -2    1    3    3    0  502 -0.12976329635E+03  0.78053316571E+02 -0.43173041692E+02  0.15746347145E+03  0.25500000920E-02 0. -1.
</event>
<event>
 5   0  0.3211775E-03  0.4998525E+03  0.7818609E-02  0.1013817E+00
       -1   -1    0    0    0  501  0.00000000000E+00  0.00000000000E+00  0.22908305244E+03  0.22908305249E+03  0.50400001928E-02 0. -1.
        1   -1    0    0  501    0  0.00000000000E+00  0.00000000000E+00 -0.27266589295E+03  0.27266589300E+03  0.50400001928E-02 0.  1.
    10030    2    1    2    0    0  0.00000000000E+00  0.00000000000E+00 -0.43582840512E+02  0.50174894549E+03  0.49985251856E+03 0.  0.
        4    1    3    3  502    0  0.54439569802E+02  0.63217835287E+02 -0.25827249971E+03  0.27141565626E+03  0.12699999809E+01 0.  1.
       -4    1    3    3    0  502 -0.54439569802E+02 -0.63217835287E+02  0.21468965920E+03  0.23033328923E+03  0.12699999809E+01 0. -1.
</event>
<event>
 5   0  0.5118882E-03  0.5000647E+03  0.7818609E-02  0.1013762E+00
       -2   -1    0    0    0  501  0.00000000000E+00  0.00000000000E+00  0.80716304331E+02  0.80716304372E+02  0.25500000920E-02 0.  1.
        2   -1    0    0  501    0  0.00000000000E+00  0.00000000000E+00 -0.77451727311E+03  0.77451727312E+03  0.25500000920E-02 0. -1.
    10030    2    1    2    0    0  0.00000000000E+00  0.00000000000E+00 -0.69380096878E+03  0.85523357749E+03  0.50006468360E+03 0.  0.
        3    1    3    3  502    0  0.64628048930E+01 -0.16814628023E+03 -0.66318605062E+03  0.68420076538E+03  0.10100000352E+00 0. -1.
       -3    1    3    3    0  502 -0.64628048930E+01  0.16814628023E+03 -0.30614918158E+02  0.17103281211E+03  0.10100000352E+00 0.  1.
</event>
<event>
 5   0  0.5118882E-03  0.5000320E+03  0.7818609E-02  0.1013771E+00
        2   -1    0    0  501    0  0.00000000000E+00  0.00000000000E+00  0.74855277448E+03  0.74855277448E+03  0.25500000920E-02 0.  1.
       -2   -1    0    0    0  501  0.00000000000E+00  0.00000000000E+00 -0.83505122750E+02  0.83505122789E+02  0.25500000920E-02 0. -1.
    10030    2    1    2    0    0  0.00000000000E+00  0.00000000000E+00  0.66504765173E+03  0.83205789727E+03  0.50003196432E+03 0.  0.
        3    1    3    3  502    0  0.94679324479E+02  0.54133207276E+02 -0.41835405290E+02  0.11681091537E+03  0.10100000352E+00 0. -1.
       -3    1    3    3    0  502 -0.94679324479E+02 -0.54133207276E+02  0.70688305702E+03  0.71524698190E+03  0.10100000352E+00 0.  1.
</event>
<event>
 5   0  0.4978779E-03  0.4998954E+03  0.7818609E-02  0.1013806E+00
       -2   -1    0    0    0  501  0.00000000000E+00  0.00000000000E+00  0.40004836748E+02  0.40004836829E+02  0.25500000920E-02 0. -1.
        2   -1    0    0  501    0  0.00000000000E+00  0.00000000000E+00 -0.15616573899E+04  0.15616573899E+04  0.25500000920E-02 0.  1.
    10030    2    1    2    0    0  0.00000000000E+00  0.00000000000E+00 -0.15216525531E+04  0.16016622267E+04  0.49989538507E+03 0.  0.
        1    1    3    3  502    0  0.15856454771E+03 -0.91048684814E+02 -0.13068350354E+04  0.13195644693E+04  0.50400001928E-02 0.  1.
       -1    1    3    3    0  502 -0.15856454771E+03  0.91048684814E+02 -0.21481751770E+03  0.28209775741E+03  0.50400001928E-02 0. -1.
</event>
<event>
 5   0  0.2863538E-03  0.4995100E+03  0.7818609E-02  0.1013907E+00
        1   -1    0    0  501    0  0.00000000000E+00  0.00000000000E+00  0.74010577781E+03  0.74010577783E+03  0.50400001928E-02 0. -1.
       -1   -1    0    0    0  501  0.00000000000E+00  0.00000000000E+00 -0.84281964090E+02  0.84281964241E+02  0.50400001928E-02 0.  1.
    10030    2    1    2    0    0  0.00000000000E+00  0.00000000000E+00  0.65582381372E+03  0.82438774207E+03  0.49951003457E+03 0.  0.
        1    1    3    3  502    0  0.11217157852E+03 -0.57969541571E+01  0.69606973905E+03  0.70507386092E+03  0.50400001928E-02 0. -1.
       -1    1    3    3    0  502 -0.11217157852E+03  0.57969541571E+01 -0.40245925327E+02  0.11931388115E+03  0.50400001928E-02 0.  1.
</event>
<event>
 5   0  0.4989875E-03  0.4999054E+03  0.7818609E-02  0.1013804E+00
       -2   -1    0    0    0  501  0.00000000000E+00  0.00000000000E+00  0.74361808940E+03  0.74361808940E+03  0.25500000920E-02 0. -1.
        2   -1    0    0  501    0  0.00000000000E+00  0.00000000000E+00 -0.84016717906E+02  0.84016717944E+02  0.25500000920E-02 0.  1.
    10030    2    1    2    0    0  0.00000000000E+00  0.00000000000E+00  0.65960137149E+03  0.82763480735E+03  0.49990539611E+03 0.  0.
        2    1    3    3  502    0  0.21003777400E+03 -0.88527406252E+02  0.49963624002E+03  0.54917150373E+03  0.25500000920E-02 0.  1.
       -2    1    3    3    0  502 -0.21003777400E+03  0.88527406252E+02  0.15996513147E+03  0.27846330361E+03  0.25500000920E-02 0. -1.
</event>
<event>
 5   0  0.5118882E-03  0.5000023E+03  0.7818609E-02  0.1013778E+00
        2   -1    0    0  501    0  0.00000000000E+00  0.00000000000E+00  0.64653518532E+03  0.64653518533E+03  0.25500000920E-02 0. -1.
       -2   -1    0    0    0  501  0.00000000000E+00  0.00000000000E+00 -0.96670026065E+02  0.96670026098E+02  0.25500000920E-02 0.  1.
    10030    2    1    2    0    0  0.00000000000E+00  0.00000000000E+00  0.54986515926E+03  0.74320521142E+03  0.50000229292E+03 0.  0.
        3    1    3    3  502    0  0.11320906959E+03 -0.20361600679E+03  0.14012969191E+03  0.27186782158E+03  0.10100000352E+00 0.  1.
       -3    1    3    3    0  502 -0.11320906959E+03  0.20361600679E+03  0.40973546735E+03  0.47133738984E+03  0.10100000352E+00 0. -1.
</event>
<event>
 5   0  0.2863538E-03  0.4999269E+03  0.7818609E-02  0.1013798E+00
       -1   -1    0    0    0  501  0.00000000000E+00  0.00000000000E+00  0.45594459813E+02  0.45594460091E+02  0.50400001928E-02 0. -1.
        1   -1    0    0  501    0  0.00000000000E+00  0.00000000000E+00 -0.13703797056E+04  0.13703797056E+04  0.50400001928E-02 0.  1.
    10030    2    1    2    0    0  0.00000000000E+00  0.00000000000E+00 -0.13247852458E+04  0.14159741657E+04  0.49992688513E+03 0.  0.
        1    1    3    3  502    0  0.14767604222E+03  0.15115225492E+03 -0.10405581522E+04  0.10617987030E+04  0.50400001928E-02 0.  1.
       -1    1    3    3    0  502 -0.14767604222E+03 -0.15115225492E+03 -0.28422709362E+03  0.35417546271E+03  0.50400001928E-02 0. -1.
</event>
<event>
 5   0  0.5095783E-03  0.4997853E+03  0.7818609E-02  0.1013835E+00
       -2   -1    0    0    0  501  0.00000000000E+00  0.00000000000E+00  0.35892931275E+03  0.35892931275E+03  0.25500000920E-02 0. -1.
        2   -1    0    0  501    0  0.00000000000E+00  0.00000000000E+00 -0.17397949992E+03  0.17397949994E+03  0.25500000920E-02 0.  1.
    10030    2    1    2    0    0  0.00000000000E+00  0.00000000000E+00  0.18494981283E+03  0.53290881269E+03  0.49978532329E+03 0.  0.
        4    1    3    3  502    0 -0.12152344196E+03 -0.15163320900E+03  0.25999947704E+03  0.32459500610E+03  0.12699999809E+01 0. -1.
       -4    1    3    3    0  502  0.12152344196E+03  0.15163320900E+03 -0.75049664215E+02  0.20831380659E+03  0.12699999809E+01 0.  1.
</event>
<event>
 5   0  0.3057783E-03  0.5000705E+03  0.7818609E-02  0.1013761E+00
       -1   -1    0    0    0  501  0.00000000000E+00  0.00000000000E+00  0.51877244679E+02  0.51877244924E+02  0.50400001928E-02 0. -1.
        1   -1    0    0  501    0  0.00000000000E+00  0.00000000000E+00 -0.12051068942E+04  0.12051068942E+04  0.50400001928E-02 0.  1.
    10030    2    1    2    0    0  0.00000000000E+00  0.00000000000E+00 -0.11532296495E+04  0.12569841391E+04  0.50007049653E+03 0.  0.
        5    1    3    3  502    0  0.23173180928E+02  0.67857023094E+02 -0.11785923578E+04  0.11807809314E+04  0.46999998093E+01 0.  1.
       -5    1    3    3    0  502 -0.23173180928E+02 -0.67857023094E+02  0.25362708352E+02  0.76203207746E+02  0.46999998093E+01 0. -1.
</event>
<event>
 5   0  0.4889251E-03  0.4992583E+03  0.7818609E-02  0.1013973E+00
        2   -1    0    0  501    0  0.00000000000E+00  0.00000000000E+00  0.16401679233E+04  0.16401679233E+04  0.25500000920E-02 0.  1.
       -2   -1    0    0    0  501  0.00000000000E+00  0.00000000000E+00 -0.37992890047E+02  0.37992890132E+02  0.25500000920E-02 0. -1.
    10030    2    1    2    0    0  0.00000000000E+00  0.00000000000E+00  0.16021750333E+04  0.16781608134E+04  0.49925832849E+03 0.  0.
        5    1    3    3  502    0 -0.24472246868E+03 -0.34073323351E+02  0.68260194339E+03  0.72595976553E+03  0.46999998093E+01 0. -1.
       -5    1    3    3    0  502  0.24472246868E+03  0.34073323351E+02  0.91957308988E+03  0.95220104792E+03  0.46999998093E+01 0.  1.
</event>
<event>
 5   0  0.5095783E-03  0.5000627E+03  0.7818609E-02  0.1013763E+00
        2   -1    0    0  501    0  0.00000000000E+00  0.00000000000E+00  0.24765155704E+04  0.24765155704E+04  0.25500000920E-02 0.  1.
       -2   -1    0    0    0  501  0.00000000000E+00  0.00000000000E+00 -0.25243405640E+02  0.25243405769E+02  0.25500000920E-02 0. -1.
    10030    2    1    2    0    0  0.00000000000E+00  0.00000000000E+00  0.24512721647E+04  0.25017589761E+04  0.50006274518E+03 0.  0.
        4    1    3    3  502    0 -0.75146878388E+02  0.83777609741E+02  0.23426183699E+04  0.23453204858E+04  0.12699999809E+01 0.  1.
       -4    1    3    3    0  502  0.75146878388E+02 -0.83777609741E+02  0.10865379479E+03  0.15643849030E+03  0.12699999809E+01 0. -1.
</event>
<event>
 5   0  0.5118882E-03  0.4999972E+03  0.7818609E-02  0.1013780E+00
        2   -1    0    0  501    0  0.00000000000E+00  0.00000000000E+00  0.42107182420E+03  0.42107182420E+03  0.25500000920E-02 0.  1.
       -2   -1    0    0    0  501  0.00000000000E+00  0.00000000000E+00 -0.14842909053E+03  0.14842909055E+03  0.25500000920E-02 0. -1.
    10030    2    1    2    0    0  0.00000000000E+00  0.00000000000E+00  0.27264273367E+03  0.56950091475E+03  0.49999723168E+03 0.  0.
        3    1    3    3  502    0  0.17322544710E+03  0.15632245368E+03  0.34092403234E+02  0.23580938744E+03  0.10100000352E+00 0. -1.
       -3    1    3    3    0  502 -0.17322544710E+03 -0.15632245368E+03  0.23855033043E+03  0.33369152731E+03  0.10100000352E+00 0.  1.
</event>
<event>
 5   0  0.4889251E-03  0.4999661E+03  0.7818609E-02  0.1013788E+00
        2   -1    0    0  501    0  0.00000000000E+00  0.00000000000E+00  0.19140277506E+04  0.19140277506E+04  0.25500000920E-02 0. -1.
       -2   -1    0    0    0  501  0.00000000000E+00  0.00000000000E+00 -0.32649227194E+02  0.32649227294E+02  0.25500000920E-02 0.  1.
    10030    2    1    2    0    0  0.00000000000E+00  0.00000000000E+00  0.18813785234E+04  0.19466769779E+04  0.49996610679E+03 0.  0.
        5    1    3    3  502    0 -0.30103915851E+02 -0.74473516751E+02  0.19152187174E+02  0.82713038383E+02  0.46999998093E+01 0.  1.
       -5    1    3    3    0  502  0.30103915851E+02  0.74473516751E+02  0.18622263363E+04  0.18639639395E+04  0.46999998093E+01 0. -1.
</event>
<event>
 5   0  0.2005125E-03  0.4999416E+03  0.7818609E-02  0.1013794E+00
        3   -1    0    0  501    0  0.00000000000E+00  0.00000000000E+00  0.39997705001E+03  0.39997706277E+03  0.10100000352E+00 0.  1.
       -3   -1    0    0    0  501  0.00000000000E+00  0.00000000000E+00 -0.15622241951E+03  0.15622245216E+03  0.10100000352E+00 0. -1.
    10030    2    1    2    0    0  0.00000000000E+00  0.00000000000E+00  0.24375463051E+03  0.55619951492E+03  0.49994157709E+03 0.  0.
        5    1    3    3  502    0 -0.15982657409E+03 -0.16877180019E+03  0.22405358712E+03  0.32287854408E+03  0.46999998093E+01 0.  1.
       -5    1    3    3    0  502  0.15982657409E+03  0.16877180019E+03  0.19701043386E+02  0.23332097084E+03  0.46999998093E+01 0. -1.
</event>
<event>
 5   0  0.5095783E-03  0.4997341E+03  0.7818609E-02  0.1013848E+00
        2   -1    0    0  501    0  0.00000000000E+00  0.00000000000E+00  0.72573883288E+03  0.72573883289E+03  0.25500000920E-02 0.  1.
       -2   -1    0    0    0  501  0.00000000000E+00  0.00000000000E+00 -0.86027573475E+02  0.86027573513E+02  0.25500000920E-02 0. -1.
    10030    2    1    2    0    0  0.00000000000E+00  0.00000000000E+00  0.63971125941E+03  0.81176640640E+03  0.49973413246E+03 0.  0.
        4    1    3    3  502    0 -0.63991602795E+02 -0.87408305548E+02 -0.45892689094E+02  0.11765580699E+03  0.12699999809E+01 0. -1.
       -4    1    3    3    0  502  0.63991602795E+02  0.87408305548E+02  0.68560394850E+03  0.69411059941E+03  0.12699999809E+01 0.  1.
</event>
<event>
 5   0  0.5118882E-03  0.5001713E+03  0.7818609E-02  0.1013734E+00
       -2   -1    0    0    0  501  0.00000000000E+00  0.00000000000E+00  0.21149501724E+03  0.21149501726E+03  0.25500000920E-02 0. -1.
        2   -1    0    0  501    0  0.00000000000E+00  0.00000000000E+00 -0.29571769945E+03  0.29571769946E+03  0.25500000920E-02 0.  1.
    10030    2    1    2    0    0  0.00000000000E+00  0.00000000000E+00 -0.84222682203E+02  0.50721271671E+03  0.50017125047E+03 0.  0.
        3    1    3    3  502    0 -0.72957733236E+02  0.48339632976E+02 -0.27968120760E+03  0.29305483965E+03  0.10100000352E+00 0.  1.
       -3    1    3    3    0  502  0.72957733236E+02 -0.48339632976E+02  0.19545852540E+03  0.21415787706E+03  0.10100000352E+00 0. -1.
</event>
<event>
 5   0  0.2005125E-03  0.4999764E+03  0.7818609E-02  0.1013785E+00
        3   -1    0    0  501    0  0.00000000000E+00  0.00000000000E+00  0.11940265408E+03  0.11940269679E+03  0.10100000352E+00 0. -1.
       -3   -1    0    0    0  501  0.00000000000E+00  0.00000000000E+00 -0.52338948552E+03  0.52338949526E+03  0.10100000352E+00 0.  1.
    10030    2    1    2    0    0  0.00000000000E+00  0.00000000000E+00 -0.40398683144E+03  0.64279219206E+03  0.49997644164E+03 0.  0.
        4    1    3    3  502    0  0.20631782700E+03  0.53172839600E+02 -0.37010397425E+03  0.42705147379E+03  0.12699999809E+01 0.  1.
       -4    1    3    3    0  502 -0.20631782700E+03 -0.53172839600E+02 -0.33882857187E+02  0.21574071827E+03  0.12699999809E+01 0. -1.
</event>
<event>
 5   0  0.3057783E-03  0.4998956E+03  0.7818609E-02  0.1013806E+00
       -1   -1    0    0    0  501  0.00000000000E+00  0.00000000000E+00  0.72555626187E+02  0.72555626362E+02  0.50400001928E-02 0.  1.
        1   -1    0    0  501    0  0.00000000000E+00  0.00000000000E+00 -0.86104840396E+03  0.86104840397E+03  0.50400001928E-02 0. -1.
    10030    2    1    2    0    0  0.00000000000E+00  0.00000000000E+00 -0.78849277777E+03  0.93360403033E+03  0.49989561396E+03 0.  0.
        5    1    3    3  502    0 -0.25546488862E+02  0.10331309805E+02  0.69626964413E+02  0.75029082542E+02  0.46999998093E+01 0.  1.
       -5    1    3    3    0  502  0.25546488862E+02 -0.10331309805E+02 -0.85811974218E+03  0.85857494779E+03  0.46999998093E+01 0. -1.
</event>
<event>
 5   0  0.4978779E-03  0.4984561E+03  0.7818609E-02  0.1014183E+00
       -2   -1    0    0    0  501  0.00000000000E+00  0.00000000000E+00  0.35244422560E+02  0.35244422653E+02  0.25500000920E-02 0. -1.
        2   -1    0    0  501    0  0.00000000000E+00  0.00000000000E+00 -0.17623960316E+04  0.17623960316E+04  0.25500000920E-02 0.  1.
    10030    2    1    2    0    0  0.00000000000E+00  0.00000000000E+00 -0.17271516091E+04  0.17976404543E+04  0.49845613866E+03 0.  0.
        1    1    3    3  502    0  0.51338544939E+02 -0.17370454592E+03 -0.14809550779E+04  0.14919909042E+04  0.50400001928E-02 0.  1.
       -1    1    3    3    0  502 -0.51338544939E+02  0.17370454592E+03 -0.24619653115E+03  0.30564955005E+03  0.50400001928E-02 0. -1.
</event>
<event>
 5   0  0.2863538E-03  0.4999687E+03  0.7818609E-02  0.1013787E+00
       -1   -1    0    0    0  501  0.00000000000E+00  0.00000000000E+00  0.78955273423E+02  0.78955273584E+02  0.50400001928E-02 0. -1.
        1   -1    0    0  501    0  0.00000000000E+00  0.00000000000E+00 -0.79148843920E+03  0.79148843922E+03  0.50400001928E-02 0.  1.
    10030    2    1    2    0    0  0.00000000000E+00  0.00000000000E+00 -0.71253316578E+03  0.87044371280E+03  0.49996874384E+03 0.  0.
        1    1    3    3  502    0  0.12732417699E+03  0.77455214619E+02 -0.68445571945E+01  0.14918982642E+03  0.50400001928E-02 0. -1.
       -1    1    3    3    0  502 -0.12732417699E+03 -0.77455214619E+02 -0.70568860859E+03  0.72125388639E+03  0.50400001928E-02 0.  1.
</event>
<event>
 5   0  0.5095783E-03  0.4999627E+03  0.7818609E-02  0.1013789E+00
       -2   -1    0    0    0  501  0.00000000000E+00  0.00000000000E+00  0.59077886669E+02  0.59077886724E+02  0.25500000920E-02 0.  1.
        2   -1    0    0  501    0  0.00000000000E+00  0.00000000000E+00 -0.10577677355E+04  0.10577677355E+04  0.25500000920E-02 0. -1.
    10030    2    1    2    0    0  0.00000000000E+00  0.00000000000E+00 -0.99868984884E+03  0.11168456222E+04  0.49996272834E+03 0.  0.
        4    1    3    3  502    0  0.22335855565E+03 -0.10985271377E+03 -0.55088881100E+03  0.60451365418E+03  0.12699999809E+01 0. -1.
       -4    1    3    3    0  502 -0.22335855565E+03  0.10985271377E+03 -0.44780103785E+03  0.51233196806E+03  0.12699999809E+01 0.  1.
</event>
<event>
 5   0  0.5095783E-03  0.5000606E+03  0.7818609E-02  0.1013763E+00
        2   -1    0    0  501    0  0.00000000000E+00  0.00000000000E+00  0.23947347373E+03  0.23947347374E+03  0.25500000920E-02 0.  1.
       -2   -1    0    0    0  501  0.00000000000E+00  0.00000000000E+00 -0.26105251323E+03  0.26105251324E+03  0.25500000920E-02 0. -1.
    10030    2    1    2    0    0  0.00000000000E+00  0.00000000000E+00 -0.21579039504E+02  0.50052598699E+03  0.50006060503E+03 0.  0.
        4    1    3    3  502    0 -0.22830072069E+03  0.69033844598E+02  0.64291278562E+02  0.24702605564E+03  0.12699999809E+01 0.  1.
       -4    1    3    3    0  502  0.22830072069E+03 -0.69033844598E+02 -0.85870318066E+02  0.25349993134E+03  0.12699999809E+01 0. -1.
</event>
<event>
 5   0  0.3057783E-03  0.5000751E+03  0.7818609E-02  0.1013759E+00
       -1   -1    0    0    0  501  0.00000000000E+00  0.00000000000E+00  0.83451792591E+02  0.83451792743E+02  0.50400001928E-02 0. -1.
        1   -1    0    0  501    0  0.00000000000E+00  0.00000000000E+00 -0.74916028004E+03  0.74916028005E+03  0.50400001928E-02 0.  1.
    10030    2    1    2    0    0  0.00000000000E+00  0.00000000000E+00 -0.66570848745E+03  0.83261207280E+03  0.50007506787E+03 0.  0.
        5    1    3    3  502    0 -0.70317491795E+02 -0.23387195473E+03 -0.24387484731E+03  0.34516325414E+03  0.46999998093E+01 0. -1.
       -5    1    3    3    0  502  0.70317491795E+02  0.23387195473E+03 -0.42183364014E+03  0.48744881866E+03  0.46999998093E+01 0.  1.
</event>
<event>
 5   0  0.5095783E-03  0.5000432E+03  0.7818609E-02  0.1013768E+00
       -2   -1    0    0    0  501  0.00000000000E+00  0.00000000000E+00  0.42238394946E+02  0.42238395023E+02  0.25500000920E-02 0. -1.
        2   -1    0    0  501    0  0.00000000000E+00  0.00000000000E+00 -0.14799522321E+04  0.14799522321E+04  0.25500000920E-02 0.  1.
    10030    2    1    2    0    0  0.00000000000E+00  0.00000000000E+00 -0.14377138372E+04  0.15221906271E+04  0.50004322589E+03 0.  0.
        4    1    3    3  502    0  0.16020972243E+03 -0.11906533978E+03 -0.11771507286E+04  0.11939552592E+04  0.12699999809E+01 0.  1.
       -4    1    3    3    0  502 -0.16020972243E+03  0.11906533978E+03 -0.26056310858E+03  0.32823536792E+03  0.12699999809E+01 0. -1.
</event>
<event>
 5   0  0.4978779E-03  0.5002861E+03  0.7818609E-02  0.1013704E+00
        2   -1    0    0  501    0  0.00000000000E+00  0.00000000000E+00  0.80536986142E+03  0.80536986143E+03  0.25500000920E-02 0. -1.
       -2   -1    0    0    0  501  0.00000000000E+00  0.00000000000E+00 -0.77692918224E+02  0.77692918266E+02  0.25500000920E-02 0.  1.
    10030    2    1    2    0    0  0.00000000000E+00  0.00000000000E+00  0.72767694320E+03  0.88306277969E+03  0.50028605739E+03 0.  0.
        1    1    3    3  502    0 -0.38851043073E+02  0.40341718208E+02 -0.66483116353E+02  0.86930216618E+02  0.50400001928E-02 0.  1.
       -1    1    3    3    0  502  0.38851043073E+02 -0.40341718208E+02  0.79416005955E+03  0.79613256307E+03  0.50400001928E-02 0. -1.
</event>
<event>
 5   0  0.3211775E-03  0.5000577E+03  0.7818609E-02  0.1013764E+00
       -1   -1    0    0    0  501  0.00000000000E+00  0.00000000000E+00  0.46349598134E+02  0.46349598408E+02  0.50400001928E-02 0. -1.
        1   -1    0    0  501    0  0.00000000000E+00  0.00000000000E+00 -0.13487585205E+04  0.13487585205E+04  0.50400001928E-02 0.  1.
    10030    2    1    2    0    0  0.00000000000E+00  0.00000000000E+00 -0.13024089223E+04  0.13951081189E+04  0.50005765908E+03 0.  0.
        4    1    3    3  502    0 -0.17834407666E+03 -0.11907694779E+03 -0.29254430403E+03  0.36272539461E+03  0.12699999809E+01 0. -1.
       -4    1    3    3    0  502  0.17834407666E+03  0.11907694779E+03 -0.10098646183E+04  0.10323827243E+04  0.12699999809E+01 0.  1.
</event>
<event>
 5   0  0.2005125E-03  0.4998346E+03  0.7818609E-02  0.1013822E+00
        3   -1    0    0  501    0  0.00000000000E+00  0.00000000000E+00  0.24770022432E+04  0.24770022453E+04  0.10100000352E+00 0.  1.
       -3   -1    0    0    0  501  0.00000000000E+00  0.00000000000E+00 -0.25215321585E+02  0.25215523862E+02  0.10100000352E+00 0. -1.
    10030    2    1    2    0    0  0.00000000000E+00  0.00000000000E+00  0.24517869216E+04  0.25022177691E+04  0.49983462776E+03 0.  0.
        2    1    3    3  502    0  0.23813476191E+03 -0.74161427694E+02  0.11466481929E+04  0.11734607622E+04  0.25500000920E-02 0. -1.
       -2    1    3    3    0  502 -0.23813476191E+03  0.74161427694E+02  0.13051387287E+04  0.13287570069E+04  0.25500000920E-02 0.  1.
</event>
<event>
 5   0  0.3055293E-03  0.5003654E+03  0.7818609E-02  0.1013684E+00
       -1   -1    0    0    0  501  0.00000000000E+00  0.00000000000E+00  0.98543307827E+02  0.98543307956E+02  0.50400001928E-02 0. -1.
        1   -1    0    0  501    0  0.00000000000E+00  0.00000000000E+00 -0.63516633594E+03  0.63516633596E+03  0.50400001928E-02 0.  1.
    10030    2    1    2    0    0  0.00000000000E+00  0.00000000000E+00 -0.53662302811E+03  0.73370964392E+03  0.50036543373E+03 0.  0.
        3    1    3    3  502    0  0.13785273645E+03  0.98801702057E+02 -0.53800081372E+03  0.56410108938E+03  0.10100000352E+00 0.  1.
       -3    1    3    3    0  502 -0.13785273645E+03 -0.98801702057E+02  0.13777856080E+01  0.16960855453E+03  0.10100000352E+00 0. -1.
</event>
<event>
 5   0  0.5095783E-03  0.5001068E+03  0.7818609E-02  0.1013751E+00
       -2   -1    0    0    0  501  0.00000000000E+00  0.00000000000E+00  0.67140724204E+02  0.67140724252E+02  0.25500000920E-02 0.  1.
        2   -1    0    0  501    0  0.00000000000E+00  0.00000000000E+00 -0.93127824789E+03  0.93127824789E+03  0.25500000920E-02 0. -1.
    10030    2    1    2    0    0  0.00000000000E+00  0.00000000000E+00 -0.86413752369E+03  0.99841897214E+03  0.50010677270E+03 0.  0.
        4    1    3    3  502    0 -0.23924410485E+03 -0.67716909368E+02 -0.48495526955E+03  0.54498307119E+03  0.12699999809E+01 0. -1.
       -4    1    3    3    0  502  0.23924410485E+03  0.67716909368E+02 -0.37918225413E+03  0.45343590095E+03  0.12699999809E+01 0.  1.
</event>
<event>
 5   0  0.4978779E-03  0.5002969E+03  0.7818609E-02  0.1013701E+00
        2   -1    0    0  501    0  0.00000000000E+00  0.00000000000E+00  0.13899468568E+04  0.13899468568E+04  0.25500000920E-02 0. -1.
       -2   -1    0    0    0  501  0.00000000000E+00  0.00000000000E+00 -0.45019167873E+02  0.45019167945E+02  0.25500000920E-02 0.  1.
    10030    2    1    2    0    0  0.00000000000E+00  0.00000000000E+00  0.13449276890E+04  0.14349660248E+04  0.50029691558E+03 0.  0.
        1    1    3    3  502    0  0.10061644418E+03 -0.14072771495E+03  0.11907035998E+04  0.12032053113E+04  0.50400001928E-02 0. -1.
       -1    1    3    3    0  502 -0.10061644418E+03  0.14072771495E+03  0.15422408913E+03  0.23176071342E+03  0.50400001928E-02 0.  1.
</event>
<event>
 5   0  0.4989875E-03  0.4998270E+03  0.7818609E-02  0.1013824E+00
        2   -1    0    0  501    0  0.00000000000E+00  0.00000000000E+00  0.74285569900E+03  0.74285569901E+03  0.25500000920E-02 0. -1.
       -2   -1    0    0    0  501  0.00000000000E+00  0.00000000000E+00 -0.84076581298E+02  0.84076581337E+02  0.25500000920E-02 0.  1.
    10030    2    1    2    0    0  0.00000000000E+00  0.00000000000E+00  0.65877911770E+03  0.82693228034E+03  0.49982704044E+03 0.  0.
        2    1    3    3  502    0 -0.37570405104E+02  0.12243428094E+03  0.68443910689E+03  0.69631787248E+03  0.25500000920E-02 0. -1.
       -2    1    3    3    0  502  0.37570405104E+02 -0.12243428094E+03 -0.25659989186E+02  0.13061440786E+03  0.25500000920E-02 0.  1.
</event>
<event>
 5   0  0.4889251E-03  0.5000134E+03  0.7818609E-02  0.1013775E+00
        2   -1    0    0  501    0  0.00000000000E+00  0.00000000000E+00  0.53156439684E+03  0.53156439684E+03  0.25500000920E-02 0.  1.
       -2   -1    0    0    0  501  0.00000000000E+00  0.00000000000E+00 -0.11758379520E+03  0.11758379523E+03  0.25500000920E-02 0. -1.
    10030    2    1    2    0    0  0.00000000000E+00  0.00000000000E+00  0.41398060164E+03  0.64914819207E+03  0.50001343656E+03 0.  0.
        5    1    3    3  502    0  0.67304244745E+01  0.19839432574E+03  0.97756104016E+01  0.19880457655E+03  0.46999998093E+01 0. -1.
       -5    1    3    3    0  502 -0.67304244745E+01 -0.19839432574E+03  0.40420499124E+03  0.45034361552E+03  0.46999998093E+01 0.  1.
</event>
<event>
 5   0  0.4989875E-03  0.4999340E+03  0.7818609E-02  0.1013796E+00
        2   -1    0    0  501    0  0.00000000000E+00  0.00000000000E+00  0.21238898834E+04  0.21238898834E+04  0.25500000920E-02 0. -1.
       -2   -1    0    0    0  501  0.00000000000E+00  0.00000000000E+00 -0.29419370722E+02  0.29419370832E+02  0.25500000920E-02 0.  1.
    10030    2    1    2    0    0  0.00000000000E+00  0.00000000000E+00  0.20944705126E+04  0.21533092542E+04  0.49993401153E+03 0.  0.
        2    1    3    3  502    0 -0.24462120136E+02 -0.64868302763E+02  0.12817772119E+02  0.70502392254E+02  0.25500000920E-02 0.  1.
       -2    1    3    3    0  502  0.24462120136E+02  0.64868302763E+02  0.20816527405E+04  0.20828068619E+04  0.25500000920E-02 0. -1.
</event>
<event>
 5   0  0.3055293E-03  0.5004040E+03  0.7818609E-02  0.1013674E+00
        1   -1    0    0  501    0  0.00000000000E+00  0.00000000000E+00  0.16152751043E+03  0.16152751050E+03  0.50400001928E-02 0. -1.
       -1   -1    0    0    0  501  0.00000000000E+00  0.00000000000E+00 -0.38755651299E+03  0.38755651302E+03  0.50400001928E-02 0.  1.
    10030    2    1    2    0    0  0.00000000000E+00  0.00000000000E+00 -0.22602900257E+03  0.54908402353E+03  0.50040399168E+03 0.  0.
        3    1    3    3  502    0  0.46903097909E+02 -0.20264984836E+03  0.39559583516E+02  0.21173528870E+03  0.10100000352E+00 0. -1.
       -3    1    3    3    0  502 -0.46903097909E+02  0.20264984836E+03 -0.26558858608E+03  0.33734873483E+03  0.10100000352E+00 0.  1.
</event>
<event>
 5   0  0.4978779E-03  0.5000058E+03  0.7818609E-02  0.1013777E+00
        2   -1    0    0  501    0  0.00000000000E+00  0.00000000000E+00  0.21381281488E+04  0.21381281488E+04  0.25500000920E-02 0.  1.
       -2   -1    0    0    0  501  0.00000000000E+00  0.00000000000E+00 -0.29231853981E+02  0.29231854092E+02  0.25500000920E-02 0. -1.
    10030    2    1    2    0    0  0.00000000000E+00  0.00000000000E+00  0.21088962948E+04  0.21673600029E+04  0.50000579981E+03 0.  0.
        1    1    3    3  502    0  0.37859936069E+02 -0.23925891065E+03  0.13224712904E+04  0.13444733226E+04  0.50400001928E-02 0.  1.
       -1    1    3    3    0  502 -0.37859936069E+02  0.23925891065E+03  0.78642500435E+03  0.82288668028E+03  0.50400001928E-02 0. -1.
</event>
<event>
 5   0  0.3013734E-03  0.4999628E+03  0.7818609E-02  0.1013789E+00
       -1   -1    0    0    0  501  0.00000000000E+00  0.00000000000E+00  0.32292338090E+03  0.32292338093E+03  0.50400001928E-02 0. -1.
        1   -1    0    0  501    0  0.00000000000E+00  0.00000000000E+00 -0.19351559107E+03  0.19351559114E+03  0.50400001928E-02 0.  1.
    10030    2    1    2    0    0  0.00000000000E+00  0.00000000000E+00  0.12940778982E+03  0.51643897207E+03  0.49996283443E+03 0.  0.
        2    1    3    3  502    0 -0.23061716179E+03  0.32913581519E+02  0.15837375227E+03  0.28169100904E+03  0.25500000920E-02 0. -1.
       -2    1    3    3    0  502  0.23061716179E+03 -0.32913581519E+02 -0.28965962447E+02  0.23474796303E+03  0.25500000920E-02 0.  1.
</event>
<event>
 5   0  0.3211775E-03  0.4997337E+03  0.7818609E-02  0.1013848E+00
       -1   -1    0    0    0  501  0.00000000000E+00  0.00000000000E+00  0.39121715991E+03  0.39121715995E+03  0.50400001928E-02 0. -1.
        1   -1    0    0  501    0  0.00000000000E+00  0.00000000000E+00 -0.15958766745E+03  0.15958766753E+03  0.50400001928E-02 0.  1.
    10030    2    1    2    0    0  0.00000000000E+00  0.00000000000E+00  0.23162949246E+03  0.55080482747E+03  0.49973366525E+03 0.  0.
        4    1    3    3  502    0  0.18592698698E+03  0.67679991700E+02  0.28399420896E+03  0.34612678224E+03  0.12699999809E+01 0. -1.
       -4    1    3    3    0  502 -0.18592698698E+03 -0.67679991700E+02 -0.52364716494E+02  0.20467804523E+03  0.12699999809E+01 0.  1.
</event>
<event>
 5   0  0.5118882E-03  0.4999434E+03  0.7818609E-02  0.1013794E+00
       -2   -1    0    0    0  501  0.00000000000E+00  0.00000000000E+00  0.24880673489E+02  0.24880673619E+02  0.25500000920E-02 0.  1.
        2   -1    0    0  501    0  0.00000000000E+00  0.00000000000E+00 -0.25114211815E+04  0.25114211815E+04  0.25500000920E-02 0. -1.
    10030    2    1    2    0    0  0.00000000000E+00  0.00000000000E+00 -0.24865405080E+04  0.25363018551E+04  0.49994339910E+03 0.  0.
        3    1    3    3  502    0 -0.66867725999E+02  0.68789642441E+02 -0.72228094364E+02  0.12008420172E+03  0.10100000352E+00 0.  1.
       -3    1    3    3    0  502  0.66867725999E+02 -0.68789642441E+02 -0.24143124137E+04  0.24162176534E+04  0.10100000352E+00 0. -1.
</event>
<event>
 5   0  0.4889251E-03  0.5003622E+03  0.7818609E-02  0.1013684E+00
       -2   -1    0    0    0  501  0.00000000000E+00  0.00000000000E+00  0.97468653437E+02  0.97468653470E+02  0.25500000920E-02 0.  1.
        2   -1    0    0  501    0  0.00000000000E+00  0.00000000000E+00 -0.64216106014E+03  0.64216106015E+03  0.25500000920E-02 0. -1.
    10030    2    1    2    0    0  0.00000000000E+00  0.00000000000E+00 -0.54469240670E+03  0.73962971362E+03  0.50036216418E+03 0.  0.
        5    1    3    3  502    0  0.20724423951E+02 -0.56816020854E+02 -0.63112584947E+03  0.63403429705E+03  0.46999998093E+01 0. -1.
       -5    1    3    3    0  502 -0.20724423951E+02  0.56816020854E+02  0.86433442762E+02  0.10559541657E+03  0.46999998093E+01 0.  1.
</event>
<event>
 5   0  0.2005125E-03  0.5000614E+03  0.7818609E-02  0.1013763E+00
       -3   -1    0    0    0  501  0.00000000000E+00  0.00000000000E+00  0.11490693424E+04  0.11490693468E+04  0.10100000352E+00 0. -1.
        3   -1    0    0  501    0  0.00000000000E+00  0.00000000000E+00 -0.54405153359E+02  0.54405247109E+02  0.10100000352E+00 0.  1.
    10030    2    1    2    0    0  0.00000000000E+00  0.00000000000E+00  0.10946641891E+04  0.12034745940E+04  0.50006140774E+03 0.  0.
        4    1    3    3  502    0 -0.21111310069E+03 -0.12828028199E+03  0.64020422899E+03  0.68621253250E+03  0.12699999809E+01 0. -1.
       -4    1    3    3    0  502  0.21111310069E+03  0.12828028199E+03  0.45445996006E+03  0.51726206146E+03  0.12699999809E+01 0.  1.
</event>
<event>
 5   0  0.3057783E-03  0.5000200E+03  0.7818609E-02  0.1013774E+00
       -1   -1    0    0    0  501  0.00000000000E+00  0.00000000000E+00  0.65608533044E+02  0.65608533238E+02  0.50400001928E-02 0. -1.
        1   -1    0    0  501    0  0.00000000000E+00  0.00000000000E+00 -0.95269610238E+03  0.95269610240E+03  0.50400001928E-02 0.  1.
    10030    2    1    2    0    0  0.00000000000E+00  0.00000000000E+00 -0.88708756934E+03  0.10183046356E+04  0.50001997488E+03 0.  0.
        5    1    3    3  502    0  0.17964145215E+03 -0.92746043851E+02 -0.74292047982E+03  0.76995182273E+03  0.46999998093E+01 0.  1.
       -5    1    3    3    0  502 -0.17964145215E+03  0.92746043851E+02 -0.14416708952E+03  0.24835281291E+03  0.46999998093E+01 0. -1.
</event>
<event>
 5   0  0.4889251E-03  0.4999225E+03  0.7818609E-02  0.1013799E+00
        2   -1    0    0  501    0  0.00000000000E+00  0.00000000000E+00  0.10213227287E+04  0.10213227287E+04  0.25500000920E-02 0.  1.
       -2   -1    0    0    0  501  0.00000000000E+00  0.00000000000E+00 -0.61176182365E+02  0.61176182418E+02  0.25500000920E-02 0. -1.
    10030    2    1    2    0    0  0.00000000000E+00  0.00000000000E+00  0.96014654638E+03  0.10824989112E+04  0.49992249614E+03 0.  0.
        5    1    3    3  502    0 -0.23003171591E+03  0.49683238867E+02  0.29793383196E+03  0.37969681691E+03  0.46999998093E+01 0. -1.
       -5    1    3    3    0  502  0.23003171591E+03 -0.49683238867E+02  0.66221271442E+03  0.70280209425E+03  0.46999998093E+01 0.  1.
</event>
<event>
 5   0  0.4978779E-03  0.4998395E+03  0.7818609E-02  0.1013821E+00
       -2   -1    0    0    0  501  0.00000000000E+00  0.00000000000E+00  0.38396374014E+03  0.38396374015E+03  0.25500000920E-02 0. -1.
        2   -1    0    0  501    0  0.00000000000E+00  0.00000000000E+00 -0.16267131358E+03  0.16267131360E+03  0.25500000920E-02 0.  1.
    10030    2    1    2    0    0  0.00000000000E+00  0.00000000000E+00  0.22129242656E+03  0.54663505375E+03  0.49983951818E+03 0.  0.
        1    1    3    3  502    0 -0.82556317487E+02  0.28619357310E+02  0.36671538069E+03  0.37698114492E+03  0.50400001928E-02 0. -1.
       -1    1    3    3    0  502  0.82556317487E+02 -0.28619357310E+02 -0.14542295412E+03  0.16965390883E+03  0.50400001928E-02 0.  1.
</event>
<event>
 5   0  0.3211775E-03  0.5000437E+03  0.7818609E-02  0.1013768E+00
       -1   -1    0    0    0  501  0.00000000000E+00  0.00000000000E+00  0.19507797652E+03  0.19507797659E+03  0.50400001928E-02 0.  1.
        1   -1    0    0  501    0  0.00000000000E+00  0.00000000000E+00 -0.32044075053E+03  0.32044075057E+03  0.50400001928E-02 0. -1.
    10030    2    1    2    0    0  0.00000000000E+00  0.00000000000E+00 -0.12536277400E+03  0.51551872715E+03  0.50004373103E+03 0.  0.
        4    1    3    3  502    0 -0.23427549125E+03  0.68675450227E+02 -0.11827609350E+03  0.27127876891E+03  0.12699999809E+01 0. -1.
       -4    1    3    3    0  502  0.23427549125E+03 -0.68675450227E+02 -0.70866805005E+01  0.24423995825E+03  0.12699999809E+01 0.  1.
</event>
<event>
 5   0  0.2005125E-03  0.5000483E+03  0.7818609E-02  0.1013766E+00
        3   -1    0    0  501    0  0.00000000000E+00  0.00000000000E+00  0.56505969382E+03  0.56505970285E+03  0.10100000352E+00 0.  1.
       -3   -1    0    0    0  501  0.00000000000E+00  0.00000000000E+00 -0.11062910157E+03  0.11062914768E+03  0.10100000352E+00 0. -1.
    10030    2    1    2    0    0  0.00000000000E+00  0.00000000000E+00  0.45443059225E+03  0.67568885052E+03  0.50004825722E+03 0.  0.
        3    1    3    3  502    0  0.13581735878E+03  0.10614186649E+02  0.51050401988E+03  0.52836860279E+03  0.10100000352E+00 0.  1.
       -3    1    3    3    0  502 -0.13581735878E+03 -0.10614186649E+02 -0.56073427629E+02  0.14732024773E+03  0.10100000352E+00 0. -1.
</event>
<event>
 5   0  0.3057783E-03  0.4999958E+03  0.7818609E-02  0.1013780E+00
       -1   -1    0    0    0  501  0.00000000000E+00  0.00000000000E+00  0.21659337573E+03  0.21659337579E+03  0.50400001928E-02 0. -1.
        1   -1    0    0  501    0  0.00000000000E+00  0.00000000000E+00 -0.28855434973E+03  0.28855434977E+03  0.50400001928E-02 0.  1.
    10030    2    1    2    0    0  0.00000000000E+00  0.00000000000E+00 -0.71960973998E+02  0.50514772556E+03  0.49999584285E+03 0.  0.
        5    1    3    3  502    0  0.13436205702E+03  0.17431946048E+03  0.83715724059E+02  0.23552250237E+03  0.46999998093E+01 0. -1.
       -5    1    3    3    0  502 -0.13436205702E+03 -0.17431946048E+03 -0.15567669806E+03  0.26962522320E+03  0.46999998093E+01 0.  1.
</event>
<event>
 5   0  0.4889251E-03  0.5000313E+03  0.7818609E-02  0.1013771E+00
       -2   -1    0    0    0  501  0.00000000000E+00  0.00000000000E+00  0.54597554630E+02  0.54597554690E+02  0.25500000920E-02 0. -1.
        2   -1    0    0  501    0  0.00000000000E+00  0.00000000000E+00 -0.11448831072E+04  0.11448831072E+04  0.25500000920E-02 0.  1.
    10030    2    1    2    0    0  0.00000000000E+00  0.00000000000E+00 -0.10902855525E+04  0.11994806619E+04  0.50003127113E+03 0.  0.
        5    1    3    3  502    0 -0.22388651950E+03 -0.97511337641E+02 -0.67325128053E+03  0.71618643615E+03  0.46999998093E+01 0. -1.
       -5    1    3    3    0  502  0.22388651950E+03  0.97511337641E+02 -0.41703427200E+03  0.48329422571E+03  0.46999998093E+01 0.  1.
</event>
<event>
 5   0  0.4989875E-03  0.4999944E+03  0.7818609E-02  0.1013780E+00
        2   -1    0    0  501    0  0.00000000000E+00  0.00000000000E+00  0.17174609452E+04  0.17174609452E+04  0.25500000920E-02 0. -1.
       -2   -1    0    0    0  501  0.00000000000E+00  0.00000000000E+00 -0.36390108124E+02  0.36390108214E+02  0.25500000920E-02 0.  1.
    10030    2    1    2    0    0  0.00000000000E+00  0.00000000000E+00  0.16810708371E+04  0.17538510535E+04  0.49999435828E+03 0.  0.
        2    1    3    3  502    0  0.21873150076E+03  0.31992080232E+02  0.43099058638E+03  0.48437573038E+03  0.25500000920E-02 0.  1.
       -2    1    3    3    0  502 -0.21873150076E+03 -0.31992080232E+02  0.12500802507E+04  0.12694753231E+04  0.25500000920E-02 0. -1.
</event>
<event>
 5   0  0.5118882E-03  0.4999930E+03  0.7818609E-02  0.1013781E+00
       -2   -1    0    0    0  501  0.00000000000E+00  0.00000000000E+00  0.45136153094E+02  0.45136153166E+02  0.25500000920E-02 0. -1.
        2   -1    0    0  501    0  0.00000000000E+00  0.00000000000E+00 -0.13846606572E+04  0.13846606572E+04  0.25500000920E-02 0.  1.
    10030    2    1    2    0    0  0.00000000000E+00  0.00000000000E+00 -0.13395245041E+04  0.14297968104E+04  0.49999302179E+03 0.  0.
        3    1    3    3  502    0 -0.15907126809E+03  0.19274966668E+03 -0.65119820384E+03  0.69750642522E+03  0.10100000352E+00 0.  1.
       -3    1    3    3    0  502  0.15907126809E+03 -0.19274966668E+03 -0.68832630025E+03  0.73229038513E+03  0.10100000352E+00 0. -1.
</event>
<event>
 5   0  0.2863538E-03  0.4998587E+03  0.7818609E-02  0.1013816E+00
       -1   -1    0    0    0  501  0.00000000000E+00  0.00000000000E+00  0.72180626006E+03  0.72180626007E+03  0.50400001928E-02 0. -1.
        1   -1    0    0  501    0  0.00000000000E+00  0.00000000000E+00 -0.86539389942E+02  0.86539390089E+02  0.50400001928E-02 0.  1.
    10030    2    1    2    0    0  0.00000000000E+00  0.00000000000E+00  0.63526687011E+03  0.80834565016E+03  0.49985867390E+03 0.  0.
        1    1    3    3  502    0  0.49241909193E+02 -0.49739348700E+01  0.71380234023E+03  0.71551609807E+03  0.50400001928E-02 0. -1.
       -1    1    3    3    0  502 -0.49241909193E+02  0.49739348700E+01 -0.78535470121E+02  0.92829552092E+02  0.50400001928E-02 0.  1.
</event>
<event>
 5   0  0.5118882E-03  0.4999559E+03  0.7818609E-02  0.1013790E+00
       -2   -1    0    0    0  501  0.00000000000E+00  0.00000000000E+00  0.52733311404E+02  0.52733311466E+02  0.25500000920E-02 0.  1.
        2   -1    0    0  501    0  0.00000000000E+00  0.00000000000E+00 -0.11849998433E+04  0.11849998433E+04  0.25500000920E-02 0. -1.
    10030    2    1    2    0    0  0.00000000000E+00  0.00000000000E+00 -0.11322665319E+04  0.12377331547E+04  0.49995586120E+03 0.  0.
        3    1    3    3  502    0 -0.55825138477E+02  0.23859537924E+03 -0.44372436803E+03  0.50688808041E+03  0.10100000352E+00 0.  1.
       -3    1    3    3    0  502  0.55825138477E+02 -0.23859537924E+03 -0.68854216383E+03  0.73084507431E+03  0.10100000352E+00 0. -1.
</event>
<event>
 5   0  0.4889251E-03  0.4998681E+03  0.7818609E-02  0.1013813E+00
       -2   -1    0    0    0  501  0.00000000000E+00  0.00000000000E+00  0.16381393151E+03  0.16381393153E+03  0.25500000920E-02 0.  1.
        2   -1    0    0  501    0  0.00000000000E+00  0.00000000000E+00 -0.38132918388E+03  0.38132918389E+03  0.25500000920E-02 0. -1.
    10030    2    1    2    0    0  0.00000000000E+00  0.00000000000E+00 -0.21751525237E+03  0.54514311541E+03  0.49986811387E+03 0.  0.
        5    1    3    3  502    0  0.10198260498E+03  0.18039018774E+03 -0.26106309868E+03  0.33334232111E+03  0.46999998093E+01 0. -1.
       -5    1    3    3    0  502 -0.10198260498E+03 -0.18039018774E+03  0.43547846308E+02  0.21180079431E+03  0.46999998093E+01 0.  1.
</event>
<event>
 5   0  0.3211775E-03  0.4992182E+03  0.7818609E-02  0.1013983E+00
       -1   -1    0    0    0  501  0.00000000000E+00  0.00000000000E+00  0.20714088549E+03  0.20714088555E+03  0.50400001928E-02 0. -1.
        1   -1    0    0  501    0  0.00000000000E+00  0.00000000000E+00 -0.30078421912E+03  0.30078421917E+03  0.50400001928E-02 0.  1.
    10030    2    1    2    0    0  0.00000000000E+00  0.00000000000E+00 -0.93643333634E+02  0.50792510472E+03  0.49921822690E+03 0.  0.
        4    1    3    3  502    0  0.17548325894E+02  0.18591561864E+03  0.12168860896E+03  0.22289524770E+03  0.12699999809E+01 0. -1.
       -4    1    3    3    0  502 -0.17548325894E+02 -0.18591561864E+03 -0.21533194259E+03  0.28502985702E+03  0.12699999809E+01 0.  1.
</event>
<event>
 5   0  0.3013734E-03  0.5000628E+03  0.7818609E-02  0.1013763E+00
       -1   -1    0    0    0  501  0.00000000000E+00  0.00000000000E+00  0.27623538504E+03  0.27623538509E+03  0.50400001928E-02 0.  1.
        1   -1    0    0  501    0  0.00000000000E+00  0.00000000000E+00 -0.22631316476E+03  0.22631316482E+03  0.50400001928E-02 0. -1.
    10030    2    1    2    0    0  0.00000000000E+00  0.00000000000E+00  0.49922220280E+02  0.50254854991E+03  0.50006281299E+03 0.  0.
        2    1    3    3  502    0 -0.21025111902E+02  0.13268510563E+03  0.23688444765E+03  0.27232633757E+03  0.25500000920E-02 0.  1.
       -2    1    3    3    0  502  0.21025111902E+02 -0.13268510563E+03 -0.18696222737E+03  0.23022221234E+03  0.25500000920E-02 0. -1.
</event>
<event>
 5   0  0.5095783E-03  0.4997864E+03  0.7818609E-02  0.1013835E+00
       -2   -1    0    0    0  501  0.00000000000E+00  0.00000000000E+00  0.29911630197E+03  0.29911630198E+03  0.25500000920E-02 0.  1.
        2   -1    0    0  501    0  0.00000000000E+00  0.00000000000E+00 -0.20877032558E+03  0.20877032560E+03  0.25500000920E-02 0. -1.
    10030    2    1    2    0    0  0.00000000000E+00  0.00000000000E+00  0.90345976392E+02  0.50788662758E+03  0.49978638540E+03 0.  0.
        4    1    3    3  502    0 -0.51501755564E+02 -0.21205326895E+03  0.16890839510E+03  0.27595412397E+03  0.12699999809E+01 0.  1.
       -4    1    3    3    0  502  0.51501755564E+02  0.21205326895E+03 -0.78562418709E+02  0.23193250361E+03  0.12699999809E+01 0. -1.
</event>
<event>
 5   0  0.5095783E-03  0.4998103E+03  0.7818609E-02  0.1013828E+00
       -2   -1    0    0    0  501  0.00000000000E+00  0.00000000000E+00  0.11171156503E+03  0.11171156506E+03  0.25500000920E-02 0. -1.
        2   -1    0    0  501    0  0.00000000000E+00  0.00000000000E+00 -0.55905198471E+03  0.55905198471E+03  0.25500000920E-02 0.  1.
    10030    2    1    2    0    0  0.00000000000E+00  0.00000000000E+00 -0.44734041967E+03  0.67076354978E+03  0.49981025263E+03 0.  0.
        4    1    3    3  502    0 -0.14062528912E+03  0.19306268059E+03 -0.32231023806E+03  0.40116601680E+03  0.12699999809E+01 0.  1.
       -4    1    3    3    0  502  0.14062528912E+03 -0.19306268059E+03 -0.12503018161E+03  0.26959753298E+03  0.12699999809E+01 0. -1.
</event>
<event>
 5   0  0.4989875E-03  0.4998829E+03  0.7818609E-02  0.1013809E+00
       -2   -1    0    0    0  501  0.00000000000E+00  0.00000000000E+00  0.10521746437E+03  0.10521746440E+03  0.25500000920E-02 0.  1.
        2   -1    0    0  501    0  0.00000000000E+00  0.00000000000E+00 -0.59372969726E+03  0.59372969727E+03  0.25500000920E-02 0. -1.
    10030    2    1    2    0    0  0.00000000000E+00  0.00000000000E+00 -0.48851223289E+03  0.69894716167E+03  0.49988291941E+03 0.  0.
        2    1    3    3  502    0 -0.15332697999E+03  0.19271814919E+03 -0.18458487720E+03  0.30776780975E+03  0.25500000920E-02 0. -1.
       -2    1    3    3    0  502  0.15332697999E+03 -0.19271814919E+03 -0.30392735570E+03  0.39117935192E+03  0.25500000920E-02 0.  1.
</event>
<event>
 5   0  0.4978779E-03  0.4995469E+03  0.7818609E-02  0.1013897E+00
        2   -1    0    0  501    0  0.00000000000E+00  0.00000000000E+00  0.58993028305E+03  0.58993028306E+03  0.25500000920E-02 0.  1.
       -2   -1    0    0    0  501  0.00000000000E+00  0.00000000000E+00 -0.10575278233E+03  0.10575278236E+03  0.25500000920E-02 0. -1.
    10030    2    1    2    0    0  0.00000000000E+00  0.00000000000E+00  0.48417750072E+03  0.69568306542E+03  0.49954686998E+03 0.  0.
        1    1    3    3  502    0  0.17102058372E+03 -0.58056966988E+02  0.18124844873E+01  0.18061543842E+03  0.50400001928E-02 0. -1.
       -1    1    3    3    0  502 -0.17102058372E+03  0.58056966988E+02  0.48236501623E+03  0.51506762700E+03  0.50400001928E-02 0.  1.
</event>
<event>
 5   0  0.5095783E-03  0.5000459E+03  0.7818609E-02  0.1013767E+00
       -2   -1    0    0    0  501  0.00000000000E+00  0.00000000000E+00  0.14696038594E+03  0.14696038597E+03  0.25500000920E-02 0. -1.
        2   -1    0    0  501    0  0.00000000000E+00  0.00000000000E+00 -0.42536283354E+03  0.42536283355E+03  0.25500000920E-02 0.  1.
    10030    2    1    2    0    0  0.00000000000E+00  0.00000000000E+00 -0.27840244759E+03  0.57232321951E+03  0.50004594266E+03 0.  0.
        4    1    3    3  502    0  0.18872352108E+02  0.64549079043E+02 -0.41481266550E+03  0.42023078141E+03  0.12699999809E+01 0.  1.
       -4    1    3    3    0  502 -0.18872352108E+02 -0.64549079043E+02  0.13641021791E+03  0.15209243811E+03  0.12699999809E+01 0. -1.
</event>
<event>
 5   0  0.4889251E-03  0.4981343E+03  0.7818609E-02  0.1014267E+00
       -2   -1    0    0    0  501  0.00000000000E+00  0.00000000000E+00  0.78211899058E+02  0.78211899100E+02  0.25500000920E-02 0.  1.
        2   -1    0    0  501    0  0.00000000000E+00  0.00000000000E+00 -0.79315861990E+03  0.79315861991E+03  0.25500000920E-02 0. -1.
    10030    2    1    2    0    0  0.00000000000E+00  0.00000000000E+00 -0.71494672084E+03  0.87137051901E+03  0.49813428686E+03 0.  0.
        5    1    3    3  502    0 -0.98916478032E+01  0.22540139166E+03 -0.54184258737E+03  0.58695750404E+03  0.46999998093E+01 0. -1.
       -5    1    3    3    0  502  0.98916478032E+01 -0.22540139166E+03 -0.17310413347E+03  0.28441301497E+03  0.46999998093E+01 0.  1.
</event>
<event>
 5   0  0.2005125E-03  0.5003917E+03  0.7818609E-02  0.1013677E+00
        3   -1    0    0  501    0  0.00000000000E+00  0.00000000000E+00  0.10861685330E+04  0.10861685377E+04  0.10100000352E+00 0.  1.
       -3   -1    0    0    0  501  0.00000000000E+00  0.00000000000E+00 -0.57631852196E+02  0.57631940697E+02  0.10100000352E+00 0. -1.
    10030    2    1    2    0    0  0.00000000000E+00  0.00000000000E+00  0.10285366808E+04  0.11438004784E+04  0.50039167720E+03 0.  0.
        3    1    3    3  502    0 -0.32805111875E+02  0.14473636706E+03  0.53842602981E+02  0.15787282037E+03  0.10100000352E+00 0. -1.
       -3    1    3    3    0  502  0.32805111875E+02 -0.14473636706E+03  0.97469407781E+03  0.98592765801E+03  0.10100000352E+00 0.  1.
</event>
<event>
 5   0  0.2863538E-03  0.4996598E+03  0.7818609E-02  0.1013868E+00
        1   -1    0    0  501    0  0.00000000000E+00  0.00000000000E+00  0.48428855948E+02  0.48428856210E+02  0.50400001928E-02 0.  1.
       -1   -1    0    0    0  501  0.00000000000E+00  0.00000000000E+00 -0.12887971529E+04  0.12887971529E+04  0.50400001928E-02 0. -1.
    10030    2    1    2    0    0  0.00000000000E+00  0.00000000000E+00 -0.12403682970E+04  0.13372260091E+04  0.49965977163E+03 0.  0.
        1    1    3    3  502    0  0.76707024698E+02 -0.11403877749E+03 -0.61835313829E+02  0.15070639161E+03  0.50400001928E-02 0.  1.
       -1    1    3    3    0  502 -0.76707024698E+02  0.11403877749E+03 -0.11785329831E+04  0.11865196175E+04  0.50400001928E-02 0. -1.
</event>
<event>
 5   0  0.2863538E-03  0.5000222E+03  0.7818609E-02  0.1013773E+00
        1   -1    0    0  501    0  0.00000000000E+00  0.00000000000E+00  0.12503652882E+03  0.12503652892E+03  0.50400001928E-02 0. -1.
       -1   -1    0    0    0  501  0.00000000000E+00  0.00000000000E+00 -0.49989834908E+03  0.49989834910E+03  0.50400001928E-02 0.  1.
    10030    2    1    2    0    0  0.00000000000E+00  0.00000000000E+00 -0.37486182026E+03  0.62493487802E+03  0.50002221699E+03 0.  0.
        1    1    3    3  502    0 -0.47563233393E+01  0.24083129926E+03 -0.10374731225E+03  0.26227055142E+03  0.50400001928E-02 0. -1.
       -1    1    3    3    0  502  0.47563233393E+01 -0.24083129926E+03 -0.27111450801E+03  0.36266432661E+03  0.50400001928E-02 0.  1.
</event>
<event>
 5   0  0.3211775E-03  0.4998572E+03  0.7818609E-02  0.1013816E+00
        1   -1    0    0  501    0  0.00000000000E+00  0.00000000000E+00  0.14956166472E+03  0.14956166480E+03  0.50400001928E-02 0.  1.
       -1   -1    0    0    0  501  0.00000000000E+00  0.00000000000E+00 -0.41764922532E+03  0.41764922535E+03  0.50400001928E-02 0. -1.
    10030    2    1    2    0    0  0.00000000000E+00  0.00000000000E+00 -0.26808756060E+03  0.56721089016E+03  0.49985723338E+03 0.  0.
        4    1    3    3  502    0  0.77571805264E+02  0.23704940863E+03 -0.15208921540E+03  0.29213447151E+03  0.12699999809E+01 0.  1.
       -4    1    3    3    0  502 -0.77571805264E+02 -0.23704940863E+03 -0.11599834520E+03  0.27507641864E+03  0.12699999809E+01 0. -1.
</event>
<event>
 5   0  0.2863538E-03  0.4999684E+03  0.7818609E-02  0.1013787E+00
       -1   -1    0    0    0  501  0.00000000000E+00  0.00000000000E+00  0.46737935592E+02  0.46737935864E+02  0.50400001928E-02 0. -1.
        1   -1    0    0  501    0  0.00000000000E+00  0.00000000000E+00 -0.13370742819E+04  0.13370742819E+04  0.50400001928E-02 0.  1.
    10030    2    1    2    0    0  0.00000000000E+00  0.00000000000E+00 -0.12903363463E+04  0.13838122178E+04  0.49996836645E+03 0.  0.
        1    1    3    3  502    0  0.31678013881E+00 -0.88722855900E+02 -0.12920299077E+04  0.12950726342E+04  0.50400001928E-02 0.  1.
       -1    1    3    3    0  502 -0.31678013881E+00  0.88722855900E+02  0.16935614122E+01  0.88739583526E+02  0.50400001928E-02 0. -1.
</event>
<event>
 5   0  0.4978779E-03  0.5001011E+03  0.7818609E-02  0.1013753E+00
       -2   -1    0    0    0  501  0.00000000000E+00  0.00000000000E+00  0.25762598083E+03  0.25762598085E+03  0.25500000920E-02 0.  1.
        2   -1    0    0  501    0  0.00000000000E+00  0.00000000000E+00 -0.24269788189E+03  0.24269788190E+03  0.25500000920E-02 0. -1.
    10030    2    1    2    0    0  0.00000000000E+00  0.00000000000E+00  0.14928098945E+02  0.50032386275E+03  0.50010110927E+03 0.  0.
        1    1    3    3  502    0  0.93862424689E+02  0.22212992899E+03  0.73625341664E+02  0.25213597737E+03  0.50400001928E-02 0.  1.
       -1    1    3    3    0  502 -0.93862424689E+02 -0.22212992899E+03 -0.58697242719E+02  0.24818788538E+03  0.50400001928E-02 0. -1.
</event>
<event>
 5   0  0.5095783E-03  0.4999213E+03  0.7818609E-02  0.1013799E+00
       -2   -1    0    0    0  501  0.00000000000E+00  0.00000000000E+00  0.46852063805E+02  0.46852063874E+02  0.25500000920E-02 0.  1.
        2   -1    0    0  501    0  0.00000000000E+00  0.00000000000E+00 -0.13335662915E+04  0.13335662915E+04  0.25500000920E-02 0. -1.
    10030    2    1    2    0    0  0.00000000000E+00  0.00000000000E+00 -0.12867142277E+04  0.13804183554E+04  0.49992132592E+03 0.  0.
        4    1    3    3  502    0 -0.10515532987E+03  0.17803075782E+03 -0.25553732702E+03  0.32871497157E+03  0.12699999809E+01 0.  1.
       -4    1    3    3    0  502  0.10515532987E+03 -0.17803075782E+03 -0.10311769007E+04  0.10517033838E+04  0.12699999809E+01 0. -1.
</event>
<event>
 5   0  0.4989875E-03  0.5000301E+03  0.7818609E-02  0.1013771E+00
        2   -1    0    0  501    0  0.00000000000E+00  0.00000000000E+00  0.94702526937E+03  0.94702526937E+03  0.25500000920E-02 0.  1.
       -2   -1    0    0    0  501  0.00000000000E+00  0.00000000000E+00 -0.66004075537E+02  0.66004075586E+02  0.25500000920E-02 0. -1.
    10030    2    1    2    0    0  0.00000000000E+00  0.00000000000E+00  0.88102119383E+03  0.10130293450E+04  0.50003010886E+03 0.  0.
        2    1    3    3  502    0  0.64407436636E+02  0.22366480758E+03  0.62545169190E+03  0.66735603912E+03  0.25500000920E-02 0.  1.
       -2    1    3    3    0  502 -0.64407436636E+02 -0.22366480758E+03  0.25556950193E+03  0.34567330584E+03  0.25500000920E-02 0. -1.
</event>
<event>
 5   0  0.3057783E-03  0.4994369E+03  0.7818609E-02  0.1013926E+00
        1   -1    0    0  501    0  0.00000000000E+00  0.00000000000E+00  0.61684382589E+03  0.61684382591E+03  0.50400001928E-02 0. -1.
       -1   -1    0    0    0  501  0.00000000000E+00  0.00000000000E+00 -0.10109414378E+03  0.10109414391E+03  0.50400001928E-02 0.  1.
    10030    2    1    2    0    0  0.00000000000E+00  0.00000000000E+00  0.51574968211E+03  0.71793796982E+03  0.49943687680E+03 0.  0.
        5    1    3    3  502    0  0.20970830880E+03 -0.38667067477E+02  0.71196925408E+02  0.22486397905E+03  0.46999998093E+01 0.  1.
       -5    1    3    3    0  502 -0.20970830880E+03  0.38667067477E+02  0.44455275670E+03  0.49307399077E+03  0.46999998093E+01 0. -1.
</event>
<event>
 5   0  0.3055293E-03  0.5001686E+03  0.7818609E-02  0.1013735E+00
       -1   -1    0    0    0  501  0.00000000000E+00  0.00000000000E+00  0.16848565028E+03  0.16848565035E+03  0.50400001928E-02 0. -1.
        1   -1    0    0  501    0  0.00000000000E+00  0.00000000000E+00 -0.37120166077E+03  0.37120166080E+03  0.50400001928E-02 0.  1.
    10030    2    1    2    0    0  0.00000000000E+00  0.00000000000E+00 -0.20271601049E+03  0.53968731116E+03  0.50016858449E+03 0.  0.
        3    1    3    3  502    0  0.67943310304E+01 -0.50483439317E+02 -0.36554472456E+03  0.36907681644E+03  0.10100000352E+00 0.  1.
       -3    1    3    3    0  502 -0.67943310304E+01  0.50483439317E+02  0.16282871407E+03  0.17061049471E+03  0.10100000352E+00 0. -1.
</event>
<event>
 5   0  0.4978779E-03  0.4999033E+03  0.7818609E-02  0.1013804E+00
        2   -1    0    0  501    0  0.00000000000E+00  0.00000000000E+00  0.92799275114E+02  0.92799275149E+02  0.25500000920E-02 0.  1.
       -2   -1    0    0    0  501  0.00000000000E+00  0.00000000000E+00 -0.67323608008E+03  0.67323608008E+03  0.25500000920E-02 0. -1.
    10030    2    1    2    0    0  0.00000000000E+00  0.00000000000E+00 -0.58043680496E+03  0.76603535523E+03  0.49990327155E+03 0.  0.
        1    1    3    3  502    0  0.11292030566E+03  0.18835952355E+03 -0.47311343386E+03  0.52160006409E+03  0.50400001928E-02 0. -1.
       -1    1    3    3    0  502 -0.11292030566E+03 -0.18835952355E+03 -0.10732337111E+03  0.24443529114E+03  0.50400001928E-02 0.  1.
</event>
<event>
 5   0  0.3211775E-03  0.5000281E+03  0.7818609E-02  0.1013772E+00
        1   -1    0    0  501    0  0.00000000000E+00  0.00000000000E+00  0.56994130964E+03  0.56994130967E+03  0.50400001928E-02 0.  1.
       -1   -1    0    0    0  501  0.00000000000E+00  0.00000000000E+00 -0.10967273247E+03  0.10967273258E+03  0.50400001928E-02 0. -1.
    10030    2    1    2    0    0  0.00000000000E+00  0.00000000000E+00  0.46026857718E+03  0.67961404225E+03  0.50002808250E+03 0.  0.
        4    1    3    3  502    0 -0.20749303236E+03  0.12704608537E+03  0.15192290969E+03  0.28683836856E+03  0.12699999809E+01 0. -1.
       -4    1    3    3    0  502  0.20749303236E+03 -0.12704608537E+03  0.30834566749E+03  0.39277567369E+03  0.12699999809E+01 0.  1.
</event>
<event>
 5   0  0.2863538E-03  0.4999484E+03  0.7818609E-02  0.1013792E+00
        1   -1    0    0  501    0  0.00000000000E+00  0.00000000000E+00  0.35846770620E+03  0.35846770624E+03  0.50400001928E-02 0.  1.
       -1   -1    0    0    0  501  0.00000000000E+00  0.00000000000E+00 -0.17431720645E+03  0.17431720652E+03  0.50400001928E-02 0. -1.
    10030    2    1    2    0    0  0.00000000000E+00  0.00000000000E+00  0.18415049976E+03  0.53278491276E+03  0.49994835403E+03 0.  0.
        1    1    3    3  502    0  0.67382884387E+02  0.20058940113E+03 -0.49746399553E+02  0.21737356152E+03  0.50400001928E-02 0. -1.
       -1    1    3    3    0  502 -0.67382884387E+02 -0.20058940113E+03  0.23389689931E+03  0.31541135123E+03  0.50400001928E-02 0.  1.
</event>
<event>
 5   0  0.2863538E-03  0.4997111E+03  0.7818609E-02  0.1013854E+00
        1   -1    0    0  501    0  0.00000000000E+00  0.00000000000E+00  0.48038288438E+03  0.48038288440E+03  0.50400001928E-02 0.  1.
       -1   -1    0    0    0  501  0.00000000000E+00  0.00000000000E+00 -0.12995426817E+03  0.12995426827E+03  0.50400001928E-02 0. -1.
    10030    2    1    2    0    0  0.00000000000E+00  0.00000000000E+00  0.35042861620E+03  0.61033715268E+03  0.49971114144E+03 0.  0.
        1    1    3    3  502    0  0.96510672282E+02  0.74794198054E+02  0.44146203151E+03  0.45803625099E+03  0.50400001928E-02 0.  1.
       -1    1    3    3    0  502 -0.96510672282E+02 -0.74794198054E+02 -0.91033415310E+02  0.15230090169E+03  0.50400001928E-02 0. -1.
</event>
<event>
 5   0  0.2005125E-03  0.5001463E+03  0.7818609E-02  0.1013741E+00
        3   -1    0    0  501    0  0.00000000000E+00  0.00000000000E+00  0.81468287348E+03  0.81468287974E+03  0.10100000352E+00 0.  1.
       -3   -1    0    0    0  501  0.00000000000E+00  0.00000000000E+00 -0.76761826331E+02  0.76761892777E+02  0.10100000352E+00 0. -1.
    10030    2    1    2    0    0  0.00000000000E+00  0.00000000000E+00  0.73792104714E+03  0.89144477251E+03  0.50014628922E+03 0.  0.
        4    1    3    3  502    0 -0.17015766611E+03 -0.68465277131E+02  0.67193079622E+03  0.69651542217E+03  0.12699999809E+01 0.  1.
       -4    1    3    3    0  502  0.17015766611E+03  0.68465277131E+02  0.65990250928E+02  0.19492935035E+03  0.12699999809E+01 0. -1.
</event>
<event>
 5   0  0.3057783E-03  0.5000482E+03  0.7818609E-02  0.1013766E+00
        1   -1    0    0  501    0  0.00000000000E+00  0.00000000000E+00  0.42011449715E+03  0.42011449718E+03  0.50400001928E-02 0.  1.
       -1   -1    0    0    0  501  0.00000000000E+00  0.00000000000E+00 -0.14879764225E+03  0.14879764234E+03  0.50400001928E-02 0. -1.
    10030    2    1    2    0    0  0.00000000000E+00  0.00000000000E+00  0.27131685490E+03  0.56891213952E+03  0.50004818442E+03 0.  0.
        5    1    3    3  502    0 -0.17267692799E+03 -0.12939867444E+03  0.27924783331E+03  0.35293452766E+03  0.46999998093E+01 0.  1.
       -5    1    3    3    0  502  0.17267692799E+03  0.12939867444E+03 -0.79309784118E+01  0.21597761186E+03  0.46999998093E+01 0. -1.
</event>
<event>
 5   0  0.3055293E-03  0.5000790E+03  0.7818609E-02  0.1013758E+00
        1   -1    0    0  501    0  0.00000000000E+00  0.00000000000E+00  0.96362642728E+02  0.96362642860E+02  0.50400001928E-02 0. -1.
       -1   -1    0    0    0  501  0.00000000000E+00  0.00000000000E+00 -0.64879646789E+03  0.64879646791E+03  0.50400001928E-02 0.  1.
    10030    2    1    2    0    0  0.00000000000E+00  0.00000000000E+00 -0.55243382516E+03  0.74515911077E+03  0.50007896294E+03 0.  0.
        3    1    3    3  502    0 -0.70593671686E+02  0.11776494281E+03  0.35162940393E+02  0.14173387321E+03  0.10100000352E+00 0. -1.
       -3    1    3    3    0  502  0.70593671686E+02 -0.11776494281E+03 -0.58759676555E+03  0.60342523756E+03  0.10100000352E+00 0.  1.
</event>
<event>
 5   0  0.5095783E-03  0.5000155E+03  0.7818609E-02  0.1013775E+00
       -2   -1    0    0    0  501  0.00000000000E+00  0.00000000000E+00  0.43765624590E+02  0.43765624665E+02  0.25500000920E-02 0. -1.
        2   -1    0    0  501    0  0.00000000000E+00  0.00000000000E+00 -0.14281498041E+04  0.14281498041E+04  0.25500000920E-02 0.  1.
    10030    2    1    2    0    0  0.00000000000E+00  0.00000000000E+00 -0.13843841795E+04  0.14719154287E+04  0.50001547272E+03 0.  0.
        4    1    3    3  502    0  0.43622884883E+01  0.73757736636E+02 -0.13952655056E+04  0.13972210552E+04  0.12699999809E+01 0.  1.
       -4    1    3    3    0  502 -0.43622884883E+01 -0.73757736636E+02  0.10881326091E+02  0.74694373496E+02  0.12699999809E+01 0. -1.
</event>
<event>
 5   0  0.4978779E-03  0.5000952E+03  0.7818609E-02  0.1013754E+00
        2   -1    0    0  501    0  0.00000000000E+00  0.00000000000E+00  0.80802008373E+03  0.80802008373E+03  0.25500000920E-02 0. -1.
       -2   -1    0    0    0  501  0.00000000000E+00  0.00000000000E+00 -0.77379033105E+02  0.77379033147E+02  0.25500000920E-02 0.  1.
    10030    2    1    2    0    0  0.00000000000E+00  0.00000000000E+00  0.73064105062E+03  0.88539911688E+03  0.50009524224E+03 0.  0.
        1    1    3    3  502    0 -0.41147782048E+02 -0.10242690706E+03 -0.31907961354E+02  0.11490225968E+03  0.50400001928E-02 0.  1.
       -1    1    3    3    0  502  0.41147782048E+02  0.10242690706E+03  0.76254901197E+03  0.77049685719E+03  0.50400001928E-02 0. -1.
</event>
<event>
 5   0  0.3211775E-03  0.4999092E+03  0.7818609E-02  0.1013803E+00
        1   -1    0    0  501    0  0.00000000000E+00  0.00000000000E+00  0.24506937555E+03  0.24506937560E+03  0.50400001928E-02 0. -1.
       -1   -1    0    0    0  501  0.00000000000E+00  0.00000000000E+00 -0.25493718988E+03  0.25493718993E+03  0.50400001928E-02 0.  1.
    10030    2    1    2    0    0  0.00000000000E+00  0.00000000000E+00 -0.98678143317E+01  0.50000656552E+03  0.49990918356E+03 0.  0.
        4    1    3    3  502    0  0.18164249424E+03  0.65918582902E+02 -0.16350951639E+03  0.25313283101E+03  0.12699999809E+01 0.  1.
       -4    1    3    3    0  502 -0.18164249424E+03 -0.65918582902E+02  0.15364170205E+03  0.24687373452E+03  0.12699999809E+01 0. -1.
</event>
<event>
 5   0  0.4889251E-03  0.5001799E+03  0.7818609E-02  0.1013732E+00
        2   -1    0    0  501    0  0.00000000000E+00  0.00000000000E+00  0.53866238824E+03  0.53866238825E+03  0.25500000920E-02 0.  1.
       -2   -1    0    0    0  501  0.00000000000E+00  0.00000000000E+00 -0.11611164425E+03  0.11611164428E+03  0.25500000920E-02 0. -1.
    10030    2    1    2    0    0  0.00000000000E+00  0.00000000000E+00  0.42255074399E+03  0.65477403253E+03  0.50017987007E+03 0.  0.
        5    1    3    3  502    0  0.65273009696E+02 -0.10074859662E+03  0.49841433293E+03  0.51268877770E+03  0.46999998093E+01 0.  1.
       -5    1    3    3    0  502 -0.65273009696E+02  0.10074859662E+03 -0.75863588936E+02  0.14208525483E+03  0.46999998093E+01 0. -1.
</event>
<event>
 5   0  0.3211775E-03  0.4998710E+03  0.7818609E-02  0.1013813E+00
       -1   -1    0    0    0  501  0.00000000000E+00  0.00000000000E+00  0.98588629905E+02  0.98588630034E+02  0.50400001928E-02 0. -1.
        1   -1    0    0  501    0  0.00000000000E+00  0.00000000000E+00 -0.63362024161E+03  0.63362024163E+03  0.50400001928E-02 0.  1.
    10030    2    1    2    0    0  0.00000000000E+00  0.00000000000E+00 -0.53503161171E+03  0.73220887167E+03  0.49987098958E+03 0.  0.
        4    1    3    3  502    0  0.12963493260E+03  0.39579481878E+01  0.45434142872E+02  0.13742909205E+03  0.12699999809E+01 0. -1.
       -4    1    3    3    0  502 -0.12963493260E+03 -0.39579481878E+01 -0.58046575458E+03  0.59477977962E+03  0.12699999809E+01 0.  1.
</event>
<event>
 5   0  0.2863538E-03  0.5000173E+03  0.7818609E-02  0.1013774E+00
        1   -1    0    0  501    0  0.00000000000E+00  0.00000000000E+00  0.40314798780E+03  0.40314798783E+03  0.50400001928E-02 0. -1.
       -1   -1    0    0    0  501  0.00000000000E+00  0.00000000000E+00 -0.15504062801E+03  0.15504062810E+03  0.50400001928E-02 0.  1.
    10030    2    1    2    0    0  0.00000000000E+00  0.00000000000E+00  0.24810735979E+03  0.55818861593E+03  0.50001726867E+03 0.  0.
        1    1    3    3  502    0  0.76519608344E+02  0.56230650549E+02  0.38223262675E+03  0.39385139012E+03  0.50400001928E-02 0. -1.
       -1    1    3    3    0  502 -0.76519608344E+02 -0.56230650549E+02 -0.13412526696E+03  0.16433722581E+03  0.50400001928E-02 0.  1.
</event>
<event>
 5   0  0.2863538E-03  0.4999537E+03  0.7818609E-02  0.1013791E+00
        1   -1    0    0  501    0  0.00000000000E+00  0.00000000000E+00  0.57713545841E+03  0.57713545843E+03  0.50400001928E-02 0.  1.
       -1   -1    0    0    0  501  0.00000000000E+00  0.00000000000E+00 -0.10827342730E+03  0.10827342742E+03  0.50400001928E-02 0. -1.
    10030    2    1    2    0    0  0.00000000000E+00  0.00000000000E+00  0.46886203111E+03  0.68540888585E+03  0.49995373445E+03 0.  0.
        1    1    3    3  502    0 -0.14158644915E+03  0.18948527933E+03  0.12358744679E+03  0.26688059258E+03  0.50400001928E-02 0. -1.
       -1    1    3    3    0  502  0.14158644915E+03 -0.18948527933E+03  0.34527458432E+03  0.41852829327E+03  0.50400001928E-02 0.  1.
</event>
<event>
 5   0  0.3055293E-03  0.5000471E+03  0.7818609E-02  0.1013767E+00
        1   -1    0    0  501    0  0.00000000000E+00  0.00000000000E+00  0.11686440053E+04  0.11686440053E+04  0.50400001928E-02 0.  1.
       -1   -1    0    0    0  501  0.00000000000E+00  0.00000000000E+00 -0.53490872330E+02  0.53490872568E+02  0.50400001928E-02 0. -1.
    10030    2    1    2    0    0  0.00000000000E+00  0.00000000000E+00  0.11151531330E+04  0.12221348779E+04  0.50004714754E+03 0.  0.
        3    1    3    3  502    0 -0.33152394796E+02  0.10021226603E+03  0.36351940417E+01  0.10561630736E+03  0.10100000352E+00 0. -1.
       -3    1    3    3    0  502  0.33152394796E+02 -0.10021226603E+03  0.11115179389E+04  0.11165185705E+04  0.10100000352E+00 0.  1.
</event>
<event>
 5   0  0.4889251E-03  0.4999552E+03  0.7818609E-02  0.1013791E+00
       -2   -1    0    0    0  501  0.00000000000E+00  0.00000000000E+00  0.80912364674E+02  0.80912364714E+02  0.25500000920E-02 0.  1.
        2   -1    0    0  501    0  0.00000000000E+00  0.00000000000E+00 -0.77230211668E+03  0.77230211669E+03  0.25500000920E-02 0. -1.
    10030    2    1    2    0    0  0.00000000000E+00  0.00000000000E+00 -0.69138975201E+03  0.85321448140E+03  0.49995516008E+03 0.  0.
        5    1    3    3  502    0 -0.20093545762E+03 -0.12045177292E+03 -0.49430488392E+03  0.54703116546E+03  0.46999998093E+01 0. -1.
       -5    1    3    3    0  502  0.20093545762E+03  0.12045177292E+03 -0.19708486809E+03  0.30618331594E+03  0.46999998093E+01 0.  1.
</event>
<event>
 5   0  0.4978779E-03  0.5002733E+03  0.7818609E-02  0.1013708E+00
       -2   -1    0    0    0  501  0.00000000000E+00  0.00000000000E+00  0.59265971489E+03  0.59265971490E+03  0.25500000920E-02 0.  1.
        2   -1    0    0  501    0  0.00000000000E+00  0.00000000000E+00 -0.10557213747E+03  0.10557213750E+03  0.25500000920E-02 0. -1.
    10030    2    1    2    0    0  0.00000000000E+00  0.00000000000E+00  0.48708757743E+03  0.69823185239E+03  0.50027333690E+03 0.  0.
        1    1    3    3  502    0 -0.24957588163E+03  0.16570855864E+02  0.24685807716E+03  0.35142797874E+03  0.50400001928E-02 0. -1.
       -1    1    3    3    0  502  0.24957588163E+03 -0.16570855864E+02  0.24022950027E+03  0.34680387365E+03  0.50400001928E-02 0.  1.
</event>
<event>
 5   0  0.3211775E-03  0.4999745E+03  0.7818609E-02  0.1013786E+00
        1   -1    0    0  501    0  0.00000000000E+00  0.00000000000E+00  0.23348194179E+03  0.23348194184E+03  0.50400001928E-02 0.  1.
       -1   -1    0    0    0  501  0.00000000000E+00  0.00000000000E+00 -0.26765936193E+03  0.26765936198E+03  0.50400001928E-02 0. -1.
    10030    2    1    2    0    0  0.00000000000E+00  0.00000000000E+00 -0.34177420145E+02  0.50114130382E+03  0.49997450970E+03 0.  0.
        4    1    3    3  502    0 -0.13342203845E+03  0.43230612799E+02  0.19032823293E+03  0.23642498890E+03  0.12699999809E+01 0.  1.
       -4    1    3    3    0  502  0.13342203845E+03 -0.43230612799E+02 -0.22450565307E+03  0.26471631493E+03  0.12699999809E+01 0. -1.
</event>
<event>
 5   0  0.3055293E-03  0.5002597E+03  0.7818609E-02  0.1013711E+00
       -1   -1    0    0    0  501  0.00000000000E+00  0.00000000000E+00  0.43791510065E+03  0.43791510068E+03  0.50400001928E-02 0.  1.
        1   -1    0    0  501    0  0.00000000000E+00  0.00000000000E+00 -0.14287003533E+03  0.14287003542E+03  0.50400001928E-02 0. -1.
    10030    2    1    2    0    0  0.00000000000E+00  0.00000000000E+00  0.29504506532E+03  0.58078513610E+03  0.50025971629E+03 0.  0.
        3    1    3    3  502    0 -0.60038617127E+02  0.15467500680E+03 -0.69786041762E+02  0.17999748637E+03  0.10100000352E+00 0. -1.
       -3    1    3    3    0  502  0.60038617127E+02 -0.15467500680E+03  0.36483110708E+03  0.40078764972E+03  0.10100000352E+00 0.  1.
</event>
<event>
 5   0  0.4889251E-03  0.4991976E+03  0.7818609E-02  0.1013989E+00
        2   -1    0    0  501    0  0.00000000000E+00  0.00000000000E+00  0.51109486455E+03  0.51109486456E+03  0.25500000920E-02 0. -1.
       -2   -1    0    0    0  501  0.00000000000E+00  0.00000000000E+00 -0.12189430181E+03  0.12189430184E+03  0.25500000920E-02 0.  1.
    10030    2    1    2    0    0  0.00000000000E+00  0.00000000000E+00  0.38920056274E+03  0.63298916639E+03  0.49919756283E+03 0.  0.
        5    1    3    3  502    0 -0.16818019296E+03 -0.10474332142E+03  0.38699480852E+03  0.43479053866E+03  0.46999998093E+01 0. -1.
       -5    1    3    3    0  502  0.16818019296E+03  0.10474332142E+03  0.22057542188E+01  0.19819862773E+03  0.46999998093E+01 0.  1.
</event>
<event>
 5   0  0.3055293E-03  0.4999872E+03  0.7818609E-02  0.1013782E+00
       -1   -1    0    0    0  501  0.00000000000E+00  0.00000000000E+00  0.25017412115E+03  0.25017412120E+03  0.50400001928E-02 0. -1.
        1   -1    0    0  501    0  0.00000000000E+00  0.00000000000E+00 -0.24981319116E+03  0.24981319121E+03  0.50400001928E-02 0.  1.
    10030    2    1    2    0    0  0.00000000000E+00  0.00000000000E+00  0.36092999070E+00  0.49998731241E+03  0.49998718214E+03 0.  0.
        3    1    3    3  502    0 -0.13487997708E+03  0.57376318217E+02  0.20269504876E+03  0.25013984709E+03  0.10100000352E+00 0. -1.
       -3    1    3    3    0  502  0.13487997708E+03 -0.57376318217E+02 -0.20233411877E+03  0.24984746532E+03  0.10100000352E+00 0.  1.
</event>
<event>
 5   0  0.2863538E-03  0.5000417E+03  0.7818609E-02  0.1013768E+00
       -1   -1    0    0    0  501  0.00000000000E+00  0.00000000000E+00  0.31079359910E+03  0.31079359914E+03  0.50400001928E-02 0. -1.
        1   -1    0    0  501    0  0.00000000000E+00  0.00000000000E+00 -0.20113162584E+03  0.20113162591E+03  0.50400001928E-02 0.  1.
    10030    2    1    2    0    0  0.00000000000E+00  0.00000000000E+00  0.10966197325E+03  0.51192522504E+03  0.50004168592E+03 0.  0.
        1    1    3    3  502    0 -0.18926600018E+03 -0.15897438112E+03  0.93354346426E+02  0.26421488736E+03  0.50400001928E-02 0. -1.
       -1    1    3    3    0  502  0.18926600018E+03  0.15897438112E+03  0.16307626828E+02  0.24771033769E+03  0.50400001928E-02 0.  1.
</event>
<event>
 5   0  0.5095783E-03  0.5003513E+03  0.7818609E-02  0.1013687E+00
        2   -1    0    0  501    0  0.00000000000E+00  0.00000000000E+00  0.73473904862E+03  0.73473904862E+03  0.25500000920E-02 0. -1.
       -2   -1    0    0    0  501  0.00000000000E+00  0.00000000000E+00 -0.85183796967E+02  0.85183797005E+02  0.25500000920E-02 0.  1.
    10030    2    1    2    0    0  0.00000000000E+00  0.00000000000E+00  0.64955525165E+03  0.81992284563E+03  0.50035132441E+03 0.  0.
        4    1    3    3  502    0 -0.14854942176E+03  0.15232453102E+03  0.10913794042E+03  0.23912840985E+03  0.12699999809E+01 0.  1.
       -4    1    3    3    0  502  0.14854942176E+03 -0.15232453102E+03  0.54041731123E+03  0.58079443578E+03  0.12699999809E+01 0. -1.
</event>
<event>
 5   0  0.4989875E-03  0.5000858E+03  0.7818609E-02  0.1013757E+00
        2   -1    0    0  501    0  0.00000000000E+00  0.00000000000E+00  0.33103547222E+03  0.33103547223E+03  0.25500000920E-02 0.  1.
       -2   -1    0    0    0  501  0.00000000000E+00  0.00000000000E+00 -0.18886630480E+03  0.18886630482E+03  0.25500000920E-02 0. -1.
    10030    2    1    2    0    0  0.00000000000E+00  0.00000000000E+00  0.14216916742E+03  0.51990177705E+03  0.50008577826E+03 0.  0.
        2    1    3    3  502    0  0.12466522836E+03 -0.21672909712E+03  0.74120163743E+02  0.26078097972E+03  0.25500000920E-02 0.  1.
       -2    1    3    3    0  502 -0.12466522836E+03  0.21672909712E+03  0.68049003678E+02  0.25912079733E+03  0.25500000920E-02 0. -1.
</event>
<event>
 5   0  0.3013734E-03  0.4999734E+03  0.7818609E-02  0.1013786E+00
        1   -1    0    0  501    0  0.00000000000E+00  0.00000000000E+00  0.26456179562E+03  0.26456179567E+03  0.50400001928E-02 0.  1.
       -1   -1    0    0    0  501  0.00000000000E+00  0.00000000000E+00 -0.23621452277E+03  0.23621452283E+03  0.50400001928E-02 0. -1.
    10030    2    1    2    0    0  0.00000000000E+00  0.00000000000E+00  0.28347272844E+02  0.50077631850E+03  0.49997335258E+03 0.  0.
        2    1    3    3  502    0 -0.18686506637E+03  0.40925355688E+02  0.17536656038E+03  0.25951275166E+03  0.25500000920E-02 0.  1.
       -2    1    3    3    0  502  0.18686506637E+03 -0.40925355688E+02 -0.14701928753E+03  0.24126356684E+03  0.25500000920E-02 0. -1.
</event>
<event>
 5   0  0.4989875E-03  0.4999265E+03  0.7818609E-02  0.1013798E+00
        2   -1    0    0  501    0  0.00000000000E+00  0.00000000000E+00  0.88869238663E+03  0.88869238664E+03  0.25500000920E-02 0.  1.
       -2   -1    0    0    0  501  0.00000000000E+00  0.00000000000E+00 -0.70307369094E+02  0.70307369140E+02  0.25500000920E-02 0. -1.
    10030    2    1    2    0    0  0.00000000000E+00  0.00000000000E+00  0.81838501754E+03  0.95899975578E+03  0.49992648924E+03 0.  0.
        2    1    3    3  502    0  0.78837150515E+02  0.10658815887E+03  0.26919857573E+01  0.13260308709E+03  0.25500000920E-02 0. -1.
       -2    1    3    3    0  502 -0.78837150515E+02 -0.10658815887E+03  0.81569303178E+03  0.82639666869E+03  0.25500000920E-02 0.  1.
</event>
<event>
 5   0  0.3013734E-03  0.5000487E+03  0.7818609E-02  0.1013766E+00
        1   -1    0    0  501    0  0.00000000000E+00  0.00000000000E+00  0.10849115419E+04  0.10849115419E+04  0.50400001928E-02 0.  1.
       -1   -1    0    0    0  501  0.00000000000E+00  0.00000000000E+00 -0.57619604711E+02  0.57619604931E+02  0.50400001928E-02 0. -1.
    10030    2    1    2    0    0  0.00000000000E+00  0.00000000000E+00  0.10272919372E+04  0.11425311468E+04  0.50004869492E+03 0.  0.
        2    1    3    3  502    0  0.12496677375E+03 -0.15638545090E+03  0.85590757307E+03  0.87900561854E+03  0.25500000920E-02 0.  1.
       -2    1    3    3    0  502 -0.12496677375E+03  0.15638545090E+03  0.17138436413E+03  0.26352552830E+03  0.25500000920E-02 0. -1.
</event>
<event>
 5   0  0.3057783E-03  0.4998604E+03  0.7818609E-02  0.1013815E+00
        1   -1    0    0  501    0  0.00000000000E+00  0.00000000000E+00  0.42559463607E+03  0.42559463610E+03  0.50400001928E-02 0.  1.
       -1   -1    0    0    0  501  0.00000000000E+00  0.00000000000E+00 -0.14677134423E+03  0.14677134431E+03  0.50400001928E-02 0. -1.
    10030    2    1    2    0    0  0.00000000000E+00  0.00000000000E+00  0.27882329185E+03  0.57236598042E+03  0.49986036796E+03 0.  0.
        5    1    3    3  502    0  0.23992724852E+02  0.19125273368E+03  0.32150636799E+03  0.37488890840E+03  0.46999998093E+01 0.  1.
       -5    1    3    3    0  502 -0.23992724852E+02 -0.19125273368E+03 -0.42683076138E+02  0.19747707202E+03  0.46999998093E+01 0. -1.
</event>
<event>
 5   0  0.2863538E-03  0.4999761E+03  0.7818609E-02  0.1013785E+00
        1   -1    0    0  501    0  0.00000000000E+00  0.00000000000E+00  0.18311740320E+03  0.18311740327E+03  0.50400001928E-02 0.  1.
       -1   -1    0    0    0  501  0.00000000000E+00  0.00000000000E+00 -0.34127843780E+03  0.34127843783E+03  0.50400001928E-02 0. -1.
    10030    2    1    2    0    0  0.00000000000E+00  0.00000000000E+00 -0.15816103459E+03  0.52439584111E+03  0.49997608474E+03 0.  0.
        1    1    3    3  502    0 -0.46042757036E+02  0.20560856317E+03  0.62023621311E+02  0.21964003813E+03  0.50400001928E-02 0.  1.
       -1    1    3    3    0  502  0.46042757036E+02 -0.20560856317E+03 -0.22018465590E+03  0.30475580297E+03  0.50400001928E-02 0. -1.
</event>
<event>
 5   0  0.4989875E-03  0.5000754E+03  0.7818609E-02  0.1013759E+00
        2   -1    0    0  501    0  0.00000000000E+00  0.00000000000E+00  0.72708546523E+03  0.72708546523E+03  0.25500000920E-02 0.  1.
       -2   -1    0    0    0  501  0.00000000000E+00  0.00000000000E+00 -0.85985543933E+02  0.85985543971E+02  0.25500000920E-02 0. -1.
    10030    2    1    2    0    0  0.00000000000E+00  0.00000000000E+00  0.64109992130E+03  0.81307100920E+03  0.50007535125E+03 0.  0.
        2    1    3    3  502    0 -0.40669368804E+02 -0.24669920474E+03  0.31716120468E+03  0.40386349790E+03  0.25500000920E-02 0.  1.
       -2    1    3    3    0  502  0.40669368804E+02  0.24669920474E+03  0.32393871662E+03  0.40920751130E+03  0.25500000920E-02 0. -1.
</event>
<event>
 5   0  0.5095783E-03  0.5001451E+03  0.7818609E-02  0.1013741E+00
        2   -1    0    0  501    0  0.00000000000E+00  0.00000000000E+00  0.22453914935E+03  0.22453914937E+03  0.25500000920E-02 0.  1.
       -2   -1    0    0    0  501  0.00000000000E+00  0.00000000000E+00 -0.27850945331E+03  0.27850945332E+03  0.25500000920E-02 0. -1.
    10030    2    1    2    0    0  0.00000000000E+00  0.00000000000E+00 -0.53970303951E+02  0.50304860269E+03  0.50014508191E+03 0.  0.
        4    1    3    3  502    0 -0.14887908939E+03  0.69295862653E+02 -0.21667418392E+03  0.27187536614E+03  0.12699999809E+01 0. -1.
       -4    1    3    3    0  502  0.14887908939E+03 -0.69295862653E+02  0.16270387997E+03  0.23117323654E+03  0.12699999809E+01 0.  1.
</event>
<event>
 5   0  0.4978779E-03  0.5000400E+03  0.7818609E-02  0.1013768E+00
       -2   -1    0    0    0  501  0.00000000000E+00  0.00000000000E+00  0.12901257052E+03  0.12901257054E+03  0.25500000920E-02 0. -1.
        2   -1    0    0  501    0  0.00000000000E+00  0.00000000000E+00 -0.48452634378E+03  0.48452634379E+03  0.25500000920E-02 0.  1.
    10030    2    1    2    0    0  0.00000000000E+00  0.00000000000E+00 -0.35551377326E+03  0.61353891434E+03  0.50003995483E+03 0.  0.
        1    1    3    3  502    0  0.36575091213E+01 -0.50831072371E+02 -0.47808588283E+03  0.48079443287E+03  0.50400001928E-02 0.  1.
       -1    1    3    3    0  502 -0.36575091213E+01  0.50831072371E+02  0.12257210956E+03  0.13274448147E+03  0.50400001928E-02 0. -1.
</event>
<event>
 5   0  0.4978779E-03  0.5001190E+03  0.7818609E-02  0.1013748E+00
        2   -1    0    0  501    0  0.00000000000E+00  0.00000000000E+00  0.82484146388E+03  0.82484146389E+03  0.25500000920E-02 0. -1.
       -2   -1    0    0    0  501  0.00000000000E+00  0.00000000000E+00 -0.75808199863E+02  0.75808199906E+02  0.25500000920E-02 0.  1.
    10030    2    1    2    0    0  0.00000000000E+00  0.00000000000E+00  0.74903326402E+03  0.90064966379E+03  0.50011897213E+03 0.  0.
        1    1    3    3  502    0  0.76540950205E+02 -0.10137258106E+02  0.80283801910E+03  0.80654210429E+03  0.50400001928E-02 0. -1.
       -1    1    3    3    0  502 -0.76540950205E+02  0.10137258106E+02 -0.53804755080E+02  0.94107559499E+02  0.50400001928E-02 0.  1.
</event>
<event>
 5   0  0.3013734E-03  0.5025703E+03  0.7818609E-02  0.1013110E+00
        1   -1    0    0  501    0  0.00000000000E+00  0.00000000000E+00  0.65662594214E+03  0.65662594216E+03  0.50400001928E-02 0.  1.
       -1   -1    0    0    0  501  0.00000000000E+00  0.00000000000E+00 -0.96164693719E+02  0.96164693851E+02  0.50400001928E-02 0. -1.
    10030    2    1    2    0    0  0.00000000000E+00  0.00000000000E+00  0.56046124843E+03  0.75279063601E+03  0.50257032412E+03 0.  0.
        2    1    3    3  502    0  0.57534088333E+02 -0.19600857886E+03  0.61034259000E+02  0.21320111417E+03  0.25500000920E-02 0. -1.
       -2    1    3    3    0  502 -0.57534088333E+02  0.19600857886E+03  0.49942698942E+03  0.53958952184E+03  0.25500000920E-02 0.  1.
</event>
<event>
 5   0  0.2005125E-03  0.4999008E+03  0.7818609E-02  0.1013805E+00
       -4   -1    0    0    0  501  0.00000000000E+00  0.00000000000E+00  0.32208807008E+03  0.32209057389E+03  0.12699999809E+01 0. -1.
        4   -1    0    0  501    0  0.00000000000E+00  0.00000000000E+00 -0.19396397912E+03  0.19396813680E+03  0.12699999809E+01 0.  1.
    10030    2    1    2    0    0  0.00000000000E+00  0.00000000000E+00  0.12812409097E+03  0.51605871069E+03  0.49990080035E+03 0.  0.
        4    1    3    3  502    0 -0.23480235344E+03  0.75747730881E+02  0.22721107109E+02  0.24776546475E+03  0.12699999809E+01 0. -1.
       -4    1    3    3    0  502  0.23480235344E+03 -0.75747730881E+02  0.10540298386E+03  0.26829324594E+03  0.12699999809E+01 0.  1.
</event>
<event>
 5   0  0.4978779E-03  0.4991051E+03  0.7818609E-02  0.1014013E+00
       -2   -1    0    0    0  501  0.00000000000E+00  0.00000000000E+00  0.20851530810E+03  0.20851530812E+03  0.25500000920E-02 0. -1.
        2   -1    0    0  501    0  0.00000000000E+00  0.00000000000E+00 -0.29866621269E+03  0.29866621270E+03  0.25500000920E-02 0.  1.
    10030    2    1    2    0    0  0.00000000000E+00  0.00000000000E+00 -0.90150904587E+02  0.50718152082E+03  0.49910510863E+03 0.  0.
        1    1    3    3  502    0  0.12028755240E+03 -0.10373659547E+02  0.17686146307E+03  0.21414174095E+03  0.50400001928E-02 0. -1.
       -1    1    3    3    0  502 -0.12028755240E+03  0.10373659547E+02 -0.26701236765E+03  0.29303977986E+03  0.50400001928E-02 0.  1.
</event>
<event>
 5   0  0.4889251E-03  0.4998517E+03  0.7818609E-02  0.1013818E+00
       -2   -1    0    0    0  501  0.00000000000E+00  0.00000000000E+00  0.50487299017E+03  0.50487299018E+03  0.25500000920E-02 0. -1.
        2   -1    0    0  501    0  0.00000000000E+00  0.00000000000E+00 -0.12372006653E+03  0.12372006656E+03  0.25500000920E-02 0.  1.
    10030    2    1    2    0    0  0.00000000000E+00  0.00000000000E+00  0.38115292364E+03  0.62859305674E+03  0.49985165777E+03 0.  0.
        5    1    3    3  502    0  0.12799400802E+03  0.13408187544E+03  0.40130832171E+03  0.44207564339E+03  0.46999998093E+01 0. -1.
       -5    1    3    3    0  502 -0.12799400802E+03 -0.13408187544E+03 -0.20155398067E+02  0.18651741334E+03  0.46999998093E+01 0.  1.
</event>
<event>
 5   0  0.5095783E-03  0.5000329E+03  0.7818609E-02  0.1013770E+00
        2   -1    0    0  501    0  0.00000000000E+00  0.00000000000E+00  0.36409509085E+03  0.36409509086E+03  0.25500000920E-02 0.  1.
       -2   -1    0    0    0  501  0.00000000000E+00  0.00000000000E+00 -0.17168103780E+03  0.17168103782E+03  0.25500000920E-02 0. -1.
    10030    2    1    2    0    0  0.00000000000E+00  0.00000000000E+00  0.19241405304E+03  0.53577612868E+03  0.50003289117E+03 0.  0.
        4    1    3    3  502    0 -0.18239538994E+03  0.54535280035E+02 -0.77440587341E+02  0.20552574658E+03  0.12699999809E+01 0. -1.
       -4    1    3    3    0  502  0.18239538994E+03 -0.54535280035E+02  0.26985464038E+03  0.33025038210E+03  0.12699999809E+01 0.  1.
</event>
<event>
 5   0  0.2863538E-03  0.4978948E+03  0.7818609E-02  0.1014330E+00
       -1   -1    0    0    0  501  0.00000000000E+00  0.00000000000E+00  0.17117569226E+03  0.17117569233E+03  0.50400001928E-02 0. -1.
        1   -1    0    0  501    0  0.00000000000E+00  0.00000000000E+00 -0.36205373580E+03  0.36205373584E+03  0.50400001928E-02 0.  1.
    10030    2    1    2    0    0  0.00000000000E+00  0.00000000000E+00 -0.19087804354E+03  0.53322942817E+03  0.49789476354E+03 0.  0.
        1    1    3    3  502    0 -0.55037397140E+02  0.15931422784E+03 -0.29164745990E+03  0.33685067785E+03  0.50400001928E-02 0.  1.
       -1    1    3    3    0  502  0.55037397140E+02 -0.15931422784E+03  0.10076941636E+03  0.19637875031E+03  0.50400001928E-02 0. -1.
</event>
<event>
 5   0  0.5118882E-03  0.5003800E+03  0.7818609E-02  0.1013680E+00
        2   -1    0    0  501    0  0.00000000000E+00  0.00000000000E+00  0.67638853783E+02  0.67638853831E+02  0.25500000920E-02 0. -1.
       -2   -1    0    0    0  501  0.00000000000E+00  0.00000000000E+00 -0.92543027931E+03  0.92543027931E+03  0.25500000920E-02 0.  1.
    10030    2    1    2    0    0  0.00000000000E+00  0.00000000000E+00 -0.85779142552E+03  0.99306913314E+03  0.50038002908E+03 0.  0.
        3    1    3    3  502    0  0.11051534892E+03  0.59212075685E+02 -0.85858214658E+03  0.86768832243E+03  0.10100000352E+00 0.  1.
       -3    1    3    3    0  502 -0.11051534892E+03 -0.59212075685E+02  0.79072105328E+00  0.12538081071E+03  0.10100000352E+00 0. -1.
</event>
<event>
 5   0  0.4978779E-03  0.5004232E+03  0.7818609E-02  0.1013669E+00
        2   -1    0    0  501    0  0.00000000000E+00  0.00000000000E+00  0.53495092992E+03  0.53495092993E+03  0.25500000920E-02 0.  1.
       -2   -1    0    0    0  501  0.00000000000E+00  0.00000000000E+00 -0.11703099085E+03  0.11703099087E+03  0.25500000920E-02 0. -1.
    10030    2    1    2    0    0  0.00000000000E+00  0.00000000000E+00  0.41791993908E+03  0.65198192080E+03  0.50042317050E+03 0.  0.
        1    1    3    3  502    0  0.76124027394E+02 -0.20209187518E+03  0.37360494332E+03  0.43152826936E+03  0.50400001928E-02 0.  1.
       -1    1    3    3    0  502 -0.76124027394E+02  0.20209187518E+03  0.44314995757E+02  0.22045365144E+03  0.50400001928E-02 0. -1.
</event>
<event>
 5   0  0.3211775E-03  0.5004294E+03  0.7818609E-02  0.1013667E+00
        1   -1    0    0  501    0  0.00000000000E+00  0.00000000000E+00  0.71441333812E+02  0.71441333990E+02  0.50400001928E-02 0. -1.
       -1   -1    0    0    0  501  0.00000000000E+00  0.00000000000E+00 -0.87634688074E+03  0.87634688076E+03  0.50400001928E-02 0.  1.
    10030    2    1    2    0    0  0.00000000000E+00  0.00000000000E+00 -0.80490554693E+03  0.94778821475E+03  0.50042937617E+03 0.  0.
        4    1    3    3  502    0 -0.93211490522E+02  0.18343261436E+03 -0.13280676017E+03  0.24489825321E+03  0.12699999809E+01 0. -1.
       -4    1    3    3    0  502  0.93211490522E+02 -0.18343261436E+03 -0.67209878676E+03  0.70288996154E+03  0.12699999809E+01 0.  1.
</event>
<event>
 5   0  0.5118882E-03  0.5001414E+03  0.7818609E-02  0.1013742E+00
        2   -1    0    0  501    0  0.00000000000E+00  0.00000000000E+00  0.44713467049E+03  0.44713467049E+03  0.25500000920E-02 0. -1.
       -2   -1    0    0    0  501  0.00000000000E+00  0.00000000000E+00 -0.13985798159E+03  0.13985798161E+03  0.25500000920E-02 0.  1.
    10030    2    1    2    0    0  0.00000000000E+00  0.00000000000E+00  0.30727668890E+03  0.58699265210E+03  0.50014139009E+03 0.  0.
        3    1    3    3  502    0  0.34229125019E+02 -0.15375409672E+02  0.44381167623E+03  0.44539516205E+03  0.10100000352E+00 0. -1.
       -3    1    3    3    0  502 -0.34229125019E+02  0.15375409672E+02 -0.13653498733E+03  0.14159749005E+03  0.10100000352E+00 0.  1.
</event>
<event>
 5   0  0.4978779E-03  0.5021629E+03  0.7818609E-02  0.1013216E+00
       -2   -1    0    0    0  501  0.00000000000E+00  0.00000000000E+00  0.12310447881E+03  0.12310447884E+03  0.25500000920E-02 0. -1.
        2   -1    0    0  501    0  0.00000000000E+00  0.00000000000E+00 -0.51210076691E+03  0.51210076692E+03  0.25500000920E-02 0.  1.
    10030    2    1    2    0    0  0.00000000000E+00  0.00000000000E+00 -0.38899628810E+03  0.63520524576E+03  0.50216291388E+03 0.  0.
        1    1    3    3  502    0  0.13427093395E+03  0.13031758899E+03 -0.40627825658E+03  0.44729562875E+03  0.50400001928E-02 0.  1.
       -1    1    3    3    0  502 -0.13427093395E+03 -0.13031758899E+03  0.17281968478E+02  0.18790961701E+03  0.50400001928E-02 0. -1.
</event>
<event>
 5   0  0.3013734E-03  0.5000960E+03  0.7818609E-02  0.1013754E+00
       -1   -1    0    0    0  501  0.00000000000E+00  0.00000000000E+00  0.35917952504E+03  0.35917952507E+03  0.50400001928E-02 0.  1.
        1   -1    0    0  501    0  0.00000000000E+00  0.00000000000E+00 -0.17407453058E+03  0.17407453065E+03  0.50400001928E-02 0. -1.
    10030    2    1    2    0    0  0.00000000000E+00  0.00000000000E+00  0.18510499446E+03  0.53325405572E+03  0.50009601975E+03 0.  0.
        2    1    3    3  502    0 -0.13233003017E+03  0.21199438420E+03  0.10154690458E+03  0.26974919769E+03  0.25500000920E-02 0.  1.
       -2    1    3    3    0  502  0.13233003017E+03 -0.21199438420E+03  0.83558089875E+02  0.26350485803E+03  0.25500000920E-02 0. -1.
</event>
<event>
 5   0  0.4889251E-03  0.5000326E+03  0.7818609E-02  0.1013770E+00
        2   -1    0    0  501    0  0.00000000000E+00  0.00000000000E+00  0.64392443586E+03  0.64392443586E+03  0.25500000920E-02 0.  1.
       -2   -1    0    0    0  501  0.00000000000E+00  0.00000000000E+00 -0.97073721283E+02  0.97073721317E+02  0.25500000920E-02 0. -1.
    10030    2    1    2    0    0  0.00000000000E+00  0.00000000000E+00  0.54685071458E+03  0.74099815718E+03  0.50003256385E+03 0.  0.
        5    1    3    3  502    0  0.50888963743E+02 -0.21345067162E+03  0.95998097520E+02  0.23955917969E+03  0.46999998093E+01 0. -1.
       -5    1    3    3    0  502 -0.50888963743E+02  0.21345067162E+03  0.45085261706E+03  0.50143897749E+03  0.46999998093E+01 0.  1.
</event>
<event>
 5   0  0.2863538E-03  0.5000303E+03  0.7818609E-02  0.1013771E+00
       -1   -1    0    0    0  501  0.00000000000E+00  0.00000000000E+00  0.49047304142E+03  0.49047304145E+03  0.50400001928E-02 0.  1.
        1   -1    0    0  501    0  0.00000000000E+00  0.00000000000E+00 -0.12744343543E+03  0.12744343553E+03  0.50400001928E-02 0. -1.
    10030    2    1    2    0    0  0.00000000000E+00  0.00000000000E+00  0.36302960599E+03  0.61791647698E+03  0.50003027678E+03 0.  0.
        1    1    3    3  502    0  0.85915006684E+02 -0.10220411098E+03  0.44272642150E+03  0.46242161822E+03  0.50400001928E-02 0.  1.
       -1    1    3    3    0  502 -0.85915006684E+02  0.10220411098E+03 -0.79696815508E+02  0.15549485876E+03  0.50400001928E-02 0. -1.
</event>
<event>
 5   0  0.4978779E-03  0.4998945E+03  0.7818609E-02  0.1013806E+00
        2   -1    0    0  501    0  0.00000000000E+00  0.00000000000E+00  0.34012702450E+03  0.34012702451E+03  0.25500000920E-02 0.  1.
       -2   -1    0    0    0  501  0.00000000000E+00  0.00000000000E+00 -0.18367734556E+03  0.18367734558E+03  0.25500000920E-02 0. -1.
    10030    2    1    2    0    0  0.00000000000E+00  0.00000000000E+00  0.15644967894E+03  0.52380437009E+03  0.49989450495E+03 0.  0.
        1    1    3    3  502    0 -0.75584826466E+02 -0.17208592152E+02 -0.17076304694E+03  0.18753458311E+03  0.50400001928E-02 0. -1.
       -1    1    3    3    0  502  0.75584826466E+02  0.17208592152E+02  0.32721272588E+03  0.33626978698E+03  0.50400001928E-02 0.  1.
</event>
<event>
 5   0  0.4989875E-03  0.4999664E+03  0.7818609E-02  0.1013788E+00
       -2   -1    0    0    0  501  0.00000000000E+00  0.00000000000E+00  0.79566729796E+02  0.79566729837E+02  0.25500000920E-02 0. -1.
        2   -1    0    0  501    0  0.00000000000E+00  0.00000000000E+00 -0.78539871821E+03  0.78539871821E+03  0.25500000920E-02 0.  1.
    10030    2    1    2    0    0  0.00000000000E+00  0.00000000000E+00 -0.70583198841E+03  0.86496544805E+03  0.49996642933E+03 0.  0.
        2    1    3    3  502    0 -0.24128300965E+03  0.11325055153E+02 -0.24152111398E+03  0.34158190251E+03  0.25500000920E-02 0. -1.
       -2    1    3    3    0  502  0.24128300965E+03 -0.11325055153E+02 -0.46431087444E+03  0.52338354554E+03  0.25500000920E-02 0.  1.
</event>
<event>
 5   0  0.3057783E-03  0.5001366E+03  0.7818609E-02  0.1013743E+00
       -1   -1    0    0    0  501  0.00000000000E+00  0.00000000000E+00  0.45133479046E+03  0.45133479049E+03  0.50400001928E-02 0.  1.
        1   -1    0    0  501    0  0.00000000000E+00  0.00000000000E+00 -0.13855382807E+03  0.13855382817E+03  0.50400001928E-02 0. -1.
    10030    2    1    2    0    0  0.00000000000E+00  0.00000000000E+00  0.31278096238E+03  0.58988861865E+03  0.50013663332E+03 0.  0.
        5    1    3    3  502    0 -0.51231155185E+02  0.65160462539E+02 -0.12182480193E+03  0.14742418222E+03  0.46999998093E+01 0. -1.
       -5    1    3    3    0  502  0.51231155185E+02 -0.65160462539E+02  0.43460576431E+03  0.44246443643E+03  0.46999998093E+01 0.  1.
</event>
<event>
 5   0  0.3055293E-03  0.4999306E+03  0.7818609E-02  0.1013797E+00
        1   -1    0    0  501    0  0.00000000000E+00  0.00000000000E+00  0.13995109439E+04  0.13995109439E+04  0.50400001928E-02 0.  1.
       -1   -1    0    0    0  501  0.00000000000E+00  0.00000000000E+00 -0.44646068727E+02  0.44646069012E+02  0.50400001928E-02 0. -1.
    10030    2    1    2    0    0  0.00000000000E+00  0.00000000000E+00  0.13548648751E+04  0.14441570129E+04  0.49993064318E+03 0.  0.
        3    1    3    3  502    0 -0.20067643454E+03  0.14824120265E+03  0.63303953133E+03  0.68043041082E+03  0.10100000352E+00 0. -1.
       -3    1    3    3    0  502  0.20067643454E+03 -0.14824120265E+03  0.72182534382E+03  0.76372660208E+03  0.10100000352E+00 0.  1.
</event>
<event>
 5   0  0.5118882E-03  0.5000208E+03  0.7818609E-02  0.1013773E+00
       -2   -1    0    0    0  501  0.00000000000E+00  0.00000000000E+00  0.29941943452E+03  0.29941943453E+03  0.25500000920E-02 0.  1.
        2   -1    0    0  501    0  0.00000000000E+00  0.00000000000E+00 -0.20875467054E+03  0.20875467055E+03  0.25500000920E-02 0. -1.
    10030    2    1    2    0    0  0.00000000000E+00  0.00000000000E+00  0.90664763981E+02  0.50817410508E+03  0.50002082122E+03 0.  0.
        3    1    3    3  502    0 -0.22075243529E+03  0.11727116607E+03  0.40671632029E+02  0.25325551510E+03  0.10100000352E+00 0.  1.
       -3    1    3    3    0  502  0.22075243529E+03 -0.11727116607E+03  0.49993131952E+02  0.25491858998E+03  0.10100000352E+00 0. -1.
</event>
<event>
 5   0  0.4889251E-03  0.5002202E+03  0.7818609E-02  0.1013721E+00
        2   -1    0    0  501    0  0.00000000000E+00  0.00000000000E+00  0.89062396949E+03  0.89062396949E+03  0.25500000920E-02 0. -1.
       -2   -1    0    0    0  501  0.00000000000E+00  0.00000000000E+00 -0.70237342273E+02  0.70237342319E+02  0.25500000920E-02 0.  1.
    10030    2    1    2    0    0  0.00000000000E+00  0.00000000000E+00  0.82038662721E+03  0.96086131181E+03  0.50022019394E+03 0.  0.
        5    1    3    3  502    0  0.20129916703E+02  0.22376374846E+03  0.19926791547E+03  0.30034183992E+03  0.46999998093E+01 0.  1.
       -5    1    3    3    0  502 -0.20129916703E+02 -0.22376374846E+03  0.62111871174E+03  0.66051947189E+03  0.46999998093E+01 0. -1.
</event>
<event>
 5   0  0.3057783E-03  0.5000856E+03  0.7818609E-02  0.1013757E+00
        1   -1    0    0  501    0  0.00000000000E+00  0.00000000000E+00  0.21975589639E+03  0.21975589645E+03  0.50400001928E-02 0. -1.
       -1   -1    0    0    0  501  0.00000000000E+00  0.00000000000E+00 -0.28450383166E+03  0.28450383171E+03  0.50400001928E-02 0.  1.
    10030    2    1    2    0    0  0.00000000000E+00  0.00000000000E+00 -0.64747935274E+02  0.50425972815E+03  0.50008557099E+03 0.  0.
        5    1    3    3  502    0  0.10786557130E+03  0.16288767359E+03 -0.18966292396E+03  0.27232607368E+03  0.46999998093E+01 0.  1.
       -5    1    3    3    0  502 -0.10786557130E+03 -0.16288767359E+03  0.12491498869E+03  0.23193365447E+03  0.46999998093E+01 0. -1.
</event>
<event>
 5   0  0.4978779E-03  0.4999457E+03  0.7818609E-02  0.1013793E+00
        2   -1    0    0  501    0  0.00000000000E+00  0.00000000000E+00  0.21318251099E+04  0.21318251099E+04  0.25500000920E-02 0.  1.
       -2   -1    0    0    0  501  0.00000000000E+00  0.00000000000E+00 -0.29311231668E+02  0.29311231779E+02  0.25500000920E-02 0. -1.
    10030    2    1    2    0    0  0.00000000000E+00  0.00000000000E+00  0.21025138783E+04  0.21611363417E+04  0.49994567622E+03 0.  0.
        1    1    3    3  502    0  0.13805658342E+03  0.19634830299E+03  0.13530494813E+04  0.13741743612E+04  0.50400001928E-02 0.  1.
       -1    1    3    3    0  502 -0.13805658342E+03 -0.19634830299E+03  0.74946439700E+03  0.78696198048E+03  0.50400001928E-02 0. -1.
</event>
<event>
 5   0  0.3211775E-03  0.4997587E+03  0.7818609E-02  0.1013842E+00
       -1   -1    0    0    0  501  0.00000000000E+00  0.00000000000E+00  0.55895558905E+03  0.55895558908E+03  0.50400001928E-02 0. -1.
        1   -1    0    0  501    0  0.00000000000E+00  0.00000000000E+00 -0.11170776586E+03  0.11170776598E+03  0.50400001928E-02 0.  1.
    10030    2    1    2    0    0  0.00000000000E+00  0.00000000000E+00  0.44724782319E+03  0.67066335505E+03  0.49975866222E+03 0.  0.
        4    1    3    3  502    0 -0.69812146917E+02 -0.15193213642E+03  0.47281580161E+03  0.50151122130E+03  0.12699999809E+01 0. -1.
       -4    1    3    3    0  502  0.69812146917E+02  0.15193213642E+03 -0.25567978420E+02  0.16915213376E+03  0.12699999809E+01 0.  1.
</event>
<event>
 5   0  0.5118882E-03  0.5018054E+03  0.7818609E-02  0.1013309E+00
        2   -1    0    0  501    0  0.00000000000E+00  0.00000000000E+00  0.17590198415E+04  0.17590198415E+04  0.25500000920E-02 0. -1.
       -2   -1    0    0    0  501  0.00000000000E+00  0.00000000000E+00 -0.35788207826E+02  0.35788207917E+02  0.25500000920E-02 0.  1.
    10030    2    1    2    0    0  0.00000000000E+00  0.00000000000E+00  0.17232316336E+04  0.17948080494E+04  0.50180541145E+03 0.  0.
        3    1    3    3  502    0 -0.12785741681E+03  0.47481068440E+02  0.10838098631E+03  0.17420797711E+03  0.10100000352E+00 0.  1.
       -3    1    3    3    0  502  0.12785741681E+03 -0.47481068440E+02  0.16148506473E+04  0.16206000723E+04  0.10100000352E+00 0. -1.
</event>
<event>
 5   0  0.2005125E-03  0.4997298E+03  0.7818609E-02  0.1013849E+00
        3   -1    0    0  501    0  0.00000000000E+00  0.00000000000E+00  0.48610041308E+02  0.48610146235E+02  0.10100000352E+00 0.  1.
       -3   -1    0    0    0  501  0.00000000000E+00  0.00000000000E+00 -0.12843516394E+04  0.12843516434E+04  0.10100000352E+00 0. -1.
    10030    2    1    2    0    0  0.00000000000E+00  0.00000000000E+00 -0.12357415981E+04  0.13329617896E+04  0.49972976227E+03 0.  0.
        3    1    3    3  502    0  0.23163904794E+03 -0.78153567669E+02 -0.75564272932E+03  0.79420436491E+03  0.10100000352E+00 0. -1.
       -3    1    3    3    0  502 -0.23163904794E+03  0.78153567669E+02 -0.48009886880E+03  0.53875742472E+03  0.10100000352E+00 0.  1.
</event>
<event>
 5   0  0.5095783E-03  0.4997388E+03  0.7818609E-02  0.1013847E+00
        2   -1    0    0  501    0  0.00000000000E+00  0.00000000000E+00  0.23655399198E+04  0.23655399198E+04  0.25500000920E-02 0. -1.
       -2   -1    0    0    0  501  0.00000000000E+00  0.00000000000E+00 -0.26393429862E+02  0.26393429985E+02  0.25500000920E-02 0.  1.
    10030    2    1    2    0    0  0.00000000000E+00  0.00000000000E+00  0.23391464899E+04  0.23919333498E+04  0.49973878019E+03 0.  0.
        4    1    3    3  502    0  0.55941603197E+01  0.24648438260E+03  0.13638345354E+04  0.13859408712E+04  0.12699999809E+01 0.  1.
       -4    1    3    3    0  502 -0.55941603197E+01 -0.24648438260E+03  0.97531195451E+03  0.10059924786E+04  0.12699999809E+01 0. -1.
</event>
<event>
 5   0  0.4989875E-03  0.4995618E+03  0.7818609E-02  0.1013893E+00
       -2   -1    0    0    0  501  0.00000000000E+00  0.00000000000E+00  0.50525033243E+03  0.50525033244E+03  0.25500000920E-02 0.  1.
        2   -1    0    0  501    0  0.00000000000E+00  0.00000000000E+00 -0.12348433205E+03  0.12348433207E+03  0.25500000920E-02 0. -1.
    10030    2    1    2    0    0  0.00000000000E+00  0.00000000000E+00  0.38176600038E+03  0.62873466451E+03  0.49956180729E+03 0.  0.
        2    1    3    3  502    0  0.19095165623E+03 -0.10368526538E+03  0.34593446502E+03  0.40851416545E+03  0.25500000920E-02 0.  1.
       -2    1    3    3    0  502 -0.19095165623E+03  0.10368526538E+03  0.35831535364E+02  0.22022049906E+03  0.25500000920E-02 0. -1.
</event>
<event>
 5   0  0.4989875E-03  0.5008624E+03  0.7818609E-02  0.1013554E+00
       -2   -1    0    0    0  501  0.00000000000E+00  0.00000000000E+00  0.22928824027E+03  0.22928824029E+03  0.25500000920E-02 0. -1.
        2   -1    0    0  501    0  0.00000000000E+00  0.00000000000E+00 -0.27352375475E+03  0.27352375477E+03  0.25500000920E-02 0.  1.
    10030    2    1    2    0    0  0.00000000000E+00  0.00000000000E+00 -0.44235514478E+02  0.50281199505E+03  0.50086237793E+03 0.  0.
        2    1    3    3  502    0  0.32702149641E+02  0.79043830936E+02  0.21416711528E+03  0.23061854018E+03  0.25500000920E-02 0. -1.
       -2    1    3    3    0  502 -0.32702149641E+02 -0.79043830936E+02 -0.25840262976E+03  0.27219345487E+03  0.25500000920E-02 0.  1.
</event>
<event>
 5   0  0.4978779E-03  0.4998306E+03  0.7818609E-02  0.1013823E+00
       -2   -1    0    0    0  501  0.00000000000E+00  0.00000000000E+00  0.90436942044E+02  0.90436942080E+02  0.25500000920E-02 0.  1.
        2   -1    0    0  501    0  0.00000000000E+00  0.00000000000E+00 -0.69062099072E+03  0.69062099073E+03  0.25500000920E-02 0. -1.
    10030    2    1    2    0    0  0.00000000000E+00  0.00000000000E+00 -0.60018404868E+03  0.78105793281E+03  0.49983057341E+03 0.  0.
        1    1    3    3  502    0  0.21068430457E+03 -0.88859490307E+02 -0.45770838209E+03  0.51164523673E+03  0.50400001928E-02 0. -1.
       -1    1    3    3    0  502 -0.21068430457E+03  0.88859490307E+02 -0.14247566659E+03  0.26941269607E+03  0.50400001928E-02 0.  1.
</event>
<event>
 5   0  0.3057783E-03  0.5004325E+03  0.7818609E-02  0.1013666E+00
        1   -1    0    0  501    0  0.00000000000E+00  0.00000000000E+00  0.39774461391E+03  0.39774461394E+03  0.50400001928E-02 0. -1.
       -1   -1    0    0    0  501  0.00000000000E+00  0.00000000000E+00 -0.15740796825E+03  0.15740796833E+03  0.50400001928E-02 0.  1.
    10030    2    1    2    0    0  0.00000000000E+00  0.00000000000E+00  0.24033664566E+03  0.55515258228E+03  0.50043249930E+03 0.  0.
        5    1    3    3  502    0  0.64195279983E+02 -0.24125132012E+03  0.10218295486E+03  0.26979006597E+03  0.46999998093E+01 0. -1.
       -5    1    3    3    0  502 -0.64195279983E+02  0.24125132012E+03  0.13815369081E+03  0.28536251631E+03  0.46999998093E+01 0.  1.
</event>
<event>
 5   0  0.2863538E-03  0.4999337E+03  0.7818609E-02  0.1013796E+00
        1   -1    0    0  501    0  0.00000000000E+00  0.00000000000E+00  0.12109990648E+03  0.12109990659E+03  0.50400001928E-02 0.  1.
       -1   -1    0    0    0  501  0.00000000000E+00  0.00000000000E+00 -0.51596584914E+03  0.51596584916E+03  0.50400001928E-02 0. -1.
    10030    2    1    2    0    0  0.00000000000E+00  0.00000000000E+00 -0.39486594266E+03  0.63706575575E+03  0.49993366007E+03 0.  0.
        1    1    3    3  502    0 -0.12547968383E+03 -0.88159037636E+02 -0.44897825794E+03  0.47444561658E+03  0.50400001928E-02 0. -1.
       -1    1    3    3    0  502  0.12547968383E+03  0.88159037636E+02  0.54112315280E+02  0.16262013916E+03  0.50400001928E-02 0.  1.
</event>
<event>
 5   0  0.4978779E-03  0.4999587E+03  0.7818609E-02  0.1013790E+00
        2   -1    0    0  501    0  0.00000000000E+00  0.00000000000E+00  0.85819717218E+03  0.85819717219E+03  0.25500000920E-02 0. -1.
       -2   -1    0    0    0  501  0.00000000000E+00  0.00000000000E+00 -0.72815053672E+02  0.72815053717E+02  0.25500000920E-02 0.  1.
    10030    2    1    2    0    0  0.00000000000E+00  0.00000000000E+00  0.78538211851E+03  0.93101222590E+03  0.49995869100E+03 0.  0.
        1    1    3    3  502    0  0.11321261109E+03 -0.17120747346E+03  0.12697590581E+03  0.24135445917E+03  0.50400001928E-02 0.  1.
       -1    1    3    3    0  502 -0.11321261109E+03  0.17120747346E+03  0.65840621270E+03  0.68965776674E+03  0.50400001928E-02 0. -1.
</event>
<event>
 5   0  0.3013734E-03  0.4999273E+03  0.7818609E-02  0.1013798E+00
       -1   -1    0    0    0  501  0.00000000000E+00  0.00000000000E+00  0.11813279358E+03  0.11813279369E+03  0.50400001928E-02 0.  1.
        1   -1    0    0  501    0  0.00000000000E+00  0.00000000000E+00 -0.52891177489E+03  0.52891177491E+03  0.50400001928E-02 0. -1.
    10030    2    1    2    0    0  0.00000000000E+00  0.00000000000E+00 -0.41077898130E+03  0.64704456860E+03  0.49992729699E+03 0.  0.
        2    1    3    3  502    0  0.43520686368E+02  0.13382774219E+03  0.61990510732E+02  0.15377495944E+03  0.25500000920E-02 0.  1.
       -2    1    3    3    0  502 -0.43520686368E+02 -0.13382774219E+03 -0.47276949203E+03  0.49326960917E+03  0.25500000920E-02 0. -1.
</event>
<event>
 5   0  0.3055293E-03  0.5000662E+03  0.7818609E-02  0.1013762E+00
        1   -1    0    0  501    0  0.00000000000E+00  0.00000000000E+00  0.59725248407E+03  0.59725248409E+03  0.50400001928E-02 0. -1.
       -1   -1    0    0    0  501  0.00000000000E+00  0.00000000000E+00 -0.10467358016E+03  0.10467358028E+03  0.50400001928E-02 0.  1.
    10030    2    1    2    0    0  0.00000000000E+00  0.00000000000E+00  0.49257890391E+03  0.70192606437E+03  0.50006621887E+03 0.  0.
        3    1    3    3  502    0  0.21761695336E+03  0.36196618297E+02  0.41147664907E+03  0.46688368626E+03  0.10100000352E+00 0. -1.
       -3    1    3    3    0  502 -0.21761695336E+03 -0.36196618297E+02  0.81102254847E+02  0.23504237811E+03  0.10100000352E+00 0.  1.
</event>
<event>
 5   0  0.3211775E-03  0.5001087E+03  0.7818609E-02  0.1013751E+00
        1   -1    0    0  501    0  0.00000000000E+00  0.00000000000E+00  0.43182133901E+03  0.43182133904E+03  0.50400001928E-02 0. -1.
       -1   -1    0    0    0  501  0.00000000000E+00  0.00000000000E+00 -0.14479873204E+03  0.14479873213E+03  0.50400001928E-02 0.  1.
    10030    2    1    2    0    0  0.00000000000E+00  0.00000000000E+00  0.28702260697E+03  0.57662007116E+03  0.50010871774E+03 0.  0.
        4    1    3    3  502    0 -0.14899373922E+03  0.20066270098E+03  0.15251020690E+03  0.29278939530E+03  0.12699999809E+01 0. -1.
       -4    1    3    3    0  502  0.14899373922E+03 -0.20066270098E+03  0.13451240006E+03  0.28383067586E+03  0.12699999809E+01 0.  1.
</event>
<event>
 5   0  0.4978779E-03  0.4998983E+03  0.7818609E-02  0.1013805E+00
        2   -1    0    0  501    0  0.00000000000E+00  0.00000000000E+00  0.81104058370E+03  0.81104058371E+03  0.25500000920E-02 0. -1.
       -2   -1    0    0    0  501  0.00000000000E+00  0.00000000000E+00 -0.77030162155E+02  0.77030162197E+02  0.25500000920E-02 0.  1.
    10030    2    1    2    0    0  0.00000000000E+00  0.00000000000E+00  0.73401042155E+03  0.88807074590E+03  0.49989834045E+03 0.  0.
        1    1    3    3  502    0  0.18875985154E+03 -0.71651227570E+02  0.10524727404E+03  0.22768655798E+03  0.50400001928E-02 0.  1.
       -1    1    3    3    0  502 -0.18875985154E+03  0.71651227570E+02  0.62876314751E+03  0.66038418792E+03  0.50400001928E-02 0. -1.
</event>
<event>
 5   0  0.3013734E-03  0.4998689E+03  0.7818609E-02  0.1013813E+00
       -1   -1    0    0    0  501  0.00000000000E+00  0.00000000000E+00  0.81674886730E+02  0.81674886885E+02  0.50400001928E-02 0. -1.
        1   -1    0    0  501    0  0.00000000000E+00  0.00000000000E+00 -0.76482797239E+03  0.76482797240E+03  0.50400001928E-02 0.  1.
    10030    2    1    2    0    0  0.00000000000E+00  0.00000000000E+00 -0.68315308566E+03  0.84650285929E+03  0.49986893516E+03 0.  0.
        2    1    3    3  502    0  0.12516637841E+01  0.20608966766E+03 -0.10213018990E+03  0.23001107250E+03  0.25500000920E-02 0. -1.
       -2    1    3    3    0  502 -0.12516637841E+01 -0.20608966766E+03 -0.58102289576E+03  0.61649178679E+03  0.25500000920E-02 0.  1.
</event>
<event>
 5   0  0.3055293E-03  0.5001297E+03  0.7818609E-02  0.1013745E+00
        1   -1    0    0  501    0  0.00000000000E+00  0.00000000000E+00  0.15099379427E+04  0.15099379427E+04  0.50400001928E-02 0.  1.
       -1   -1    0    0    0  501  0.00000000000E+00  0.00000000000E+00 -0.41413905521E+02  0.41413905827E+02  0.50400001928E-02 0. -1.
    10030    2    1    2    0    0  0.00000000000E+00  0.00000000000E+00  0.14685240372E+04  0.15513518486E+04  0.50012969336E+03 0.  0.
        3    1    3    3  502    0 -0.91951980565E+02 -0.76421753502E+02  0.14155295015E+04  0.14205700373E+04  0.10100000352E+00 0.  1.
       -3    1    3    3    0  502  0.91951980565E+02  0.76421753502E+02  0.52994535734E+02  0.13078181126E+03  0.10100000352E+00 0. -1.
</event>
<event>
 5   0  0.3057783E-03  0.5001638E+03  0.7818609E-02  0.1013736E+00
       -1   -1    0    0    0  501  0.00000000000E+00  0.00000000000E+00  0.11341111235E+03  0.11341111247E+03  0.50400001928E-02 0. -1.
        1   -1    0    0  501    0  0.00000000000E+00  0.00000000000E+00 -0.55145354280E+03  0.55145354282E+03  0.50400001928E-02 0.  1.
    10030    2    1    2    0    0  0.00000000000E+00  0.00000000000E+00 -0.43804243045E+03  0.66486465529E+03  0.50016381215E+03 0.  0.
        5    1    3    3  502    0  0.24154428235E+03  0.31840258576E+02 -0.14427958220E+03  0.28318921279E+03  0.46999998093E+01 0. -1.
       -5    1    3    3    0  502 -0.24154428235E+03 -0.31840258576E+02 -0.29376284825E+03  0.38167544250E+03  0.46999998093E+01 0.  1.
</event>
<event>
 5   0  0.4978779E-03  0.5000271E+03  0.7818609E-02  0.1013772E+00
       -2   -1    0    0    0  501  0.00000000000E+00  0.00000000000E+00  0.16386036559E+03  0.16386036561E+03  0.25500000920E-02 0. -1.
        2   -1    0    0  501    0  0.00000000000E+00  0.00000000000E+00 -0.38146364277E+03  0.38146364278E+03  0.25500000920E-02 0.  1.
    10030    2    1    2    0    0  0.00000000000E+00  0.00000000000E+00 -0.21760327718E+03  0.54532400839E+03  0.50002708715E+03 0.  0.
        1    1    3    3  502    0  0.45702533536E+02 -0.24542638028E+03 -0.94010492709E+02  0.26675982170E+03  0.50400001928E-02 0.  1.
       -1    1    3    3    0  502 -0.45702533536E+02  0.24542638028E+03 -0.12359278447E+03  0.27856418669E+03  0.50400001928E-02 0. -1.
</event>
<event>
 5   0  0.2005125E-03  0.5011769E+03  0.7818609E-02  0.1013472E+00
        3   -1    0    0  501    0  0.00000000000E+00  0.00000000000E+00  0.17870684324E+03  0.17870687178E+03  0.10100000352E+00 0. -1.
       -3   -1    0    0    0  501  0.00000000000E+00  0.00000000000E+00 -0.35138307711E+03  0.35138309162E+03  0.10100000352E+00 0.  1.
    10030    2    1    2    0    0  0.00000000000E+00  0.00000000000E+00 -0.17267623386E+03  0.53008996340E+03  0.50117690246E+03 0.  0.
        2    1    3    3  502    0 -0.48751920655E+02  0.31532256462E+02 -0.34417069431E+03  0.34903366570E+03  0.25500000920E-02 0.  1.
       -2    1    3    3    0  502  0.48751920655E+02 -0.31532256462E+02  0.17149446045E+03  0.18105629770E+03  0.25500000920E-02 0. -1.
</event>
<event>
 5   0  0.3055293E-03  0.5000014E+03  0.7818609E-02  0.1013779E+00
        1   -1    0    0  501    0  0.00000000000E+00  0.00000000000E+00  0.66619067554E+03  0.66619067556E+03  0.50400001928E-02 0.  1.
       -1   -1    0    0    0  501  0.00000000000E+00  0.00000000000E+00 -0.93817511765E+02  0.93817511900E+02  0.50400001928E-02 0. -1.
    10030    2    1    2    0    0  0.00000000000E+00  0.00000000000E+00  0.57237316377E+03  0.76000818746E+03  0.50000140639E+03 0.  0.
        3    1    3    3  502    0  0.59104895432E+02  0.19615872578E+03  0.68401642485E+02  0.21598710438E+03  0.10100000352E+00 0. -1.
       -3    1    3    3    0  502 -0.59104895432E+02 -0.19615872578E+03  0.50397152129E+03  0.54402108308E+03  0.10100000352E+00 0.  1.
</event>
<event>
 5   0  0.2005125E-03  0.5000607E+03  0.7818609E-02  0.1013763E+00
       -3   -1    0    0    0  501  0.00000000000E+00  0.00000000000E+00  0.74862409613E+02  0.74862477745E+02  0.10100000352E+00 0. -1.
        3   -1    0    0  501    0  0.00000000000E+00  0.00000000000E+00 -0.83506721689E+03  0.83506722300E+03  0.10100000352E+00 0.  1.
    10030    2    1    2    0    0  0.00000000000E+00  0.00000000000E+00 -0.76020480727E+03  0.90992970074E+03  0.50006070760E+03 0.  0.
        1    1    3    3  502    0  0.12183799009E+03 -0.32737608007E+02 -0.77290385768E+03  0.78313256862E+03  0.50400001928E-02 0.  1.
       -1    1    3    3    0  502 -0.12183799009E+03  0.32737608007E+02  0.12699050401E+02  0.12679713212E+03  0.50400001928E-02 0. -1.
</event>
<event>
 5   0  0.4989875E-03  0.4998183E+03  0.7818609E-02  0.1013826E+00
       -2   -1    0    0    0  501  0.00000000000E+00  0.00000000000E+00  0.10385960488E+03  0.10385960491E+03  0.25500000920E-02 0. -1.
        2   -1    0    0  501    0  0.00000000000E+00  0.00000000000E+00 -0.60133654571E+03  0.60133654572E+03  0.25500000920E-02 0.  1.
    10030    2    1    2    0    0  0.00000000000E+00  0.00000000000E+00 -0.49747694083E+03  0.70519615063E+03  0.49981827117E+03 0.  0.
        2    1    3    3  502    0  0.53298588972E+02  0.24315556948E+03 -0.27994485566E+03  0.37461245678E+03  0.25500000920E-02 0.  1.
       -2    1    3    3    0  502 -0.53298588972E+02 -0.24315556948E+03 -0.21753208517E+03  0.33058369385E+03  0.25500000920E-02 0. -1.
</event>
<event>
 5   0  0.3013734E-03  0.4998494E+03  0.7818609E-02  0.1013818E+00
        1   -1    0    0  501    0  0.00000000000E+00  0.00000000000E+00  0.48369051737E+03  0.48369051740E+03  0.50400001928E-02 0.  1.
       -1   -1    0    0    0  501  0.00000000000E+00  0.00000000000E+00 -0.12913703295E+03  0.12913703305E+03  0.50400001928E-02 0. -1.
    10030    2    1    2    0    0  0.00000000000E+00  0.00000000000E+00  0.35455348442E+03  0.61282755045E+03  0.49984941060E+03 0.  0.
        2    1    3    3  502    0  0.15758569815E+03  0.10230935745E+02 -0.60219188168E+02  0.16900968889E+03  0.25500000920E-02 0. -1.
       -2    1    3    3    0  502 -0.15758569815E+03 -0.10230935745E+02  0.41477267259E+03  0.44381786156E+03  0.25500000920E-02 0.  1.
</event>
<event>
 5   0  0.4889251E-03  0.4994102E+03  0.7818609E-02  0.1013933E+00
       -2   -1    0    0    0  501  0.00000000000E+00  0.00000000000E+00  0.73301679250E+02  0.73301679295E+02  0.25500000920E-02 0.  1.
        2   -1    0    0  501    0  0.00000000000E+00  0.00000000000E+00 -0.85063028109E+03  0.85063028110E+03  0.25500000920E-02 0. -1.
    10030    2    1    2    0    0  0.00000000000E+00  0.00000000000E+00 -0.77732860184E+03  0.92393196039E+03  0.49941016428E+03 0.  0.
        5    1    3    3  502    0 -0.89043563537E+01 -0.99236326370E+01  0.72560725781E+02  0.73925063212E+02  0.46999998093E+01 0.  1.
       -5    1    3    3    0  502  0.89043563537E+01  0.99236326370E+01 -0.84988932762E+03  0.85000689718E+03  0.46999998093E+01 0. -1.
</event>
<event>
 5   0  0.5095783E-03  0.5000119E+03  0.7818609E-02  0.1013776E+00
       -2   -1    0    0    0  501  0.00000000000E+00  0.00000000000E+00  0.25669190205E+03  0.25669190206E+03  0.25500000920E-02 0. -1.
        2   -1    0    0  501    0  0.00000000000E+00  0.00000000000E+00 -0.24349416070E+03  0.24349416071E+03  0.25500000920E-02 0.  1.
    10030    2    1    2    0    0  0.00000000000E+00  0.00000000000E+00  0.13197741353E+02  0.50018606277E+03  0.50001191687E+03 0.  0.
        4    1    3    3  502    0 -0.34286575346E+02  0.80458117986E+02 -0.22768835326E+03  0.24391120743E+03  0.12699999809E+01 0.  1.
       -4    1    3    3    0  502  0.34286575346E+02 -0.80458117986E+02  0.24088609462E+03  0.25627485534E+03  0.12699999809E+01 0. -1.
</event>
<event>
 5   0  0.5095783E-03  0.4972612E+03  0.7818609E-02  0.1014496E+00
       -2   -1    0    0    0  501  0.00000000000E+00  0.00000000000E+00  0.28014667832E+03  0.28014667833E+03  0.25500000920E-02 0.  1.
        2   -1    0    0  501    0  0.00000000000E+00  0.00000000000E+00 -0.22066003028E+03  0.22066003029E+03  0.25500000920E-02 0. -1.
    10030    2    1    2    0    0  0.00000000000E+00  0.00000000000E+00  0.59486648038E+02  0.50080670862E+03  0.49726119706E+03 0.  0.
        4    1    3    3  502    0  0.77365578884E+02  0.23502376287E+03  0.51982660214E+01  0.24748785178E+03  0.12699999809E+01 0.  1.
       -4    1    3    3    0  502 -0.77365578884E+02 -0.23502376287E+03  0.54288382017E+02  0.25331885684E+03  0.12699999809E+01 0. -1.
</event>
<event>
 5   0  0.3057783E-03  0.4998899E+03  0.7818609E-02  0.1013808E+00
        1   -1    0    0  501    0  0.00000000000E+00  0.00000000000E+00  0.63192541388E+03  0.63192541390E+03  0.50400001928E-02 0. -1.
       -1   -1    0    0    0  501  0.00000000000E+00  0.00000000000E+00 -0.98860537402E+02  0.98860537531E+02  0.50400001928E-02 0.  1.
    10030    2    1    2    0    0  0.00000000000E+00  0.00000000000E+00  0.53306487648E+03  0.73078595143E+03  0.49988993216E+03 0.  0.
        5    1    3    3  502    0  0.65961463452E+02 -0.22130220913E+03  0.12688666290E+03  0.26352969026E+03  0.46999998093E+01 0.  1.
       -5    1    3    3    0  502 -0.65961463452E+02  0.22130220913E+03  0.40617821358E+03  0.46725626118E+03  0.46999998093E+01 0. -1.
</event>
<event>
 5   0  0.3057783E-03  0.4999744E+03  0.7818609E-02  0.1013786E+00
        1   -1    0    0  501    0  0.00000000000E+00  0.00000000000E+00  0.65667078907E+03  0.65667078908E+03  0.50400001928E-02 0.  1.
       -1   -1    0    0    0  501  0.00000000000E+00  0.00000000000E+00 -0.95167311043E+02  0.95167311177E+02  0.50400001928E-02 0. -1.
    10030    2    1    2    0    0  0.00000000000E+00  0.00000000000E+00  0.56150347802E+03  0.75183810026E+03  0.49997437252E+03 0.  0.
        5    1    3    3  502    0  0.65152731530E+02 -0.36791028193E+02 -0.77864397374E+02  0.10808983559E+03  0.46999998093E+01 0. -1.
       -5    1    3    3    0  502 -0.65152731530E+02  0.36791028193E+02  0.63936787540E+03  0.64374826467E+03  0.46999998093E+01 0.  1.
</event>
<event>
 5   0  0.3057783E-03  0.4998984E+03  0.7818609E-02  0.1013805E+00
       -1   -1    0    0    0  501  0.00000000000E+00  0.00000000000E+00  0.69282141890E+03  0.69282141892E+03  0.50400001928E-02 0.  1.
        1   -1    0    0  501    0  0.00000000000E+00  0.00000000000E+00 -0.90174174327E+02  0.90174174468E+02  0.50400001928E-02 0. -1.
    10030    2    1    2    0    0  0.00000000000E+00  0.00000000000E+00  0.60264724458E+03  0.78299559339E+03  0.49989838755E+03 0.  0.
        5    1    3    3  502    0  0.23512845158E+03 -0.47107513007E+02  0.19114621287E+03  0.30669768701E+03  0.46999998093E+01 0. -1.
       -5    1    3    3    0  502 -0.23512845158E+03  0.47107513007E+02  0.41150103171E+03  0.47629790638E+03  0.46999998093E+01 0.  1.
</event>
<event>
 5   0  0.4978779E-03  0.4995742E+03  0.7818609E-02  0.1013890E+00
        2   -1    0    0  501    0  0.00000000000E+00  0.00000000000E+00  0.13517281726E+04  0.13517281726E+04  0.25500000920E-02 0.  1.
       -2   -1    0    0    0  501  0.00000000000E+00  0.00000000000E+00 -0.46158384092E+02  0.46158384162E+02  0.25500000920E-02 0. -1.
    10030    2    1    2    0    0  0.00000000000E+00  0.00000000000E+00  0.13055697886E+04  0.13978865568E+04  0.49957417160E+03 0.  0.
        1    1    3    3  502    0 -0.20603091722E+03  0.11702477215E+03  0.43157030336E+03  0.49233775288E+03  0.50400001928E-02 0.  1.
       -1    1    3    3    0  502  0.20603091722E+03 -0.11702477215E+03  0.87399948519E+03  0.90554880393E+03  0.50400001928E-02 0. -1.
</event>
<event>
 5   0  0.4889251E-03  0.5002527E+03  0.7818609E-02  0.1013713E+00
       -2   -1    0    0    0  501  0.00000000000E+00  0.00000000000E+00  0.14439285378E+03  0.14439285380E+03  0.25500000920E-02 0. -1.
        2   -1    0    0  501    0  0.00000000000E+00  0.00000000000E+00 -0.43328461309E+03  0.43328461309E+03  0.25500000920E-02 0.  1.
    10030    2    1    2    0    0  0.00000000000E+00  0.00000000000E+00 -0.28889175931E+03  0.57767746690E+03  0.50025274328E+03 0.  0.
        5    1    3    3  502    0 -0.20783606748E+03  0.85652208683E+02 -0.17899708515E+02  0.22555403202E+03  0.46999998093E+01 0. -1.
       -5    1    3    3    0  502  0.20783606748E+03 -0.85652208683E+02 -0.27099205079E+03  0.35212343488E+03  0.46999998093E+01 0.  1.
</event>
<event>
 5   0  0.3055293E-03  0.5000920E+03  0.7818609E-02  0.1013755E+00
        1   -1    0    0  501    0  0.00000000000E+00  0.00000000000E+00  0.43439428341E+03  0.43439428344E+03  0.50400001928E-02 0. -1.
       -1   -1    0    0    0  501  0.00000000000E+00  0.00000000000E+00 -0.14393147874E+03  0.14393147883E+03  0.50400001928E-02 0.  1.
    10030    2    1    2    0    0  0.00000000000E+00  0.00000000000E+00  0.29046280466E+03  0.57832576227E+03  0.50009203794E+03 0.  0.
        3    1    3    3  502    0 -0.13445517237E+03 -0.12807022184E+03  0.33888853166E+03  0.38642673587E+03  0.10100000352E+00 0. -1.
       -3    1    3    3    0  502  0.13445517237E+03  0.12807022184E+03 -0.48425727000E+02  0.19189902640E+03  0.10100000352E+00 0.  1.
</event>
<event>
 5   0  0.5095783E-03  0.4999413E+03  0.7818609E-02  0.1013794E+00
       -2   -1    0    0    0  501  0.00000000000E+00  0.00000000000E+00  0.11307572403E+03  0.11307572406E+03  0.25500000920E-02 0. -1.
        2   -1    0    0  501    0  0.00000000000E+00  0.00000000000E+00 -0.55259718439E+03  0.55259718439E+03  0.25500000920E-02 0.  1.
    10030    2    1    2    0    0  0.00000000000E+00  0.00000000000E+00 -0.43952146036E+03  0.66567290845E+03  0.49994130348E+03 0.  0.
        4    1    3    3  502    0 -0.10291478401E+02  0.24847326469E+03 -0.25341472070E+03  0.35505705367E+03  0.12699999809E+01 0. -1.
       -4    1    3    3    0  502  0.10291478401E+02 -0.24847326469E+03 -0.18610673966E+03  0.31061585478E+03  0.12699999809E+01 0.  1.
</event>
<event>
 5   0  0.4978779E-03  0.5001984E+03  0.7818609E-02  0.1013727E+00
       -2   -1    0    0    0  501  0.00000000000E+00  0.00000000000E+00  0.36869479931E+02  0.36869480020E+02  0.25500000920E-02 0.  1.
        2   -1    0    0  501    0  0.00000000000E+00  0.00000000000E+00 -0.16965144005E+04  0.16965144005E+04  0.25500000920E-02 0. -1.
    10030    2    1    2    0    0  0.00000000000E+00  0.00000000000E+00 -0.16596449205E+04  0.17333838805E+04  0.50019837553E+03 0.  0.
        1    1    3    3  502    0  0.37039695644E+01  0.51154994372E+02 -0.16780940839E+04  0.16788776928E+04  0.50400001928E-02 0. -1.
       -1    1    3    3    0  502 -0.37039695644E+01 -0.51154994372E+02  0.18449163402E+02  0.54506187680E+02  0.50400001928E-02 0.  1.
</event>
<event>
 5   0  0.2005125E-03  0.5000988E+03  0.7818609E-02  0.1013753E+00
        3   -1    0    0  501    0  0.00000000000E+00  0.00000000000E+00  0.31081848213E+03  0.31081849854E+03  0.10100000352E+00 0. -1.
       -3   -1    0    0    0  501  0.00000000000E+00  0.00000000000E+00 -0.20116143861E+03  0.20116146397E+03  0.10100000352E+00 0.  1.
    10030    2    1    2    0    0  0.00000000000E+00  0.00000000000E+00  0.10965704351E+03  0.51197996251E+03  0.50009880505E+03 0.  0.
        1    1    3    3  502    0  0.18444863054E+03 -0.13438364199E+03 -0.49797519276E+02  0.23358093564E+03  0.50400001928E-02 0.  1.
       -1    1    3    3    0  502 -0.18444863054E+03  0.13438364199E+03  0.15945456279E+03  0.27839902687E+03  0.50400001928E-02 0. -1.
</event>
<event>
 5   0  0.2863538E-03  0.4998300E+03  0.7818609E-02  0.1013823E+00
        1   -1    0    0  501    0  0.00000000000E+00  0.00000000000E+00  0.10663062406E+04  0.10663062406E+04  0.50400001928E-02 0.  1.
       -1   -1    0    0    0  501  0.00000000000E+00  0.00000000000E+00 -0.58573693809E+02  0.58573694026E+02  0.50400001928E-02 0. -1.
    10030    2    1    2    0    0  0.00000000000E+00  0.00000000000E+00  0.10077325468E+04  0.11248799347E+04  0.49982995257E+03 0.  0.
        1    1    3    3  502    0 -0.21054567731E+03  0.83402299822E+02  0.74174231688E+03  0.77554309392E+03  0.50400001928E-02 0.  1.
       -1    1    3    3    0  502  0.21054567731E+03 -0.83402299822E+02  0.26599022992E+03  0.34933684073E+03  0.50400001928E-02 0. -1.
</event>
<event>
 5   0  0.5118882E-03  0.4999251E+03  0.7818609E-02  0.1013798E+00
       -2   -1    0    0    0  501  0.00000000000E+00  0.00000000000E+00  0.35619472545E+03  0.35619472546E+03  0.25500000920E-02 0. -1.
        2   -1    0    0  501    0  0.00000000000E+00  0.00000000000E+00 -0.17541324810E+03  0.17541324812E+03  0.25500000920E-02 0.  1.
    10030    2    1    2    0    0  0.00000000000E+00  0.00000000000E+00  0.18078147735E+03  0.53160797358E+03  0.49992508941E+03 0.  0.
        3    1    3    3  502    0 -0.11240198873E+03  0.15655417510E+03  0.25965739131E+03  0.32336571846E+03  0.10100000352E+00 0. -1.
       -3    1    3    3    0  502  0.11240198873E+03 -0.15655417510E+03 -0.78875913963E+02  0.20824225512E+03  0.10100000352E+00 0.  1.
</event>
<event>
 5   0  0.3055293E-03  0.5001210E+03  0.7818609E-02  0.1013747E+00
       -1   -1    0    0    0  501  0.00000000000E+00  0.00000000000E+00  0.36387592208E+03  0.36387592211E+03  0.50400001928E-02 0. -1.
        1   -1    0    0  501    0  0.00000000000E+00  0.00000000000E+00 -0.17184497010E+03  0.17184497018E+03  0.50400001928E-02 0.  1.
    10030    2    1    2    0    0  0.00000000000E+00  0.00000000000E+00  0.19203095198E+03  0.53572089229E+03  0.50012097329E+03 0.  0.
        3    1    3    3  502    0  0.82117662023E+02 -0.15476403650E+03  0.28713984959E+03  0.33636961937E+03  0.10100000352E+00 0. -1.
       -3    1    3    3    0  502 -0.82117662023E+02  0.15476403650E+03 -0.95108897610E+02  0.19935127293E+03  0.10100000352E+00 0.  1.
</event>
<event>
 5   0  0.3057783E-03  0.4992010E+03  0.7818609E-02  0.1013988E+00
       -1   -1    0    0    0  501  0.00000000000E+00  0.00000000000E+00  0.21205952618E+03  0.21205952624E+03  0.50400001928E-02 0. -1.
        1   -1    0    0  501    0  0.00000000000E+00  0.00000000000E+00 -0.29378739325E+03  0.29378739329E+03  0.50400001928E-02 0.  1.
    10030    2    1    2    0    0  0.00000000000E+00  0.00000000000E+00 -0.81727867062E+02  0.50584691954E+03  0.49920102339E+03 0.  0.
        5    1    3    3  502    0  0.41114174965E+02  0.18935498854E+03 -0.20022376668E+03  0.27867065473E+03  0.46999998093E+01 0.  1.
       -5    1    3    3    0  502 -0.41114174965E+02 -0.18935498854E+03  0.11849589961E+03  0.22717626481E+03  0.46999998093E+01 0. -1.
</event>
<event>
 5   0  0.2005125E-03  0.4999118E+03  0.7818609E-02  0.1013802E+00
        3   -1    0    0  501    0  0.00000000000E+00  0.00000000000E+00  0.87678670289E+03  0.87678670871E+03  0.10100000352E+00 0. -1.
       -3   -1    0    0    0  501  0.00000000000E+00  0.00000000000E+00 -0.71257817412E+02  0.71257888990E+02  0.10100000352E+00 0.  1.
    10030    2    1    2    0    0  0.00000000000E+00  0.00000000000E+00  0.80552888548E+03  0.94804459770E+03  0.49991176610E+03 0.  0.
        1    1    3    3  502    0 -0.11823528947E+03  0.40877227216E+02  0.81314378183E+03  0.82271097072E+03  0.50400001928E-02 0. -1.
       -1    1    3    3    0  502  0.11823528947E+03 -0.40877227216E+02 -0.76148963553E+01  0.12533362698E+03  0.50400001928E-02 0.  1.
</event>
<event>
 5   0  0.2863538E-03  0.4997084E+03  0.7818609E-02  0.1013855E+00
        1   -1    0    0  501    0  0.00000000000E+00  0.00000000000E+00  0.18342673488E+03  0.18342673495E+03  0.50400001928E-02 0. -1.
       -1   -1    0    0    0  501  0.00000000000E+00  0.00000000000E+00 -0.34033811358E+03  0.34033811362E+03  0.50400001928E-02 0.  1.
    10030    2    1    2    0    0  0.00000000000E+00  0.00000000000E+00 -0.15691137870E+03  0.52376484857E+03  0.49970835077E+03 0.  0.
        1    1    3    3  502    0  0.18871044140E+03  0.16206820384E+03 -0.53888560549E+02  0.25452251447E+03  0.50400001928E-02 0.  1.
       -1    1    3    3    0  502 -0.18871044140E+03 -0.16206820384E+03 -0.10302281815E+03  0.26924233410E+03  0.50400001928E-02 0. -1.
</event>
<event>
 5   0  0.2863538E-03  0.4994621E+03  0.7818609E-02  0.1013919E+00
       -1   -1    0    0    0  501  0.00000000000E+00  0.00000000000E+00  0.27438586371E+03  0.27438586376E+03  0.50400001928E-02 0.  1.
        1   -1    0    0  501    0  0.00000000000E+00  0.00000000000E+00 -0.22729155713E+03  0.22729155719E+03  0.50400001928E-02 0. -1.
    10030    2    1    2    0    0  0.00000000000E+00  0.00000000000E+00  0.47094306585E+02  0.50167742095E+03  0.49946207161E+03 0.  0.
        1    1    3    3  502    0  0.28231647552E+02 -0.11803685466E+03 -0.19567733749E+03  0.23025930038E+03  0.50400001928E-02 0. -1.
       -1    1    3    3    0  502 -0.28231647552E+02  0.11803685466E+03  0.24277164407E+03  0.27141812057E+03  0.50400001928E-02 0.  1.
</event>
<event>
 5   0  0.2005125E-03  0.5000070E+03  0.7818609E-02  0.1013777E+00
       -3   -1    0    0    0  501  0.00000000000E+00  0.00000000000E+00  0.43248062338E+03  0.43248063518E+03  0.10100000352E+00 0.  1.
        3   -1    0    0  501    0  0.00000000000E+00  0.00000000000E+00 -0.14451915101E+03  0.14451918630E+03  0.10100000352E+00 0. -1.
    10030    2    1    2    0    0  0.00000000000E+00  0.00000000000E+00  0.28796147237E+03  0.57699982148E+03  0.50000698437E+03 0.  0.
        1    1    3    3  502    0  0.13783893434E+02 -0.24842897597E+03  0.17212455284E+03  0.30254555613E+03  0.50400001928E-02 0. -1.
       -1    1    3    3    0  502 -0.13783893434E+02  0.24842897597E+03  0.11583691954E+03  0.27445426535E+03  0.50400001928E-02 0.  1.
</event>
<event>
 5   0  0.5118882E-03  0.5002981E+03  0.7818609E-02  0.1013701E+00
       -2   -1    0    0    0  501  0.00000000000E+00  0.00000000000E+00  0.11872569228E+03  0.11872569231E+03  0.25500000920E-02 0. -1.
        2   -1    0    0  501    0  0.00000000000E+00  0.00000000000E+00 -0.52705134059E+03  0.52705134060E+03  0.25500000920E-02 0.  1.
    10030    2    1    2    0    0  0.00000000000E+00  0.00000000000E+00 -0.40832564831E+03  0.64577703291E+03  0.50029805233E+03 0.  0.
        3    1    3    3  502    0 -0.99829391543E+02  0.41310883043E+02  0.87057263645E+02  0.13874968046E+03  0.10100000352E+00 0. -1.
       -3    1    3    3    0  502  0.99829391543E+02 -0.41310883043E+02 -0.49538291195E+03  0.50702735245E+03  0.10100000352E+00 0.  1.
</event>
<event>
 5   0  0.2005125E-03  0.4995389E+03  0.7818609E-02  0.1013899E+00
        3   -1    0    0  501    0  0.00000000000E+00  0.00000000000E+00  0.13017794843E+03  0.13017798761E+03  0.10100000352E+00 0.  1.
       -3   -1    0    0    0  501  0.00000000000E+00  0.00000000000E+00 -0.47922681940E+03  0.47922683004E+03  0.10100000352E+00 0. -1.
    10030    2    1    2    0    0  0.00000000000E+00  0.00000000000E+00 -0.34904887097E+03  0.60940481766E+03  0.49953890485E+03 0.  0.
        3    1    3    3  502    0 -0.21708560963E+03 -0.12098580422E+03 -0.14412278207E+03  0.28728925013E+03  0.10100000352E+00 0.  1.
       -3    1    3    3    0  502  0.21708560963E+03  0.12098580422E+03 -0.20492608890E+03  0.32211556753E+03  0.10100000352E+00 0. -1.
</event>
<event>
 5   0  0.2863538E-03  0.4997406E+03  0.7818609E-02  0.1013847E+00
       -1   -1    0    0    0  501  0.00000000000E+00  0.00000000000E+00  0.93378430960E+03  0.93378430962E+03  0.50400001928E-02 0. -1.
        1   -1    0    0  501    0  0.00000000000E+00  0.00000000000E+00 -0.66862517637E+02  0.66862517827E+02  0.50400001928E-02 0.  1.
    10030    2    1    2    0    0  0.00000000000E+00  0.00000000000E+00  0.86692179197E+03  0.10006468274E+04  0.49974061261E+03 0.  0.
        1    1    3    3  502    0  0.11526812279E+02  0.23207470739E+03  0.61745370314E+03  0.65972768076E+03  0.50400001928E-02 0. -1.
       -1    1    3    3    0  502 -0.11526812279E+02 -0.23207470739E+03  0.24946808882E+03  0.34091914668E+03  0.50400001928E-02 0.  1.
</event>
<event>
 5   0  0.3013734E-03  0.5003464E+03  0.7818609E-02  0.1013689E+00
       -1   -1    0    0    0  501  0.00000000000E+00  0.00000000000E+00  0.18707844660E+03  0.18707844666E+03  0.50400001928E-02 0.  1.
        1   -1    0    0  501    0  0.00000000000E+00  0.00000000000E+00 -0.33454752230E+03  0.33454752234E+03  0.50400001928E-02 0. -1.
    10030    2    1    2    0    0  0.00000000000E+00  0.00000000000E+00 -0.14746907570E+03  0.52162596900E+03  0.50034640325E+03 0.  0.
        2    1    3    3  502    0  0.61649811768E+01  0.66737791217E+02  0.17754472275E+03  0.18977372935E+03  0.25500000920E-02 0.  1.
       -2    1    3    3    0  502 -0.61649811768E+01 -0.66737791217E+02 -0.32501379845E+03  0.33185223965E+03  0.25500000920E-02 0. -1.
</event>
<event>
 5   0  0.3055293E-03  0.4998470E+03  0.7818609E-02  0.1013819E+00
       -1   -1    0    0    0  501  0.00000000000E+00  0.00000000000E+00  0.73362795369E+02  0.73362795542E+02  0.50400001928E-02 0. -1.
        1   -1    0    0  501    0  0.00000000000E+00  0.00000000000E+00 -0.85140922898E+03  0.85140922899E+03  0.50400001928E-02 0.  1.
    10030    2    1    2    0    0  0.00000000000E+00  0.00000000000E+00 -0.77804643361E+03  0.92477202454E+03  0.49984702111E+03 0.  0.
        3    1    3    3  502    0 -0.42617332031E+02 -0.62630886764E+02  0.51609494268E+02  0.91664688217E+02  0.10100000352E+00 0. -1.
       -3    1    3    3    0  502  0.42617332031E+02  0.62630886764E+02 -0.82965592788E+03  0.83310733632E+03  0.10100000352E+00 0.  1.
</event>
<event>
 5   0  0.4978779E-03  0.5000572E+03  0.7818609E-02  0.1013764E+00
        2   -1    0    0  501    0  0.00000000000E+00  0.00000000000E+00  0.25680730022E+02  0.25680730148E+02  0.25500000920E-02 0. -1.
       -2   -1    0    0    0  501  0.00000000000E+00  0.00000000000E+00 -0.24342883255E+04  0.24342883255E+04  0.25500000920E-02 0.  1.
    10030    2    1    2    0    0  0.00000000000E+00  0.00000000000E+00 -0.24086075955E+04  0.24599690556E+04  0.50005720248E+03 0.  0.
        1    1    3    3  502    0  0.15848640853E+02 -0.16632832812E+03 -0.28927341967E+03  0.33405898208E+03  0.50400001928E-02 0. -1.
       -1    1    3    3    0  502 -0.15848640853E+02  0.16632832812E+03 -0.21193341758E+04  0.21259100735E+04  0.50400001928E-02 0.  1.
</event>
<event>
 5   0  0.5118882E-03  0.5000478E+03  0.7818609E-02  0.1013766E+00
       -2   -1    0    0    0  501  0.00000000000E+00  0.00000000000E+00  0.71450506230E+02  0.71450506276E+02  0.25500000920E-02 0.  1.
        2   -1    0    0  501    0  0.00000000000E+00  0.00000000000E+00 -0.87489873391E+03  0.87489873391E+03  0.25500000920E-02 0. -1.
    10030    2    1    2    0    0  0.00000000000E+00  0.00000000000E+00 -0.80344822768E+03  0.94634924019E+03  0.50004782756E+03 0.  0.
        3    1    3    3  502    0  0.24448722380E+03  0.10866560695E+02 -0.30485637916E+03  0.39093414644E+03  0.10100000352E+00 0.  1.
       -3    1    3    3    0  502 -0.24448722380E+03 -0.10866560695E+02 -0.49859184852E+03  0.55541509374E+03  0.10100000352E+00 0. -1.
</event>
<event>
 5   0  0.2005125E-03  0.5018283E+03  0.7818609E-02  0.1013303E+00
        3   -1    0    0  501    0  0.00000000000E+00  0.00000000000E+00  0.16293735961E+03  0.16293739091E+03  0.10100000352E+00 0. -1.
       -3   -1    0    0    0  501  0.00000000000E+00  0.00000000000E+00 -0.38639330339E+03  0.38639331659E+03  0.10100000352E+00 0.  1.
    10030    2    1    2    0    0  0.00000000000E+00  0.00000000000E+00 -0.22345594378E+03  0.54933070750E+03  0.50182832462E+03 0.  0.
        5    1    3    3  502    0  0.16241762781E+03  0.19115239332E+03 -0.10720085329E+03  0.27282381905E+03  0.46999998093E+01 0.  1.
       -5    1    3    3    0  502 -0.16241762781E+03 -0.19115239332E+03 -0.11625509049E+03  0.27650688845E+03  0.46999998093E+01 0. -1.
</event>
<event>
 5   0  0.3211775E-03  0.5001106E+03  0.7818609E-02  0.1013750E+00
        1   -1    0    0  501    0  0.00000000000E+00  0.00000000000E+00  0.61932329928E+03  0.61932329930E+03  0.50400001928E-02 0.  1.
       -1   -1    0    0    0  501  0.00000000000E+00  0.00000000000E+00 -0.10096126225E+03  0.10096126237E+03  0.50400001928E-02 0. -1.
    10030    2    1    2    0    0  0.00000000000E+00  0.00000000000E+00  0.51836203704E+03  0.72028456168E+03  0.50011063611E+03 0.  0.
        4    1    3    3  502    0 -0.12451025703E+03 -0.12710441559E+03  0.51222163646E+03  0.54224621191E+03  0.12699999809E+01 0.  1.
       -4    1    3    3    0  502  0.12451025703E+03  0.12710441559E+03  0.61404005749E+01  0.17803834977E+03  0.12699999809E+01 0. -1.
</event>
<event>
 5   0  0.3013734E-03  0.4998662E+03  0.7818609E-02  0.1013814E+00
       -1   -1    0    0    0  501  0.00000000000E+00  0.00000000000E+00  0.24267993716E+03  0.24267993721E+03  0.50400001928E-02 0. -1.
        1   -1    0    0  501    0  0.00000000000E+00  0.00000000000E+00 -0.25740304587E+03  0.25740304592E+03  0.50400001928E-02 0.  1.
    10030    2    1    2    0    0  0.00000000000E+00  0.00000000000E+00 -0.14723108715E+02  0.50008298313E+03  0.49986620218E+03 0.  0.
        2    1    3    3  502    0  0.64926168367E+02 -0.32789053598E+01  0.23407357681E+03  0.24293331991E+03  0.25500000920E-02 0. -1.
       -2    1    3    3    0  502 -0.64926168367E+02  0.32789053598E+01 -0.24879668552E+03  0.25714966322E+03  0.25500000920E-02 0.  1.
</event>
<event>
 5   0  0.3013734E-03  0.4998165E+03  0.7818609E-02  0.1013827E+00
       -1   -1    0    0    0  501  0.00000000000E+00  0.00000000000E+00  0.73861144236E+02  0.73861144408E+02  0.50400001928E-02 0. -1.
        1   -1    0    0  501    0  0.00000000000E+00  0.00000000000E+00 -0.84556144787E+03  0.84556144789E+03  0.50400001928E-02 0.  1.
    10030    2    1    2    0    0  0.00000000000E+00  0.00000000000E+00 -0.77170030364E+03  0.91942259230E+03  0.49981651092E+03 0.  0.
        2    1    3    3  502    0 -0.87451326475E+02 -0.17980746856E+03 -0.66162899976E+03  0.69118115830E+03  0.25500000920E-02 0.  1.
       -2    1    3    3    0  502  0.87451326475E+02  0.17980746856E+03 -0.11007130387E+03  0.22824143400E+03  0.25500000920E-02 0. -1.
</event>
<event>
 5   0  0.2863538E-03  0.5000567E+03  0.7818609E-02  0.1013764E+00
        1   -1    0    0  501    0  0.00000000000E+00  0.00000000000E+00  0.29794358202E+03  0.29794358206E+03  0.50400001928E-02 0. -1.
       -1   -1    0    0    0  501  0.00000000000E+00  0.00000000000E+00 -0.20981881131E+03  0.20981881137E+03  0.50400001928E-02 0.  1.
    10030    2    1    2    0    0  0.00000000000E+00  0.00000000000E+00  0.88124770705E+02  0.50776239343E+03  0.50005666976E+03 0.  0.
        1    1    3    3  502    0  0.20007252291E+03 -0.13806057808E+03 -0.15358003703E+02  0.24356848308E+03  0.50400001928E-02 0.  1.
       -1    1    3    3    0  502 -0.20007252291E+03  0.13806057808E+03  0.10348277441E+03  0.26419391036E+03  0.50400001928E-02 0. -1.
</event>
<event>
 5   0  0.3057783E-03  0.4999982E+03  0.7818609E-02  0.1013779E+00
       -1   -1    0    0    0  501  0.00000000000E+00  0.00000000000E+00  0.55835784617E+02  0.55835784845E+02  0.50400001928E-02 0.  1.
        1   -1    0    0  501    0  0.00000000000E+00  0.00000000000E+00 -0.11193458894E+04  0.11193458895E+04  0.50400001928E-02 0. -1.
    10030    2    1    2    0    0  0.00000000000E+00  0.00000000000E+00 -0.10635101048E+04  0.11751816743E+04  0.49999822454E+03 0.  0.
        5    1    3    3  502    0  0.75208961203E+01 -0.13520781417E+02 -0.11181155153E+04  0.11182324315E+04  0.46999998093E+01 0. -1.
       -5    1    3    3    0  502 -0.75208961203E+01  0.13520781417E+02  0.54605410431E+02  0.56949242796E+02  0.46999998093E+01 0.  1.
</event>
<event>
 5   0  0.3211775E-03  0.4999735E+03  0.7818609E-02  0.1013786E+00
        1   -1    0    0  501    0  0.00000000000E+00  0.00000000000E+00  0.19361659507E+04  0.19361659507E+04  0.50400001928E-02 0. -1.
       -1   -1    0    0    0  501  0.00000000000E+00  0.00000000000E+00 -0.32276867851E+02  0.32276868245E+02  0.50400001928E-02 0.  1.
    10030    2    1    2    0    0  0.00000000000E+00  0.00000000000E+00  0.19038890828E+04  0.19684428189E+04  0.49997349098E+03 0.  0.
        4    1    3    3  502    0  0.19958119074E+03 -0.77532968425E+02  0.14599326669E+04  0.14755504118E+04  0.12699999809E+01 0. -1.
       -4    1    3    3    0  502 -0.19958119074E+03  0.77532968425E+02  0.44395641589E+03  0.49289240712E+03  0.12699999809E+01 0.  1.
</event>
<event>
 5   0  0.5095783E-03  0.4999954E+03  0.7818609E-02  0.1013780E+00
        2   -1    0    0  501    0  0.00000000000E+00  0.00000000000E+00  0.29657398803E+04  0.29657398803E+04  0.25500000920E-02 0.  1.
       -2   -1    0    0    0  501  0.00000000000E+00  0.00000000000E+00 -0.21073609693E+02  0.21073609847E+02  0.25500000920E-02 0. -1.
    10030    2    1    2    0    0  0.00000000000E+00  0.00000000000E+00  0.29446662706E+04  0.29868134902E+04  0.49999537966E+03 0.  0.
        4    1    3    3  502    0 -0.17765793092E+03  0.10800571729E+03  0.64309531564E+03  0.67587038202E+03  0.12699999809E+01 0. -1.
       -4    1    3    3    0  502  0.17765793092E+03 -0.10800571729E+03  0.23015709550E+04  0.23109431081E+04  0.12699999809E+01 0.  1.
</event>
<event>
 5   0  0.2005125E-03  0.4998706E+03  0.7818609E-02  0.1013813E+00
       -3   -1    0    0    0  501  0.00000000000E+00  0.00000000000E+00  0.40862451614E+03  0.40862452862E+03  0.10100000352E+00 0.  1.
        3   -1    0    0  501    0  0.00000000000E+00  0.00000000000E+00 -0.15287298126E+03  0.15287301463E+03  0.10100000352E+00 0. -1.
    10030    2    1    2    0    0  0.00000000000E+00  0.00000000000E+00  0.25575153488E+03  0.56149754325E+03  0.49987062674E+03 0.  0.
        4    1    3    3  502    0  0.18317120759E+03 -0.62615173667E+02  0.30546044477E+03  0.36163524093E+03  0.12699999809E+01 0.  1.
       -4    1    3    3    0  502 -0.18317120759E+03  0.62615173667E+02 -0.49708909897E+02  0.19986230231E+03  0.12699999809E+01 0. -1.
</event>
<event>
 5   0  0.5095783E-03  0.4971683E+03  0.7818609E-02  0.1014521E+00
       -2   -1    0    0    0  501  0.00000000000E+00  0.00000000000E+00  0.30303273182E+03  0.30303273183E+03  0.25500000920E-02 0.  1.
        2   -1    0    0  501    0  0.00000000000E+00  0.00000000000E+00 -0.20391880839E+03  0.20391880841E+03  0.25500000920E-02 0. -1.
    10030    2    1    2    0    0  0.00000000000E+00  0.00000000000E+00  0.99113923426E+02  0.50695154023E+03  0.49716827567E+03 0.  0.
        4    1    3    3  502    0 -0.29105936723E+02  0.17200370404E+02  0.30067417332E+03  0.30257161086E+03  0.12699999809E+01 0.  1.
       -4    1    3    3    0  502  0.29105936723E+02 -0.17200370404E+02 -0.20156024989E+03  0.20437992938E+03  0.12699999809E+01 0. -1.
</event>
<event>
 5   0  0.2863538E-03  0.5000070E+03  0.7818609E-02  0.1013777E+00
       -1   -1    0    0    0  501  0.00000000000E+00  0.00000000000E+00  0.76155394581E+02  0.76155394748E+02  0.50400001928E-02 0. -1.
        1   -1    0    0  501    0  0.00000000000E+00  0.00000000000E+00 -0.82071320224E+03  0.82071320225E+03  0.50400001928E-02 0.  1.
    10030    2    1    2    0    0  0.00000000000E+00  0.00000000000E+00 -0.74455780766E+03  0.89686859700E+03  0.50000695130E+03 0.  0.
        1    1    3    3  502    0  0.16693797519E+03  0.98928298443E+02 -0.89539311687E+02  0.21371098277E+03  0.50400001928E-02 0. -1.
       -1    1    3    3    0  502 -0.16693797519E+03 -0.98928298443E+02 -0.65501849597E+03  0.68315761423E+03  0.50400001928E-02 0.  1.
</event>
<event>
 5   0  0.3211775E-03  0.5001725E+03  0.7818609E-02  0.1013734E+00
        1   -1    0    0  501    0  0.00000000000E+00  0.00000000000E+00  0.11148151409E+04  0.11148151409E+04  0.50400001928E-02 0. -1.
       -1   -1    0    0    0  501  0.00000000000E+00  0.00000000000E+00 -0.56101802209E+02  0.56101802436E+02  0.50400001928E-02 0.  1.
    10030    2    1    2    0    0  0.00000000000E+00  0.00000000000E+00  0.10587133387E+04  0.11709169434E+04  0.50017252494E+03 0.  0.
        4    1    3    3  502    0 -0.14305216859E+03 -0.16162223186E+02  0.10080743893E+04  0.10183028664E+04  0.12699999809E+01 0. -1.
       -4    1    3    3    0  502  0.14305216859E+03  0.16162223186E+02  0.50638949390E+02  0.15261407698E+03  0.12699999809E+01 0.  1.
</event>
<event>
 5   0  0.5095783E-03  0.5006133E+03  0.7818609E-02  0.1013619E+00
       -2   -1    0    0    0  501  0.00000000000E+00  0.00000000000E+00  0.19011522146E+03  0.19011522147E+03  0.25500000920E-02 0.  1.
        2   -1    0    0  501    0  0.00000000000E+00  0.00000000000E+00 -0.32955496651E+03  0.32955496652E+03  0.25500000920E-02 0. -1.
    10030    2    1    2    0    0  0.00000000000E+00  0.00000000000E+00 -0.13943974505E+03  0.51967018799E+03  0.50061328567E+03 0.  0.
        4    1    3    3  502    0  0.24890346528E+03 -0.22620227353E+02 -0.83922544037E+02  0.26364600511E+03  0.12699999809E+01 0.  1.
       -4    1    3    3    0  502 -0.24890346528E+03  0.22620227353E+02 -0.55517201015E+02  0.25602418288E+03  0.12699999809E+01 0. -1.
</event>
<event>
 5   0  0.5095783E-03  0.4990205E+03  0.7818609E-02  0.1014035E+00
       -2   -1    0    0    0  501  0.00000000000E+00  0.00000000000E+00  0.12637458059E+03  0.12637458061E+03  0.25500000920E-02 0.  1.
        2   -1    0    0  501    0  0.00000000000E+00  0.00000000000E+00 -0.49262578422E+03  0.49262578423E+03  0.25500000920E-02 0. -1.
    10030    2    1    2    0    0  0.00000000000E+00  0.00000000000E+00 -0.36625120364E+03  0.61900036484E+03  0.49902054818E+03 0.  0.
        4    1    3    3  502    0 -0.10581926214E+03  0.71732911252E+02  0.82658004690E+02  0.15224087965E+03  0.12699999809E+01 0.  1.
       -4    1    3    3    0  502  0.10581926214E+03 -0.71732911252E+02 -0.44890920833E+03  0.46675948519E+03  0.12699999809E+01 0. -1.
</event>
<event>
 5   0  0.4889251E-03  0.4997905E+03  0.7818609E-02  0.1013834E+00
        2   -1    0    0  501    0  0.00000000000E+00  0.00000000000E+00  0.18739265045E+04  0.18739265045E+04  0.25500000920E-02 0. -1.
       -2   -1    0    0    0  501  0.00000000000E+00  0.00000000000E+00 -0.33324479604E+02  0.33324479702E+02  0.25500000920E-02 0.  1.
    10030    2    1    2    0    0  0.00000000000E+00  0.00000000000E+00  0.18406020249E+04  0.19072509842E+04  0.49979045879E+03 0.  0.
        5    1    3    3  502    0  0.17488344863E+03  0.16773453151E+03  0.68797465058E+03  0.72941778392E+03  0.46999998093E+01 0.  1.
       -5    1    3    3    0  502 -0.17488344863E+03 -0.16773453151E+03  0.11526273743E+04  0.11778332003E+04  0.46999998093E+01 0. -1.
</event>
<event>
 5   0  0.4978779E-03  0.5002934E+03  0.7818609E-02  0.1013702E+00
        2   -1    0    0  501    0  0.00000000000E+00  0.00000000000E+00  0.86848061029E+03  0.86848061029E+03  0.25500000920E-02 0. -1.
       -2   -1    0    0    0  501  0.00000000000E+00  0.00000000000E+00 -0.72049239766E+02  0.72049239811E+02  0.25500000920E-02 0.  1.
    10030    2    1    2    0    0  0.00000000000E+00  0.00000000000E+00  0.79643137052E+03  0.94052985010E+03  0.50029338491E+03 0.  0.
        1    1    3    3  502    0  0.20811947759E+02 -0.16489226396E+03  0.74967593114E+03  0.76787798357E+03  0.50400001928E-02 0. -1.
       -1    1    3    3    0  502 -0.20811947759E+02  0.16489226396E+03  0.46755439377E+02  0.17265186654E+03  0.50400001928E-02 0.  1.
</event>
<event>
 5   0  0.3057783E-03  0.5001480E+03  0.7818609E-02  0.1013740E+00
        1   -1    0    0  501    0  0.00000000000E+00  0.00000000000E+00  0.32589676339E+03  0.32589676343E+03  0.50400001928E-02 0. -1.
       -1   -1    0    0    0  501  0.00000000000E+00  0.00000000000E+00 -0.19189206445E+03  0.19189206452E+03  0.50400001928E-02 0.  1.
    10030    2    1    2    0    0  0.00000000000E+00  0.00000000000E+00  0.13400469894E+03  0.51778882795E+03  0.50014798911E+03 0.  0.
        5    1    3    3  502    0 -0.14248755884E+02 -0.14365772744E+03 -0.14434097266E+03  0.20419837434E+03  0.46999998093E+01 0.  1.
       -5    1    3    3    0  502  0.14248755884E+02  0.14365772744E+03  0.27834567160E+03  0.31359045361E+03  0.46999998093E+01 0. -1.
</event>
<event>
 5   0  0.4889251E-03  0.4999242E+03  0.7818609E-02  0.1013799E+00
        2   -1    0    0  501    0  0.00000000000E+00  0.00000000000E+00  0.68100466200E+03  0.68100466201E+03  0.25500000920E-02 0.  1.
       -2   -1    0    0    0  501  0.00000000000E+00  0.00000000000E+00 -0.91748350999E+02  0.91748351034E+02  0.25500000920E-02 0. -1.
    10030    2    1    2    0    0  0.00000000000E+00  0.00000000000E+00  0.58925631101E+03  0.77275301304E+03  0.49992421336E+03 0.  0.
        5    1    3    3  502    0 -0.17636060772E+03  0.70188452036E+02  0.43334883564E+02  0.19475493546E+03  0.46999998093E+01 0. -1.
       -5    1    3    3    0  502  0.17636060772E+03 -0.70188452036E+02  0.54592142744E+03  0.57799807758E+03  0.46999998093E+01 0.  1.
</event>
<event>
 5   0  0.2005125E-03  0.4998949E+03  0.7818609E-02  0.1013806E+00
       -4   -1    0    0    0  501  0.00000000000E+00  0.00000000000E+00  0.87084994925E+02  0.87094254925E+02  0.12699999809E+01 0.  1.
        4   -1    0    0  501    0  0.00000000000E+00  0.00000000000E+00 -0.71733991528E+03  0.71734103950E+03  0.12699999809E+01 0. -1.
    10030    2    1    2    0    0  0.00000000000E+00  0.00000000000E+00 -0.63025492035E+03  0.80443529442E+03  0.49989486723E+03 0.  0.
        3    1    3    3  502    0 -0.72586310720E+02 -0.37065606301E+02 -0.69536101942E+03  0.70012112467E+03  0.10100000352E+00 0. -1.
       -3    1    3    3    0  502  0.72586310720E+02  0.37065606301E+02  0.65106099070E+02  0.10431416975E+03  0.10100000352E+00 0.  1.
</event>
<event>
 5   0  0.4889251E-03  0.4998307E+03  0.7818609E-02  0.1013823E+00
       -2   -1    0    0    0  501  0.00000000000E+00  0.00000000000E+00  0.11459301257E+03  0.11459301259E+03  0.25500000920E-02 0.  1.
        2   -1    0    0  501    0  0.00000000000E+00  0.00000000000E+00 -0.54503925906E+03  0.54503925906E+03  0.25500000920E-02 0. -1.
    10030    2    1    2    0    0  0.00000000000E+00  0.00000000000E+00 -0.43044624649E+03  0.65963227166E+03  0.49983073404E+03 0.  0.
        5    1    3    3  502    0  0.55052994975E+01 -0.25654021744E+02 -0.54315787653E+03  0.54381155374E+03  0.46999998093E+01 0. -1.
       -5    1    3    3    0  502 -0.55052994975E+01  0.25654021744E+02  0.11271163004E+03  0.11582071791E+03  0.46999998093E+01 0.  1.
</event>
<event>
 5   0  0.3055293E-03  0.5002554E+03  0.7818609E-02  0.1013712E+00
        1   -1    0    0  501    0  0.00000000000E+00  0.00000000000E+00  0.53707418987E+03  0.53707418989E+03  0.50400001928E-02 0.  1.
       -1   -1    0    0    0  501  0.00000000000E+00  0.00000000000E+00 -0.11649019621E+03  0.11649019632E+03  0.50400001928E-02 0. -1.
    10030    2    1    2    0    0  0.00000000000E+00  0.00000000000E+00  0.42058399366E+03  0.65356438621E+03  0.50025544595E+03 0.  0.
        3    1    3    3  502    0  0.15383126460E+03 -0.19109855548E+03  0.27404344987E+03  0.36780774665E+03  0.10100000352E+00 0.  1.
       -3    1    3    3    0  502 -0.15383126460E+03  0.19109855548E+03  0.14654054379E+03  0.28575663956E+03  0.10100000352E+00 0. -1.
</event>
<event>
 5   0  0.3013734E-03  0.4989866E+03  0.7818609E-02  0.1014044E+00
        1   -1    0    0  501    0  0.00000000000E+00  0.00000000000E+00  0.54588902507E+02  0.54588902740E+02  0.50400001928E-02 0.  1.
       -1   -1    0    0    0  501  0.00000000000E+00  0.00000000000E+00 -0.11402849593E+04  0.11402849593E+04  0.50400001928E-02 0. -1.
    10030    2    1    2    0    0  0.00000000000E+00  0.00000000000E+00 -0.10856960568E+04  0.11948738620E+04  0.49898659148E+03 0.  0.
        2    1    3    3  502    0  0.91176102872E+02 -0.23221114004E+03 -0.55107700108E+03  0.60491400746E+03  0.25500000920E-02 0.  1.
       -2    1    3    3    0  502 -0.91176102872E+02  0.23221114004E+03 -0.53461905569E+03  0.58995985457E+03  0.25500000920E-02 0. -1.
</event>
<event>
 5   0  0.3055293E-03  0.5000336E+03  0.7818609E-02  0.1013770E+00
       -1   -1    0    0    0  501  0.00000000000E+00  0.00000000000E+00  0.14542938919E+03  0.14542938928E+03  0.50400001928E-02 0.  1.
        1   -1    0    0  501    0  0.00000000000E+00  0.00000000000E+00 -0.42981954082E+03  0.42981954085E+03  0.50400001928E-02 0. -1.
    10030    2    1    2    0    0  0.00000000000E+00  0.00000000000E+00 -0.28439015163E+03  0.57524893013E+03  0.50003357214E+03 0.  0.
        3    1    3    3  502    0 -0.18831830879E+03 -0.13436160006E+03 -0.33107790605E+02  0.23369416123E+03  0.10100000352E+00 0.  1.
       -3    1    3    3    0  502  0.18831830879E+03  0.13436160006E+03 -0.25128236102E+03  0.34155476890E+03  0.10100000352E+00 0. -1.
</event>
<event>
 5   0  0.2005125E-03  0.5000131E+03  0.7818609E-02  0.1013775E+00
       -3   -1    0    0    0  501  0.00000000000E+00  0.00000000000E+00  0.76230648188E+02  0.76230715096E+02  0.10100000352E+00 0. -1.
        3   -1    0    0  501    0  0.00000000000E+00  0.00000000000E+00 -0.81992284635E+03  0.81992285257E+03  0.10100000352E+00 0.  1.
    10030    2    1    2    0    0  0.00000000000E+00  0.00000000000E+00 -0.74369219817E+03  0.89615356767E+03  0.50001313106E+03 0.  0.
        5    1    3    3  502    0 -0.67179475632E+02 -0.89322170048E+02  0.28873997516E+02  0.11553064416E+03  0.46999998093E+01 0. -1.
       -5    1    3    3    0  502  0.67179475632E+02  0.89322170048E+02 -0.77256619568E+03  0.78062292352E+03  0.46999998093E+01 0.  1.
</event>
<event>
 5   0  0.3055293E-03  0.5000582E+03  0.7818609E-02  0.1013764E+00
       -1   -1    0    0    0  501  0.00000000000E+00  0.00000000000E+00  0.49340739025E+02  0.49340739282E+02  0.50400001928E-02 0. -1.
        1   -1    0    0  501    0  0.00000000000E+00  0.00000000000E+00 -0.12669965185E+04  0.12669965185E+04  0.50400001928E-02 0.  1.
    10030    2    1    2    0    0  0.00000000000E+00  0.00000000000E+00 -0.12176557794E+04  0.13163372578E+04  0.50005817557E+03 0.  0.
        3    1    3    3  502    0  0.44180298284E+02  0.18086118266E+03 -0.10481406408E+04  0.10645475467E+04  0.10100000352E+00 0.  1.
       -3    1    3    3    0  502 -0.44180298284E+02 -0.18086118266E+03 -0.16951513863E+03  0.25178971101E+03  0.10100000352E+00 0. -1.
</event>
<event>
 5   0  0.4989875E-03  0.5000528E+03  0.7818609E-02  0.1013765E+00
       -2   -1    0    0    0  501  0.00000000000E+00  0.00000000000E+00  0.55102350196E+02  0.55102350255E+02  0.25500000920E-02 0.  1.
        2   -1    0    0  501    0  0.00000000000E+00  0.00000000000E+00 -0.11344925853E+04  0.11344925853E+04  0.25500000920E-02 0. -1.
    10030    2    1    2    0    0  0.00000000000E+00  0.00000000000E+00 -0.10793902351E+04  0.11895949356E+04  0.50005282828E+03 0.  0.
        2    1    3    3  502    0 -0.20212944289E+03 -0.35588524434E+02 -0.87939515202E+03  0.90302751240E+03  0.25500000920E-02 0. -1.
       -2    1    3    3    0  502  0.20212944289E+03  0.35588524434E+02 -0.19999508312E+03  0.28656742319E+03  0.25500000920E-02 0.  1.
</event>
<event>
 5   0  0.3055293E-03  0.5001294E+03  0.7818609E-02  0.1013745E+00
        1   -1    0    0  501    0  0.00000000000E+00  0.00000000000E+00  0.36656816130E+03  0.36656816133E+03  0.50400001928E-02 0.  1.
       -1   -1    0    0    0  501  0.00000000000E+00  0.00000000000E+00 -0.17058858376E+03  0.17058858384E+03  0.50400001928E-02 0. -1.
    10030    2    1    2    0    0  0.00000000000E+00  0.00000000000E+00  0.19597957754E+03  0.53715674517E+03  0.50012935734E+03 0.  0.
        3    1    3    3  502    0 -0.21549473311E+03  0.78705515601E+02 -0.88743005566E+01  0.22958941961E+03  0.10100000352E+00 0. -1.
       -3    1    3    3    0  502  0.21549473311E+03 -0.78705515601E+02  0.20485387809E+03  0.30756732556E+03  0.10100000352E+00 0.  1.
</event>
<event>
 5   0  0.3013734E-03  0.5000857E+03  0.7818609E-02  0.1013757E+00
       -1   -1    0    0    0  501  0.00000000000E+00  0.00000000000E+00  0.12371492877E+03  0.12371492887E+03  0.50400001928E-02 0.  1.
        1   -1    0    0  501    0  0.00000000000E+00  0.00000000000E+00 -0.50536683413E+03  0.50536683415E+03  0.50400001928E-02 0. -1.
    10030    2    1    2    0    0  0.00000000000E+00  0.00000000000E+00 -0.38165190536E+03  0.62908176302E+03  0.50008568036E+03 0.  0.
        2    1    3    3  502    0 -0.66516115131E+02  0.11786315815E+03 -0.45531023529E+03  0.47499845051E+03  0.25500000920E-02 0. -1.
       -2    1    3    3    0  502  0.66516115131E+02 -0.11786315815E+03  0.73658329931E+02  0.15408331251E+03  0.25500000920E-02 0.  1.
</event>
<event>
 5   0  0.2863538E-03  0.5008938E+03  0.7818609E-02  0.1013546E+00
       -1   -1    0    0    0  501  0.00000000000E+00  0.00000000000E+00  0.46725487462E+02  0.46725487734E+02  0.50400001928E-02 0.  1.
        1   -1    0    0  501    0  0.00000000000E+00  0.00000000000E+00 -0.13423861306E+04  0.13423861306E+04  0.50400001928E-02 0. -1.
    10030    2    1    2    0    0  0.00000000000E+00  0.00000000000E+00 -0.12956606432E+04  0.13891116184E+04  0.50089378719E+03 0.  0.
        1    1    3    3  502    0 -0.14505271978E+02 -0.20807511853E+03 -0.10322852784E+04  0.10531469764E+04  0.50400001928E-02 0.  1.
       -1    1    3    3    0  502  0.14505271978E+02  0.20807511853E+03 -0.26337536476E+03  0.33596464197E+03  0.50400001928E-02 0. -1.
</event>
<event>
 5   0  0.4978779E-03  0.4999640E+03  0.7818609E-02  0.1013788E+00
       -2   -1    0    0    0  501  0.00000000000E+00  0.00000000000E+00  0.70212662854E+02  0.70212662901E+02  0.25500000920E-02 0.  1.
        2   -1    0    0  501    0  0.00000000000E+00  0.00000000000E+00 -0.89002449201E+03  0.89002449201E+03  0.25500000920E-02 0. -1.
    10030    2    1    2    0    0  0.00000000000E+00  0.00000000000E+00 -0.81981182916E+03  0.96023715492E+03  0.49996395716E+03 0.  0.
        1    1    3    3  502    0  0.67433871366E+02  0.22747426432E+03 -0.25868742738E+03  0.35101432029E+03  0.50400001928E-02 0.  1.
       -1    1    3    3    0  502 -0.67433871366E+02 -0.22747426432E+03 -0.56112440177E+03  0.60922283463E+03  0.50400001928E-02 0. -1.
</event>
<event>
 5   0  0.4989875E-03  0.5001617E+03  0.7818609E-02  0.1013737E+00
        2   -1    0    0  501    0  0.00000000000E+00  0.00000000000E+00  0.68175990634E+03  0.68175990635E+03  0.25500000920E-02 0. -1.
       -2   -1    0    0    0  501  0.00000000000E+00  0.00000000000E+00 -0.91733820825E+02  0.91733820860E+02  0.25500000920E-02 0.  1.
    10030    2    1    2    0    0  0.00000000000E+00  0.00000000000E+00  0.59002608552E+03  0.77349372721E+03  0.50016173828E+03 0.  0.
        2    1    3    3  502    0  0.18671778817E+02  0.81733708083E+01  0.68047323838E+03  0.68077842759E+03  0.25500000920E-02 0. -1.
       -2    1    3    3    0  502 -0.18671778817E+02 -0.81733708083E+01 -0.90447152865E+02  0.92715299614E+02  0.25500000920E-02 0.  1.
</event>
<event>
 5   0  0.2005125E-03  0.5001255E+03  0.7818609E-02  0.1013746E+00
       -3   -1    0    0    0  501  0.00000000000E+00  0.00000000000E+00  0.20395578397E+03  0.20395580898E+03  0.10100000352E+00 0. -1.
        3   -1    0    0  501    0  0.00000000000E+00  0.00000000000E+00 -0.30659278901E+03  0.30659280564E+03  0.10100000352E+00 0.  1.
    10030    2    1    2    0    0  0.00000000000E+00  0.00000000000E+00 -0.10263700503E+03  0.51054861462E+03  0.50012551734E+03 0.  0.
        5    1    3    3  502    0 -0.46949302086E+02 -0.84702729049E+02  0.18398590186E+03  0.20797040981E+03  0.46999998093E+01 0. -1.
       -5    1    3    3    0  502  0.46949302086E+02  0.84702729049E+02 -0.28662290689E+03  0.30257820481E+03  0.46999998093E+01 0.  1.
</event>
<event>
 5   0  0.3055293E-03  0.4993659E+03  0.7818609E-02  0.1013945E+00
       -1   -1    0    0    0  501  0.00000000000E+00  0.00000000000E+00  0.14859160981E+03  0.14859160989E+03  0.50400001928E-02 0.  1.
        1   -1    0    0  501    0  0.00000000000E+00  0.00000000000E+00 -0.41954977390E+03  0.41954977393E+03  0.50400001928E-02 0. -1.
    10030    2    1    2    0    0  0.00000000000E+00  0.00000000000E+00 -0.27095816409E+03  0.56814138382E+03  0.49936590325E+03 0.  0.
        3    1    3    3  502    0 -0.23023244304E+03 -0.15025600373E+02 -0.26894393330E+02  0.23228444866E+03  0.10100000352E+00 0.  1.
       -3    1    3    3    0  502  0.23023244304E+03  0.15025600373E+02 -0.24406377076E+03  0.33585693516E+03  0.10100000352E+00 0. -1.
</event>
<event>
 5   0  0.4978779E-03  0.5000940E+03  0.7818609E-02  0.1013754E+00
       -2   -1    0    0    0  501  0.00000000000E+00  0.00000000000E+00  0.33197755705E+03  0.33197755706E+03  0.25500000920E-02 0.  1.
        2   -1    0    0  501    0  0.00000000000E+00  0.00000000000E+00 -0.18833654778E+03  0.18833654780E+03  0.25500000920E-02 0. -1.
    10030    2    1    2    0    0  0.00000000000E+00  0.00000000000E+00  0.14364100927E+03  0.52031410485E+03  0.50009401933E+03 0.  0.
        1    1    3    3  502    0  0.43721799020E+02 -0.20854402966E+03  0.20795942247E+03  0.29774037253E+03  0.50400001928E-02 0.  1.
       -1    1    3    3    0  502 -0.43721799020E+02  0.20854402966E+03 -0.64318413200E+02  0.22257373232E+03  0.50400001928E-02 0. -1.
</event>
<event>
 5   0  0.2863538E-03  0.4999367E+03  0.7818609E-02  0.1013795E+00
        1   -1    0    0  501    0  0.00000000000E+00  0.00000000000E+00  0.23800069185E+03  0.23800069190E+03  0.50400001928E-02 0. -1.
       -1   -1    0    0    0  501  0.00000000000E+00  0.00000000000E+00 -0.26253777029E+03  0.26253777034E+03  0.50400001928E-02 0.  1.
    10030    2    1    2    0    0  0.00000000000E+00  0.00000000000E+00 -0.24537078446E+02  0.50053846224E+03  0.49993667995E+03 0.  0.
        1    1    3    3  502    0  0.23079100639E+03  0.42812443708E+02  0.73781277055E+02  0.24605095170E+03  0.50400001928E-02 0. -1.
       -1    1    3    3    0  502 -0.23079100639E+03 -0.42812443708E+02 -0.98318355501E+02  0.25448751054E+03  0.50400001928E-02 0.  1.
</event>
<event>
 5   0  0.3055293E-03  0.5006430E+03  0.7818609E-02  0.1013611E+00
       -1   -1    0    0    0  501  0.00000000000E+00  0.00000000000E+00  0.20932848209E+03  0.20932848215E+03  0.50400001928E-02 0.  1.
        1   -1    0    0  501    0  0.00000000000E+00  0.00000000000E+00 -0.29934225131E+03  0.29934225136E+03  0.50400001928E-02 0. -1.
    10030    2    1    2    0    0  0.00000000000E+00  0.00000000000E+00 -0.90013769228E+02  0.50867073350E+03  0.50064302299E+03 0.  0.
        3    1    3    3  502    0  0.11305722207E+03 -0.15884927791E+02 -0.27134920690E+03  0.29438863544E+03  0.10100000352E+00 0. -1.
       -3    1    3    3    0  502 -0.11305722207E+03  0.15884927791E+02  0.18133543767E+03  0.21428209806E+03  0.10100000352E+00 0.  1.
</event>
<event>
 5   0  0.5095783E-03  0.5001315E+03  0.7818609E-02  0.1013745E+00
        2   -1    0    0  501    0  0.00000000000E+00  0.00000000000E+00  0.52869142045E+02  0.52869142106E+02  0.25500000920E-02 0.  1.
       -2   -1    0    0    0  501  0.00000000000E+00  0.00000000000E+00 -0.11827860505E+04  0.11827860505E+04  0.25500000920E-02 0. -1.
    10030    2    1    2    0    0  0.00000000000E+00  0.00000000000E+00 -0.11299169084E+04  0.12356551926E+04  0.50013151770E+03 0.  0.
        4    1    3    3  502    0  0.12080074178E+03 -0.93983827997E+02 -0.76382656338E+02  0.17106052212E+03  0.12699999809E+01 0.  1.
       -4    1    3    3    0  502 -0.12080074178E+03  0.93983827997E+02 -0.10535342521E+04  0.10645946704E+04  0.12699999809E+01 0. -1.
</event>
<event>
 5   0  0.2005125E-03  0.4999250E+03  0.7818609E-02  0.1013798E+00
       -4   -1    0    0    0  501  0.00000000000E+00  0.00000000000E+00  0.73270126753E+02  0.73281132458E+02  0.12699999809E+01 0.  1.
        4   -1    0    0  501    0  0.00000000000E+00  0.00000000000E+00 -0.85267650642E+03  0.85267745221E+03  0.12699999809E+01 0. -1.
    10030    2    1    2    0    0  0.00000000000E+00  0.00000000000E+00 -0.77940637967E+03  0.92595858467E+03  0.49992499022E+03 0.  0.
        2    1    3    3  502    0  0.16378405407E+03 -0.17389214998E+03 -0.52603220282E+03  0.57773140351E+03  0.25500000920E-02 0. -1.
       -2    1    3    3    0  502 -0.16378405407E+03  0.17389214998E+03 -0.25337417685E+03  0.34822718116E+03  0.25500000920E-02 0.  1.
</event>
<event>
 5   0  0.2005125E-03  0.4999879E+03  0.7818609E-02  0.1013782E+00
       -3   -1    0    0    0  501  0.00000000000E+00  0.00000000000E+00  0.22213603826E+03  0.22213606122E+03  0.10100000352E+00 0. -1.
        3   -1    0    0  501    0  0.00000000000E+00  0.00000000000E+00 -0.28134540400E+03  0.28134542213E+03  0.10100000352E+00 0.  1.
    10030    2    1    2    0    0  0.00000000000E+00  0.00000000000E+00 -0.59209365739E+02  0.50348148335E+03  0.49998785493E+03 0.  0.
        2    1    3    3  502    0  0.60210061392E+02  0.19137750738E+03  0.12058965038E+03  0.23407790500E+03  0.25500000920E-02 0. -1.
       -2    1    3    3    0  502 -0.60210061392E+02 -0.19137750738E+03 -0.17979901612E+03  0.26940357835E+03  0.25500000920E-02 0.  1.
</event>
<event>
 5   0  0.4978779E-03  0.4999486E+03  0.7818609E-02  0.1013792E+00
       -2   -1    0    0    0  501  0.00000000000E+00  0.00000000000E+00  0.82558498459E+02  0.82558498499E+02  0.25500000920E-02 0.  1.
        2   -1    0    0  501    0  0.00000000000E+00  0.00000000000E+00 -0.75688341200E+03  0.75688341201E+03  0.25500000920E-02 0. -1.
    10030    2    1    2    0    0  0.00000000000E+00  0.00000000000E+00 -0.67432491354E+03  0.83944191051E+03  0.49994862945E+03 0.  0.
        1    1    3    3  502    0  0.13391415579E+03  0.91957881903E+02 -0.18151012020E+02  0.16345859545E+03  0.50400001928E-02 0.  1.
       -1    1    3    3    0  502 -0.13391415579E+03 -0.91957881903E+02 -0.65617390152E+03  0.67598331505E+03  0.50400001928E-02 0. -1.
</event>
<event>
 5   0  0.4889251E-03  0.5000082E+03  0.7818609E-02  0.1013777E+00
       -2   -1    0    0    0  501  0.00000000000E+00  0.00000000000E+00  0.77272592214E+02  0.77272592256E+02  0.25500000920E-02 0. -1.
        2   -1    0    0  501    0  0.00000000000E+00  0.00000000000E+00 -0.80885153466E+03  0.80885153466E+03  0.25500000920E-02 0.  1.
    10030    2    1    2    0    0  0.00000000000E+00  0.00000000000E+00 -0.73157894244E+03  0.88612412692E+03  0.50000821921E+03 0.  0.
        5    1    3    3  502    0 -0.15302348887E+03 -0.16484166061E+03 -0.55904266207E+03  0.60261077756E+03  0.46999998093E+01 0.  1.
       -5    1    3    3    0  502  0.15302348887E+03  0.16484166061E+03 -0.17253628037E+03  0.28351334936E+03  0.46999998093E+01 0. -1.
</event>
<event>
 5   0  0.5095783E-03  0.4999616E+03  0.7818609E-02  0.1013789E+00
        2   -1    0    0  501    0  0.00000000000E+00  0.00000000000E+00  0.92655549516E+03  0.92655549516E+03  0.25500000920E-02 0. -1.
       -2   -1    0    0    0  501  0.00000000000E+00  0.00000000000E+00 -0.67443780133E+02  0.67443780181E+02  0.25500000920E-02 0.  1.
    10030    2    1    2    0    0  0.00000000000E+00  0.00000000000E+00  0.85911171503E+03  0.99399927534E+03  0.49996161902E+03 0.  0.
        4    1    3    3  502    0  0.11286614275E+03 -0.20934946392E+03  0.27654791952E+03  0.36475516297E+03  0.12699999809E+01 0.  1.
       -4    1    3    3    0  502 -0.11286614275E+03  0.20934946392E+03  0.58256379551E+03  0.62924411238E+03  0.12699999809E+01 0. -1.
</event>
<event>
 5   0  0.3055293E-03  0.4994623E+03  0.7818609E-02  0.1013919E+00
       -1   -1    0    0    0  501  0.00000000000E+00  0.00000000000E+00  0.59825684787E+02  0.59825684999E+02  0.50400001928E-02 0.  1.
        1   -1    0    0  501    0  0.00000000000E+00  0.00000000000E+00 -0.10424559365E+04  0.10424559365E+04  0.50400001928E-02 0. -1.
    10030    2    1    2    0    0  0.00000000000E+00  0.00000000000E+00 -0.98263025168E+03  0.11022816215E+04  0.49946227238E+03 0.  0.
        3    1    3    3  502    0  0.22326278529E+03  0.46369132791E+02 -0.71604655324E+03  0.75147790678E+03  0.10100000352E+00 0. -1.
       -3    1    3    3    0  502 -0.22326278529E+03 -0.46369132791E+02 -0.26658369844E+03  0.35080371470E+03  0.10100000352E+00 0.  1.
</event>
<event>
 5   0  0.3055293E-03  0.5003567E+03  0.7818609E-02  0.1013686E+00
       -1   -1    0    0    0  501  0.00000000000E+00  0.00000000000E+00  0.33962445186E+02  0.33962445560E+02  0.50400001928E-02 0. -1.
        1   -1    0    0  501    0  0.00000000000E+00  0.00000000000E+00 -0.18428945610E+04  0.18428945610E+04  0.50400001928E-02 0.  1.
    10030    2    1    2    0    0  0.00000000000E+00  0.00000000000E+00 -0.18089321158E+04  0.18768570066E+04  0.50035669624E+03 0.  0.
        3    1    3    3  502    0  0.24261234695E+03 -0.59960302525E+02 -0.86117334245E+03  0.89670258431E+03  0.10100000352E+00 0. -1.
       -3    1    3    3    0  502 -0.24261234695E+03  0.59960302525E+02 -0.94775877335E+03  0.98015442224E+03  0.10100000352E+00 0.  1.
</event>
<event>
 5   0  0.5118882E-03  0.4999521E+03  0.7818609E-02  0.1013791E+00
        2   -1    0    0  501    0  0.00000000000E+00  0.00000000000E+00  0.15725100320E+04  0.15725100320E+04  0.25500000920E-02 0.  1.
       -2   -1    0    0    0  501  0.00000000000E+00  0.00000000000E+00 -0.39737766967E+02  0.39737767049E+02  0.25500000920E-02 0. -1.
    10030    2    1    2    0    0  0.00000000000E+00  0.00000000000E+00  0.15327722650E+04  0.16122477990E+04  0.49995214679E+03 0.  0.
        3    1    3    3  502    0 -0.10421178538E+03 -0.20297607193E+03  0.43706674517E+03  0.49303826619E+03  0.10100000352E+00 0. -1.
       -3    1    3    3    0  502  0.10421178538E+03  0.20297607193E+03  0.10957055198E+04  0.11192095328E+04  0.10100000352E+00 0.  1.
</event>
<event>
 5   0  0.5095783E-03  0.4999871E+03  0.7818609E-02  0.1013782E+00
       -2   -1    0    0    0  501  0.00000000000E+00  0.00000000000E+00  0.73949530104E+02  0.73949530148E+02  0.25500000920E-02 0. -1.
        2   -1    0    0  501    0  0.00000000000E+00  0.00000000000E+00 -0.84512751757E+03  0.84512751758E+03  0.25500000920E-02 0.  1.
    10030    2    1    2    0    0  0.00000000000E+00  0.00000000000E+00 -0.77117798747E+03  0.91907704772E+03  0.49998713113E+03 0.  0.
        4    1    3    3  502    0 -0.15283631527E+03  0.97819703640E+02 -0.70167164752E+03  0.72475675059E+03  0.12699999809E+01 0.  1.
       -4    1    3    3    0  502  0.15283631527E+03 -0.97819703640E+02 -0.69506339950E+02  0.19432029714E+03  0.12699999809E+01 0. -1.
</event>
<event>
 5   0  0.3013734E-03  0.4995159E+03  0.7818609E-02  0.1013905E+00
        1   -1    0    0  501    0  0.00000000000E+00  0.00000000000E+00  0.66803193646E+03  0.66803193648E+03  0.50400001928E-02 0. -1.
       -1   -1    0    0    0  501  0.00000000000E+00  0.00000000000E+00 -0.93377307747E+02  0.93377307883E+02  0.50400001928E-02 0.  1.
    10030    2    1    2    0    0  0.00000000000E+00  0.00000000000E+00  0.57465462871E+03  0.76140924436E+03  0.49951586071E+03 0.  0.
        2    1    3    3  502    0 -0.49446600398E+02  0.23409520803E+03  0.39654054838E+03  0.46313058550E+03  0.25500000920E-02 0. -1.
       -2    1    3    3    0  502  0.49446600398E+02 -0.23409520803E+03  0.17811408034E+03  0.29827865886E+03  0.25500000920E-02 0.  1.
</event>
<event>
 5   0  0.2863538E-03  0.4990522E+03  0.7818609E-02  0.1014027E+00
        1   -1    0    0  501    0  0.00000000000E+00  0.00000000000E+00  0.23267919718E+03  0.23267919724E+03  0.50400001928E-02 0. -1.
       -1   -1    0    0    0  501  0.00000000000E+00  0.00000000000E+00 -0.26759273575E+03  0.26759273580E+03  0.50400001928E-02 0.  1.
    10030    2    1    2    0    0  0.00000000000E+00  0.00000000000E+00 -0.34913538565E+02  0.50027193303E+03  0.49905215339E+03 0.  0.
        1    1    3    3  502    0  0.14520423643E+03  0.13598054542E+03 -0.16845123452E+03  0.26067373755E+03  0.50400001928E-02 0.  1.
       -1    1    3    3    0  502 -0.14520423643E+03 -0.13598054542E+03  0.13353769596E+03  0.23959819548E+03  0.50400001928E-02 0. -1.
</event>
<event>
 5   0  0.3013734E-03  0.4997881E+03  0.7818609E-02  0.1013834E+00
        1   -1    0    0  501    0  0.00000000000E+00  0.00000000000E+00  0.14693183046E+04  0.14693183046E+04  0.50400001928E-02 0.  1.
       -1   -1    0    0    0  501  0.00000000000E+00  0.00000000000E+00 -0.42500685497E+02  0.42500685795E+02  0.50400001928E-02 0. -1.
    10030    2    1    2    0    0  0.00000000000E+00  0.00000000000E+00  0.14268176191E+04  0.15118189904E+04  0.49978809666E+03 0.  0.
        2    1    3    3  502    0 -0.17279452612E+03  0.54820745724E+02  0.12336930466E+04  0.12469409752E+04  0.25500000920E-02 0.  1.
       -2    1    3    3    0  502  0.17279452612E+03 -0.54820745724E+02  0.19312457248E+03  0.26487801517E+03  0.25500000920E-02 0. -1.
</event>
<event>
 5   0  0.2005125E-03  0.5002016E+03  0.7818609E-02  0.1013726E+00
       -3   -1    0    0    0  501  0.00000000000E+00  0.00000000000E+00  0.39364483218E+03  0.39364484514E+03  0.10100000352E+00 0.  1.
        3   -1    0    0  501    0  0.00000000000E+00  0.00000000000E+00 -0.15890058980E+03  0.15890062190E+03  0.10100000352E+00 0. -1.
    10030    2    1    2    0    0  0.00000000000E+00  0.00000000000E+00  0.23474424238E+03  0.55254546704E+03  0.50020159317E+03 0.  0.
        2    1    3    3  502    0 -0.42066821639E+02  0.45294977027E+02  0.38507302018E+03  0.39000318371E+03  0.25500000920E-02 0.  1.
       -2    1    3    3    0  502  0.42066821639E+02 -0.45294977027E+02 -0.15032877780E+03  0.16254228333E+03  0.25500000920E-02 0. -1.
</event>
<event>
 5   0  0.5095783E-03  0.5000003E+03  0.7818609E-02  0.1013779E+00
        2   -1    0    0  501    0  0.00000000000E+00  0.00000000000E+00  0.27639088555E+03  0.27639088556E+03  0.25500000920E-02 0. -1.
       -2   -1    0    0    0  501  0.00000000000E+00  0.00000000000E+00 -0.22612928653E+03  0.22612928655E+03  0.25500000920E-02 0.  1.
    10030    2    1    2    0    0  0.00000000000E+00  0.00000000000E+00  0.50261599018E+02  0.50252017211E+03  0.50000029504E+03 0.  0.
        4    1    3    3  502    0 -0.11362742588E+02 -0.22863890807E+02  0.27507388333E+03  0.27625916023E+03  0.12699999809E+01 0. -1.
       -4    1    3    3    0  502  0.11362742588E+02  0.22863890807E+02 -0.22481228431E+03  0.22626101188E+03  0.12699999809E+01 0.  1.
</event>
<event>
 5   0  0.5095783E-03  0.4999188E+03  0.7818609E-02  0.1013800E+00
       -2   -1    0    0    0  501  0.00000000000E+00  0.00000000000E+00  0.41332951984E+03  0.41332951985E+03  0.25500000920E-02 0. -1.
        2   -1    0    0  501    0  0.00000000000E+00  0.00000000000E+00 -0.15116198126E+03  0.15116198128E+03  0.25500000920E-02 0.  1.
    10030    2    1    2    0    0  0.00000000000E+00  0.00000000000E+00  0.26216753858E+03  0.56449150113E+03  0.49991882997E+03 0.  0.
        4    1    3    3  502    0  0.14269542654E+03  0.47552342260E+02  0.35650701537E+03  0.38693936853E+03  0.12699999809E+01 0. -1.
       -4    1    3    3    0  502 -0.14269542654E+03 -0.47552342260E+02 -0.94339476788E+02  0.17755213260E+03  0.12699999809E+01 0.  1.
</event>
<event>
 5   0  0.4889251E-03  0.5008231E+03  0.7818609E-02  0.1013564E+00
        2   -1    0    0  501    0  0.00000000000E+00  0.00000000000E+00  0.56000246191E+03  0.56000246191E+03  0.25500000920E-02 0. -1.
       -2   -1    0    0    0  501  0.00000000000E+00  0.00000000000E+00 -0.11197438683E+03  0.11197438686E+03  0.25500000920E-02 0.  1.
    10030    2    1    2    0    0  0.00000000000E+00  0.00000000000E+00  0.44802807508E+03  0.67197684877E+03  0.50082305181E+03 0.  0.
        5    1    3    3  502    0 -0.25931042036E+02 -0.15743168049E+03  0.48289326747E+03  0.50859133962E+03  0.46999998093E+01 0. -1.
       -5    1    3    3    0  502  0.25931042036E+02  0.15743168049E+03 -0.34865192392E+02  0.16338550915E+03  0.46999998093E+01 0.  1.
</event>
<event>
 5   0  0.2005125E-03  0.5000842E+03  0.7818609E-02  0.1013757E+00
       -3   -1    0    0    0  501  0.00000000000E+00  0.00000000000E+00  0.37465578401E+03  0.37465579762E+03  0.10100000352E+00 0.  1.
        3   -1    0    0  501    0  0.00000000000E+00  0.00000000000E+00 -0.16687596644E+03  0.16687599700E+03  0.10100000352E+00 0. -1.
    10030    2    1    2    0    0  0.00000000000E+00  0.00000000000E+00  0.20777981757E+03  0.54153179463E+03  0.50008422491E+03 0.  0.
        1    1    3    3  502    0 -0.27454615416E+02  0.69295375021E+02 -0.15456607004E+03  0.17159916941E+03  0.50400001928E-02 0. -1.
       -1    1    3    3    0  502  0.27454615416E+02 -0.69295375021E+02  0.36234588761E+03  0.36993262522E+03  0.50400001928E-02 0.  1.
</event>
<event>
 5   0  0.3055293E-03  0.5000345E+03  0.7818609E-02  0.1013770E+00
        1   -1    0    0  501    0  0.00000000000E+00  0.00000000000E+00  0.20323121342E+04  0.20323121342E+04  0.50400001928E-02 0.  1.
       -1   -1    0    0    0  501  0.00000000000E+00  0.00000000000E+00 -0.30757395827E+02  0.30757396240E+02  0.50400001928E-02 0. -1.
    10030    2    1    2    0    0  0.00000000000E+00  0.00000000000E+00  0.20015547383E+04  0.20630695304E+04  0.50003451556E+03 0.  0.
        3    1    3    3  502    0  0.18823118751E+03 -0.14702869663E+03  0.13056498417E+04  0.13273168186E+04  0.10100000352E+00 0. -1.
       -3    1    3    3    0  502 -0.18823118751E+03  0.14702869663E+03  0.69590489667E+03  0.73575271185E+03  0.10100000352E+00 0.  1.
</event>
<event>
 5   0  0.3013734E-03  0.4999815E+03  0.7818609E-02  0.1013784E+00
       -1   -1    0    0    0  501  0.00000000000E+00  0.00000000000E+00  0.40278740214E+03  0.40278740217E+03  0.50400001928E-02 0.  1.
        1   -1    0    0  501    0  0.00000000000E+00  0.00000000000E+00 -0.15515719612E+03  0.15515719620E+03  0.50400001928E-02 0. -1.
    10030    2    1    2    0    0  0.00000000000E+00  0.00000000000E+00  0.24763020602E+03  0.55794459837E+03  0.49998145557E+03 0.  0.
        2    1    3    3  502    0  0.78779942362E+02 -0.42148706991E+02  0.38436176535E+03  0.39460962924E+03  0.25500000920E-02 0.  1.
       -2    1    3    3    0  502 -0.78779942362E+02  0.42148706991E+02 -0.13673155933E+03  0.16333496913E+03  0.25500000920E-02 0. -1.
</event>
<event>
 5   0  0.4978779E-03  0.4999267E+03  0.7818609E-02  0.1013798E+00
        2   -1    0    0  501    0  0.00000000000E+00  0.00000000000E+00  0.14666806724E+04  0.14666806724E+04  0.25500000920E-02 0. -1.
       -2   -1    0    0    0  501  0.00000000000E+00  0.00000000000E+00 -0.42600743907E+02  0.42600743983E+02  0.25500000920E-02 0.  1.
    10030    2    1    2    0    0  0.00000000000E+00  0.00000000000E+00  0.14240799285E+04  0.15092814164E+04  0.49992674574E+03 0.  0.
        1    1    3    3  502    0 -0.16582430765E+03 -0.53361554337E+01  0.14759488946E+03  0.22205951226E+03  0.50400001928E-02 0.  1.
       -1    1    3    3    0  502  0.16582430765E+03  0.53361554337E+01  0.12764850390E+04  0.12872219041E+04  0.50400001928E-02 0. -1.
</event>
<event>
 5   0  0.3013734E-03  0.5005352E+03  0.7818609E-02  0.1013639E+00
       -1   -1    0    0    0  501  0.00000000000E+00  0.00000000000E+00  0.15652075477E+03  0.15652075485E+03  0.50400001928E-02 0.  1.
        1   -1    0    0  501    0  0.00000000000E+00  0.00000000000E+00 -0.40016339451E+03  0.40016339454E+03  0.50400001928E-02 0. -1.
    10030    2    1    2    0    0  0.00000000000E+00  0.00000000000E+00 -0.24364263974E+03  0.55668414939E+03  0.50053521982E+03 0.  0.
        2    1    3    3  502    0  0.24616995764E+03 -0.22679163076E+02 -0.16518033881E+03  0.29731891433E+03  0.25500000920E-02 0.  1.
       -2    1    3    3    0  502 -0.24616995764E+03  0.22679163076E+02 -0.78462300927E+02  0.25936523506E+03  0.25500000920E-02 0. -1.
</event>
<event>
 5   0  0.4978779E-03  0.4998952E+03  0.7818609E-02  0.1013806E+00
        2   -1    0    0  501    0  0.00000000000E+00  0.00000000000E+00  0.88870518697E+03  0.88870518698E+03  0.25500000920E-02 0. -1.
       -2   -1    0    0    0  501  0.00000000000E+00  0.00000000000E+00 -0.70297566115E+02  0.70297566162E+02  0.25500000920E-02 0.  1.
    10030    2    1    2    0    0  0.00000000000E+00  0.00000000000E+00  0.81840762086E+03  0.95900275314E+03  0.49989523567E+03 0.  0.
        1    1    3    3  502    0  0.20194782554E+03  0.80649284032E+02  0.64561653760E+03  0.68125468432E+03  0.50400001928E-02 0. -1.
       -1    1    3    3    0  502 -0.20194782554E+03 -0.80649284032E+02  0.17279108326E+03  0.27774806882E+03  0.50400001928E-02 0.  1.
</event>
<event>
 5   0  0.3057783E-03  0.5002317E+03  0.7818609E-02  0.1013718E+00
       -1   -1    0    0    0  501  0.00000000000E+00  0.00000000000E+00  0.12040414383E+03  0.12040414394E+03  0.50400001928E-02 0. -1.
        1   -1    0    0  501    0  0.00000000000E+00  0.00000000000E+00 -0.51956632075E+03  0.51956632077E+03  0.50400001928E-02 0.  1.
    10030    2    1    2    0    0  0.00000000000E+00  0.00000000000E+00 -0.39916217691E+03  0.63997046471E+03  0.50023169854E+03 0.  0.
        5    1    3    3  502    0  0.19257923045E+03  0.13802231256E+03 -0.97241803458E+02  0.25615420571E+03  0.46999998093E+01 0. -1.
       -5    1    3    3    0  502 -0.19257923045E+03 -0.13802231256E+03 -0.30192037345E+03  0.38381625900E+03  0.46999998093E+01 0.  1.
</event>
<event>
 5   0  0.4989875E-03  0.5009140E+03  0.7818609E-02  0.1013541E+00
        2   -1    0    0  501    0  0.00000000000E+00  0.00000000000E+00  0.10400714795E+03  0.10400714799E+03  0.25500000920E-02 0.  1.
       -2   -1    0    0    0  501  0.00000000000E+00  0.00000000000E+00 -0.60311911452E+03  0.60311911452E+03  0.25500000920E-02 0. -1.
    10030    2    1    2    0    0  0.00000000000E+00  0.00000000000E+00 -0.49911196656E+03  0.70712626251E+03  0.50091396064E+03 0.  0.
        2    1    3    3  502    0 -0.24678717091E+03 -0.15949211858E+00 -0.18925319409E+03  0.31099952515E+03  0.25500000920E-02 0.  1.
       -2    1    3    3    0  502  0.24678717091E+03  0.15949211858E+00 -0.30985877247E+03  0.39612673736E+03  0.25500000920E-02 0. -1.
</event>
<event>
 5   0  0.3211775E-03  0.4998780E+03  0.7818609E-02  0.1013811E+00
        1   -1    0    0  501    0  0.00000000000E+00  0.00000000000E+00  0.11263887914E+03  0.11263887925E+03  0.50400001928E-02 0.  1.
       -1   -1    0    0    0  501  0.00000000000E+00  0.00000000000E+00 -0.55459982525E+03  0.55459982527E+03  0.50400001928E-02 0. -1.
    10030    2    1    2    0    0  0.00000000000E+00  0.00000000000E+00 -0.44196094612E+03  0.66723870452E+03  0.49987799604E+03 0.  0.
        4    1    3    3  502    0  0.74547668370E+02  0.16404022772E+03  0.10219365802E+02  0.18047880626E+03  0.12699999809E+01 0.  1.
       -4    1    3    3    0  502 -0.74547668370E+02 -0.16404022772E+03 -0.45218031192E+03  0.48675989826E+03  0.12699999809E+01 0. -1.
</event>
<event>
 5   0  0.5095783E-03  0.4998004E+03  0.7818609E-02  0.1013831E+00
       -2   -1    0    0    0  501  0.00000000000E+00  0.00000000000E+00  0.17818524479E+03  0.17818524481E+03  0.25500000920E-02 0. -1.
        2   -1    0    0  501    0  0.00000000000E+00  0.00000000000E+00 -0.35047863110E+03  0.35047863111E+03  0.25500000920E-02 0.  1.
    10030    2    1    2    0    0  0.00000000000E+00  0.00000000000E+00 -0.17229338632E+03  0.52866387592E+03  0.49980044291E+03 0.  0.
        4    1    3    3  502    0 -0.96525455414E+02 -0.72319817236E+02 -0.31764943687E+03  0.33977948313E+03  0.12699999809E+01 0.  1.
       -4    1    3    3    0  502  0.96525455414E+02  0.72319817236E+02  0.14535605056E+03  0.18888439279E+03  0.12699999809E+01 0. -1.
</event>
<event>
 5   0  0.3055293E-03  0.4995423E+03  0.7818609E-02  0.1013898E+00
        1   -1    0    0  501    0  0.00000000000E+00  0.00000000000E+00  0.42362523768E+03  0.42362523771E+03  0.50400001928E-02 0.  1.
       -1   -1    0    0    0  501  0.00000000000E+00  0.00000000000E+00 -0.14726609864E+03  0.14726609872E+03  0.50400001928E-02 0. -1.
    10030    2    1    2    0    0  0.00000000000E+00  0.00000000000E+00  0.27635913904E+03  0.57089133643E+03  0.49954233482E+03 0.  0.
        3    1    3    3  502    0  0.14765418664E+03  0.17879435689E+03  0.24426242779E+03  0.33679864120E+03  0.10100000352E+00 0.  1.
       -3    1    3    3    0  502 -0.14765418664E+03 -0.17879435689E+03  0.32096711255E+02  0.23409269523E+03  0.10100000352E+00 0. -1.
</event>
<event>
 5   0  0.4889251E-03  0.5000354E+03  0.7818609E-02  0.1013770E+00
        2   -1    0    0  501    0  0.00000000000E+00  0.00000000000E+00  0.10373758918E+04  0.10373758918E+04  0.25500000920E-02 0. -1.
       -2   -1    0    0    0  501  0.00000000000E+00  0.00000000000E+00 -0.60256691418E+02  0.60256691472E+02  0.25500000920E-02 0.  1.
    10030    2    1    2    0    0  0.00000000000E+00  0.00000000000E+00  0.97711920039E+03  0.10976325833E+04  0.50003535487E+03 0.  0.
        5    1    3    3  502    0  0.46872941192E+02  0.23430039653E+03  0.64976200369E+03  0.69231965151E+03  0.46999998093E+01 0.  1.
       -5    1    3    3    0  502 -0.46872941192E+02 -0.23430039653E+03  0.32735719670E+03  0.40531293178E+03  0.46999998093E+01 0. -1.
</event>
<event>
 5   0  0.4889251E-03  0.5000660E+03  0.7818609E-02  0.1013762E+00
        2   -1    0    0  501    0  0.00000000000E+00  0.00000000000E+00  0.26530129397E+03  0.26530129398E+03  0.25500000920E-02 0. -1.
       -2   -1    0    0    0  501  0.00000000000E+00  0.00000000000E+00 -0.23564344071E+03  0.23564344072E+03  0.25500000920E-02 0.  1.
    10030    2    1    2    0    0  0.00000000000E+00  0.00000000000E+00  0.29657853264E+02  0.50094473470E+03  0.50006603460E+03 0.  0.
        5    1    3    3  502    0 -0.12121912617E+03  0.97354457062E+02  0.21093412594E+03  0.26208254872E+03  0.46999998093E+01 0. -1.
       -5    1    3    3    0  502  0.12121912617E+03 -0.97354457062E+02 -0.18127627267E+03  0.23886218598E+03  0.46999998093E+01 0.  1.
</event>
<event>
 5   0  0.4978779E-03  0.5000219E+03  0.7818609E-02  0.1013773E+00
       -2   -1    0    0    0  501  0.00000000000E+00  0.00000000000E+00  0.51175847814E+02  0.51175847877E+02  0.25500000920E-02 0. -1.
        2   -1    0    0  501    0  0.00000000000E+00  0.00000000000E+00 -0.12213864157E+04  0.12213864157E+04  0.25500000920E-02 0.  1.
    10030    2    1    2    0    0  0.00000000000E+00  0.00000000000E+00 -0.11702105679E+04  0.12725622636E+04  0.50002194102E+03 0.  0.
        1    1    3    3  502    0 -0.15274853738E+03 -0.19790022758E+03 -0.59268481018E+03  0.64325103963E+03  0.50400001928E-02 0. -1.
       -1    1    3    3    0  502  0.15274853738E+03  0.19790022758E+03 -0.57752575775E+03  0.62931122399E+03  0.50400001928E-02 0.  1.
</event>
<event>
 5   0  0.3013734E-03  0.5004269E+03  0.7818609E-02  0.1013668E+00
        1   -1    0    0  501    0  0.00000000000E+00  0.00000000000E+00  0.55729791393E+03  0.55729791395E+03  0.50400001928E-02 0. -1.
       -1   -1    0    0    0  501  0.00000000000E+00  0.00000000000E+00 -0.11233985128E+03  0.11233985139E+03  0.50400001928E-02 0.  1.
    10030    2    1    2    0    0  0.00000000000E+00  0.00000000000E+00  0.44495806265E+03  0.66963776534E+03  0.50042687703E+03 0.  0.
        2    1    3    3  502    0 -0.56291941564E+02  0.17546593986E+02  0.54786859179E+03  0.55103235796E+03  0.25500000920E-02 0. -1.
       -2    1    3    3    0  502  0.56291941564E+02 -0.17546593986E+02 -0.10291052914E+03  0.11860540738E+03  0.25500000920E-02 0.  1.
</event>
<event>
 5   0  0.3055293E-03  0.4999559E+03  0.7818609E-02  0.1013790E+00
        1   -1    0    0  501    0  0.00000000000E+00  0.00000000000E+00  0.69007864348E+03  0.69007864350E+03  0.50400001928E-02 0. -1.
       -1   -1    0    0    0  501  0.00000000000E+00  0.00000000000E+00 -0.90553399954E+02  0.90553400094E+02  0.50400001928E-02 0.  1.
    10030    2    1    2    0    0  0.00000000000E+00  0.00000000000E+00  0.59952524353E+03  0.78063204359E+03  0.49995586791E+03 0.  0.
        3    1    3    3  502    0 -0.19384062090E+03 -0.15486962146E+03  0.25214187813E+03  0.35374330081E+03  0.10100000352E+00 0.  1.
       -3    1    3    3    0  502  0.19384062090E+03  0.15486962146E+03  0.34738336540E+03  0.42688874278E+03  0.10100000352E+00 0. -1.
</event>
<event>
 5   0  0.2863538E-03  0.4994211E+03  0.7818609E-02  0.1013930E+00
       -1   -1    0    0    0  501  0.00000000000E+00  0.00000000000E+00  0.80963487091E+02  0.80963487248E+02  0.50400001928E-02 0. -1.
        1   -1    0    0  501    0  0.00000000000E+00  0.00000000000E+00 -0.77016647289E+03  0.77016647290E+03  0.50400001928E-02 0.  1.
    10030    2    1    2    0    0  0.00000000000E+00  0.00000000000E+00 -0.68920298579E+03  0.85112996015E+03  0.49942111833E+03 0.  0.
        1    1    3    3  502    0  0.22615313828E+02 -0.14589042247E+03 -0.13776976525E+01  0.14763931002E+03  0.50400001928E-02 0. -1.
       -1    1    3    3    0  502 -0.22615313828E+02  0.14589042247E+03 -0.68782528814E+03  0.70349065013E+03  0.50400001928E-02 0.  1.
</event>
<event>
 5   0  0.5095783E-03  0.4998855E+03  0.7818609E-02  0.1013809E+00
       -2   -1    0    0    0  501  0.00000000000E+00  0.00000000000E+00  0.11254190129E+03  0.11254190132E+03  0.25500000920E-02 0. -1.
        2   -1    0    0  501    0  0.00000000000E+00  0.00000000000E+00 -0.55509438580E+03  0.55509438581E+03  0.25500000920E-02 0.  1.
    10030    2    1    2    0    0  0.00000000000E+00  0.00000000000E+00 -0.44255248451E+03  0.66763628712E+03  0.49988549722E+03 0.  0.
        4    1    3    3  502    0 -0.88190848298E+02  0.23281159822E+03 -0.25086763010E+03  0.35343322810E+03  0.12699999809E+01 0.  1.
       -4    1    3    3    0  502  0.88190848298E+02 -0.23281159822E+03 -0.19168485441E+03  0.31420305902E+03  0.12699999809E+01 0. -1.
</event>
<event>
 5   0  0.3057783E-03  0.5005662E+03  0.7818609E-02  0.1013631E+00
       -1   -1    0    0    0  501  0.00000000000E+00  0.00000000000E+00  0.72113947794E+02  0.72113947970E+02  0.50400001928E-02 0.  1.
        1   -1    0    0  501    0  0.00000000000E+00  0.00000000000E+00 -0.86864794315E+03  0.86864794316E+03  0.50400001928E-02 0. -1.
    10030    2    1    2    0    0  0.00000000000E+00  0.00000000000E+00 -0.79653399535E+03  0.94076189113E+03  0.50056620946E+03 0.  0.
        5    1    3    3  502    0  0.12836582146E+03  0.16999203200E+03 -0.64506581862E+03  0.67934312053E+03  0.46999998093E+01 0. -1.
       -5    1    3    3    0  502 -0.12836582146E+03 -0.16999203200E+03 -0.15146817674E+03  0.26141877061E+03  0.46999998093E+01 0.  1.
</event>
<event>
 5   0  0.3211775E-03  0.4995198E+03  0.7818609E-02  0.1013904E+00
       -1   -1    0    0    0  501  0.00000000000E+00  0.00000000000E+00  0.55670265870E+02  0.55670266098E+02  0.50400001928E-02 0.  1.
        1   -1    0    0  501    0  0.00000000000E+00  0.00000000000E+00 -0.11205266622E+04  0.11205266622E+04  0.50400001928E-02 0. -1.
    10030    2    1    2    0    0  0.00000000000E+00  0.00000000000E+00 -0.10648563963E+04  0.11761969283E+04  0.49951983881E+03 0.  0.
        4    1    3    3  502    0 -0.10971705162E+03 -0.13025819742E+03 -0.10227083226E+03  0.19866042747E+03  0.12699999809E+01 0.  1.
       -4    1    3    3    0  502  0.10971705162E+03  0.13025819742E+03 -0.96258556408E+03  0.97753650084E+03  0.12699999809E+01 0. -1.
</event>
<event>
 5   0  0.3013734E-03  0.5000091E+03  0.7818609E-02  0.1013777E+00
       -1   -1    0    0    0  501  0.00000000000E+00  0.00000000000E+00  0.17914914077E+03  0.17914914084E+03  0.50400001928E-02 0.  1.
        1   -1    0    0  501    0  0.00000000000E+00  0.00000000000E+00 -0.34888398247E+03  0.34888398251E+03  0.50400001928E-02 0. -1.
    10030    2    1    2    0    0  0.00000000000E+00  0.00000000000E+00 -0.16973484171E+03  0.52803312335E+03  0.50000906278E+03 0.  0.
        2    1    3    3  502    0  0.31332317305E+00 -0.20658431063E+03  0.63825699655E+02  0.21621955395E+03  0.25500000920E-02 0.  1.
       -2    1    3    3    0  502 -0.31332317305E+00  0.20658431063E+03 -0.23356054136E+03  0.31181356939E+03  0.25500000920E-02 0. -1.
</event>
<event>
 5   0  0.5118882E-03  0.5004595E+03  0.7818609E-02  0.1013659E+00
        2   -1    0    0  501    0  0.00000000000E+00  0.00000000000E+00  0.73595580991E+03  0.73595580991E+03  0.25500000920E-02 0. -1.
       -2   -1    0    0    0  501  0.00000000000E+00  0.00000000000E+00 -0.85079727690E+02  0.85079727728E+02  0.25500000920E-02 0.  1.
    10030    2    1    2    0    0  0.00000000000E+00  0.00000000000E+00  0.65087608221E+03  0.82103553764E+03  0.50045946855E+03 0.  0.
        3    1    3    3  502    0  0.68639427607E+02 -0.30256608201E+02 -0.66200157092E+02  0.10004651099E+03  0.10100000352E+00 0.  1.
       -3    1    3    3    0  502 -0.68639427607E+02  0.30256608201E+02  0.71707623931E+03  0.72098902664E+03  0.10100000352E+00 0. -1.
</event>
<event>
 5   0  0.5095783E-03  0.5000338E+03  0.7818609E-02  0.1013770E+00
        2   -1    0    0  501    0  0.00000000000E+00  0.00000000000E+00  0.85940122465E+03  0.85940122466E+03  0.25500000920E-02 0.  1.
       -2   -1    0    0    0  501  0.00000000000E+00  0.00000000000E+00 -0.72734882132E+02  0.72734882176E+02  0.25500000920E-02 0. -1.
    10030    2    1    2    0    0  0.00000000000E+00  0.00000000000E+00  0.78666634252E+03  0.93213610683E+03  0.50003378606E+03 0.  0.
        4    1    3    3  502    0 -0.18314379234E+02 -0.11293674013E+03  0.80773045122E+03  0.81579422558E+03  0.12699999809E+01 0.  1.
       -4    1    3    3    0  502  0.18314379234E+02  0.11293674013E+03 -0.21064108702E+02  0.11634188125E+03  0.12699999809E+01 0. -1.
</event>
<event>
 5   0  0.4978779E-03  0.5002431E+03  0.7818609E-02  0.1013715E+00
       -2   -1    0    0    0  501  0.00000000000E+00  0.00000000000E+00  0.18589956002E+03  0.18589956004E+03  0.25500000920E-02 0. -1.
        2   -1    0    0  501    0  0.00000000000E+00  0.00000000000E+00 -0.33653012135E+03  0.33653012136E+03  0.25500000920E-02 0.  1.
    10030    2    1    2    0    0  0.00000000000E+00  0.00000000000E+00 -0.15063056133E+03  0.52242968140E+03  0.50024314689E+03 0.  0.
        1    1    3    3  502    0 -0.14090434816E+03  0.49655099199E+02 -0.28481421507E+03  0.32161903137E+03  0.50400001928E-02 0.  1.
       -1    1    3    3    0  502  0.14090434816E+03 -0.49655099199E+02  0.13418365375E+03  0.20081065003E+03  0.50400001928E-02 0. -1.
</event>
<event>
 5   0  0.5118882E-03  0.4999726E+03  0.7818609E-02  0.1013786E+00
        2   -1    0    0  501    0  0.00000000000E+00  0.00000000000E+00  0.10511002694E+03  0.10511002697E+03  0.25500000920E-02 0.  1.
       -2   -1    0    0    0  501  0.00000000000E+00  0.00000000000E+00 -0.59454988423E+03  0.59454988424E+03  0.25500000920E-02 0. -1.
    10030    2    1    2    0    0  0.00000000000E+00  0.00000000000E+00 -0.48943985729E+03  0.69965991121E+03  0.49997261670E+03 0.  0.
        3    1    3    3  502    0 -0.60081310151E+02 -0.20119174103E+03 -0.54869407544E+02  0.21702198639E+03  0.10100000352E+00 0.  1.
       -3    1    3    3    0  502  0.60081310151E+02  0.20119174103E+03 -0.43457044975E+03  0.48263792483E+03  0.10100000352E+00 0. -1.
</event>
<event>
 5   0  0.3057783E-03  0.5002021E+03  0.7818609E-02  0.1013726E+00
        1   -1    0    0  501    0  0.00000000000E+00  0.00000000000E+00  0.21916093403E+03  0.21916093409E+03  0.50400001928E-02 0. -1.
       -1   -1    0    0    0  501  0.00000000000E+00  0.00000000000E+00 -0.28540909419E+03  0.28540909424E+03  0.50400001928E-02 0.  1.
    10030    2    1    2    0    0  0.00000000000E+00  0.00000000000E+00 -0.66248160158E+02  0.50457002833E+03  0.50020205393E+03 0.  0.
        5    1    3    3  502    0 -0.20124991738E+03  0.14660467901E+03 -0.56433713287E+02  0.25534548194E+03  0.46999998093E+01 0.  1.
       -5    1    3    3    0  502  0.20124991738E+03 -0.14660467901E+03 -0.98144468710E+01  0.24922454638E+03  0.46999998093E+01 0. -1.
</event>
<event>
 5   0  0.3211775E-03  0.5002111E+03  0.7818609E-02  0.1013724E+00
       -1   -1    0    0    0  501  0.00000000000E+00  0.00000000000E+00  0.11800701156E+03  0.11800701167E+03  0.50400001928E-02 0.  1.
        1   -1    0    0  501    0  0.00000000000E+00  0.00000000000E+00 -0.53007682763E+03  0.53007682766E+03  0.50400001928E-02 0. -1.
    10030    2    1    2    0    0  0.00000000000E+00  0.00000000000E+00 -0.41206981607E+03  0.64808383932E+03  0.50021108492E+03 0.  0.
        4    1    3    3  502    0  0.22797622968E+03 -0.96207413239E+02 -0.15892449638E+03  0.29408780340E+03  0.12699999809E+01 0. -1.
       -4    1    3    3    0  502 -0.22797622968E+03  0.96207413239E+02 -0.25314531970E+03  0.35399603592E+03  0.12699999809E+01 0.  1.
</event>
<event>
 5   0  0.3055293E-03  0.5001282E+03  0.7818609E-02  0.1013745E+00
       -1   -1    0    0    0  501  0.00000000000E+00  0.00000000000E+00  0.36306193895E+02  0.36306194245E+02  0.50400001928E-02 0. -1.
        1   -1    0    0  501    0  0.00000000000E+00  0.00000000000E+00 -0.17223523083E+04  0.17223523084E+04  0.50400001928E-02 0.  1.
    10030    2    1    2    0    0  0.00000000000E+00  0.00000000000E+00 -0.16860461144E+04  0.17586585026E+04  0.50012821227E+03 0.  0.
        3    1    3    3  502    0 -0.61162861893E+02 -0.10034647426E+03 -0.16192014365E+04  0.16234603823E+04  0.10100000352E+00 0.  1.
       -3    1    3    3    0  502  0.61162861893E+02  0.10034647426E+03 -0.66844677934E+02  0.13519812033E+03  0.10100000352E+00 0. -1.
</event>
<event>
 5   0  0.2863538E-03  0.4998027E+03  0.7818609E-02  0.1013830E+00
       -1   -1    0    0    0  501  0.00000000000E+00  0.00000000000E+00  0.20793761618E+03  0.20793761624E+03  0.50400001928E-02 0.  1.
        1   -1    0    0  501    0  0.00000000000E+00  0.00000000000E+00 -0.30033372526E+03  0.30033372531E+03  0.50400001928E-02 0. -1.
    10030    2    1    2    0    0  0.00000000000E+00  0.00000000000E+00 -0.92396109080E+02  0.50827134155E+03  0.49980267673E+03 0.  0.
        1    1    3    3  502    0 -0.73777293536E+02 -0.94028801480E+02 -0.26938465751E+03  0.29470764883E+03  0.50400001928E-02 0. -1.
       -1    1    3    3    0  502  0.73777293536E+02  0.94028801480E+02  0.17698854843E+03  0.21356369272E+03  0.50400001928E-02 0.  1.
</event>
<event>
 5   0  0.5095783E-03  0.4998460E+03  0.7818609E-02  0.1013819E+00
        2   -1    0    0  501    0  0.00000000000E+00  0.00000000000E+00  0.22520490851E+03  0.22520490852E+03  0.25500000920E-02 0.  1.
       -2   -1    0    0    0  501  0.00000000000E+00  0.00000000000E+00 -0.27735405299E+03  0.27735405300E+03  0.25500000920E-02 0. -1.
    10030    2    1    2    0    0  0.00000000000E+00  0.00000000000E+00 -0.52149144482E+02  0.50255896153E+03  0.49984595281E+03 0.  0.
        4    1    3    3  502    0  0.92352659395E+02 -0.20137100574E+03  0.90227754086E+02  0.23921111211E+03  0.12699999809E+01 0.  1.
       -4    1    3    3    0  502 -0.92352659395E+02  0.20137100574E+03 -0.14237689857E+03  0.26334784942E+03  0.12699999809E+01 0. -1.
</event>
<event>
 5   0  0.4978779E-03  0.4999814E+03  0.7818609E-02  0.1013784E+00
        2   -1    0    0  501    0  0.00000000000E+00  0.00000000000E+00  0.10231814694E+04  0.10231814694E+04  0.25500000920E-02 0.  1.
       -2   -1    0    0    0  501  0.00000000000E+00  0.00000000000E+00 -0.61079438335E+02  0.61079438389E+02  0.25500000920E-02 0. -1.
    10030    2    1    2    0    0  0.00000000000E+00  0.00000000000E+00  0.96210203108E+03  0.10842609078E+04  0.49998139764E+03 0.  0.
        1    1    3    3  502    0 -0.22990598718E+03 -0.41486301810E+02  0.67401366664E+03  0.71335285730E+03  0.50400001928E-02 0.  1.
       -1    1    3    3    0  502  0.22990598718E+03  0.41486301810E+02  0.28808836444E+03  0.37090805051E+03  0.50400001928E-02 0. -1.
</event>
<event>
 5   0  0.4989875E-03  0.5002408E+03  0.7818609E-02  0.1013716E+00
        2   -1    0    0  501    0  0.00000000000E+00  0.00000000000E+00  0.19080032331E+03  0.19080032333E+03  0.25500000920E-02 0. -1.
       -2   -1    0    0    0  501  0.00000000000E+00  0.00000000000E+00 -0.32788314181E+03  0.32788314182E+03  0.25500000920E-02 0.  1.
    10030    2    1    2    0    0  0.00000000000E+00  0.00000000000E+00 -0.13708281850E+03  0.51868346515E+03  0.50024077992E+03 0.  0.
        2    1    3    3  502    0 -0.19725895589E+03  0.15373344464E+03 -0.72576114689E+02  0.26040806461E+03  0.25500000920E-02 0. -1.
       -2    1    3    3    0  502  0.19725895589E+03 -0.15373344464E+03 -0.64506703816E+02  0.25827540054E+03  0.25500000920E-02 0.  1.
</event>
<event>
 5   0  0.2863538E-03  0.4999248E+03  0.7818609E-02  0.1013799E+00
        1   -1    0    0  501    0  0.00000000000E+00  0.00000000000E+00  0.56524137784E+03  0.56524137787E+03  0.50400001928E-02 0. -1.
       -1   -1    0    0    0  501  0.00000000000E+00  0.00000000000E+00 -0.11053897843E+03  0.11053897855E+03  0.50400001928E-02 0.  1.
    10030    2    1    2    0    0  0.00000000000E+00  0.00000000000E+00  0.45470239941E+03  0.67578035642E+03  0.49992481244E+03 0.  0.
        1    1    3    3  502    0  0.23884372872E+02  0.16997818141E+03  0.47297887559E+03  0.50316206356E+03  0.50400001928E-02 0. -1.
       -1    1    3    3    0  502 -0.23884372872E+02 -0.16997818141E+03 -0.18276476183E+02  0.17261829286E+03  0.50400001928E-02 0.  1.
</event>
<event>
 5   0  0.5118882E-03  0.4998339E+03  0.7818609E-02  0.1013822E+00
       -2   -1    0    0    0  501  0.00000000000E+00  0.00000000000E+00  0.13230670986E+03  0.13230670989E+03  0.25500000920E-02 0. -1.
        2   -1    0    0  501    0  0.00000000000E+00  0.00000000000E+00 -0.47207334209E+03  0.47207334209E+03  0.25500000920E-02 0.  1.
    10030    2    1    2    0    0  0.00000000000E+00  0.00000000000E+00 -0.33976663223E+03  0.60438005198E+03  0.49983385525E+03 0.  0.
        3    1    3    3  502    0 -0.44179848289E+02  0.24563463434E+03 -0.18565942391E+03  0.31105894050E+03  0.10100000352E+00 0. -1.
       -3    1    3    3    0  502  0.44179848289E+02 -0.24563463434E+03 -0.15410720832E+03  0.29332111148E+03  0.10100000352E+00 0.  1.
</event>
<event>
 5   0  0.4889251E-03  0.4998766E+03  0.7818609E-02  0.1013811E+00
       -2   -1    0    0    0  501  0.00000000000E+00  0.00000000000E+00  0.91042506787E+02  0.91042506823E+02  0.25500000920E-02 0. -1.
        2   -1    0    0  501    0  0.00000000000E+00  0.00000000000E+00 -0.68615375117E+03  0.68615375118E+03  0.25500000920E-02 0.  1.
    10030    2    1    2    0    0  0.00000000000E+00  0.00000000000E+00 -0.59511124439E+03  0.77719625800E+03  0.49987661503E+03 0.  0.
        5    1    3    3  502    0 -0.28232046459E+02 -0.49356270965E+02  0.80782407929E+02  0.98898823855E+02  0.46999998093E+01 0. -1.
       -5    1    3    3    0  502  0.28232046459E+02  0.49356270965E+02 -0.67589365232E+03  0.67829743415E+03  0.46999998093E+01 0.  1.
</event>
<event>
 5   0  0.4978779E-03  0.5022198E+03  0.7818609E-02  0.1013201E+00
        2   -1    0    0  501    0  0.00000000000E+00  0.00000000000E+00  0.12054010481E+04  0.12054010481E+04  0.25500000920E-02 0. -1.
       -2   -1    0    0    0  501  0.00000000000E+00  0.00000000000E+00 -0.52311380295E+02  0.52311380357E+02  0.25500000920E-02 0.  1.
    10030    2    1    2    0    0  0.00000000000E+00  0.00000000000E+00  0.11530896678E+04  0.12577124285E+04  0.50221984300E+03 0.  0.
        1    1    3    3  502    0 -0.19292854549E+03 -0.10308611566E+03  0.26771172950E+03  0.34571337990E+03  0.50400001928E-02 0.  1.
       -1    1    3    3    0  502  0.19292854549E+03  0.10308611566E+03  0.88537793829E+03  0.91199904855E+03  0.50400001928E-02 0. -1.
</event>
<event>
 5   0  0.2863538E-03  0.5001693E+03  0.7818609E-02  0.1013735E+00
       -1   -1    0    0    0  501  0.00000000000E+00  0.00000000000E+00  0.15055684785E+03  0.15055684794E+03  0.50400001928E-02 0. -1.
        1   -1    0    0  501    0  0.00000000000E+00  0.00000000000E+00 -0.41540667919E+03  0.41540667923E+03  0.50400001928E-02 0.  1.
    10030    2    1    2    0    0  0.00000000000E+00  0.00000000000E+00 -0.26484983134E+03  0.56596352716E+03  0.50016925227E+03 0.  0.
        1    1    3    3  502    0 -0.23052142979E+03 -0.26143787580E+02 -0.26768190224E+02  0.23353835500E+03  0.50400001928E-02 0. -1.
       -1    1    3    3    0  502  0.23052142979E+03  0.26143787580E+02 -0.23808164112E+03  0.33242517216E+03  0.50400001928E-02 0.  1.
</event>
<event>
 5   0  0.3211775E-03  0.4997750E+03  0.7818609E-02  0.1013838E+00
       -1   -1    0    0    0  501  0.00000000000E+00  0.00000000000E+00  0.98486777776E+02  0.98486777905E+02  0.50400001928E-02 0.  1.
        1   -1    0    0  501    0  0.00000000000E+00  0.00000000000E+00 -0.63403195650E+03  0.63403195652E+03  0.50400001928E-02 0. -1.
    10030    2    1    2    0    0  0.00000000000E+00  0.00000000000E+00 -0.53554517872E+03  0.73251873443E+03  0.49977500721E+03 0.  0.
        4    1    3    3  502    0 -0.22385649217E+02  0.15804558996E+03 -0.54956261067E+03  0.57227633337E+03  0.12699999809E+01 0. -1.
       -4    1    3    3    0  502  0.22385649217E+02 -0.15804558996E+03  0.14017431943E+02  0.16024240105E+03  0.12699999809E+01 0.  1.
</event>
<event>
 5   0  0.3055293E-03  0.5000498E+03  0.7818609E-02  0.1013766E+00
        1   -1    0    0  501    0  0.00000000000E+00  0.00000000000E+00  0.46837505568E+03  0.46837505571E+03  0.50400001928E-02 0. -1.
       -1   -1    0    0    0  501  0.00000000000E+00  0.00000000000E+00 -0.13346665639E+03  0.13346665649E+03  0.50400001928E-02 0.  1.
    10030    2    1    2    0    0  0.00000000000E+00  0.00000000000E+00  0.33490839929E+03  0.60184171219E+03  0.50004980814E+03 0.  0.
        3    1    3    3  502    0  0.97784377348E+02 -0.21542041670E+03  0.70086712919E+02  0.24673852134E+03  0.10100000352E+00 0.  1.
       -3    1    3    3    0  502 -0.97784377348E+02  0.21542041670E+03  0.26482168637E+03  0.35510319086E+03  0.10100000352E+00 0. -1.
</event>
<event>
 5   0  0.4978779E-03  0.5001143E+03  0.7818609E-02  0.1013749E+00
       -2   -1    0    0    0  501  0.00000000000E+00  0.00000000000E+00  0.78488634915E+02  0.78488634956E+02  0.25500000920E-02 0.  1.
        2   -1    0    0  501    0  0.00000000000E+00  0.00000000000E+00 -0.79665785274E+03  0.79665785275E+03  0.25500000920E-02 0. -1.
    10030    2    1    2    0    0  0.00000000000E+00  0.00000000000E+00 -0.71816921783E+03  0.87514648770E+03  0.50011433643E+03 0.  0.
        1    1    3    3  502    0  0.81930613782E+02  0.75432138657E+02  0.32695855625E+02  0.11606744599E+03  0.50400001928E-02 0.  1.
       -1    1    3    3    0  502 -0.81930613782E+02 -0.75432138657E+02 -0.75086507345E+03  0.75907904172E+03  0.50400001928E-02 0. -1.
</event>
<event>
 5   0  0.4889251E-03  0.4988955E+03  0.7818609E-02  0.1014068E+00
        2   -1    0    0  501    0  0.00000000000E+00  0.00000000000E+00  0.27533020408E+03  0.27533020410E+03  0.25500000920E-02 0.  1.
       -2   -1    0    0    0  501  0.00000000000E+00  0.00000000000E+00 -0.22599836083E+03  0.22599836084E+03  0.25500000920E-02 0. -1.
    10030    2    1    2    0    0  0.00000000000E+00  0.00000000000E+00  0.49331843254E+02  0.50132856494E+03  0.49889547930E+03 0.  0.
        5    1    3    3  502    0  0.24609451567E+03  0.31963374128E+02  0.49645086565E+02  0.25312228773E+03  0.46999998093E+01 0.  1.
       -5    1    3    3    0  502 -0.24609451567E+03 -0.31963374128E+02 -0.31324331039E+00  0.24820627721E+03  0.46999998093E+01 0. -1.
</event>
<event>
 5   0  0.4989875E-03  0.5000054E+03  0.7818609E-02  0.1013778E+00
       -2   -1    0    0    0  501  0.00000000000E+00  0.00000000000E+00  0.28432330129E+03  0.28432330130E+03  0.25500000920E-02 0. -1.
        2   -1    0    0  501    0  0.00000000000E+00  0.00000000000E+00 -0.21982492455E+03  0.21982492456E+03  0.25500000920E-02 0.  1.
    10030    2    1    2    0    0  0.00000000000E+00  0.00000000000E+00  0.64498376745E+02  0.50414822587E+03  0.50000539301E+03 0.  0.
        2    1    3    3  502    0 -0.99555357661E+01 -0.24307253941E+03  0.90328329342E+02  0.25950448782E+03  0.25500000920E-02 0.  1.
       -2    1    3    3    0  502  0.99555357661E+01  0.24307253941E+03 -0.25829952598E+02  0.24464373805E+03  0.25500000920E-02 0. -1.
</event>
<event>
 5   0  0.5118882E-03  0.4994684E+03  0.7818609E-02  0.1013918E+00
        2   -1    0    0  501    0  0.00000000000E+00  0.00000000000E+00  0.10763757575E+04  0.10763757575E+04  0.25500000920E-02 0.  1.
       -2   -1    0    0    0  501  0.00000000000E+00  0.00000000000E+00 -0.57941831490E+02  0.57941831546E+02  0.25500000920E-02 0. -1.
    10030    2    1    2    0    0  0.00000000000E+00  0.00000000000E+00  0.10184339261E+04  0.11343175891E+04  0.49946844864E+03 0.  0.
        3    1    3    3  502    0 -0.14167833589E+03 -0.19511656636E+03  0.36161713506E+03  0.43463799638E+03  0.10100000352E+00 0. -1.
       -3    1    3    3    0  502  0.14167833589E+03  0.19511656636E+03  0.65681679099E+03  0.69967959271E+03  0.10100000352E+00 0.  1.
</event>
<event>
 5   0  0.4989875E-03  0.5000056E+03  0.7818609E-02  0.1013777E+00
        2   -1    0    0  501    0  0.00000000000E+00  0.00000000000E+00  0.41307205635E+03  0.41307205636E+03  0.25500000920E-02 0. -1.
       -2   -1    0    0    0  501  0.00000000000E+00  0.00000000000E+00 -0.15130873853E+03  0.15130873855E+03  0.25500000920E-02 0.  1.
    10030    2    1    2    0    0  0.00000000000E+00  0.00000000000E+00  0.26176331782E+03  0.56438079491E+03  0.50000564707E+03 0.  0.
        2    1    3    3  502    0  0.23439628089E+03  0.83387555739E+02  0.15867527011E+03  0.29508124695E+03  0.25500000920E-02 0. -1.
       -2    1    3    3    0  502 -0.23439628089E+03 -0.83387555739E+02  0.10308804771E+03  0.26929954797E+03  0.25500000920E-02 0.  1.
</event>
<event>
 5   0  0.5118882E-03  0.4997481E+03  0.7818609E-02  0.1013845E+00
       -2   -1    0    0    0  501  0.00000000000E+00  0.00000000000E+00  0.72670743666E+02  0.72670743711E+02  0.25500000920E-02 0.  1.
        2   -1    0    0  501    0  0.00000000000E+00  0.00000000000E+00 -0.85917716214E+03  0.85917716214E+03  0.25500000920E-02 0. -1.
    10030    2    1    2    0    0  0.00000000000E+00  0.00000000000E+00 -0.78650641847E+03  0.93184790586E+03  0.49974810990E+03 0.  0.
        3    1    3    3  502    0 -0.11320947996E+03 -0.18233483438E+03 -0.63185843552E+03  0.66731362261E+03  0.10100000352E+00 0. -1.
       -3    1    3    3    0  502  0.11320947996E+03  0.18233483438E+03 -0.15464798296E+03  0.26453428325E+03  0.10100000352E+00 0.  1.
</event>
<event>
 5   0  0.5118882E-03  0.4999795E+03  0.7818609E-02  0.1013784E+00
        2   -1    0    0  501    0  0.00000000000E+00  0.00000000000E+00  0.13821879214E+04  0.13821879214E+04  0.25500000920E-02 0. -1.
       -2   -1    0    0    0  501  0.00000000000E+00  0.00000000000E+00 -0.45214461489E+02  0.45214461561E+02  0.25500000920E-02 0.  1.
    10030    2    1    2    0    0  0.00000000000E+00  0.00000000000E+00  0.13369734599E+04  0.14274023830E+04  0.49997952996E+03 0.  0.
        3    1    3    3  502    0 -0.15956731946E+02  0.14640586816E+03  0.91781414287E+02  0.17353136240E+03  0.10100000352E+00 0.  1.
       -3    1    3    3    0  502  0.15956731946E+02 -0.14640586816E+03  0.12451920456E+04  0.12538710206E+04  0.10100000352E+00 0. -1.
</event>
<event>
 5   0  0.5095783E-03  0.4998570E+03  0.7818609E-02  0.1013816E+00
       -2   -1    0    0    0  501  0.00000000000E+00  0.00000000000E+00  0.32160178935E+03  0.32160178936E+03  0.25500000920E-02 0.  1.
        2   -1    0    0  501    0  0.00000000000E+00  0.00000000000E+00 -0.19422859901E+03  0.19422859903E+03  0.25500000920E-02 0. -1.
    10030    2    1    2    0    0  0.00000000000E+00  0.00000000000E+00  0.12737319034E+03  0.51583038839E+03  0.49985703953E+03 0.  0.
        4    1    3    3  502    0  0.37821492571E+02  0.18754266518E+03 -0.10226247745E+03  0.21693764947E+03  0.12699999809E+01 0. -1.
       -4    1    3    3    0  502 -0.37821492571E+02 -0.18754266518E+03  0.22963566779E+03  0.29889273893E+03  0.12699999809E+01 0.  1.
</event>
<event>
 5   0  0.3055293E-03  0.4996323E+03  0.7818609E-02  0.1013875E+00
        1   -1    0    0  501    0  0.00000000000E+00  0.00000000000E+00  0.37630250204E+02  0.37630250542E+02  0.50400001928E-02 0. -1.
       -1   -1    0    0    0  501  0.00000000000E+00  0.00000000000E+00 -0.16584556291E+04  0.16584556291E+04  0.50400001928E-02 0.  1.
    10030    2    1    2    0    0  0.00000000000E+00  0.00000000000E+00 -0.16208253789E+04  0.16960858797E+04  0.49963226705E+03 0.  0.
        3    1    3    3  502    0 -0.84288808775E+02  0.14121536668E+03 -0.14487702009E+04  0.14580745826E+04  0.10100000352E+00 0.  1.
       -3    1    3    3    0  502  0.84288808775E+02 -0.14121536668E+03 -0.17205517800E+03  0.23801129710E+03  0.10100000352E+00 0. -1.
</event>
<event>
 5   0  0.3013734E-03  0.4993463E+03  0.7818609E-02  0.1013950E+00
        1   -1    0    0  501    0  0.00000000000E+00  0.00000000000E+00  0.24766382714E+03  0.24766382720E+03  0.50400001928E-02 0. -1.
       -1   -1    0    0    0  501  0.00000000000E+00  0.00000000000E+00 -0.25169881252E+03  0.25169881257E+03  0.50400001928E-02 0.  1.
    10030    2    1    2    0    0  0.00000000000E+00  0.00000000000E+00 -0.40349853772E+01  0.49936263977E+03  0.49934633761E+03 0.  0.
        2    1    3    3  502    0 -0.82343057977E+02 -0.20738354270E+03  0.11000570840E+03  0.24877614208E+03  0.25500000920E-02 0.  1.
       -2    1    3    3    0  502  0.82343057977E+02  0.20738354270E+03 -0.11404069378E+03  0.25058649769E+03  0.25500000920E-02 0. -1.
</event>
<event>
 5   0  0.3013734E-03  0.5002784E+03  0.7818609E-02  0.1013706E+00
       -1   -1    0    0    0  501  0.00000000000E+00  0.00000000000E+00  0.36624223042E+03  0.36624223045E+03  0.50400001928E-02 0. -1.
        1   -1    0    0  501    0  0.00000000000E+00  0.00000000000E+00 -0.17084220044E+03  0.17084220052E+03  0.50400001928E-02 0.  1.
    10030    2    1    2    0    0  0.00000000000E+00  0.00000000000E+00  0.19540002998E+03  0.53708443097E+03  0.50027843675E+03 0.  0.
        2    1    3    3  502    0  0.11258393777E+03  0.22337031504E+03  0.98165350294E+02  0.26871151202E+03  0.25500000920E-02 0. -1.
       -2    1    3    3    0  502 -0.11258393777E+03 -0.22337031504E+03  0.97234679682E+02  0.26837291895E+03  0.25500000920E-02 0.  1.
</event>
<event>
 5   0  0.3055293E-03  0.5000917E+03  0.7818609E-02  0.1013755E+00
       -1   -1    0    0    0  501  0.00000000000E+00  0.00000000000E+00  0.59625426784E+03  0.59625426787E+03  0.50400001928E-02 0. -1.
        1   -1    0    0  501    0  0.00000000000E+00  0.00000000000E+00 -0.10485949826E+03  0.10485949838E+03  0.50400001928E-02 0.  1.
    10030    2    1    2    0    0  0.00000000000E+00  0.00000000000E+00  0.49139476958E+03  0.70111376625E+03  0.50009168524E+03 0.  0.
        3    1    3    3  502    0  0.12088018475E+03  0.21038426107E+03  0.16100448043E+03  0.29119754342E+03  0.10100000352E+00 0.  1.
       -3    1    3    3    0  502 -0.12088018475E+03 -0.21038426107E+03  0.33039028915E+03  0.40991622283E+03  0.10100000352E+00 0. -1.
</event>
<event>
 5   0  0.4978779E-03  0.4996482E+03  0.7818609E-02  0.1013871E+00
       -2   -1    0    0    0  501  0.00000000000E+00  0.00000000000E+00  0.23417241425E+03  0.23417241426E+03  0.25500000920E-02 0. -1.
        2   -1    0    0  501    0  0.00000000000E+00  0.00000000000E+00 -0.26652192167E+03  0.26652192169E+03  0.25500000920E-02 0.  1.
    10030    2    1    2    0    0  0.00000000000E+00  0.00000000000E+00 -0.32349507426E+02  0.50069433595E+03  0.49964820366E+03 0.  0.
        1    1    3    3  502    0 -0.20772401703E+03  0.63647846400E+02 -0.13976897611E+03  0.25833250339E+03  0.50400001928E-02 0.  1.
       -1    1    3    3    0  502  0.20772401703E+03 -0.63647846400E+02  0.10741946869E+03  0.24236183255E+03  0.50400001928E-02 0. -1.
</event>
<event>
 5   0  0.3055293E-03  0.4999082E+03  0.7818609E-02  0.1013803E+00
        1   -1    0    0  501    0  0.00000000000E+00  0.00000000000E+00  0.61405011897E+03  0.61405011899E+03  0.50400001928E-02 0.  1.
       -1   -1    0    0    0  501  0.00000000000E+00  0.00000000000E+00 -0.10174586136E+03  0.10174586148E+03  0.50400001928E-02 0. -1.
    10030    2    1    2    0    0  0.00000000000E+00  0.00000000000E+00  0.51230425761E+03  0.71579598048E+03  0.49990822487E+03 0.  0.
        3    1    3    3  502    0 -0.16114039087E+03 -0.18493823139E+03  0.18735343440E+03  0.30865789246E+03  0.10100000352E+00 0. -1.
       -3    1    3    3    0  502  0.16114039087E+03  0.18493823139E+03  0.32495082322E+03  0.40713808801E+03  0.10100000352E+00 0.  1.
</event>
<event>
 5   0  0.5118882E-03  0.5005059E+03  0.7818609E-02  0.1013647E+00
       -2   -1    0    0    0  501  0.00000000000E+00  0.00000000000E+00  0.10721682712E+03  0.10721682715E+03  0.25500000920E-02 0. -1.
        2   -1    0    0  501    0  0.00000000000E+00  0.00000000000E+00 -0.58411108590E+03  0.58411108591E+03  0.25500000920E-02 0.  1.
    10030    2    1    2    0    0  0.00000000000E+00  0.00000000000E+00 -0.47689425879E+03  0.69132791305E+03  0.50050589338E+03 0.  0.
        3    1    3    3  502    0  0.15570299218E+03 -0.95660966460E+02 -0.47460628755E+03  0.50857209977E+03  0.10100000352E+00 0.  1.
       -3    1    3    3    0  502 -0.15570299218E+03  0.95660966460E+02 -0.22879712357E+01  0.18275581329E+03  0.10100000352E+00 0. -1.
</event>
<event>
 5   0  0.2863538E-03  0.5004336E+03  0.7818609E-02  0.1013666E+00
       -1   -1    0    0    0  501  0.00000000000E+00  0.00000000000E+00  0.77414455791E+02  0.77414455955E+02  0.50400001928E-02 0. -1.
        1   -1    0    0  501    0  0.00000000000E+00  0.00000000000E+00 -0.80874376782E+03  0.80874376783E+03  0.50400001928E-02 0.  1.
    10030    2    1    2    0    0  0.00000000000E+00  0.00000000000E+00 -0.73132931203E+03  0.88615822379E+03  0.50043364691E+03 0.  0.
        1    1    3    3  502    0  0.19329023992E+03  0.15817935308E+03 -0.39232264732E+03  0.46507943860E+03  0.50400001928E-02 0.  1.
       -1    1    3    3    0  502 -0.19329023992E+03 -0.15817935308E+03 -0.33900666471E+03  0.42107878518E+03  0.50400001928E-02 0. -1.
</event>
<event>
 5   0  0.5095783E-03  0.4999432E+03  0.7818609E-02  0.1013794E+00
        2   -1    0    0  501    0  0.00000000000E+00  0.00000000000E+00  0.44588776526E+03  0.44588776527E+03  0.25500000920E-02 0. -1.
       -2   -1    0    0    0  501  0.00000000000E+00  0.00000000000E+00 -0.14013795949E+03  0.14013795952E+03  0.25500000920E-02 0.  1.
    10030    2    1    2    0    0  0.00000000000E+00  0.00000000000E+00  0.30574980577E+03  0.58602572479E+03  0.49994320316E+03 0.  0.
        4    1    3    3  502    0 -0.15195364918E+03 -0.14644834461E+03 -0.41591625391E+01  0.21108278156E+03  0.12699999809E+01 0.  1.
       -4    1    3    3    0  502  0.15195364918E+03  0.14644834461E+03  0.30990896831E+03  0.37494294323E+03  0.12699999809E+01 0. -1.
</event>
<event>
 5   0  0.5095783E-03  0.4999324E+03  0.7818609E-02  0.1013797E+00
       -2   -1    0    0    0  501  0.00000000000E+00  0.00000000000E+00  0.47030514950E+02  0.47030515019E+02  0.25500000920E-02 0.  1.
        2   -1    0    0  501    0  0.00000000000E+00  0.00000000000E+00 -0.13285650482E+04  0.13285650482E+04  0.25500000920E-02 0. -1.
    10030    2    1    2    0    0  0.00000000000E+00  0.00000000000E+00 -0.12815345333E+04  0.13755955633E+04  0.49993238908E+03 0.  0.
        4    1    3    3  502    0  0.88334469016E+02  0.11053731699E+03 -0.12077496057E+04  0.12160107729E+04  0.12699999809E+01 0. -1.
       -4    1    3    3    0  502 -0.88334469016E+02 -0.11053731699E+03 -0.73784927546E+02  0.15958479031E+03  0.12699999809E+01 0.  1.
</event>
<event>
 5   0  0.3057783E-03  0.4999647E+03  0.7818609E-02  0.1013788E+00
       -1   -1    0    0    0  501  0.00000000000E+00  0.00000000000E+00  0.22324914654E+03  0.22324914660E+03  0.50400001928E-02 0.  1.
        1   -1    0    0  501    0  0.00000000000E+00  0.00000000000E+00 -0.27991672927E+03  0.27991672932E+03  0.50400001928E-02 0. -1.
    10030    2    1    2    0    0  0.00000000000E+00  0.00000000000E+00 -0.56667582732E+02  0.50316587592E+03  0.49996468251E+03 0.  0.
        5    1    3    3  502    0 -0.45839448238E+02 -0.71714134565E+01 -0.27550025728E+03  0.27941933710E+03  0.46999998093E+01 0. -1.
       -5    1    3    3    0  502  0.45839448238E+02  0.71714134565E+01  0.21883267455E+03  0.22374653882E+03  0.46999998093E+01 0.  1.
</event>
<event>
 5   0  0.3055293E-03  0.5027275E+03  0.7818609E-02  0.1013069E+00
        1   -1    0    0  501    0  0.00000000000E+00  0.00000000000E+00  0.73233278871E+03  0.73233278873E+03  0.50400001928E-02 0. -1.
       -1   -1    0    0    0  501  0.00000000000E+00  0.00000000000E+00 -0.86277363200E+02  0.86277363347E+02  0.50400001928E-02 0.  1.
    10030    2    1    2    0    0  0.00000000000E+00  0.00000000000E+00  0.64605542551E+03  0.81861015208E+03  0.50272752884E+03 0.  0.
        3    1    3    3  502    0  0.14143514234E+03 -0.10581083859E+03  0.61424031172E+03  0.63913300947E+03  0.10100000352E+00 0. -1.
       -3    1    3    3    0  502 -0.14143514234E+03  0.10581083859E+03  0.31815113794E+02  0.17947714261E+03  0.10100000352E+00 0.  1.
</event>
<event>
 5   0  0.3013734E-03  0.5000842E+03  0.7818609E-02  0.1013757E+00
       -1   -1    0    0    0  501  0.00000000000E+00  0.00000000000E+00  0.12788888364E+03  0.12788888374E+03  0.50400001928E-02 0.  1.
        1   -1    0    0  501    0  0.00000000000E+00  0.00000000000E+00 -0.48887001965E+03  0.48887001967E+03  0.50400001928E-02 0. -1.
    10030    2    1    2    0    0  0.00000000000E+00  0.00000000000E+00 -0.36098113601E+03  0.61675890341E+03  0.50008415730E+03 0.  0.
        2    1    3    3  502    0  0.10773669789E+03  0.12747964626E+03  0.49126441673E+02  0.17398753853E+03  0.25500000920E-02 0.  1.
       -2    1    3    3    0  502 -0.10773669789E+03 -0.12747964626E+03 -0.41010757768E+03  0.44277136488E+03  0.25500000920E-02 0. -1.
</event>
<event>
 5   0  0.5095783E-03  0.5001904E+03  0.7818609E-02  0.1013729E+00
       -2   -1    0    0    0  501  0.00000000000E+00  0.00000000000E+00  0.11327841868E+03  0.11327841871E+03  0.25500000920E-02 0. -1.
        2   -1    0    0  501    0  0.00000000000E+00  0.00000000000E+00 -0.55215816960E+03  0.55215816961E+03  0.25500000920E-02 0.  1.
    10030    2    1    2    0    0  0.00000000000E+00  0.00000000000E+00 -0.43887975092E+03  0.66543658832E+03  0.50019038106E+03 0.  0.
        4    1    3    3  502    0 -0.10140830835E+03 -0.48594358151E+02  0.77744300679E+02  0.13671446827E+03  0.12699999809E+01 0. -1.
       -4    1    3    3    0  502  0.10140830835E+03  0.48594358151E+02 -0.51662405159E+03  0.52872212005E+03  0.12699999809E+01 0.  1.
</event>
<event>
 5   0  0.3055293E-03  0.4999766E+03  0.7818609E-02  0.1013785E+00
        1   -1    0    0  501    0  0.00000000000E+00  0.00000000000E+00  0.26014847993E+03  0.26014847998E+03  0.50400001928E-02 0. -1.
       -1   -1    0    0    0  501  0.00000000000E+00  0.00000000000E+00 -0.24022494685E+03  0.24022494691E+03  0.50400001928E-02 0.  1.
    10030    2    1    2    0    0  0.00000000000E+00  0.00000000000E+00  0.19923533072E+02  0.50037342688E+03  0.49997661861E+03 0.  0.
        3    1    3    3  502    0  0.15040995488E+03 -0.18229490155E+03  0.91509924912E+02  0.25343374325E+03  0.10100000352E+00 0. -1.
       -3    1    3    3    0  502 -0.15040995488E+03  0.18229490155E+03 -0.71586391839E+02  0.24693968364E+03  0.10100000352E+00 0.  1.
</event>
<event>
 5   0  0.4989875E-03  0.5004820E+03  0.7818609E-02  0.1013653E+00
        2   -1    0    0  501    0  0.00000000000E+00  0.00000000000E+00  0.36091957336E+03  0.36091957337E+03  0.25500000920E-02 0. -1.
       -2   -1    0    0    0  501  0.00000000000E+00  0.00000000000E+00 -0.17350280112E+03  0.17350280114E+03  0.25500000920E-02 0.  1.
    10030    2    1    2    0    0  0.00000000000E+00  0.00000000000E+00  0.18741677224E+03  0.53442237451E+03  0.50048199554E+03 0.  0.
        2    1    3    3  502    0 -0.50824416657E+02 -0.19794535681E+03  0.24791464946E+03  0.32128983649E+03  0.25500000920E-02 0. -1.
       -2    1    3    3    0  502  0.50824416657E+02  0.19794535681E+03 -0.60497877213E+02  0.21313253802E+03  0.25500000920E-02 0.  1.
</event>
<event>
 5   0  0.5095783E-03  0.4998468E+03  0.7818609E-02  0.1013819E+00
       -2   -1    0    0    0  501  0.00000000000E+00  0.00000000000E+00  0.37257586593E+02  0.37257586681E+02  0.25500000920E-02 0. -1.
        2   -1    0    0  501    0  0.00000000000E+00  0.00000000000E+00 -0.16764826933E+04  0.16764826933E+04  0.25500000920E-02 0.  1.
    10030    2    1    2    0    0  0.00000000000E+00  0.00000000000E+00 -0.16392251067E+04  0.17137402799E+04  0.49984677329E+03 0.  0.
        4    1    3    3  502    0  0.12066224373E+03  0.20353319272E+03 -0.54372870374E+03  0.59298200122E+03  0.12699999809E+01 0. -1.
       -4    1    3    3    0  502 -0.12066224373E+03 -0.20353319272E+03 -0.10954964029E+04  0.11207582787E+04  0.12699999809E+01 0.  1.
</event>
<event>
 5   0  0.3057783E-03  0.5015792E+03  0.7818609E-02  0.1013368E+00
        1   -1    0    0  501    0  0.00000000000E+00  0.00000000000E+00  0.19067120222E+03  0.19067120228E+03  0.50400001928E-02 0. -1.
       -1   -1    0    0    0  501  0.00000000000E+00  0.00000000000E+00 -0.32986328923E+03  0.32986328927E+03  0.50400001928E-02 0.  1.
    10030    2    1    2    0    0  0.00000000000E+00  0.00000000000E+00 -0.13919208701E+03  0.52053449155E+03  0.50157922585E+03 0.  0.
        5    1    3    3  502    0 -0.13696264286E+03  0.13240990707E+03 -0.23879799107E+03  0.30551222491E+03  0.46999998093E+01 0.  1.
       -5    1    3    3    0  502  0.13696264286E+03 -0.13240990707E+03  0.99605904062E+02  0.21502226664E+03  0.46999998093E+01 0. -1.
</event>
<event>
 5   0  0.2005125E-03  0.5000530E+03  0.7818609E-02  0.1013765E+00
        4   -1    0    0  501    0  0.00000000000E+00  0.00000000000E+00  0.12902246150E+03  0.12902871181E+03  0.12699999809E+01 0.  1.
       -4   -1    0    0    0  501  0.00000000000E+00  0.00000000000E+00 -0.48449556709E+03  0.48449723160E+03  0.12699999809E+01 0. -1.
    10030    2    1    2    0    0  0.00000000000E+00  0.00000000000E+00 -0.35547310559E+03  0.61352594341E+03  0.50005295164E+03 0.  0.
        1    1    3    3  502    0  0.17588529606E+03 -0.50232584525E+01  0.40201424929E+02  0.18049106650E+03  0.50400001928E-02 0.  1.
       -1    1    3    3    0  502 -0.17588529606E+03  0.50232584525E+01 -0.39567453052E+03  0.43303487691E+03  0.50400001928E-02 0. -1.
</event>
<event>
 5   0  0.4989875E-03  0.5020475E+03  0.7818609E-02  0.1013246E+00
        2   -1    0    0  501    0  0.00000000000E+00  0.00000000000E+00  0.50477728966E+03  0.50477728966E+03  0.25500000920E-02 0. -1.
       -2   -1    0    0    0  501  0.00000000000E+00  0.00000000000E+00 -0.12483310464E+03  0.12483310466E+03  0.25500000920E-02 0.  1.
    10030    2    1    2    0    0  0.00000000000E+00  0.00000000000E+00  0.37994418502E+03  0.62961039433E+03  0.50204747277E+03 0.  0.
        2    1    3    3  502    0 -0.10381799663E+03 -0.22067713000E+03  0.11539518645E+03  0.26980107707E+03  0.25500000920E-02 0.  1.
       -2    1    3    3    0  502  0.10381799663E+03  0.22067713000E+03  0.26454899857E+03  0.35980931725E+03  0.25500000920E-02 0. -1.
</event>
<event>
 5   0  0.5118882E-03  0.5001637E+03  0.7818609E-02  0.1013736E+00
        2   -1    0    0  501    0  0.00000000000E+00  0.00000000000E+00  0.35022556277E+03  0.35022556278E+03  0.25500000920E-02 0. -1.
       -2   -1    0    0    0  501  0.00000000000E+00  0.00000000000E+00 -0.17857326341E+03  0.17857326343E+03  0.25500000920E-02 0.  1.
    10030    2    1    2    0    0  0.00000000000E+00  0.00000000000E+00  0.17165229936E+03  0.52879882621E+03  0.50016365995E+03 0.  0.
        3    1    3    3  502    0  0.22954277458E+02  0.23330221906E+03 -0.62463655440E+01  0.23451194331E+03  0.10100000352E+00 0.  1.
       -3    1    3    3    0  502 -0.22954277458E+02 -0.23330221906E+03  0.17789866490E+03  0.29428688290E+03  0.10100000352E+00 0. -1.
</event>
<event>
 5   0  0.4889251E-03  0.5002856E+03  0.7818609E-02  0.1013704E+00
       -2   -1    0    0    0  501  0.00000000000E+00  0.00000000000E+00  0.17466412508E+03  0.17466412510E+03  0.25500000920E-02 0. -1.
        2   -1    0    0  501    0  0.00000000000E+00  0.00000000000E+00 -0.35823847433E+03  0.35823847434E+03  0.25500000920E-02 0.  1.
    10030    2    1    2    0    0  0.00000000000E+00  0.00000000000E+00 -0.18357434926E+03  0.53290259944E+03  0.50028555724E+03 0.  0.
        5    1    3    3  502    0 -0.89189620000E+02 -0.18177237991E+03 -0.24816929434E+03  0.32032183046E+03  0.46999998093E+01 0.  1.
       -5    1    3    3    0  502  0.89189620000E+02  0.18177237991E+03  0.64594945086E+02  0.21258076899E+03  0.46999998093E+01 0. -1.
</event>
<event>
 5   0  0.3013734E-03  0.4999489E+03  0.7818609E-02  0.1013792E+00
       -1   -1    0    0    0  501  0.00000000000E+00  0.00000000000E+00  0.11001538624E+03  0.11001538636E+03  0.50400001928E-02 0. -1.
        1   -1    0    0  501    0  0.00000000000E+00  0.00000000000E+00 -0.56798616260E+03  0.56798616263E+03  0.50400001928E-02 0.  1.
    10030    2    1    2    0    0  0.00000000000E+00  0.00000000000E+00 -0.45797077636E+03  0.67800154899E+03  0.49994886581E+03 0.  0.
        2    1    3    3  502    0 -0.25444998389E+02  0.10760926774E+03  0.75044586993E+02  0.13363716732E+03  0.25500000920E-02 0. -1.
       -2    1    3    3    0  502  0.25444998389E+02 -0.10760926774E+03 -0.53301536335E+03  0.54436438166E+03  0.25500000920E-02 0.  1.
</event>
<event>
 5   0  0.4989875E-03  0.5001915E+03  0.7818609E-02  0.1013729E+00
        2   -1    0    0  501    0  0.00000000000E+00  0.00000000000E+00  0.10108438916E+04  0.10108438916E+04  0.25500000920E-02 0. -1.
       -2   -1    0    0    0  501  0.00000000000E+00  0.00000000000E+00 -0.61876909152E+02  0.61876909204E+02  0.25500000920E-02 0.  1.
    10030    2    1    2    0    0  0.00000000000E+00  0.00000000000E+00  0.94896698245E+03  0.10727208008E+04  0.50019154602E+03 0.  0.
        2    1    3    3  502    0 -0.53833470762E+02 -0.20680165898E+03  0.75314322977E+03  0.78287271844E+03  0.25500000920E-02 0. -1.
       -2    1    3    3    0  502  0.53833470762E+02  0.20680165898E+03  0.19582375268E+03  0.28984808236E+03  0.25500000920E-02 0.  1.
</event>
<event>
 5   0  0.2005125E-03  0.4994624E+03  0.7818609E-02  0.1013919E+00
        4   -1    0    0  501    0  0.00000000000E+00  0.00000000000E+00  0.11734012662E+03  0.11734699918E+03  0.12699999809E+01 0.  1.
       -4   -1    0    0    0  501  0.00000000000E+00  0.00000000000E+00 -0.53147154570E+03  0.53147306309E+03  0.12699999809E+01 0. -1.
    10030    2    1    2    0    0  0.00000000000E+00  0.00000000000E+00 -0.41413141908E+03  0.64882006227E+03  0.49946235187E+03 0.  0.
        5    1    3    3  502    0  0.13830263238E+03 -0.13308154632E+03 -0.41452664895E+03  0.45682901482E+03  0.46999998093E+01 0. -1.
       -5    1    3    3    0  502 -0.13830263238E+03  0.13308154632E+03  0.39522987390E+00  0.19199104745E+03  0.46999998093E+01 0.  1.
</event>
<event>
 5   0  0.4889251E-03  0.4999260E+03  0.7818609E-02  0.1013798E+00
        2   -1    0    0  501    0  0.00000000000E+00  0.00000000000E+00  0.21019876214E+03  0.21019876215E+03  0.25500000920E-02 0.  1.
       -2   -1    0    0    0  501  0.00000000000E+00  0.00000000000E+00 -0.29724959907E+03  0.29724959908E+03  0.25500000920E-02 0. -1.
    10030    2    1    2    0    0  0.00000000000E+00  0.00000000000E+00 -0.87050836930E+02  0.50744836124E+03  0.49992598563E+03 0.  0.
        5    1    3    3  502    0  0.16131431571E+03 -0.13521155417E+03  0.93242265098E+02  0.23026220453E+03  0.46999998093E+01 0.  1.
       -5    1    3    3    0  502 -0.16131431571E+03  0.13521155417E+03 -0.18029310203E+03  0.27718615671E+03  0.46999998093E+01 0. -1.
</event>
<event>
 5   0  0.3211775E-03  0.4998979E+03  0.7818609E-02  0.1013806E+00
        1   -1    0    0  501    0  0.00000000000E+00  0.00000000000E+00  0.91502041709E+03  0.91502041711E+03  0.50400001928E-02 0.  1.
       -1   -1    0    0    0  501  0.00000000000E+00  0.00000000000E+00 -0.68276590529E+02  0.68276590715E+02  0.50400001928E-02 0. -1.
    10030    2    1    2    0    0  0.00000000000E+00  0.00000000000E+00  0.84674382657E+03  0.98329700782E+03  0.49989788734E+03 0.  0.
        4    1    3    3  502    0  0.21547358783E+02 -0.22690266484E+03  0.22158697283E+03  0.31788599751E+03  0.12699999809E+01 0.  1.
       -4    1    3    3    0  502 -0.21547358783E+02  0.22690266484E+03  0.62515685373E+03  0.66541101032E+03  0.12699999809E+01 0. -1.
</event>
<event>
 5   0  0.3013734E-03  0.5001303E+03  0.7818609E-02  0.1013745E+00
        1   -1    0    0  501    0  0.00000000000E+00  0.00000000000E+00  0.35293502139E+03  0.35293502143E+03  0.50400001928E-02 0. -1.
       -1   -1    0    0    0  501  0.00000000000E+00  0.00000000000E+00 -0.17717873863E+03  0.17717873870E+03  0.50400001928E-02 0.  1.
    10030    2    1    2    0    0  0.00000000000E+00  0.00000000000E+00  0.17575628276E+03  0.53011376013E+03  0.50013031077E+03 0.  0.
        2    1    3    3  502    0  0.12981551276E+03  0.93681265714E+02  0.29150009195E+03  0.33256661064E+03  0.25500000920E-02 0. -1.
       -2    1    3    3    0  502 -0.12981551276E+03 -0.93681265714E+02 -0.11574380919E+03  0.19754714949E+03  0.25500000920E-02 0.  1.
</event>
<event>
 5   0  0.2863538E-03  0.4999404E+03  0.7818609E-02  0.1013794E+00
       -1   -1    0    0    0  501  0.00000000000E+00  0.00000000000E+00  0.10869108262E+03  0.10869108274E+03  0.50400001928E-02 0. -1.
        1   -1    0    0  501    0  0.00000000000E+00  0.00000000000E+00 -0.57488701638E+03  0.57488701641E+03  0.50400001928E-02 0.  1.
    10030    2    1    2    0    0  0.00000000000E+00  0.00000000000E+00 -0.46619593376E+03  0.68357809914E+03  0.49994036541E+03 0.  0.
        1    1    3    3  502    0 -0.81478386053E+02  0.46648885860E+02 -0.54986263235E+03  0.55782054500E+03  0.50400001928E-02 0.  1.
       -1    1    3    3    0  502  0.81478386053E+02 -0.46648885860E+02  0.83666698586E+02  0.12575755414E+03  0.50400001928E-02 0. -1.
</event>
<event>
 5   0  0.4889251E-03  0.5000166E+03  0.7818609E-02  0.1013775E+00
        2   -1    0    0  501    0  0.00000000000E+00  0.00000000000E+00  0.59873744899E+03  0.59873744899E+03  0.25500000920E-02 0.  1.
       -2   -1    0    0    0  501  0.00000000000E+00  0.00000000000E+00 -0.10439325842E+03  0.10439325845E+03  0.25500000920E-02 0. -1.
    10030    2    1    2    0    0  0.00000000000E+00  0.00000000000E+00  0.49434419057E+03  0.70313070744E+03  0.50001661272E+03 0.  0.
        5    1    3    3  502    0 -0.25768009072E+01 -0.21605927335E+03  0.42389593438E+03  0.47581309637E+03  0.46999998093E+01 0. -1.
       -5    1    3    3    0  502  0.25768009072E+01  0.21605927335E+03  0.70448256195E+02  0.22731761107E+03  0.46999998093E+01 0.  1.
</event>
<event>
 5   0  0.3057783E-03  0.5006840E+03  0.7818609E-02  0.1013601E+00
       -1   -1    0    0    0  501  0.00000000000E+00  0.00000000000E+00  0.12470430572E+03  0.12470430582E+03  0.50400001928E-02 0. -1.
        1   -1    0    0  501    0  0.00000000000E+00  0.00000000000E+00 -0.50255773577E+03  0.50255773580E+03  0.50400001928E-02 0.  1.
    10030    2    1    2    0    0  0.00000000000E+00  0.00000000000E+00 -0.37785343006E+03  0.62726204162E+03  0.50068398641E+03 0.  0.
        5    1    3    3  502    0 -0.12763065724E+03 -0.15586271935E+03 -0.28253370594E+01  0.20152628732E+03  0.46999998093E+01 0. -1.
       -5    1    3    3    0  502  0.12763065724E+03  0.15586271935E+03 -0.37502809300E+03  0.42573575430E+03  0.46999998093E+01 0.  1.
</event>
<event>
 5   0  0.3055293E-03  0.4999514E+03  0.7818609E-02  0.1013792E+00
       -1   -1    0    0    0  501  0.00000000000E+00  0.00000000000E+00  0.26894316949E+03  0.26894316954E+03  0.50400001928E-02 0. -1.
        1   -1    0    0  501    0  0.00000000000E+00  0.00000000000E+00 -0.23234593583E+03  0.23234593588E+03  0.50400001928E-02 0.  1.
    10030    2    1    2    0    0  0.00000000000E+00  0.00000000000E+00  0.36597233665E+02  0.50128910542E+03  0.49995140734E+03 0.  0.
        3    1    3    3  502    0  0.54279232387E+02 -0.56537461826E+02 -0.21970778287E+03  0.23326859993E+03  0.10100000352E+00 0.  1.
       -3    1    3    3    0  502 -0.54279232387E+02  0.56537461826E+02  0.25630501654E+03  0.26802050549E+03  0.10100000352E+00 0. -1.
</event>
<event>
 5   0  0.4978779E-03  0.5002637E+03  0.7818609E-02  0.1013710E+00
        2   -1    0    0  501    0  0.00000000000E+00  0.00000000000E+00  0.49649539695E+03  0.49649539696E+03  0.25500000920E-02 0.  1.
       -2   -1    0    0    0  501  0.00000000000E+00  0.00000000000E+00 -0.12601513929E+03  0.12601513932E+03  0.25500000920E-02 0. -1.
    10030    2    1    2    0    0  0.00000000000E+00  0.00000000000E+00  0.37048025766E+03  0.62251053628E+03  0.50026367693E+03 0.  0.
        1    1    3    3  502    0 -0.18473874117E+03 -0.13315000975E+03  0.56470256091E+02  0.23461930320E+03  0.50400001928E-02 0. -1.
       -1    1    3    3    0  502  0.18473874117E+03  0.13315000975E+03  0.31401000157E+03  0.38789123308E+03  0.50400001928E-02 0.  1.
</event>
<event>
 5   0  0.2863538E-03  0.5002130E+03  0.7818609E-02  0.1013723E+00
        1   -1    0    0  501    0  0.00000000000E+00  0.00000000000E+00  0.72270594981E+03  0.72270594983E+03  0.50400001928E-02 0.  1.
       -1   -1    0    0    0  501  0.00000000000E+00  0.00000000000E+00 -0.86554220990E+02  0.86554221137E+02  0.50400001928E-02 0. -1.
    10030    2    1    2    0    0  0.00000000000E+00  0.00000000000E+00  0.63615172882E+03  0.80926017096E+03  0.50021295688E+03 0.  0.
        1    1    3    3  502    0  0.12460160479E+03 -0.18735160889E+03  0.49476100535E+03  0.54352059548E+03  0.50400001928E-02 0.  1.
       -1    1    3    3    0  502 -0.12460160479E+03  0.18735160889E+03  0.14139072346E+03  0.26573957548E+03  0.50400001928E-02 0. -1.
</event>
<event>
 5   0  0.5118882E-03  0.4997394E+03  0.7818609E-02  0.1013847E+00
        2   -1    0    0  501    0  0.00000000000E+00  0.00000000000E+00  0.10905809302E+04  0.10905809302E+04  0.25500000920E-02 0.  1.
       -2   -1    0    0    0  501  0.00000000000E+00  0.00000000000E+00 -0.57249188101E+02  0.57249188158E+02  0.25500000920E-02 0. -1.
    10030    2    1    2    0    0  0.00000000000E+00  0.00000000000E+00  0.10333317421E+04  0.11478301184E+04  0.49973942349E+03 0.  0.
        3    1    3    3  502    0  0.17232207295E+02  0.24923995729E+03  0.52623507763E+03  0.58252971805E+03  0.10100000352E+00 0. -1.
       -3    1    3    3    0  502 -0.17232207295E+02 -0.24923995729E+03  0.50709666448E+03  0.56530040033E+03  0.10100000352E+00 0.  1.
</event>
<event>
 5   0  0.2863538E-03  0.5000076E+03  0.7818609E-02  0.1013777E+00
        1   -1    0    0  501    0  0.00000000000E+00  0.00000000000E+00  0.41059264134E+03  0.41059264138E+03  0.50400001928E-02 0. -1.
       -1   -1    0    0    0  501  0.00000000000E+00  0.00000000000E+00 -0.15222363137E+03  0.15222363146E+03  0.50400001928E-02 0.  1.
    10030    2    1    2    0    0  0.00000000000E+00  0.00000000000E+00  0.25836900997E+03  0.56281627283E+03  0.50000761159E+03 0.  0.
        1    1    3    3  502    0 -0.11877305144E+03 -0.12705020568E+03  0.33133547591E+03  0.37420848485E+03  0.50400001928E-02 0. -1.
       -1    1    3    3    0  502  0.11877305144E+03  0.12705020568E+03 -0.72966465935E+02  0.18860778798E+03  0.50400001928E-02 0.  1.
</event>
<event>
 5   0  0.3211775E-03  0.5000242E+03  0.7818609E-02  0.1013773E+00
       -1   -1    0    0    0  501  0.00000000000E+00  0.00000000000E+00  0.21379455437E+03  0.21379455443E+03  0.50400001928E-02 0. -1.
        1   -1    0    0  501    0  0.00000000000E+00  0.00000000000E+00 -0.29236503178E+03  0.29236503183E+03  0.50400001928E-02 0.  1.
    10030    2    1    2    0    0  0.00000000000E+00  0.00000000000E+00 -0.78570477414E+02  0.50615958626E+03  0.50002420625E+03 0.  0.
        4    1    3    3  502    0  0.19421709578E+03  0.47485619382E+02 -0.19122451040E+03  0.27666512360E+03  0.12699999809E+01 0.  1.
       -4    1    3    3    0  502 -0.19421709578E+03 -0.47485619382E+02  0.11265403298E+03  0.22949446265E+03  0.12699999809E+01 0. -1.
</event>
<event>
 5   0  0.4978779E-03  0.5000050E+03  0.7818609E-02  0.1013778E+00
       -2   -1    0    0    0  501  0.00000000000E+00  0.00000000000E+00  0.66167918054E+03  0.66167918055E+03  0.25500000920E-02 0.  1.
        2   -1    0    0  501    0  0.00000000000E+00  0.00000000000E+00 -0.94458549210E+02  0.94458549244E+02  0.25500000920E-02 0. -1.
    10030    2    1    2    0    0  0.00000000000E+00  0.00000000000E+00  0.56722063133E+03  0.75613772979E+03  0.50000502178E+03 0.  0.
        1    1    3    3  502    0 -0.23554925171E+03  0.76421116245E+02  0.23171491838E+03  0.33913926404E+03  0.50400001928E-02 0. -1.
       -1    1    3    3    0  502  0.23554925171E+03 -0.76421116245E+02  0.33550571296E+03  0.41699846575E+03  0.50400001928E-02 0.  1.
</event>
<event>
 5   0  0.2863538E-03  0.4998987E+03  0.7818609E-02  0.1013805E+00
        1   -1    0    0  501    0  0.00000000000E+00  0.00000000000E+00  0.92400057979E+03  0.92400057980E+03  0.50400001928E-02 0.  1.
       -1   -1    0    0    0  501  0.00000000000E+00  0.00000000000E+00 -0.67613255973E+02  0.67613256161E+02  0.50400001928E-02 0. -1.
    10030    2    1    2    0    0  0.00000000000E+00  0.00000000000E+00  0.85638732382E+03  0.99161383597E+03  0.49989874103E+03 0.  0.
        1    1    3    3  502    0  0.30563052774E+02 -0.20093064767E+03  0.13959458769E+03  0.24656413832E+03  0.50400001928E-02 0. -1.
       -1    1    3    3    0  502 -0.30563052774E+02  0.20093064767E+03  0.71679273613E+03  0.74504969764E+03  0.50400001928E-02 0.  1.
</event>
<event>
 5   0  0.2863538E-03  0.4998606E+03  0.7818609E-02  0.1013815E+00
        1   -1    0    0  501    0  0.00000000000E+00  0.00000000000E+00  0.64074365210E+03  0.64074365212E+03  0.50400001928E-02 0.  1.
       -1   -1    0    0    0  501  0.00000000000E+00  0.00000000000E+00 -0.97488516226E+02  0.97488516356E+02  0.50400001928E-02 0. -1.
    10030    2    1    2    0    0  0.00000000000E+00  0.00000000000E+00  0.54325513587E+03  0.73823216847E+03  0.49986057248E+03 0.  0.
        1    1    3    3  502    0  0.11370614829E+03  0.27343759432E+02 -0.54586192140E+02  0.12905976033E+03  0.50400001928E-02 0. -1.
       -1    1    3    3    0  502 -0.11370614829E+03 -0.27343759432E+02  0.59784132801E+03  0.60917240814E+03  0.50400001928E-02 0.  1.
</event>
<event>
 5   0  0.5118882E-03  0.5001848E+03  0.7818609E-02  0.1013731E+00
        2   -1    0    0  501    0  0.00000000000E+00  0.00000000000E+00  0.23301668085E+03  0.23301668086E+03  0.25500000920E-02 0.  1.
       -2   -1    0    0    0  501  0.00000000000E+00  0.00000000000E+00 -0.26841940488E+03  0.26841940489E+03  0.25500000920E-02 0. -1.
    10030    2    1    2    0    0  0.00000000000E+00  0.00000000000E+00 -0.35402724027E+02  0.50143608575E+03  0.50018476109E+03 0.  0.
        3    1    3    3  502    0  0.22637717513E+03  0.72556243924E+02  0.60179245428E+02  0.24521946443E+03  0.10100000352E+00 0.  1.
       -3    1    3    3    0  502 -0.22637717513E+03 -0.72556243924E+02 -0.95581969455E+02  0.25621662132E+03  0.10100000352E+00 0. -1.
</event>
<event>
 5   0  0.4889251E-03  0.5000077E+03  0.7818609E-02  0.1013777E+00
       -2   -1    0    0    0  501  0.00000000000E+00  0.00000000000E+00  0.52925569169E+03  0.52925569169E+03  0.25500000920E-02 0. -1.
        2   -1    0    0  501    0  0.00000000000E+00  0.00000000000E+00 -0.11809402427E+03  0.11809402430E+03  0.25500000920E-02 0.  1.
    10030    2    1    2    0    0  0.00000000000E+00  0.00000000000E+00  0.41116166741E+03  0.64734971600E+03  0.50000773799E+03 0.  0.
        5    1    3    3  502    0  0.10677657889E+03  0.14481291241E+03 -0.19066849028E+02  0.18099075151E+03  0.46999998093E+01 0.  1.
       -5    1    3    3    0  502 -0.10677657889E+03 -0.14481291241E+03  0.43022851644E+03  0.46635896449E+03  0.46999998093E+01 0. -1.
</event>
<event>
 5   0  0.2005125E-03  0.5001181E+03  0.7818609E-02  0.1013748E+00
       -3   -1    0    0    0  501  0.00000000000E+00  0.00000000000E+00  0.17591905294E+03  0.17591908193E+03  0.10100000352E+00 0.  1.
        3   -1    0    0  501    0  0.00000000000E+00  0.00000000000E+00 -0.35544488965E+03  0.35544490400E+03  0.10100000352E+00 0. -1.
    10030    2    1    2    0    0  0.00000000000E+00  0.00000000000E+00 -0.17952583672E+03  0.53136398593E+03  0.50011814554E+03 0.  0.
        3    1    3    3  502    0 -0.10616918307E+03  0.19464733251E+03 -0.21261599091E+03  0.30718894720E+03  0.10100000352E+00 0. -1.
       -3    1    3    3    0  502  0.10616918307E+03 -0.19464733251E+03  0.33090154195E+02  0.22417503874E+03  0.10100000352E+00 0.  1.
</event>
<event>
 5   0  0.4989875E-03  0.5018411E+03  0.7818609E-02  0.1013299E+00
       -2   -1    0    0    0  501  0.00000000000E+00  0.00000000000E+00  0.10354310483E+03  0.10354310486E+03  0.25500000920E-02 0.  1.
        2   -1    0    0  501    0  0.00000000000E+00  0.00000000000E+00 -0.60806674857E+03  0.60806674857E+03  0.25500000920E-02 0. -1.
    10030    2    1    2    0    0  0.00000000000E+00  0.00000000000E+00 -0.50452364373E+03  0.71160985343E+03  0.50184108682E+03 0.  0.
        2    1    3    3  502    0 -0.10534724245E+03 -0.20279520044E+03 -0.10532828204E+03  0.25163064563E+03  0.25500000920E-02 0.  1.
       -2    1    3    3    0  502  0.10534724245E+03  0.20279520044E+03 -0.39919536169E+03  0.45997920781E+03  0.25500000920E-02 0. -1.
</event>
<event>
 5   0  0.4989875E-03  0.5002386E+03  0.7818609E-02  0.1013717E+00
       -2   -1    0    0    0  501  0.00000000000E+00  0.00000000000E+00  0.44573062924E+02  0.44573062997E+02  0.25500000920E-02 0. -1.
        2   -1    0    0  501    0  0.00000000000E+00  0.00000000000E+00 -0.14035307583E+04  0.14035307583E+04  0.25500000920E-02 0.  1.
    10030    2    1    2    0    0  0.00000000000E+00  0.00000000000E+00 -0.13589576954E+04  0.14481038213E+04  0.50023860251E+03 0.  0.
        2    1    3    3  502    0 -0.34374428319E+02 -0.47000196349E+02  0.24678600385E+02  0.63242810679E+02  0.25500000920E-02 0. -1.
       -2    1    3    3    0  502  0.34374428319E+02  0.47000196349E+02 -0.13836362958E+04  0.13848610106E+04  0.25500000920E-02 0.  1.
</event>
<event>
 5   0  0.5118882E-03  0.4997607E+03  0.7818609E-02  0.1013841E+00
        2   -1    0    0  501    0  0.00000000000E+00  0.00000000000E+00  0.18861598965E+04  0.18861598965E+04  0.25500000920E-02 0.  1.
       -2   -1    0    0    0  501  0.00000000000E+00  0.00000000000E+00 -0.33104398989E+02  0.33104399087E+02  0.25500000920E-02 0. -1.
    10030    2    1    2    0    0  0.00000000000E+00  0.00000000000E+00  0.18530554975E+04  0.19192642956E+04  0.49976070220E+03 0.  0.
        3    1    3    3  502    0  0.14469747595E+03  0.63655769082E+02  0.18333234162E+03  0.24207472848E+03  0.10100000352E+00 0. -1.
       -3    1    3    3    0  502 -0.14469747595E+03 -0.63655769082E+02  0.16697231559E+04  0.16771895671E+04  0.10100000352E+00 0.  1.
</event>
<event>
 5   0  0.3013734E-03  0.4998763E+03  0.7818609E-02  0.1013811E+00
       -1   -1    0    0    0  501  0.00000000000E+00  0.00000000000E+00  0.11597562038E+03  0.11597562049E+03  0.50400001928E-02 0.  1.
        1   -1    0    0  501    0  0.00000000000E+00  0.00000000000E+00 -0.53863982145E+03  0.53863982147E+03  0.50400001928E-02 0. -1.
    10030    2    1    2    0    0  0.00000000000E+00  0.00000000000E+00 -0.42266420106E+03  0.65461544196E+03  0.49987633470E+03 0.  0.
        2    1    3    3  502    0 -0.16269200648E+03 -0.17979126232E+03 -0.13193915537E+03  0.27604624198E+03  0.25500000920E-02 0.  1.
       -2    1    3    3    0  502  0.16269200648E+03  0.17979126232E+03 -0.29072504569E+03  0.37856919999E+03  0.25500000920E-02 0. -1.
</event>
<event>
 5   0  0.4978779E-03  0.4998121E+03  0.7818609E-02  0.1013828E+00
       -2   -1    0    0    0  501  0.00000000000E+00  0.00000000000E+00  0.91556634339E+02  0.91556634375E+02  0.25500000920E-02 0.  1.
        2   -1    0    0  501    0  0.00000000000E+00  0.00000000000E+00 -0.68212454973E+03  0.68212454973E+03  0.25500000920E-02 0. -1.
    10030    2    1    2    0    0  0.00000000000E+00  0.00000000000E+00 -0.59056791539E+03  0.77368118411E+03  0.49981207664E+03 0.  0.
        1    1    3    3  502    0 -0.12481546670E+03  0.10081871486E+03 -0.59186664078E+03  0.61322869672E+03  0.50400001928E-02 0. -1.
       -1    1    3    3    0  502  0.12481546670E+03 -0.10081871486E+03  0.12987253890E+01  0.16045248738E+03  0.50400001928E-02 0.  1.
</event>
<event>
 5   0  0.2863538E-03  0.4999355E+03  0.7818609E-02  0.1013796E+00
       -1   -1    0    0    0  501  0.00000000000E+00  0.00000000000E+00  0.20042617968E+03  0.20042617974E+03  0.50400001928E-02 0. -1.
        1   -1    0    0  501    0  0.00000000000E+00  0.00000000000E+00 -0.31175502137E+03  0.31175502141E+03  0.50400001928E-02 0.  1.
    10030    2    1    2    0    0  0.00000000000E+00  0.00000000000E+00 -0.11132884169E+03  0.51218120115E+03  0.49993546766E+03 0.  0.
        1    1    3    3  502    0 -0.14078644006E+03 -0.62072704513E+02 -0.25749252937E+03  0.29996040582E+03  0.50400001928E-02 0.  1.
       -1    1    3    3    0  502  0.14078644006E+03  0.62072704513E+02  0.14616368768E+03  0.21222079534E+03  0.50400001928E-02 0. -1.
</event>
<event>
 5   0  0.3055293E-03  0.5001128E+03  0.7818609E-02  0.1013749E+00
       -1   -1    0    0    0  501  0.00000000000E+00  0.00000000000E+00  0.43047520298E+02  0.43047520593E+02  0.50400001928E-02 0. -1.
        1   -1    0    0  501    0  0.00000000000E+00  0.00000000000E+00 -0.14525388399E+04  0.14525388399E+04  0.50400001928E-02 0.  1.
    10030    2    1    2    0    0  0.00000000000E+00  0.00000000000E+00 -0.14094913196E+04  0.14955863605E+04  0.50011276896E+03 0.  0.
        3    1    3    3  502    0  0.20654479646E+03  0.47600171569E+02 -0.30799257104E+03  0.37387961069E+03  0.10100000352E+00 0. -1.
       -3    1    3    3    0  502 -0.20654479646E+03 -0.47600171569E+02 -0.11014987485E+04  0.11217067498E+04  0.10100000352E+00 0.  1.
</event>
<event>
 5   0  0.3211775E-03  0.5001289E+03  0.7818609E-02  0.1013745E+00
       -1   -1    0    0    0  501  0.00000000000E+00  0.00000000000E+00  0.72107071692E+02  0.72107071868E+02  0.50400001928E-02 0. -1.
        1   -1    0    0  501    0  0.00000000000E+00  0.00000000000E+00 -0.86721343056E+03  0.86721343058E+03  0.50400001928E-02 0.  1.
    10030    2    1    2    0    0  0.00000000000E+00  0.00000000000E+00 -0.79510635887E+03  0.93932050244E+03  0.50012886779E+03 0.  0.
        4    1    3    3  502    0 -0.22049652677E+03  0.63606772382E+02 -0.21099944830E+03  0.31174816742E+03  0.12699999809E+01 0. -1.
       -4    1    3    3    0  502  0.22049652677E+03 -0.63606772382E+02 -0.58410691057E+03  0.62757233502E+03  0.12699999809E+01 0.  1.
</event>
<event>
 5   0  0.5095783E-03  0.5000063E+03  0.7818609E-02  0.1013777E+00
       -2   -1    0    0    0  501  0.00000000000E+00  0.00000000000E+00  0.12101519919E+03  0.12101519922E+03  0.25500000920E-02 0. -1.
        2   -1    0    0  501    0  0.00000000000E+00  0.00000000000E+00 -0.51647707336E+03  0.51647707336E+03  0.25500000920E-02 0.  1.
    10030    2    1    2    0    0  0.00000000000E+00  0.00000000000E+00 -0.39546187416E+03  0.63749227258E+03  0.50000630365E+03 0.  0.
        4    1    3    3  502    0 -0.16626744843E+03  0.13560285407E+03 -0.36133957195E+03  0.42023909575E+03  0.12699999809E+01 0.  1.
       -4    1    3    3    0  502  0.16626744843E+03 -0.13560285407E+03 -0.34122302216E+02  0.21725317684E+03  0.12699999809E+01 0. -1.
</event>
<event>
 5   0  0.3055293E-03  0.4994659E+03  0.7818609E-02  0.1013918E+00
       -1   -1    0    0    0  501  0.00000000000E+00  0.00000000000E+00  0.77480514892E+02  0.77480515056E+02  0.50400001928E-02 0.  1.
        1   -1    0    0  501    0  0.00000000000E+00  0.00000000000E+00 -0.80493201263E+03  0.80493201265E+03  0.50400001928E-02 0. -1.
    10030    2    1    2    0    0  0.00000000000E+00  0.00000000000E+00 -0.72745149774E+03  0.88241252770E+03  0.49946590222E+03 0.  0.
        3    1    3    3  502    0  0.74893931404E+02 -0.21077238599E+03 -0.55992180508E+03  0.60294820479E+03  0.10100000352E+00 0. -1.
       -3    1    3    3    0  502 -0.74893931404E+02  0.21077238599E+03 -0.16752969266E+03  0.27946432291E+03  0.10100000352E+00 0.  1.
</event>
<event>
 5   0  0.4889251E-03  0.5000898E+03  0.7818609E-02  0.1013755E+00
        2   -1    0    0  501    0  0.00000000000E+00  0.00000000000E+00  0.42741109608E+03  0.42741109609E+03  0.25500000920E-02 0. -1.
       -2   -1    0    0    0  501  0.00000000000E+00  0.00000000000E+00 -0.14628174678E+03  0.14628174681E+03  0.25500000920E-02 0.  1.
    10030    2    1    2    0    0  0.00000000000E+00  0.00000000000E+00  0.28112934930E+03  0.57369284289E+03  0.50008975890E+03 0.  0.
        5    1    3    3  502    0  0.11219992044E+03 -0.93868405371E+01 -0.11549914808E+03  0.16136628560E+03  0.46999998093E+01 0.  1.
       -5    1    3    3    0  502 -0.11219992044E+03  0.93868405371E+01  0.39662849738E+03  0.41232655730E+03  0.46999998093E+01 0. -1.
</event>
<event>
 5   0  0.3055293E-03  0.5001958E+03  0.7818609E-02  0.1013728E+00
        1   -1    0    0  501    0  0.00000000000E+00  0.00000000000E+00  0.14150858482E+03  0.14150858491E+03  0.50400001928E-02 0. -1.
       -1   -1    0    0    0  501  0.00000000000E+00  0.00000000000E+00 -0.44201531739E+03  0.44201531741E+03  0.50400001928E-02 0.  1.
    10030    2    1    2    0    0  0.00000000000E+00  0.00000000000E+00 -0.30050673256E+03  0.58352390232E+03  0.50019580993E+03 0.  0.
        3    1    3    3  502    0 -0.37799924331E+02 -0.11022226825E+03 -0.40841329788E+03  0.42471074249E+03  0.10100000352E+00 0.  1.
       -3    1    3    3    0  502  0.37799924331E+02  0.11022226825E+03  0.10790656532E+03  0.15881315984E+03  0.10100000352E+00 0. -1.
</event>
<event>
 5   0  0.4978779E-03  0.5005074E+03  0.7818609E-02  0.1013647E+00
       -2   -1    0    0    0  501  0.00000000000E+00  0.00000000000E+00  0.61383515243E+02  0.61383515296E+02  0.25500000920E-02 0. -1.
        2   -1    0    0  501    0  0.00000000000E+00  0.00000000000E+00 -0.10202562114E+04  0.10202562114E+04  0.25500000920E-02 0.  1.
    10030    2    1    2    0    0  0.00000000000E+00  0.00000000000E+00 -0.95887269619E+03  0.10816397267E+04  0.50050739350E+03 0.  0.
        1    1    3    3  502    0 -0.95201648404E+02 -0.25518568751E+02  0.17671597565E+02  0.10013409307E+03  0.50400001928E-02 0. -1.
       -1    1    3    3    0  502  0.95201648404E+02  0.25518568751E+02 -0.97654429375E+03  0.98150563366E+03  0.50400001928E-02 0.  1.
</event>
<event>
 5   0  0.3055293E-03  0.4997415E+03  0.7818609E-02  0.1013846E+00
        1   -1    0    0  501    0  0.00000000000E+00  0.00000000000E+00  0.17691135702E+03  0.17691135709E+03  0.50400001928E-02 0. -1.
       -1   -1    0    0    0  501  0.00000000000E+00  0.00000000000E+00 -0.35291904533E+03  0.35291904537E+03  0.50400001928E-02 0.  1.
    10030    2    1    2    0    0  0.00000000000E+00  0.00000000000E+00 -0.17600768832E+03  0.52983040246E+03  0.49974148219E+03 0.  0.
        3    1    3    3  502    0 -0.18719300774E+03 -0.88645256226E+02  0.60183537969E+02  0.21568790426E+03  0.10100000352E+00 0. -1.
       -3    1    3    3    0  502  0.18719300774E+03  0.88645256226E+02 -0.23619122629E+03  0.31414249820E+03  0.10100000352E+00 0.  1.
</event>
<event>
 5   0  0.4889251E-03  0.4999924E+03  0.7818609E-02  0.1013781E+00
       -2   -1    0    0    0  501  0.00000000000E+00  0.00000000000E+00  0.69180905331E+02  0.69180905378E+02  0.25500000920E-02 0. -1.
        2   -1    0    0  501    0  0.00000000000E+00  0.00000000000E+00 -0.90340113248E+03  0.90340113249E+03  0.25500000920E-02 0.  1.
    10030    2    1    2    0    0  0.00000000000E+00  0.00000000000E+00 -0.83422022715E+03  0.97258203786E+03  0.49999243293E+03 0.  0.
        5    1    3    3  502    0  0.12201587483E+03  0.19952074275E+03 -0.58868034703E+03  0.63345326700E+03  0.46999998093E+01 0.  1.
       -5    1    3    3    0  502 -0.12201587483E+03 -0.19952074275E+03 -0.24553988012E+03  0.33912877086E+03  0.46999998093E+01 0. -1.
</event>
<event>
 5   0  0.5118882E-03  0.4999304E+03  0.7818609E-02  0.1013797E+00
        2   -1    0    0  501    0  0.00000000000E+00  0.00000000000E+00  0.44425276962E+03  0.44425276963E+03  0.25500000920E-02 0.  1.
       -2   -1    0    0    0  501  0.00000000000E+00  0.00000000000E+00 -0.14064652482E+03  0.14064652484E+03  0.25500000920E-02 0. -1.
    10030    2    1    2    0    0  0.00000000000E+00  0.00000000000E+00  0.30360624481E+03  0.58489929447E+03  0.49993042794E+03 0.  0.
        3    1    3    3  502    0  0.31511353117E+01 -0.15871980071E+03  0.37770171046E+03  0.40970781915E+03  0.10100000352E+00 0.  1.
       -3    1    3    3    0  502 -0.31511353117E+01  0.15871980071E+03 -0.74095465648E+02  0.17519147532E+03  0.10100000352E+00 0. -1.
</event>
<event>
 5   0  0.2005125E-03  0.5001064E+03  0.7818609E-02  0.1013751E+00
       -3   -1    0    0    0  501  0.00000000000E+00  0.00000000000E+00  0.72347090747E+03  0.72347091452E+03  0.10100000352E+00 0.  1.
        3   -1    0    0  501    0  0.00000000000E+00  0.00000000000E+00 -0.86425849921E+02  0.86425908937E+02  0.10100000352E+00 0. -1.
    10030    2    1    2    0    0  0.00000000000E+00  0.00000000000E+00  0.63704505755E+03  0.80989682345E+03  0.50010644797E+03 0.  0.
        1    1    3    3  502    0  0.20448474424E+03  0.20204081011E+02  0.87761580919E+02  0.22343748707E+03  0.50400001928E-02 0. -1.
       -1    1    3    3    0  502 -0.20448474424E+03 -0.20204081011E+02  0.54928347663E+03  0.58645933639E+03  0.50400001928E-02 0.  1.
</event>
<event>
 5   0  0.5118882E-03  0.5001950E+03  0.7818609E-02  0.1013728E+00
       -2   -1    0    0    0  501  0.00000000000E+00  0.00000000000E+00  0.15019386369E+03  0.15019386371E+03  0.25500000920E-02 0. -1.
        2   -1    0    0  501    0  0.00000000000E+00  0.00000000000E+00 -0.41645347374E+03  0.41645347374E+03  0.25500000920E-02 0.  1.
    10030    2    1    2    0    0  0.00000000000E+00  0.00000000000E+00 -0.26625961005E+03  0.56664733745E+03  0.50019498708E+03 0.  0.
        3    1    3    3  502    0 -0.59325542895E+02  0.10646338865E+03 -0.38053505442E+03  0.39957591395E+03  0.10100000352E+00 0.  1.
       -3    1    3    3    0  502  0.59325542895E+02 -0.10646338865E+03  0.11427544437E+03  0.16707142350E+03  0.10100000352E+00 0. -1.
</event>
<event>
 5   0  0.3211775E-03  0.5007356E+03  0.7818609E-02  0.1013587E+00
       -1   -1    0    0    0  501  0.00000000000E+00  0.00000000000E+00  0.12408834359E+03  0.12408834369E+03  0.50400001928E-02 0.  1.
        1   -1    0    0  501    0  0.00000000000E+00  0.00000000000E+00 -0.50515657973E+03  0.50515657976E+03  0.50400001928E-02 0. -1.
    10030    2    1    2    0    0  0.00000000000E+00  0.00000000000E+00 -0.38106823615E+03  0.62924492344E+03  0.50073563193E+03 0.  0.
        4    1    3    3  502    0  0.47901959755E+02 -0.24516025288E+03 -0.16934627778E+03  0.30179118947E+03  0.12699999809E+01 0.  1.
       -4    1    3    3    0  502 -0.47901959755E+02  0.24516025288E+03 -0.21172195837E+03  0.32745373398E+03  0.12699999809E+01 0. -1.
</event>
<event>
 5   0  0.3211775E-03  0.5001785E+03  0.7818609E-02  0.1013732E+00
       -1   -1    0    0    0  501  0.00000000000E+00  0.00000000000E+00  0.59837814460E+03  0.59837814462E+03  0.50400001928E-02 0.  1.
        1   -1    0    0  501    0  0.00000000000E+00  0.00000000000E+00 -0.10452357364E+03  0.10452357376E+03  0.50400001928E-02 0. -1.
    10030    2    1    2    0    0  0.00000000000E+00  0.00000000000E+00  0.49385457096E+03  0.70290171839E+03  0.50017845661E+03 0.  0.
        4    1    3    3  502    0  0.13997439632E+03 -0.22571588837E+02 -0.42580933113E+02  0.14804410496E+03  0.12699999809E+01 0. -1.
       -4    1    3    3    0  502 -0.13997439632E+03  0.22571588837E+02  0.53643550407E+03  0.55485761343E+03  0.12699999809E+01 0.  1.
</event>
<event>
 5   0  0.2863538E-03  0.4994320E+03  0.7818609E-02  0.1013927E+00
       -1   -1    0    0    0  501  0.00000000000E+00  0.00000000000E+00  0.72438372936E+02  0.72438373111E+02  0.50400001928E-02 0.  1.
        1   -1    0    0  501    0  0.00000000000E+00  0.00000000000E+00 -0.86084310234E+03  0.86084310236E+03  0.50400001928E-02 0. -1.
    10030    2    1    2    0    0  0.00000000000E+00  0.00000000000E+00 -0.78840472941E+03  0.93328147547E+03  0.49943197245E+03 0.  0.
        1    1    3    3  502    0 -0.95260339101E+02  0.20242401528E+03 -0.60151754286E+03  0.64177361161E+03  0.50400001928E-02 0. -1.
       -1    1    3    3    0  502  0.95260339101E+02 -0.20242401528E+03 -0.18688718655E+03  0.29150786386E+03  0.50400001928E-02 0.  1.
</event>
<event>
 5   0  0.3057783E-03  0.5000443E+03  0.7818609E-02  0.1013767E+00
        1   -1    0    0  501    0  0.00000000000E+00  0.00000000000E+00  0.57421899908E+03  0.57421899910E+03  0.50400001928E-02 0. -1.
       -1   -1    0    0    0  501  0.00000000000E+00  0.00000000000E+00 -0.10886278204E+03  0.10886278216E+03  0.50400001928E-02 0.  1.
    10030    2    1    2    0    0  0.00000000000E+00  0.00000000000E+00  0.46535621704E+03  0.68308178126E+03  0.50004430919E+03 0.  0.
        5    1    3    3  502    0 -0.86220206899E+02 -0.54965892207E+01 -0.87759625255E+02  0.12323951637E+03  0.46999998093E+01 0.  1.
       -5    1    3    3    0  502  0.86220206899E+02  0.54965892207E+01  0.55311584230E+03  0.55984226490E+03  0.46999998093E+01 0. -1.
</event>
<event>
 5   0  0.3055293E-03  0.5003749E+03  0.7818609E-02  0.1013681E+00
       -1   -1    0    0    0  501  0.00000000000E+00  0.00000000000E+00  0.12634317218E+03  0.12634317228E+03  0.50400001928E-02 0. -1.
        1   -1    0    0  501    0  0.00000000000E+00  0.00000000000E+00 -0.49542661762E+03  0.49542661764E+03  0.50400001928E-02 0.  1.
    10030    2    1    2    0    0  0.00000000000E+00  0.00000000000E+00 -0.36908344544E+03  0.62176978992E+03  0.50037494138E+03 0.  0.
        3    1    3    3  502    0 -0.10464762172E+02  0.10306459403E+03 -0.46752347906E+03  0.47886327429E+03  0.10100000352E+00 0.  1.
       -3    1    3    3    0  502  0.10464762172E+02 -0.10306459403E+03  0.98440033620E+02  0.14290651563E+03  0.10100000352E+00 0. -1.
</event>
<event>
 5   0  0.3013734E-03  0.4996013E+03  0.7818609E-02  0.1013883E+00
       -1   -1    0    0    0  501  0.00000000000E+00  0.00000000000E+00  0.21916296837E+03  0.21916296843E+03  0.50400001928E-02 0.  1.
        1   -1    0    0  501    0  0.00000000000E+00  0.00000000000E+00 -0.28472130921E+03  0.28472130925E+03  0.50400001928E-02 0. -1.
    10030    2    1    2    0    0  0.00000000000E+00  0.00000000000E+00 -0.65558340837E+02  0.50388427768E+03  0.49960131029E+03 0.  0.
        2    1    3    3  502    0  0.23986723451E+03 -0.56158891537E+01 -0.10289158408E+03  0.26106418078E+03  0.25500000920E-02 0. -1.
       -2    1    3    3    0  502 -0.23986723451E+03  0.56158891537E+01  0.37333243246E+02  0.24282009691E+03  0.25500000920E-02 0.  1.
</event>
<event>
 5   0  0.3013734E-03  0.4999066E+03  0.7818609E-02  0.1013803E+00
        1   -1    0    0  501    0  0.00000000000E+00  0.00000000000E+00  0.54097122361E+03  0.54097122363E+03  0.50400001928E-02 0.  1.
       -1   -1    0    0    0  501  0.00000000000E+00  0.00000000000E+00 -0.11548977180E+03  0.11548977191E+03  0.50400001928E-02 0. -1.
    10030    2    1    2    0    0  0.00000000000E+00  0.00000000000E+00  0.42548145181E+03  0.65646099554E+03  0.49990656411E+03 0.  0.
        2    1    3    3  502    0 -0.13320270239E+03  0.82309413683E+02  0.46858551440E+03  0.49405483887E+03  0.25500000920E-02 0.  1.
       -2    1    3    3    0  502  0.13320270239E+03 -0.82309413683E+02 -0.43104062592E+02  0.16240615667E+03  0.25500000920E-02 0. -1.
</event>
<event>
 5   0  0.4989875E-03  0.4999382E+03  0.7818609E-02  0.1013795E+00
       -2   -1    0    0    0  501  0.00000000000E+00  0.00000000000E+00  0.10405708913E+03  0.10405708916E+03  0.25500000920E-02 0.  1.
        2   -1    0    0  501    0  0.00000000000E+00  0.00000000000E+00 -0.60048329783E+03  0.60048329784E+03  0.25500000920E-02 0. -1.
    10030    2    1    2    0    0  0.00000000000E+00  0.00000000000E+00 -0.49642620870E+03  0.70454038699E+03  0.49993817239E+03 0.  0.
        2    1    3    3  502    0 -0.82024679691E+02 -0.65700639312E+02 -0.56783737197E+03  0.57748065171E+03  0.25500000920E-02 0. -1.
       -2    1    3    3    0  502  0.82024679691E+02  0.65700639312E+02  0.71411163268E+02  0.12705973528E+03  0.25500000920E-02 0.  1.
</event>
<event>
 5   0  0.3055293E-03  0.4999165E+03  0.7818609E-02  0.1013801E+00
       -1   -1    0    0    0  501  0.00000000000E+00  0.00000000000E+00  0.21763423363E+03  0.21763423369E+03  0.50400001928E-02 0. -1.
        1   -1    0    0  501    0  0.00000000000E+00  0.00000000000E+00 -0.28708311831E+03  0.28708311835E+03  0.50400001928E-02 0.  1.
    10030    2    1    2    0    0  0.00000000000E+00  0.00000000000E+00 -0.69448884678E+02  0.50471735204E+03  0.49991645089E+03 0.  0.
        3    1    3    3  502    0 -0.41409481190E+02 -0.60124275282E+02  0.20663081402E+03  0.21914829936E+03  0.10100000352E+00 0. -1.
       -3    1    3    3    0  502  0.41409481190E+02  0.60124275282E+02 -0.27607969870E+03  0.28556905267E+03  0.10100000352E+00 0.  1.
</event>
<event>
 5   0  0.2863538E-03  0.4998822E+03  0.7818609E-02  0.1013810E+00
       -1   -1    0    0    0  501  0.00000000000E+00  0.00000000000E+00  0.29146074172E+03  0.29146074177E+03  0.50400001928E-02 0.  1.
        1   -1    0    0  501    0  0.00000000000E+00  0.00000000000E+00 -0.21433607570E+03  0.21433607576E+03  0.50400001928E-02 0. -1.
    10030    2    1    2    0    0  0.00000000000E+00  0.00000000000E+00  0.77124666025E+02  0.50579681752E+03  0.49988219263E+03 0.  0.
        1    1    3    3  502    0  0.24560306812E+03  0.44689227566E+02  0.26064774815E+02  0.25099276213E+03  0.50400001928E-02 0.  1.
       -1    1    3    3    0  502 -0.24560306812E+03 -0.44689227566E+02  0.51059891210E+02  0.25480405539E+03  0.50400001928E-02 0. -1.
</event>
<event>
 5   0  0.4989875E-03  0.5000190E+03  0.7818609E-02  0.1013774E+00
       -2   -1    0    0    0  501  0.00000000000E+00  0.00000000000E+00  0.51568091144E+02  0.51568091207E+02  0.25500000920E-02 0.  1.
        2   -1    0    0  501    0  0.00000000000E+00  0.00000000000E+00 -0.12120817306E+04  0.12120817306E+04  0.25500000920E-02 0. -1.
    10030    2    1    2    0    0  0.00000000000E+00  0.00000000000E+00 -0.11605136395E+04  0.12636498218E+04  0.50001896444E+03 0.  0.
        2    1    3    3  502    0  0.28090353764E+02 -0.78199351227E+02  0.15651910693E+02  0.84552875893E+02  0.25500000920E-02 0.  1.
       -2    1    3    3    0  502 -0.28090353764E+02  0.78199351227E+02 -0.11761655502E+04  0.11790969460E+04  0.25500000920E-02 0. -1.
</event>
<event>
 5   0  0.3013734E-03  0.4999922E+03  0.7818609E-02  0.1013781E+00
       -1   -1    0    0    0  501  0.00000000000E+00  0.00000000000E+00  0.10332746831E+03  0.10332746843E+03  0.50400001928E-02 0.  1.
        1   -1    0    0  501    0  0.00000000000E+00  0.00000000000E+00 -0.60485426777E+03  0.60485426779E+03  0.50400001928E-02 0. -1.
    10030    2    1    2    0    0  0.00000000000E+00  0.00000000000E+00 -0.50152679947E+03  0.70818173622E+03  0.49999224087E+03 0.  0.
        2    1    3    3  502    0  0.53305603372E+02  0.20316817540E+03 -0.58743812495E+02  0.21810463167E+03  0.25500000920E-02 0.  1.
       -2    1    3    3    0  502 -0.53305603372E+02 -0.20316817540E+03 -0.44278298697E+03  0.49007710455E+03  0.25500000920E-02 0. -1.
</event>
<event>
 5   0  0.3055293E-03  0.4999522E+03  0.7818609E-02  0.1013791E+00
       -1   -1    0    0    0  501  0.00000000000E+00  0.00000000000E+00  0.41645470455E+02  0.41645470760E+02  0.50400001928E-02 0. -1.
        1   -1    0    0  501    0  0.00000000000E+00  0.00000000000E+00 -0.15004767700E+04  0.15004767700E+04  0.50400001928E-02 0.  1.
    10030    2    1    2    0    0  0.00000000000E+00  0.00000000000E+00 -0.14588312996E+04  0.15421222408E+04  0.49995224266E+03 0.  0.
        3    1    3    3  502    0 -0.23518698131E+03 -0.75977069560E+02 -0.84493646798E+03  0.88034259035E+03  0.10100000352E+00 0.  1.
       -3    1    3    3    0  502  0.23518698131E+03  0.75977069560E+02 -0.61389483159E+03  0.66177965043E+03  0.10100000352E+00 0. -1.
</event>
<event>
 5   0  0.4978779E-03  0.5000463E+03  0.7818609E-02  0.1013767E+00
        2   -1    0    0  501    0  0.00000000000E+00  0.00000000000E+00  0.10004169108E+04  0.10004169108E+04  0.25500000920E-02 0.  1.
       -2   -1    0    0    0  501  0.00000000000E+00  0.00000000000E+00 -0.62485525250E+02  0.62485525302E+02  0.25500000920E-02 0. -1.
    10030    2    1    2    0    0  0.00000000000E+00  0.00000000000E+00  0.93793138554E+03  0.10629024361E+04  0.50004630253E+03 0.  0.
        1    1    3    3  502    0  0.17861596616E+03 -0.78453982639E+02  0.13657547180E+03  0.23814187007E+03  0.50400001928E-02 0. -1.
       -1    1    3    3    0  502 -0.17861596616E+03  0.78453982639E+02  0.80135591374E+03  0.82476056602E+03  0.50400001928E-02 0.  1.
</event>
<event>
 5   0  0.4989875E-03  0.4995148E+03  0.7818609E-02  0.1013906E+00
        2   -1    0    0  501    0  0.00000000000E+00  0.00000000000E+00  0.88095560747E+03  0.88095560747E+03  0.25500000920E-02 0.  1.
       -2   -1    0    0    0  501  0.00000000000E+00  0.00000000000E+00 -0.70808058144E+02  0.70808058190E+02  0.25500000920E-02 0. -1.
    10030    2    1    2    0    0  0.00000000000E+00  0.00000000000E+00  0.81014754932E+03  0.95176366566E+03  0.49951478817E+03 0.  0.
        2    1    3    3  502    0  0.22501118530E+03 -0.10446968089E+03  0.46012590304E+03  0.52274256990E+03  0.25500000920E-02 0.  1.
       -2    1    3    3    0  502 -0.22501118530E+03  0.10446968089E+03  0.35002164628E+03  0.42902109575E+03  0.25500000920E-02 0. -1.
</event>
<event>
 5   0  0.5095783E-03  0.4980758E+03  0.7818609E-02  0.1014282E+00
        2   -1    0    0  501    0  0.00000000000E+00  0.00000000000E+00  0.87816277615E+02  0.87816277652E+02  0.25500000920E-02 0. -1.
       -2   -1    0    0    0  501  0.00000000000E+00  0.00000000000E+00 -0.70624571798E+03  0.70624571798E+03  0.25500000920E-02 0.  1.
    10030    2    1    2    0    0  0.00000000000E+00  0.00000000000E+00 -0.61842944036E+03  0.79406199563E+03  0.49807577757E+03 0.  0.
        4    1    3    3  502    0  0.20914851214E+03  0.51099368856E+01 -0.93847765531E+02  0.22929942778E+03  0.12699999809E+01 0. -1.
       -4    1    3    3    0  502 -0.20914851214E+03 -0.51099368856E+01 -0.52458167483E+03  0.56476256785E+03  0.12699999809E+01 0.  1.
</event>
<event>
 5   0  0.4889251E-03  0.4998192E+03  0.7818609E-02  0.1013826E+00
       -2   -1    0    0    0  501  0.00000000000E+00  0.00000000000E+00  0.11932696111E+03  0.11932696114E+03  0.25500000920E-02 0. -1.
        2   -1    0    0  501    0  0.00000000000E+00  0.00000000000E+00 -0.52339234036E+03  0.52339234037E+03  0.25500000920E-02 0.  1.
    10030    2    1    2    0    0  0.00000000000E+00  0.00000000000E+00 -0.40406537925E+03  0.64271930151E+03  0.49981923714E+03 0.  0.
        5    1    3    3  502    0  0.19671994361E+03 -0.14326207111E+03 -0.27488760818E+03  0.36716214995E+03  0.46999998093E+01 0. -1.
       -5    1    3    3    0  502 -0.19671994361E+03  0.14326207111E+03 -0.12917777108E+03  0.27555715155E+03  0.46999998093E+01 0.  1.
</event>
<event>
 5   0  0.5095783E-03  0.4999881E+03  0.7818609E-02  0.1013782E+00
        2   -1    0    0  501    0  0.00000000000E+00  0.00000000000E+00  0.33803780894E+03  0.33803780895E+03  0.25500000920E-02 0.  1.
       -2   -1    0    0    0  501  0.00000000000E+00  0.00000000000E+00 -0.18488174889E+03  0.18488174891E+03  0.25500000920E-02 0. -1.
    10030    2    1    2    0    0  0.00000000000E+00  0.00000000000E+00  0.15315606005E+03  0.52291955786E+03  0.49998808512E+03 0.  0.
        4    1    3    3  502    0 -0.77460228280E+02 -0.23768483529E+03  0.77742902040E+02  0.26180095418E+03  0.12699999809E+01 0.  1.
       -4    1    3    3    0  502  0.77460228280E+02  0.23768483529E+03  0.75413158013E+02  0.26111860369E+03  0.12699999809E+01 0. -1.
</event>
<event>
 5   0  0.4978779E-03  0.5000080E+03  0.7818609E-02  0.1013777E+00
       -2   -1    0    0    0  501  0.00000000000E+00  0.00000000000E+00  0.37985561894E+02  0.37985561980E+02  0.25500000920E-02 0. -1.
        2   -1    0    0  501    0  0.00000000000E+00  0.00000000000E+00 -0.16454145868E+04  0.16454145868E+04  0.25500000920E-02 0.  1.
    10030    2    1    2    0    0  0.00000000000E+00  0.00000000000E+00 -0.16074290249E+04  0.16834001488E+04  0.50000799075E+03 0.  0.
        1    1    3    3  502    0 -0.18842529663E+03 -0.75456835249E+02 -0.31230592813E+03  0.37246854789E+03  0.50400001928E-02 0. -1.
       -1    1    3    3    0  502  0.18842529663E+03  0.75456835249E+02 -0.12951230968E+04  0.13109316009E+04  0.50400001928E-02 0.  1.
</event>
<event>
 5   0  0.3013734E-03  0.4998875E+03  0.7818609E-02  0.1013808E+00
        1   -1    0    0  501    0  0.00000000000E+00  0.00000000000E+00  0.37467149617E+03  0.37467149620E+03  0.50400001928E-02 0. -1.
       -1   -1    0    0    0  501  0.00000000000E+00  0.00000000000E+00 -0.16673775862E+03  0.16673775870E+03  0.50400001928E-02 0.  1.
    10030    2    1    2    0    0  0.00000000000E+00  0.00000000000E+00  0.20793373755E+03  0.54140925490E+03  0.49988752943E+03 0.  0.
        2    1    3    3  502    0 -0.10899526555E+03  0.20855182416E+03  0.12718936995E+02  0.23565993007E+03  0.25500000920E-02 0.  1.
       -2    1    3    3    0  502  0.10899526555E+03 -0.20855182416E+03  0.19521480055E+03  0.30574932483E+03  0.25500000920E-02 0. -1.
</event>
<event>
 5   0  0.4989875E-03  0.5003332E+03  0.7818609E-02  0.1013692E+00
        2   -1    0    0  501    0  0.00000000000E+00  0.00000000000E+00  0.90338563855E+03  0.90338563856E+03  0.25500000920E-02 0. -1.
       -2   -1    0    0    0  501  0.00000000000E+00  0.00000000000E+00 -0.69276414430E+02  0.69276414477E+02  0.25500000920E-02 0.  1.
    10030    2    1    2    0    0  0.00000000000E+00  0.00000000000E+00  0.83410922412E+03  0.97266205303E+03  0.50033316065E+03 0.  0.
        2    1    3    3  502    0 -0.36975549042E+02 -0.17383143403E+03  0.74779878855E+02  0.19281231541E+03  0.25500000920E-02 0.  1.
       -2    1    3    3    0  502  0.36975549042E+02  0.17383143403E+03  0.75932934527E+03  0.77984973763E+03  0.25500000920E-02 0. -1.
</event>
<event>
 5   0  0.5118882E-03  0.4999510E+03  0.7818609E-02  0.1013792E+00
       -2   -1    0    0    0  501  0.00000000000E+00  0.00000000000E+00  0.59760088386E+02  0.59760088440E+02  0.25500000920E-02 0. -1.
        2   -1    0    0  501    0  0.00000000000E+00  0.00000000000E+00 -0.10456436560E+04  0.10456436560E+04  0.25500000920E-02 0.  1.
    10030    2    1    2    0    0  0.00000000000E+00  0.00000000000E+00 -0.98588356757E+03  0.11054037444E+04  0.49995102693E+03 0.  0.
        3    1    3    3  502    0 -0.54702239008E+02 -0.65932307941E+02  0.26288124485E+02  0.89612944784E+02  0.10100000352E+00 0. -1.
       -3    1    3    3    0  502  0.54702239008E+02  0.65932307941E+02 -0.10121716921E+04  0.10157907996E+04  0.10100000352E+00 0.  1.
</event>
<event>
 5   0  0.2005125E-03  0.4999755E+03  0.7818609E-02  0.1013785E+00
        4   -1    0    0  501    0  0.00000000000E+00  0.00000000000E+00  0.84326745898E+03  0.84326841532E+03  0.12699999809E+01 0. -1.
       -4   -1    0    0    0  501  0.00000000000E+00  0.00000000000E+00 -0.74102745961E+02  0.74113628024E+02  0.12699999809E+01 0.  1.
    10030    2    1    2    0    0  0.00000000000E+00  0.00000000000E+00  0.76916471302E+03  0.91738204335E+03  0.49997545709E+03 0.  0.
        2    1    3    3  502    0  0.18027123725E+03 -0.13650399764E+03  0.58017130324E+03  0.62267953352E+03  0.25500000920E-02 0. -1.
       -2    1    3    3    0  502 -0.18027123725E+03  0.13650399764E+03  0.18899340978E+03  0.29470250983E+03  0.25500000920E-02 0.  1.
</event>
<event>
 5   0  0.4978779E-03  0.5000385E+03  0.7818609E-02  0.1013769E+00
       -2   -1    0    0    0  501  0.00000000000E+00  0.00000000000E+00  0.76429320599E+02  0.76429320642E+02  0.25500000920E-02 0. -1.
        2   -1    0    0  501    0  0.00000000000E+00  0.00000000000E+00 -0.81787488889E+03  0.81787488890E+03  0.25500000920E-02 0.  1.
    10030    2    1    2    0    0  0.00000000000E+00  0.00000000000E+00 -0.74144556829E+03  0.89430420954E+03  0.50003848698E+03 0.  0.
        1    1    3    3  502    0 -0.14640888321E+02  0.22952915895E+03 -0.54606254200E+03  0.59252197446E+03  0.50400001928E-02 0.  1.
       -1    1    3    3    0  502  0.14640888321E+02 -0.22952915895E+03 -0.19538302630E+03  0.30178223508E+03  0.50400001928E-02 0. -1.
</event>
<event>
 5   0  0.2863538E-03  0.5001083E+03  0.7818609E-02  0.1013751E+00
        1   -1    0    0  501    0  0.00000000000E+00  0.00000000000E+00  0.12341641390E+03  0.12341641400E+03  0.50400001928E-02 0. -1.
       -1   -1    0    0    0  501  0.00000000000E+00  0.00000000000E+00 -0.50663495379E+03  0.50663495381E+03  0.50400001928E-02 0.  1.
    10030    2    1    2    0    0  0.00000000000E+00  0.00000000000E+00 -0.38321853989E+03  0.63005136781E+03  0.50010826504E+03 0.  0.
        1    1    3    3  502    0 -0.17010585190E+03  0.14240760783E+03 -0.33696078989E+03  0.40343339174E+03  0.50400001928E-02 0.  1.
       -1    1    3    3    0  502  0.17010585190E+03 -0.14240760783E+03 -0.46257750001E+02  0.22661797607E+03  0.50400001928E-02 0. -1.
</event>
<event>
 5   0  0.4989875E-03  0.5004758E+03  0.7818609E-02  0.1013655E+00
       -2   -1    0    0    0  501  0.00000000000E+00  0.00000000000E+00  0.93824759874E+03  0.93824759874E+03  0.25500000920E-02 0. -1.
        2   -1    0    0  501    0  0.00000000000E+00  0.00000000000E+00 -0.66740378873E+02  0.66740378921E+02  0.25500000920E-02 0.  1.
    10030    2    1    2    0    0  0.00000000000E+00  0.00000000000E+00  0.87150721987E+03  0.10049879777E+04  0.50047577461E+03 0.  0.
        2    1    3    3  502    0 -0.10568543359E+03  0.16675918261E+03  0.12700116855E+03  0.23474951049E+03  0.25500000920E-02 0. -1.
       -2    1    3    3    0  502  0.10568543359E+03 -0.16675918261E+03  0.74450605132E+03  0.77023846717E+03  0.25500000920E-02 0.  1.
</event>
<event>
 5   0  0.3055293E-03  0.4995705E+03  0.7818609E-02  0.1013891E+00
       -1   -1    0    0    0  501  0.00000000000E+00  0.00000000000E+00  0.26311770072E+03  0.26311770077E+03  0.50400001928E-02 0.  1.
        1   -1    0    0  501    0  0.00000000000E+00  0.00000000000E+00 -0.23712837232E+03  0.23712837238E+03  0.50400001928E-02 0. -1.
    10030    2    1    2    0    0  0.00000000000E+00  0.00000000000E+00  0.25989328393E+02  0.50024607314E+03  0.49957050404E+03 0.  0.
        3    1    3    3  502    0 -0.69905605436E+02  0.18238993745E+03  0.16889649933E+03  0.25822261837E+03  0.10100000352E+00 0.  1.
       -3    1    3    3    0  502  0.69905605436E+02 -0.18238993745E+03 -0.14290717093E+03  0.24202345477E+03  0.10100000352E+00 0. -1.
</event>
<event>
 5   0  0.4889251E-03  0.4999711E+03  0.7818609E-02  0.1013786E+00
       -2   -1    0    0    0  501  0.00000000000E+00  0.00000000000E+00  0.28446008259E+03  0.28446008260E+03  0.25500000920E-02 0.  1.
        2   -1    0    0  501    0  0.00000000000E+00  0.00000000000E+00 -0.21968908487E+03  0.21968908488E+03  0.25500000920E-02 0. -1.
    10030    2    1    2    0    0  0.00000000000E+00  0.00000000000E+00  0.64770997727E+02  0.50414916749E+03  0.49997110009E+03 0.  0.
        5    1    3    3  502    0 -0.11232042606E+02 -0.14729526943E+03  0.23568537296E+03  0.27819370985E+03  0.46999998093E+01 0.  1.
       -5    1    3    3    0  502  0.11232042606E+02  0.14729526943E+03 -0.17091437523E+03  0.22595545763E+03  0.46999998093E+01 0. -1.
</event>
<event>
 5   0  0.3013734E-03  0.5000141E+03  0.7818609E-02  0.1013775E+00
        1   -1    0    0  501    0  0.00000000000E+00  0.00000000000E+00  0.28597273809E+03  0.28597273814E+03  0.50400001928E-02 0. -1.
       -1   -1    0    0    0  501  0.00000000000E+00  0.00000000000E+00 -0.21856466553E+03  0.21856466559E+03  0.50400001928E-02 0.  1.
    10030    2    1    2    0    0  0.00000000000E+00  0.00000000000E+00  0.67408072559E+02  0.50453740373E+03  0.50001414331E+03 0.  0.
        2    1    3    3  502    0  0.54977684008E+02 -0.38061696928E+02  0.27678220787E+03  0.28474484914E+03  0.25500000920E-02 0. -1.
       -2    1    3    3    0  502 -0.54977684008E+02  0.38061696928E+02 -0.20937413531E+03  0.21979255459E+03  0.25500000920E-02 0.  1.
</event>
<event>
 5   0  0.5095783E-03  0.5000724E+03  0.7818609E-02  0.1013760E+00
       -2   -1    0    0    0  501  0.00000000000E+00  0.00000000000E+00  0.10741851349E+03  0.10741851352E+03  0.25500000920E-02 0.  1.
        2   -1    0    0  501    0  0.00000000000E+00  0.00000000000E+00 -0.58200489415E+03  0.58200489415E+03  0.25500000920E-02 0. -1.
    10030    2    1    2    0    0  0.00000000000E+00  0.00000000000E+00 -0.47458638065E+03  0.68942340768E+03  0.50007239711E+03 0.  0.
        4    1    3    3  502    0 -0.96096323308E+02  0.74361150340E+01 -0.55535964307E+03  0.56366279388E+03  0.12699999809E+01 0. -1.
       -4    1    3    3    0  502  0.96096323308E+02 -0.74361150340E+01  0.80773262416E+02  0.12576061379E+03  0.12699999809E+01 0.  1.
</event>
<event>
 5   0  0.2863538E-03  0.4999964E+03  0.7818609E-02  0.1013780E+00
        1   -1    0    0  501    0  0.00000000000E+00  0.00000000000E+00  0.91930676739E+02  0.91930676877E+02  0.50400001928E-02 0. -1.
       -1   -1    0    0    0  501  0.00000000000E+00  0.00000000000E+00 -0.67985023974E+03  0.67985023975E+03  0.50400001928E-02 0.  1.
    10030    2    1    2    0    0  0.00000000000E+00  0.00000000000E+00 -0.58791956300E+03  0.77178091663E+03  0.49999637071E+03 0.  0.
        1    1    3    3  502    0 -0.23630105126E+03 -0.28653870043E+02 -0.41191806922E+03  0.47574754531E+03  0.50400001928E-02 0.  1.
       -1    1    3    3    0  502  0.23630105126E+03  0.28653870043E+02 -0.17600149378E+03  0.29603337132E+03  0.50400001928E-02 0. -1.
</event>
<event>
 5   0  0.4978779E-03  0.4998361E+03  0.7818609E-02  0.1013822E+00
       -2   -1    0    0    0  501  0.00000000000E+00  0.00000000000E+00  0.10694042236E+03  0.10694042239E+03  0.25500000920E-02 0.  1.
        2   -1    0    0  501    0  0.00000000000E+00  0.00000000000E+00 -0.58405452115E+03  0.58405452115E+03  0.25500000920E-02 0. -1.
    10030    2    1    2    0    0  0.00000000000E+00  0.00000000000E+00 -0.47711409879E+03  0.69099494355E+03  0.49983612189E+03 0.  0.
        1    1    3    3  502    0 -0.14333621320E+03 -0.87663960083E+02  0.17209091409E+02  0.16889758069E+03  0.50400001928E-02 0.  1.
       -1    1    3    3    0  502  0.14333621320E+03  0.87663960083E+02 -0.49432319019E+03  0.52209736286E+03  0.50400001928E-02 0. -1.
</event>
<event>
 5   0  0.3211775E-03  0.4999937E+03  0.7818609E-02  0.1013781E+00
       -1   -1    0    0    0  501  0.00000000000E+00  0.00000000000E+00  0.61492371999E+02  0.61492372205E+02  0.50400001928E-02 0. -1.
        1   -1    0    0  501    0  0.00000000000E+00  0.00000000000E+00 -0.10163605618E+04  0.10163605618E+04  0.50400001928E-02 0.  1.
    10030    2    1    2    0    0  0.00000000000E+00  0.00000000000E+00 -0.95486818981E+03  0.10778529340E+04  0.49999368744E+03 0.  0.
        4    1    3    3  502    0  0.55833431305E+02 -0.19478821140E+03 -0.79306308504E+03  0.81854168440E+03  0.12699999809E+01 0.  1.
       -4    1    3    3    0  502 -0.55833431305E+02  0.19478821140E+03 -0.16180510478E+03  0.25931124963E+03  0.12699999809E+01 0. -1.
</event>
<event>
 5   0  0.2005125E-03  0.4999492E+03  0.7818609E-02  0.1013792E+00
        3   -1    0    0  501    0  0.00000000000E+00  0.00000000000E+00  0.20615141213E+03  0.20615143688E+03  0.10100000352E+00 0. -1.
       -3   -1    0    0    0  501  0.00000000000E+00  0.00000000000E+00 -0.30311357575E+03  0.30311359257E+03  0.10100000352E+00 0.  1.
    10030    2    1    2    0    0  0.00000000000E+00  0.00000000000E+00 -0.96962163611E+02  0.50926502945E+03  0.49994920647E+03 0.  0.
        2    1    3    3  502    0 -0.65721993529E+02 -0.12427098854E+03 -0.25903202624E+03  0.29472062984E+03  0.25500000920E-02 0.  1.
       -2    1    3    3    0  502  0.65721993529E+02  0.12427098854E+03  0.16206986263E+03  0.21454439961E+03  0.25500000920E-02 0. -1.
</event>
<event>
 5   0  0.5118882E-03  0.5000665E+03  0.7818609E-02  0.1013762E+00
       -2   -1    0    0    0  501  0.00000000000E+00  0.00000000000E+00  0.69670994607E+02  0.69670994653E+02  0.25500000920E-02 0.  1.
        2   -1    0    0  501    0  0.00000000000E+00  0.00000000000E+00 -0.89731200109E+03  0.89731200109E+03  0.25500000920E-02 0. -1.
    10030    2    1    2    0    0  0.00000000000E+00  0.00000000000E+00 -0.82764100648E+03  0.96698299574E+03  0.50006647403E+03 0.  0.
        3    1    3    3  502    0 -0.17282124169E+03  0.18066038318E+03 -0.42030745027E+03  0.48904367758E+03  0.10100000352E+00 0. -1.
       -3    1    3    3    0  502  0.17282124169E+03 -0.18066038318E+03 -0.40733355621E+03  0.47793931817E+03  0.10100000352E+00 0.  1.
</event>
<event>
 5   0  0.3055293E-03  0.4997393E+03  0.7818609E-02  0.1013847E+00
       -1   -1    0    0    0  501  0.00000000000E+00  0.00000000000E+00  0.64035230486E+02  0.64035230684E+02  0.50400001928E-02 0.  1.
        1   -1    0    0  501    0  0.00000000000E+00  0.00000000000E+00 -0.97500757331E+03  0.97500757332E+03  0.50400001928E-02 0. -1.
    10030    2    1    2    0    0  0.00000000000E+00  0.00000000000E+00 -0.91097234282E+03  0.10390428040E+04  0.49973927119E+03 0.  0.
        3    1    3    3  502    0  0.25901474451E+01 -0.28898990334E+02  0.60520732243E+02  0.67116538486E+02  0.10100000352E+00 0.  1.
       -3    1    3    3    0  502 -0.25901474451E+01  0.28898990334E+02 -0.97149307506E+03  0.97192626552E+03  0.10100000352E+00 0. -1.
</event>
<event>
 5   0  0.4978779E-03  0.5001184E+03  0.7818609E-02  0.1013748E+00
       -2   -1    0    0    0  501  0.00000000000E+00  0.00000000000E+00  0.24300020984E+02  0.24300021117E+02  0.25500000920E-02 0. -1.
        2   -1    0    0  501    0  0.00000000000E+00  0.00000000000E+00 -0.25732329729E+04  0.25732329729E+04  0.25500000920E-02 0.  1.
    10030    2    1    2    0    0  0.00000000000E+00  0.00000000000E+00 -0.25489329519E+04  0.25975329940E+04  0.50011844762E+03 0.  0.
        1    1    3    3  502    0  0.26907818137E+02  0.23368655776E+03 -0.17150610351E+04  0.17311174981E+04  0.50400001928E-02 0.  1.
       -1    1    3    3    0  502 -0.26907818137E+02 -0.23368655776E+03 -0.83387191681E+03  0.86641549595E+03  0.50400001928E-02 0. -1.
</event>
<event>
 5   0  0.3211775E-03  0.5000926E+03  0.7818609E-02  0.1013755E+00
        1   -1    0    0  501    0  0.00000000000E+00  0.00000000000E+00  0.74532017739E+03  0.74532017741E+03  0.50400001928E-02 0.  1.
       -1   -1    0    0    0  501  0.00000000000E+00  0.00000000000E+00 -0.83887650825E+02  0.83887650977E+02  0.50400001928E-02 0. -1.
    10030    2    1    2    0    0  0.00000000000E+00  0.00000000000E+00  0.66143252656E+03  0.82920782838E+03  0.50009262688E+03 0.  0.
        4    1    3    3  502    0 -0.74035229497E+02  0.90740559857E+02 -0.35596197532E+02  0.12240819657E+03  0.12699999809E+01 0. -1.
       -4    1    3    3    0  502  0.74035229497E+02 -0.90740559857E+02  0.69702872410E+03  0.70679963181E+03  0.12699999809E+01 0.  1.
</event>
<event>
 5   0  0.5118882E-03  0.4993988E+03  0.7818609E-02  0.1013936E+00
       -2   -1    0    0    0  501  0.00000000000E+00  0.00000000000E+00  0.72804579283E+02  0.72804579328E+02  0.25500000920E-02 0. -1.
        2   -1    0    0  501    0  0.00000000000E+00  0.00000000000E+00 -0.85639928604E+03  0.85639928605E+03  0.25500000920E-02 0.  1.
    10030    2    1    2    0    0  0.00000000000E+00  0.00000000000E+00 -0.78359470676E+03  0.92920386537E+03  0.49939879752E+03 0.  0.
        3    1    3    3  502    0 -0.99168213306E+01 -0.16300743696E+03 -0.40337268605E+02  0.16821674497E+03  0.10100000352E+00 0. -1.
       -3    1    3    3    0  502  0.99168213306E+01  0.16300743696E+03 -0.74325743816E+03  0.76098712041E+03  0.10100000352E+00 0.  1.
</event>
<event>
 5   0  0.3211775E-03  0.4995686E+03  0.7818609E-02  0.1013892E+00
        1   -1    0    0  501    0  0.00000000000E+00  0.00000000000E+00  0.77580593757E+03  0.77580593758E+03  0.50400001928E-02 0.  1.
       -1   -1    0    0    0  501  0.00000000000E+00  0.00000000000E+00 -0.80422425433E+02  0.80422425590E+02  0.50400001928E-02 0. -1.
    10030    2    1    2    0    0  0.00000000000E+00  0.00000000000E+00  0.69538351214E+03  0.85622836317E+03  0.49956859484E+03 0.  0.
        4    1    3    3  502    0  0.20964448729E+03  0.88029368203E+02  0.17047876563E+03  0.28419113841E+03  0.12699999809E+01 0. -1.
       -4    1    3    3    0  502 -0.20964448729E+03 -0.88029368203E+02  0.52490474650E+03  0.57203722477E+03  0.12699999809E+01 0.  1.
</event>
<event>
 5   0  0.3057783E-03  0.5004363E+03  0.7818609E-02  0.1013665E+00
        1   -1    0    0  501    0  0.00000000000E+00  0.00000000000E+00  0.26445468742E+03  0.26445468747E+03  0.50400001928E-02 0.  1.
       -1   -1    0    0    0  501  0.00000000000E+00  0.00000000000E+00 -0.23674803709E+03  0.23674803714E+03  0.50400001928E-02 0. -1.
    10030    2    1    2    0    0  0.00000000000E+00  0.00000000000E+00  0.27706650328E+02  0.50120272461E+03  0.50043632231E+03 0.  0.
        5    1    3    3  502    0  0.17381097058E+02 -0.70926710359E+02 -0.22579190861E+03  0.23735369550E+03  0.46999998093E+01 0. -1.
       -5    1    3    3    0  502 -0.17381097058E+02  0.70926710359E+02  0.25349855894E+03  0.26384902911E+03  0.46999998093E+01 0.  1.
</event>
<event>
 5   0  0.3211775E-03  0.4998917E+03  0.7818609E-02  0.1013807E+00
        1   -1    0    0  501    0  0.00000000000E+00  0.00000000000E+00  0.88927303807E+03  0.88927303808E+03  0.50400001928E-02 0.  1.
       -1   -1    0    0    0  501  0.00000000000E+00  0.00000000000E+00 -0.70251677077E+02  0.70251677257E+02  0.50400001928E-02 0. -1.
    10030    2    1    2    0    0  0.00000000000E+00  0.00000000000E+00  0.81902136099E+03  0.95952471534E+03  0.49989167785E+03 0.  0.
        4    1    3    3  502    0  0.13206701794E+03  0.20710204218E+03  0.49827129573E+03  0.55552574211E+03  0.12699999809E+01 0. -1.
       -4    1    3    3    0  502 -0.13206701794E+03 -0.20710204218E+03  0.32075006526E+03  0.40399897323E+03  0.12699999809E+01 0.  1.
</event>
<event>
 5   0  0.3055293E-03  0.5004806E+03  0.7818609E-02  0.1013654E+00
        1   -1    0    0  501    0  0.00000000000E+00  0.00000000000E+00  0.44875981920E+03  0.44875981923E+03  0.50400001928E-02 0.  1.
       -1   -1    0    0    0  501  0.00000000000E+00  0.00000000000E+00 -0.13954059276E+03  0.13954059285E+03  0.50400001928E-02 0. -1.
    10030    2    1    2    0    0  0.00000000000E+00  0.00000000000E+00  0.30921922645E+03  0.58830041208E+03  0.50048061386E+03 0.  0.
        3    1    3    3  502    0 -0.82892969712E+01 -0.10840379502E+03 -0.11032835487E+03  0.15489496864E+03  0.10100000352E+00 0. -1.
       -3    1    3    3    0  502  0.82892969712E+01  0.10840379502E+03  0.41954758131E+03  0.43340544344E+03  0.10100000352E+00 0.  1.
</event>
<event>
 5   0  0.4989875E-03  0.5010075E+03  0.7818609E-02  0.1013516E+00
        2   -1    0    0  501    0  0.00000000000E+00  0.00000000000E+00  0.68936477927E+03  0.68936477928E+03  0.25500000920E-02 0. -1.
       -2   -1    0    0    0  501  0.00000000000E+00  0.00000000000E+00 -0.91028931512E+02  0.91028931548E+02  0.25500000920E-02 0.  1.
    10030    2    1    2    0    0  0.00000000000E+00  0.00000000000E+00  0.59833584776E+03  0.78039371083E+03  0.50100754204E+03 0.  0.
        2    1    3    3  502    0 -0.34499622888E+02  0.18216506484E+03  0.36770907204E+02  0.18901437631E+03  0.25500000920E-02 0.  1.
       -2    1    3    3    0  502  0.34499622888E+02 -0.18216506484E+03  0.56156494056E+03  0.59137933452E+03  0.25500000920E-02 0. -1.
</event>
<event>
 5   0  0.5095783E-03  0.4998897E+03  0.7818609E-02  0.1013808E+00
       -2   -1    0    0    0  501  0.00000000000E+00  0.00000000000E+00  0.10637875521E+03  0.10637875524E+03  0.25500000920E-02 0.  1.
        2   -1    0    0  501    0  0.00000000000E+00  0.00000000000E+00 -0.58726404571E+03  0.58726404572E+03  0.25500000920E-02 0. -1.
    10030    2    1    2    0    0  0.00000000000E+00  0.00000000000E+00 -0.48088529050E+03  0.69364280096E+03  0.49988966052E+03 0.  0.
        4    1    3    3  502    0  0.21453913750E+03 -0.39121410931E+02 -0.70990020607E+02  0.22934411315E+03  0.12699999809E+01 0.  1.
       -4    1    3    3    0  502 -0.21453913750E+03  0.39121410931E+02 -0.40989526990E+03  0.46429868780E+03  0.12699999809E+01 0. -1.
</event>
<event>
 5   0  0.4889251E-03  0.5000240E+03  0.7818609E-02  0.1013773E+00
        2   -1    0    0  501    0  0.00000000000E+00  0.00000000000E+00  0.99987480974E+03  0.99987480974E+03  0.25500000920E-02 0.  1.
       -2   -1    0    0    0  501  0.00000000000E+00  0.00000000000E+00 -0.62513815095E+02  0.62513815147E+02  0.25500000920E-02 0. -1.
    10030    2    1    2    0    0  0.00000000000E+00  0.00000000000E+00  0.93736099464E+03  0.10623886249E+04  0.50002395544E+03 0.  0.
        5    1    3    3  502    0  0.16194227502E+03  0.47542190894E+02  0.86044172186E+03  0.87685096058E+03  0.46999998093E+01 0.  1.
       -5    1    3    3    0  502 -0.16194227502E+03 -0.47542190894E+02  0.76919272778E+02  0.18553766431E+03  0.46999998093E+01 0. -1.
</event>
<event>
 5   0  0.2005125E-03  0.4999638E+03  0.7818609E-02  0.1013788E+00
       -4   -1    0    0    0  501  0.00000000000E+00  0.00000000000E+00  0.41970681465E+03  0.41970873610E+03  0.12699999809E+01 0.  1.
        4   -1    0    0  501    0  0.00000000000E+00  0.00000000000E+00 -0.14888696252E+03  0.14889237894E+03  0.12699999809E+01 0. -1.
    10030    2    1    2    0    0  0.00000000000E+00  0.00000000000E+00  0.27081985213E+03  0.56860111505E+03  0.49996383441E+03 0.  0.
        2    1    3    3  502    0 -0.93631309601E+02  0.82880136248E+02  0.38158675874E+03  0.40155247923E+03  0.25500000920E-02 0.  1.
       -2    1    3    3    0  502  0.93631309601E+02 -0.82880136248E+02 -0.11076690661E+03  0.16704863582E+03  0.25500000920E-02 0. -1.
</event>
<event>
 5   0  0.3013734E-03  0.4996392E+03  0.7818609E-02  0.1013873E+00
       -1   -1    0    0    0  501  0.00000000000E+00  0.00000000000E+00  0.35775499565E+03  0.35775499569E+03  0.50400001928E-02 0. -1.
        1   -1    0    0  501    0  0.00000000000E+00  0.00000000000E+00 -0.17444853179E+03  0.17444853187E+03  0.50400001928E-02 0.  1.
    10030    2    1    2    0    0  0.00000000000E+00  0.00000000000E+00  0.18330646386E+03  0.53220352755E+03  0.49963920488E+03 0.  0.
        2    1    3    3  502    0  0.13238082623E+03  0.18340836287E+02 -0.13316890498E+03  0.18866644293E+03  0.25500000920E-02 0.  1.
       -2    1    3    3    0  502 -0.13238082623E+03 -0.18340836287E+02  0.31647536883E+03  0.34353708462E+03  0.25500000920E-02 0. -1.
</event>
<event>
 5   0  0.2863538E-03  0.4998565E+03  0.7818609E-02  0.1013816E+00
        1   -1    0    0  501    0  0.00000000000E+00  0.00000000000E+00  0.21382288110E+03  0.21382288116E+03  0.50400001928E-02 0. -1.
       -1   -1    0    0    0  501  0.00000000000E+00  0.00000000000E+00 -0.29213019243E+03  0.29213019247E+03  0.50400001928E-02 0.  1.
    10030    2    1    2    0    0  0.00000000000E+00  0.00000000000E+00 -0.78307311326E+02  0.50595307363E+03  0.49985645710E+03 0.  0.
        1    1    3    3  502    0 -0.20322656166E+03 -0.73899651092E+02 -0.16598932047E+03  0.27260713184E+03  0.50400001928E-02 0.  1.
       -1    1    3    3    0  502  0.20322656166E+03  0.73899651092E+02  0.87682009140E+02  0.23334594179E+03  0.50400001928E-02 0. -1.
</event>
<event>
 5   0  0.5118882E-03  0.4998216E+03  0.7818609E-02  0.1013826E+00
       -2   -1    0    0    0  501  0.00000000000E+00  0.00000000000E+00  0.77175246761E+02  0.77175246803E+02  0.25500000920E-02 0.  1.
        2   -1    0    0  501    0  0.00000000000E+00  0.00000000000E+00 -0.80926723413E+03  0.80926723413E+03  0.25500000920E-02 0. -1.
    10030    2    1    2    0    0  0.00000000000E+00  0.00000000000E+00 -0.73209198737E+03  0.88644248094E+03  0.49982156220E+03 0.  0.
        3    1    3    3  502    0  0.29171950174E+02 -0.18523773886E+03 -0.65903289711E+03  0.68519223014E+03  0.10100000352E+00 0. -1.
       -3    1    3    3    0  502 -0.29171950174E+02  0.18523773886E+03 -0.73059090258E+02  0.20125025079E+03  0.10100000352E+00 0.  1.
</event>
<event>
 5   0  0.4978779E-03  0.5000516E+03  0.7818609E-02  0.1013765E+00
        2   -1    0    0  501    0  0.00000000000E+00  0.00000000000E+00  0.10886999565E+04  0.10886999565E+04  0.25500000920E-02 0. -1.
       -2   -1    0    0    0  501  0.00000000000E+00  0.00000000000E+00 -0.57419776108E+02  0.57419776165E+02  0.25500000920E-02 0.  1.
    10030    2    1    2    0    0  0.00000000000E+00  0.00000000000E+00  0.10312801803E+04  0.11461197326E+04  0.50005162847E+03 0.  0.
        1    1    3    3  502    0 -0.14521304355E+02 -0.24150473156E+03  0.66019087780E+03  0.70312687248E+03  0.50400001928E-02 0.  1.
       -1    1    3    3    0  502  0.14521304355E+02  0.24150473156E+03  0.37108930254E+03  0.44299286014E+03  0.50400001928E-02 0. -1.
</event>
<event>
 5   0  0.2005125E-03  0.5000853E+03  0.7818609E-02  0.1013757E+00
       -3   -1    0    0    0  501  0.00000000000E+00  0.00000000000E+00  0.51640295710E+02  0.51640394480E+02  0.10100000352E+00 0. -1.
        3   -1    0    0  501    0  0.00000000000E+00  0.00000000000E+00 -0.12107068089E+04  0.12107068132E+04  0.10100000352E+00 0.  1.
    10030    2    1    2    0    0  0.00000000000E+00  0.00000000000E+00 -0.11590665132E+04  0.12623472076E+04  0.50008528326E+03 0.  0.
        2    1    3    3  502    0  0.26641231778E+02  0.87533182683E+02 -0.11669306465E+04  0.11705122584E+04  0.25500000920E-02 0.  1.
       -2    1    3    3    0  502 -0.26641231778E+02 -0.87533182683E+02  0.78641332805E+01  0.91834949229E+02  0.25500000920E-02 0. -1.
</event>
<event>
 5   0  0.4889251E-03  0.5012354E+03  0.7818609E-02  0.1013457E+00
        2   -1    0    0  501    0  0.00000000000E+00  0.00000000000E+00  0.11548204880E+04  0.11548204880E+04  0.25500000920E-02 0.  1.
       -2   -1    0    0    0  501  0.00000000000E+00  0.00000000000E+00 -0.54388749196E+02  0.54388749256E+02  0.25500000920E-02 0. -1.
    10030    2    1    2    0    0  0.00000000000E+00  0.00000000000E+00  0.11004317388E+04  0.12092092373E+04  0.50123544140E+03 0.  0.
        5    1    3    3  502    0  0.93162658966E+01 -0.69816025183E+02 -0.29909112006E+02  0.76666258300E+02  0.46999998093E+01 0. -1.
       -5    1    3    3    0  502 -0.93162658966E+01  0.69816025183E+02  0.11303408509E+04  0.11325429790E+04  0.46999998093E+01 0.  1.
</event>
<event>
 5   0  0.3055293E-03  0.4996451E+03  0.7818609E-02  0.1013872E+00
        1   -1    0    0  501    0  0.00000000000E+00  0.00000000000E+00  0.93062076870E+03  0.93062076871E+03  0.50400001928E-02 0. -1.
       -1   -1    0    0    0  501  0.00000000000E+00  0.00000000000E+00 -0.67064170244E+02  0.67064170433E+02  0.50400001928E-02 0.  1.
    10030    2    1    2    0    0  0.00000000000E+00  0.00000000000E+00  0.86355659845E+03  0.99768493914E+03  0.49964511312E+03 0.  0.
        3    1    3    3  502    0 -0.20315237045E+03  0.94084857409E+02  0.21042785990E+03  0.30725028957E+03  0.10100000352E+00 0.  1.
       -3    1    3    3    0  502  0.20315237045E+03 -0.94084857409E+02  0.65312873855E+03  0.69043464958E+03  0.10100000352E+00 0. -1.
</event>
<event>
 5   0  0.2005125E-03  0.5000793E+03  0.7818609E-02  0.1013758E+00
        3   -1    0    0  501    0  0.00000000000E+00  0.00000000000E+00  0.12688007693E+03  0.12688011713E+03  0.10100000352E+00 0.  1.
       -3   -1    0    0    0  501  0.00000000000E+00  0.00000000000E+00 -0.49274721689E+03  0.49274722724E+03  0.10100000352E+00 0. -1.
    10030    2    1    2    0    0  0.00000000000E+00  0.00000000000E+00 -0.36586713995E+03  0.61962734437E+03  0.50007927551E+03 0.  0.
        4    1    3    3  502    0  0.17536350544E+03 -0.42673328631E+01  0.37840178129E+02  0.17945490005E+03  0.12699999809E+01 0.  1.
       -4    1    3    3    0  502 -0.17536350544E+03  0.42673328631E+01 -0.40370731808E+03  0.44017244433E+03  0.12699999809E+01 0. -1.
</event>
<event>
 5   0  0.4989875E-03  0.4984960E+03  0.7818609E-02  0.1014172E+00
        2   -1    0    0  501    0  0.00000000000E+00  0.00000000000E+00  0.10868310190E+04  0.10868310190E+04  0.25500000920E-02 0.  1.
       -2   -1    0    0    0  501  0.00000000000E+00  0.00000000000E+00 -0.57161193000E+02  0.57161193057E+02  0.25500000920E-02 0. -1.
    10030    2    1    2    0    0  0.00000000000E+00  0.00000000000E+00  0.10296698260E+04  0.11439922120E+04  0.49849596856E+03 0.  0.
        2    1    3    3  502    0 -0.12114904228E+03  0.11882405708E+02  0.15696726785E+02  0.12273821430E+03  0.25500000920E-02 0. -1.
       -2    1    3    3    0  502  0.12114904228E+03 -0.11882405708E+02  0.10139730992E+04  0.10212539977E+04  0.25500000920E-02 0.  1.
</event>
<event>
 5   0  0.2863538E-03  0.4998849E+03  0.7818609E-02  0.1013809E+00
       -1   -1    0    0    0  501  0.00000000000E+00  0.00000000000E+00  0.36584114389E+03  0.36584114392E+03  0.50400001928E-02 0.  1.
        1   -1    0    0  501    0  0.00000000000E+00  0.00000000000E+00 -0.17076053390E+03  0.17076053397E+03  0.50400001928E-02 0. -1.
    10030    2    1    2    0    0  0.00000000000E+00  0.00000000000E+00  0.19508060999E+03  0.53660167790E+03  0.49988490308E+03 0.  0.
        1    1    3    3  502    0 -0.16527773998E+03 -0.17155383165E+03  0.16327690236E+02  0.23877613361E+03  0.50400001928E-02 0.  1.
       -1    1    3    3    0  502  0.16527773998E+03  0.17155383165E+03  0.17875291976E+03  0.29782554429E+03  0.50400001928E-02 0. -1.
</event>
<event>
 5   0  0.5118882E-03  0.4998605E+03  0.7818609E-02  0.1013815E+00
       -2   -1    0    0    0  501  0.00000000000E+00  0.00000000000E+00  0.43810316910E+02  0.43810316984E+02  0.25500000920E-02 0.  1.
        2   -1    0    0  501    0  0.00000000000E+00  0.00000000000E+00 -0.14258085808E+04  0.14258085808E+04  0.25500000920E-02 0. -1.
    10030    2    1    2    0    0  0.00000000000E+00  0.00000000000E+00 -0.13819982639E+04  0.14696188978E+04  0.49986048388E+03 0.  0.
        3    1    3    3  502    0  0.23803818645E+03 -0.35812168278E+02 -0.49332692720E+03  0.54892272398E+03  0.10100000352E+00 0.  1.
       -3    1    3    3    0  502 -0.23803818645E+03  0.35812168278E+02 -0.88867133674E+03  0.92069617385E+03  0.10100000352E+00 0. -1.
</event>
<event>
 5   0  0.4989875E-03  0.4998576E+03  0.7818609E-02  0.1013816E+00
       -2   -1    0    0    0  501  0.00000000000E+00  0.00000000000E+00  0.25894727832E+03  0.25894727834E+03  0.25500000920E-02 0.  1.
        2   -1    0    0  501    0  0.00000000000E+00  0.00000000000E+00 -0.24122445502E+03  0.24122445503E+03  0.25500000920E-02 0. -1.
    10030    2    1    2    0    0  0.00000000000E+00  0.00000000000E+00  0.17722823306E+02  0.50017173337E+03  0.49985764413E+03 0.  0.
        2    1    3    3  502    0 -0.10001966528E+02 -0.16416590483E+03  0.19716555830E+03  0.25675813722E+03  0.25500000920E-02 0.  1.
       -2    1    3    3    0  502  0.10001966528E+02  0.16416590483E+03 -0.17944273499E+03  0.24341359615E+03  0.25500000920E-02 0. -1.
</event>
<event>
 5   0  0.2863538E-03  0.4998982E+03  0.7818609E-02  0.1013805E+00
        1   -1    0    0  501    0  0.00000000000E+00  0.00000000000E+00  0.60667527718E+03  0.60667527720E+03  0.50400001928E-02 0. -1.
       -1   -1    0    0    0  501  0.00000000000E+00  0.00000000000E+00 -0.10297857837E+03  0.10297857849E+03  0.50400001928E-02 0.  1.
    10030    2    1    2    0    0  0.00000000000E+00  0.00000000000E+00  0.50369669881E+03  0.70965385569E+03  0.49989822015E+03 0.  0.
        1    1    3    3  502    0  0.19363801339E+03  0.14568324788E+03  0.16485511412E+03  0.29308104275E+03  0.50400001928E-02 0. -1.
       -1    1    3    3    0  502 -0.19363801339E+03 -0.14568324788E+03  0.33884158469E+03  0.41657281294E+03  0.50400001928E-02 0.  1.
</event>
<event>
 5   0  0.4889251E-03  0.4994925E+03  0.7818609E-02  0.1013911E+00
        2   -1    0    0  501    0  0.00000000000E+00  0.00000000000E+00  0.40846224965E+03  0.40846224965E+03  0.25500000920E-02 0.  1.
       -2   -1    0    0    0  501  0.00000000000E+00  0.00000000000E+00 -0.15270242785E+03  0.15270242787E+03  0.25500000920E-02 0. -1.
    10030    2    1    2    0    0  0.00000000000E+00  0.00000000000E+00  0.25575982179E+03  0.56116467753E+03  0.49949245125E+03 0.  0.
        5    1    3    3  502    0 -0.51987264589E+02  0.91440721536E+02 -0.12654818675E+03  0.16462264365E+03  0.46999998093E+01 0. -1.
       -5    1    3    3    0  502  0.51987264589E+02 -0.91440721536E+02  0.38230800854E+03  0.39654203388E+03  0.46999998093E+01 0.  1.
</event>
<event>
 5   0  0.4989875E-03  0.5002017E+03  0.7818609E-02  0.1013726E+00
        2   -1    0    0  501    0  0.00000000000E+00  0.00000000000E+00  0.13205499936E+04  0.13205499936E+04  0.25500000920E-02 0. -1.
       -2   -1    0    0    0  501  0.00000000000E+00  0.00000000000E+00 -0.47366954537E+02  0.47366954605E+02  0.25500000920E-02 0.  1.
    10030    2    1    2    0    0  0.00000000000E+00  0.00000000000E+00  0.12731830391E+04  0.13679169482E+04  0.50020168556E+03 0.  0.
        2    1    3    3  502    0  0.42744652928E+01 -0.47436278545E+02  0.13080331454E+04  0.13088999889E+04  0.25500000920E-02 0. -1.
       -2    1    3    3    0  502 -0.42744652928E+01  0.47436278545E+02 -0.34850106269E+02  0.59016959335E+02  0.25500000920E-02 0.  1.
</event>
<event>
 5   0  0.4889251E-03  0.5005184E+03  0.7818609E-02  0.1013644E+00
       -2   -1    0    0    0  501  0.00000000000E+00  0.00000000000E+00  0.92879993186E+02  0.92879993221E+02  0.25500000920E-02 0. -1.
        2   -1    0    0  501    0  0.00000000000E+00  0.00000000000E+00 -0.67430746011E+03  0.67430746011E+03  0.25500000920E-02 0.  1.
    10030    2    1    2    0    0  0.00000000000E+00  0.00000000000E+00 -0.58142746692E+03  0.76718745334E+03  0.50051842050E+03 0.  0.
        5    1    3    3  502    0 -0.55297068464E+02  0.24276784408E+03 -0.25274547208E+03  0.35481876438E+03  0.46999998093E+01 0. -1.
       -5    1    3    3    0  502  0.55297068464E+02 -0.24276784408E+03 -0.32868199484E+03  0.41236868895E+03  0.46999998093E+01 0.  1.
</event>
<event>
 5   0  0.3211775E-03  0.4997725E+03  0.7818609E-02  0.1013838E+00
        1   -1    0    0  501    0  0.00000000000E+00  0.00000000000E+00  0.15546724494E+03  0.15546724502E+03  0.50400001928E-02 0. -1.
       -1   -1    0    0    0  501  0.00000000000E+00  0.00000000000E+00 -0.40164826852E+03  0.40164826855E+03  0.50400001928E-02 0.  1.
    10030    2    1    2    0    0  0.00000000000E+00  0.00000000000E+00 -0.24618102358E+03  0.55711551358E+03  0.49977254736E+03 0.  0.
        4    1    3    3  502    0 -0.20202313205E+03  0.10485422301E+03 -0.81384539184E+01  0.22776215950E+03  0.12699999809E+01 0. -1.
       -4    1    3    3    0  502  0.20202313205E+03 -0.10485422301E+03 -0.23804256966E+03  0.32935335408E+03  0.12699999809E+01 0.  1.
</event>
<event>
 5   0  0.5095783E-03  0.5000300E+03  0.7818609E-02  0.1013771E+00
       -2   -1    0    0    0  501  0.00000000000E+00  0.00000000000E+00  0.58661431645E+02  0.58661431701E+02  0.25500000920E-02 0. -1.
        2   -1    0    0  501    0  0.00000000000E+00  0.00000000000E+00 -0.10655636694E+04  0.10655636694E+04  0.25500000920E-02 0.  1.
    10030    2    1    2    0    0  0.00000000000E+00  0.00000000000E+00 -0.10069022377E+04  0.11242251011E+04  0.50002996065E+03 0.  0.
        4    1    3    3  502    0  0.36826895849E+02 -0.12759040713E+03 -0.97970327650E+03  0.98866357024E+03  0.12699999809E+01 0.  1.
       -4    1    3    3    0  502 -0.36826895849E+02  0.12759040713E+03 -0.27198961230E+02  0.13556153083E+03  0.12699999809E+01 0. -1.
</event>
<event>
 5   0  0.5118882E-03  0.4999566E+03  0.7818609E-02  0.1013790E+00
       -2   -1    0    0    0  501  0.00000000000E+00  0.00000000000E+00  0.37748446439E+03  0.37748446440E+03  0.25500000920E-02 0.  1.
        2   -1    0    0  501    0  0.00000000000E+00  0.00000000000E+00 -0.16554099538E+03  0.16554099540E+03  0.25500000920E-02 0. -1.
    10030    2    1    2    0    0  0.00000000000E+00  0.00000000000E+00  0.21194346901E+03  0.54302545980E+03  0.49995661405E+03 0.  0.
        3    1    3    3  502    0 -0.22519002478E+03  0.88316393492E+02  0.17448340195E+03  0.29825291345E+03  0.10100000352E+00 0. -1.
       -3    1    3    3    0  502  0.22519002478E+03 -0.88316393492E+02  0.37460067062E+02  0.24477254635E+03  0.10100000352E+00 0.  1.
</event>
<event>
 5   0  0.2005125E-03  0.5000329E+03  0.7818609E-02  0.1013770E+00
        4   -1    0    0  501    0  0.00000000000E+00  0.00000000000E+00  0.26574199830E+03  0.26574503300E+03  0.12699999809E+01 0.  1.
       -4   -1    0    0    0  501  0.00000000000E+00  0.00000000000E+00 -0.23521539077E+03  0.23521881930E+03  0.12699999809E+01 0. -1.
    10030    2    1    2    0    0  0.00000000000E+00  0.00000000000E+00  0.30526607534E+02  0.50096385230E+03  0.50003290646E+03 0.  0.
        2    1    3    3  502    0 -0.12290114321E+03  0.61803777149E+02 -0.19389277703E+03  0.23773684372E+03  0.25500000920E-02 0. -1.
       -2    1    3    3    0  502  0.12290114321E+03 -0.61803777149E+02  0.22441938456E+03  0.26322700858E+03  0.25500000920E-02 0.  1.
</event>
<event>
 5   0  0.5118882E-03  0.4999815E+03  0.7818609E-02  0.1013784E+00
       -2   -1    0    0    0  501  0.00000000000E+00  0.00000000000E+00  0.31086258491E+03  0.31086258492E+03  0.25500000920E-02 0. -1.
        2   -1    0    0  501    0  0.00000000000E+00  0.00000000000E+00 -0.20103860070E+03  0.20103860071E+03  0.25500000920E-02 0.  1.
    10030    2    1    2    0    0  0.00000000000E+00  0.00000000000E+00  0.10982398421E+03  0.51190118563E+03  0.49998151600E+03 0.  0.
        3    1    3    3  502    0  0.14518998666E+03 -0.20003212000E+03  0.16570746104E+02  0.24772480918E+03  0.10100000352E+00 0.  1.
       -3    1    3    3    0  502 -0.14518998666E+03  0.20003212000E+03  0.93253238105E+02  0.26417637645E+03  0.10100000352E+00 0. -1.
</event>
<event>
 5   0  0.3055293E-03  0.5000299E+03  0.7818609E-02  0.1013771E+00
       -1   -1    0    0    0  501  0.00000000000E+00  0.00000000000E+00  0.14499887085E+03  0.14499887094E+03  0.50400001928E-02 0. -1.
        1   -1    0    0  501    0  0.00000000000E+00  0.00000000000E+00 -0.43108938236E+03  0.43108938239E+03  0.50400001928E-02 0.  1.
    10030    2    1    2    0    0  0.00000000000E+00  0.00000000000E+00 -0.28609051151E+03  0.57608825333E+03  0.50002989396E+03 0.  0.
        3    1    3    3  502    0 -0.18841163174E+02  0.82500367710E+02 -0.41408739179E+03  0.42264604380E+03  0.10100000352E+00 0.  1.
       -3    1    3    3    0  502  0.18841163174E+02 -0.82500367710E+02  0.12799688028E+03  0.15344220953E+03  0.10100000352E+00 0. -1.
</event>
<event>
 5   0  0.3055293E-03  0.5001100E+03  0.7818609E-02  0.1013750E+00
        1   -1    0    0  501    0  0.00000000000E+00  0.00000000000E+00  0.26301850902E+03  0.26301850907E+03  0.50400001928E-02 0. -1.
       -1   -1    0    0    0  501  0.00000000000E+00  0.00000000000E+00 -0.23773039143E+03  0.23773039149E+03  0.50400001928E-02 0.  1.
    10030    2    1    2    0    0  0.00000000000E+00  0.00000000000E+00  0.25288117585E+02  0.50074890055E+03  0.50010996042E+03 0.  0.
        3    1    3    3  502    0 -0.41771325091E+02 -0.18532552894E+03 -0.15015852968E+03  0.24215282264E+03  0.10100000352E+00 0.  1.
       -3    1    3    3    0  502  0.41771325091E+02  0.18532552894E+03  0.17544664727E+03  0.25859607791E+03  0.10100000352E+00 0. -1.
</event>
<event>
 5   0  0.5095783E-03  0.4999225E+03  0.7818609E-02  0.1013799E+00
        2   -1    0    0  501    0  0.00000000000E+00  0.00000000000E+00  0.11227122376E+04  0.11227122376E+04  0.25500000920E-02 0. -1.
       -2   -1    0    0    0  501  0.00000000000E+00  0.00000000000E+00 -0.55651502666E+02  0.55651502725E+02  0.25500000920E-02 0.  1.
    10030    2    1    2    0    0  0.00000000000E+00  0.00000000000E+00  0.10670607349E+04  0.11783637403E+04  0.49992248647E+03 0.  0.
        4    1    3    3  502    0 -0.21519768113E+03  0.24722457679E+02  0.82753241078E+03  0.85541378623E+03  0.12699999809E+01 0. -1.
       -4    1    3    3    0  502  0.21519768113E+03 -0.24722457679E+02  0.23952832412E+03  0.32294995407E+03  0.12699999809E+01 0.  1.
</event>
<event>
 5   0  0.3057783E-03  0.5001398E+03  0.7818609E-02  0.1013742E+00
        1   -1    0    0  501    0  0.00000000000E+00  0.00000000000E+00  0.44011996574E+03  0.44011996577E+03  0.50400001928E-02 0. -1.
       -1   -1    0    0    0  501  0.00000000000E+00  0.00000000000E+00 -0.14208617594E+03  0.14208617602E+03  0.50400001928E-02 0.  1.
    10030    2    1    2    0    0  0.00000000000E+00  0.00000000000E+00  0.29803378981E+03  0.58220614180E+03  0.50013983213E+03 0.  0.
        5    1    3    3  502    0 -0.91997227746E+02 -0.56433828630E+02 -0.11352171473E+03  0.15670844470E+03  0.46999998093E+01 0.  1.
       -5    1    3    3    0  502  0.91997227746E+02  0.56433828630E+02  0.41155550453E+03  0.42549769710E+03  0.46999998093E+01 0. -1.
</event>
<event>
 5   0  0.3057783E-03  0.5000945E+03  0.7818609E-02  0.1013754E+00
        1   -1    0    0  501    0  0.00000000000E+00  0.00000000000E+00  0.20846214976E+03  0.20846214982E+03  0.50400001928E-02 0.  1.
       -1   -1    0    0    0  501  0.00000000000E+00  0.00000000000E+00 -0.29992794758E+03  0.29992794762E+03  0.50400001928E-02 0. -1.
    10030    2    1    2    0    0  0.00000000000E+00  0.00000000000E+00 -0.91465797822E+02  0.50839009744E+03  0.50009449007E+03 0.  0.
        5    1    3    3  502    0 -0.32360631375E+02 -0.10222059602E+03  0.18385688308E+03  0.21288894797E+03  0.46999998093E+01 0.  1.
       -5    1    3    3    0  502  0.32360631375E+02  0.10222059602E+03 -0.27532268091E+03  0.29550114946E+03  0.46999998093E+01 0. -1.
</event>
<event>
 5   0  0.3055293E-03  0.4998342E+03  0.7818609E-02  0.1013822E+00
        1   -1    0    0  501    0  0.00000000000E+00  0.00000000000E+00  0.68100712293E+03  0.68100712295E+03  0.50400001928E-02 0. -1.
       -1   -1    0    0    0  501  0.00000000000E+00  0.00000000000E+00 -0.91714984802E+02  0.91714984940E+02  0.50400001928E-02 0.  1.
    10030    2    1    2    0    0  0.00000000000E+00  0.00000000000E+00  0.58929213813E+03  0.77272210789E+03  0.49983420447E+03 0.  0.
        3    1    3    3  502    0  0.83235171776E+02  0.17887414212E+03  0.57481499435E+02  0.20549497687E+03  0.10100000352E+00 0. -1.
       -3    1    3    3    0  502 -0.83235171776E+02 -0.17887414212E+03  0.53181063869E+03  0.56722713102E+03  0.10100000352E+00 0.  1.
</event>
<event>
 5   0  0.3057783E-03  0.4997247E+03  0.7818609E-02  0.1013851E+00
        1   -1    0    0  501    0  0.00000000000E+00  0.00000000000E+00  0.56640816482E+03  0.56640816484E+03  0.50400001928E-02 0.  1.
       -1   -1    0    0    0  501  0.00000000000E+00  0.00000000000E+00 -0.11022297011E+03  0.11022297023E+03  0.50400001928E-02 0. -1.
    10030    2    1    2    0    0  0.00000000000E+00  0.00000000000E+00  0.45618519471E+03  0.67663113507E+03  0.49972468528E+03 0.  0.
        5    1    3    3  502    0 -0.20675525397E+03 -0.35461566182E+01  0.41788948231E+03  0.46627676298E+03  0.46999998093E+01 0.  1.
       -5    1    3    3    0  502  0.20675525397E+03  0.35461566182E+01  0.38295712395E+02  0.21035437209E+03  0.46999998093E+01 0. -1.
</event>
<event>
 5   0  0.2863538E-03  0.5001041E+03  0.7818609E-02  0.1013752E+00
       -1   -1    0    0    0  501  0.00000000000E+00  0.00000000000E+00  0.38470645612E+02  0.38470645942E+02  0.50400001928E-02 0. -1.
        1   -1    0    0  501    0  0.00000000000E+00  0.00000000000E+00 -0.16252917484E+04  0.16252917484E+04  0.50400001928E-02 0.  1.
    10030    2    1    2    0    0  0.00000000000E+00  0.00000000000E+00 -0.15868211028E+04  0.16637623944E+04  0.50010408177E+03 0.  0.
        1    1    3    3  502    0  0.13900730059E+03  0.17570911217E+03 -0.11628133144E+04  0.11842007963E+04  0.50400001928E-02 0.  1.
       -1    1    3    3    0  502 -0.13900730059E+03 -0.17570911217E+03 -0.42400778842E+03  0.47956159811E+03  0.50400001928E-02 0. -1.
</event>
<event>
 5   0  0.4978779E-03  0.5003663E+03  0.7818609E-02  0.1013683E+00
        2   -1    0    0  501    0  0.00000000000E+00  0.00000000000E+00  0.28484669278E+03  0.28484669279E+03  0.25500000920E-02 0.  1.
       -2   -1    0    0    0  501  0.00000000000E+00  0.00000000000E+00 -0.21973783813E+03  0.21973783815E+03  0.25500000920E-02 0. -1.
    10030    2    1    2    0    0  0.00000000000E+00  0.00000000000E+00  0.65108854649E+02  0.50458453094E+03  0.50036625177E+03 0.  0.
        1    1    3    3  502    0  0.61800736029E+02  0.20767551387E+03 -0.93572546918E+02  0.23601752392E+03  0.50400001928E-02 0. -1.
       -1    1    3    3    0  502 -0.61800736029E+02 -0.20767551387E+03  0.15868140157E+03  0.26856700702E+03  0.50400001928E-02 0.  1.
</event>
<event>
 5   0  0.3013734E-03  0.5002123E+03  0.7818609E-02  0.1013724E+00
       -1   -1    0    0    0  501  0.00000000000E+00  0.00000000000E+00  0.28678090123E+03  0.28678090128E+03  0.50400001928E-02 0. -1.
        1   -1    0    0  501    0  0.00000000000E+00  0.00000000000E+00 -0.21812153301E+03  0.21812153307E+03  0.50400001928E-02 0.  1.
    10030    2    1    2    0    0  0.00000000000E+00  0.00000000000E+00  0.68659368224E+02  0.50490243434E+03  0.50021231428E+03 0.  0.
        2    1    3    3  502    0 -0.46610609424E+02 -0.22202919148E+03 -0.71936013394E+02  0.23800063195E+03  0.25500000920E-02 0.  1.
       -2    1    3    3    0  502  0.46610609424E+02  0.22202919148E+03  0.14059538162E+03  0.26690180239E+03  0.25500000920E-02 0. -1.
</event>
<event>
 5   0  0.3055293E-03  0.4999858E+03  0.7818609E-02  0.1013783E+00
       -1   -1    0    0    0  501  0.00000000000E+00  0.00000000000E+00  0.38626209912E+02  0.38626210241E+02  0.50400001928E-02 0. -1.
        1   -1    0    0  501    0  0.00000000000E+00  0.00000000000E+00 -0.16179806771E+04  0.16179806771E+04  0.50400001928E-02 0.  1.
    10030    2    1    2    0    0  0.00000000000E+00  0.00000000000E+00 -0.15793544672E+04  0.16566068873E+04  0.49998584598E+03 0.  0.
        3    1    3    3  502    0 -0.11609406825E+03  0.15362982876E+03 -0.26145147295E+03  0.32471039386E+03  0.10100000352E+00 0. -1.
       -3    1    3    3    0  502  0.11609406825E+03 -0.15362982876E+03 -0.13179029942E+04  0.13318964935E+04  0.10100000352E+00 0.  1.
</event>
<event>
 5   0  0.2005125E-03  0.5000401E+03  0.7818609E-02  0.1013768E+00
       -3   -1    0    0    0  501  0.00000000000E+00  0.00000000000E+00  0.85976324372E+03  0.85976324966E+03  0.10100000352E+00 0.  1.
        3   -1    0    0  501    0  0.00000000000E+00  0.00000000000E+00 -0.72706041453E+02  0.72706111605E+02  0.10100000352E+00 0. -1.
    10030    2    1    2    0    0  0.00000000000E+00  0.00000000000E+00  0.78705720227E+03  0.93246936126E+03  0.50004006844E+03 0.  0.
        5    1    3    3  502    0 -0.14218358758E+03 -0.19797483404E+03  0.29007530800E+03  0.37891421430E+03  0.46999998093E+01 0. -1.
       -5    1    3    3    0  502  0.14218358758E+03  0.19797483404E+03  0.49698189428E+03  0.55355514696E+03  0.46999998093E+01 0.  1.
</event>
<event>
 5   0  0.3013734E-03  0.4999269E+03  0.7818609E-02  0.1013798E+00
       -1   -1    0    0    0  501  0.00000000000E+00  0.00000000000E+00  0.66346523799E+02  0.66346523990E+02  0.50400001928E-02 0. -1.
        1   -1    0    0  501    0  0.00000000000E+00  0.00000000000E+00 -0.94174840869E+03  0.94174840871E+03  0.50400001928E-02 0.  1.
    10030    2    1    2    0    0  0.00000000000E+00  0.00000000000E+00 -0.87540188489E+03  0.10080949327E+04  0.49992692791E+03 0.  0.
        2    1    3    3  502    0  0.14038658638E+03  0.13337597479E+03 -0.75643430914E+03  0.78082674669E+03  0.25500000920E-02 0.  1.
       -2    1    3    3    0  502 -0.14038658638E+03 -0.13337597479E+03 -0.11896757575E+03  0.22726818601E+03  0.25500000920E-02 0. -1.
</event>
<event>
 5   0  0.3055293E-03  0.5000123E+03  0.7818609E-02  0.1013776E+00
        1   -1    0    0  501    0  0.00000000000E+00  0.00000000000E+00  0.13896091965E+04  0.13896091965E+04  0.50400001928E-02 0.  1.
       -1   -1    0    0    0  501  0.00000000000E+00  0.00000000000E+00 -0.44978893928E+02  0.44978894210E+02  0.50400001928E-02 0. -1.
    10030    2    1    2    0    0  0.00000000000E+00  0.00000000000E+00  0.13446303026E+04  0.14345880907E+04  0.50001233929E+03 0.  0.
        3    1    3    3  502    0 -0.86914446628E+02  0.58376893398E+02  0.13236784836E+04  0.13278127582E+04  0.10100000352E+00 0.  1.
       -3    1    3    3    0  502  0.86914446628E+02 -0.58376893398E+02  0.20951818984E+02  0.10677533252E+03  0.10100000352E+00 0. -1.
</event>
<event>
 5   0  0.4889251E-03  0.4998831E+03  0.7818609E-02  0.1013809E+00
       -2   -1    0    0    0  501  0.00000000000E+00  0.00000000000E+00  0.45163827850E+03  0.45163827850E+03  0.25500000920E-02 0.  1.
        2   -1    0    0  501    0  0.00000000000E+00  0.00000000000E+00 -0.13832040698E+03  0.13832040700E+03  0.25500000920E-02 0. -1.
    10030    2    1    2    0    0  0.00000000000E+00  0.00000000000E+00  0.31331787152E+03  0.58995868551E+03  0.49988314834E+03 0.  0.
        5    1    3    3  502    0  0.61786846290E+02 -0.14317346412E+02  0.44192923040E+03  0.44648195424E+03  0.46999998093E+01 0.  1.
       -5    1    3    3    0  502 -0.61786846290E+02  0.14317346412E+02 -0.12861135888E+03  0.14347673127E+03  0.46999998093E+01 0. -1.
</event>
<event>
 5   0  0.4978779E-03  0.4990653E+03  0.7818609E-02  0.1014023E+00
        2   -1    0    0  501    0  0.00000000000E+00  0.00000000000E+00  0.60959987847E+03  0.60959987848E+03  0.25500000920E-02 0. -1.
       -2   -1    0    0    0  501  0.00000000000E+00  0.00000000000E+00 -0.10214328553E+03  0.10214328556E+03  0.25500000920E-02 0.  1.
    10030    2    1    2    0    0  0.00000000000E+00  0.00000000000E+00  0.50745659294E+03  0.71174316404E+03  0.49906526411E+03 0.  0.
        1    1    3    3  502    0 -0.55570234979E+02  0.46349150448E+02  0.59430784058E+03  0.59869700531E+03  0.50400001928E-02 0. -1.
       -1    1    3    3    0  502  0.55570234979E+02 -0.46349150448E+02 -0.86851247639E+02  0.11304615873E+03  0.50400001928E-02 0.  1.
</event>
<event>
 5   0  0.2863538E-03  0.5000732E+03  0.7818609E-02  0.1013760E+00
        1   -1    0    0  501    0  0.00000000000E+00  0.00000000000E+00  0.11362024050E+03  0.11362024061E+03  0.50400001928E-02 0. -1.
       -1   -1    0    0    0  501  0.00000000000E+00  0.00000000000E+00 -0.55023923003E+03  0.55023923005E+03  0.50400001928E-02 0.  1.
    10030    2    1    2    0    0  0.00000000000E+00  0.00000000000E+00 -0.43661898953E+03  0.66385947066E+03  0.50007324941E+03 0.  0.
        1    1    3    3  502    0 -0.10086449985E+03 -0.26381543212E+02 -0.52000729768E+03  0.53035575119E+03  0.50400001928E-02 0.  1.
       -1    1    3    3    0  502  0.10086449985E+03  0.26381543212E+02  0.83388308154E+02  0.13350371947E+03  0.50400001928E-02 0. -1.
</event>
<event>
 5   0  0.4989875E-03  0.5000730E+03  0.7818609E-02  0.1013760E+00
       -2   -1    0    0    0  501  0.00000000000E+00  0.00000000000E+00  0.48180616596E+02  0.48180616663E+02  0.25500000920E-02 0. -1.
        2   -1    0    0  501    0  0.00000000000E+00  0.00000000000E+00 -0.12975811005E+04  0.12975811005E+04  0.25500000920E-02 0.  1.
    10030    2    1    2    0    0  0.00000000000E+00  0.00000000000E+00 -0.12494004839E+04  0.13457617171E+04  0.50007302487E+03 0.  0.
        2    1    3    3  502    0 -0.57390488050E+02 -0.19262749296E+02  0.28161202638E+02  0.66766570749E+02  0.25500000920E-02 0. -1.
       -2    1    3    3    0  502  0.57390488050E+02  0.19262749296E+02 -0.12775616865E+04  0.12789951464E+04  0.25500000920E-02 0.  1.
</event>
<event>
 5   0  0.4889251E-03  0.4989883E+03  0.7818609E-02  0.1014043E+00
        2   -1    0    0  501    0  0.00000000000E+00  0.00000000000E+00  0.61695299605E+03  0.61695299606E+03  0.25500000920E-02 0. -1.
       -2   -1    0    0    0  501  0.00000000000E+00  0.00000000000E+00 -0.10089478331E+03  0.10089478334E+03  0.25500000920E-02 0.  1.
    10030    2    1    2    0    0  0.00000000000E+00  0.00000000000E+00  0.51605821274E+03  0.71784777940E+03  0.49898833197E+03 0.  0.
        5    1    3    3  502    0 -0.66392389088E+02 -0.17486227156E+03  0.49546665112E+03  0.52961689524E+03  0.46999998093E+01 0. -1.
       -5    1    3    3    0  502  0.66392389088E+02  0.17486227156E+03  0.20591561618E+02  0.18823088416E+03  0.46999998093E+01 0.  1.
</event>
<event>
 5   0  0.3013734E-03  0.5001328E+03  0.7818609E-02  0.1013744E+00
        1   -1    0    0  501    0  0.00000000000E+00  0.00000000000E+00  0.83905656208E+03  0.83905656209E+03  0.50400001928E-02 0.  1.
       -1   -1    0    0    0  501  0.00000000000E+00  0.00000000000E+00 -0.74527983638E+02  0.74527983808E+02  0.50400001928E-02 0. -1.
    10030    2    1    2    0    0  0.00000000000E+00  0.00000000000E+00  0.76452857844E+03  0.91358454590E+03  0.50013275763E+03 0.  0.
        2    1    3    3  502    0  0.94080129216E+02  0.19997686873E+03  0.16852371214E+03  0.27792455865E+03  0.25500000920E-02 0.  1.
       -2    1    3    3    0  502 -0.94080129216E+02 -0.19997686873E+03  0.59600486630E+03  0.63565998725E+03  0.25500000920E-02 0. -1.
</event>
<event>
 5   0  0.4989875E-03  0.4999878E+03  0.7818609E-02  0.1013782E+00
        2   -1    0    0  501    0  0.00000000000E+00  0.00000000000E+00  0.26846521621E+03  0.26846521623E+03  0.25500000920E-02 0. -1.
       -2   -1    0    0    0  501  0.00000000000E+00  0.00000000000E+00 -0.23279349661E+03  0.23279349662E+03  0.25500000920E-02 0.  1.
    10030    2    1    2    0    0  0.00000000000E+00  0.00000000000E+00  0.35671719607E+02  0.50125871284E+03  0.49998782548E+03 0.  0.
        2    1    3    3  502    0 -0.67594863306E+02 -0.24041576461E+03  0.64867063074E+01  0.24982170199E+03  0.25500000920E-02 0.  1.
       -2    1    3    3    0  502  0.67594863306E+02  0.24041576461E+03  0.29185013300E+02  0.25143701086E+03  0.25500000920E-02 0. -1.
</event>
<event>
 5   0  0.5118882E-03  0.5001291E+03  0.7818609E-02  0.1013745E+00
       -2   -1    0    0    0  501  0.00000000000E+00  0.00000000000E+00  0.55194098342E+02  0.55194098401E+02  0.25500000920E-02 0.  1.
        2   -1    0    0  501    0  0.00000000000E+00  0.00000000000E+00 -0.11329522057E+04  0.11329522057E+04  0.25500000920E-02 0. -1.
    10030    2    1    2    0    0  0.00000000000E+00  0.00000000000E+00 -0.10777581073E+04  0.11881463041E+04  0.50012908531E+03 0.  0.
        3    1    3    3  502    0  0.19546725887E+03  0.15396855078E+03 -0.47979665171E+03  0.54047997291E+03  0.10100000352E+00 0.  1.
       -3    1    3    3    0  502 -0.19546725887E+03 -0.15396855078E+03 -0.59796145561E+03  0.64766633116E+03  0.10100000352E+00 0. -1.
</event>
<event>
 5   0  0.3057783E-03  0.4999707E+03  0.7818609E-02  0.1013787E+00
        1   -1    0    0  501    0  0.00000000000E+00  0.00000000000E+00  0.30094258290E+03  0.30094258294E+03  0.50400001928E-02 0. -1.
       -1   -1    0    0    0  501  0.00000000000E+00  0.00000000000E+00 -0.20765644285E+03  0.20765644292E+03  0.50400001928E-02 0.  1.
    10030    2    1    2    0    0  0.00000000000E+00  0.00000000000E+00  0.93286140046E+02  0.50859902586E+03  0.49997066432E+03 0.  0.
        5    1    3    3  502    0 -0.44930636274E+02 -0.16751017763E+03 -0.13644115220E+03  0.22071859844E+03  0.46999998093E+01 0.  1.
       -5    1    3    3    0  502  0.44930636274E+02  0.16751017763E+03  0.22972729225E+03  0.28788042741E+03  0.46999998093E+01 0. -1.
</event>
<event>
 5   0  0.3055293E-03  0.5006702E+03  0.7818609E-02  0.1013604E+00
       -1   -1    0    0    0  501  0.00000000000E+00  0.00000000000E+00  0.50966240824E+03  0.50966240827E+03  0.50400001928E-02 0. -1.
        1   -1    0    0  501    0  0.00000000000E+00  0.00000000000E+00 -0.12295916244E+03  0.12295916254E+03  0.50400001928E-02 0.  1.
    10030    2    1    2    0    0  0.00000000000E+00  0.00000000000E+00  0.38670324580E+03  0.63262157081E+03  0.50067020236E+03 0.  0.
        3    1    3    3  502    0  0.23112228723E+02  0.95326715369E+01  0.50808098828E+03  0.50869573204E+03  0.10100000352E+00 0. -1.
       -3    1    3    3    0  502 -0.23112228723E+02 -0.95326715369E+01 -0.12137774248E+03  0.12392583876E+03  0.10100000352E+00 0.  1.
</event>
<event>
 5   0  0.4978779E-03  0.5000037E+03  0.7818609E-02  0.1013778E+00
       -2   -1    0    0    0  501  0.00000000000E+00  0.00000000000E+00  0.13012345228E+03  0.13012345230E+03  0.25500000920E-02 0. -1.
        2   -1    0    0  501    0  0.00000000000E+00  0.00000000000E+00 -0.48032012950E+03  0.48032012951E+03  0.25500000920E-02 0.  1.
    10030    2    1    2    0    0  0.00000000000E+00  0.00000000000E+00 -0.35019667723E+03  0.61044358181E+03  0.50000365382E+03 0.  0.
        1    1    3    3  502    0 -0.52430534723E+02 -0.24390771827E+03 -0.19482137735E+03  0.31653641987E+03  0.50400001928E-02 0. -1.
       -1    1    3    3    0  502  0.52430534723E+02  0.24390771827E+03 -0.15537529987E+03  0.29390716194E+03  0.50400001928E-02 0.  1.
</event>
<event>
 5   0  0.3211775E-03  0.5000909E+03  0.7818609E-02  0.1013755E+00
       -1   -1    0    0    0  501  0.00000000000E+00  0.00000000000E+00  0.23662498751E+03  0.23662498756E+03  0.50400001928E-02 0.  1.
        1   -1    0    0  501    0  0.00000000000E+00  0.00000000000E+00 -0.26422711545E+03  0.26422711550E+03  0.50400001928E-02 0. -1.
    10030    2    1    2    0    0  0.00000000000E+00  0.00000000000E+00 -0.27602127941E+02  0.50085210306E+03  0.50009094340E+03 0.  0.
        4    1    3    3  502    0 -0.72523519239E+02  0.64800273441E+02 -0.24450441913E+03  0.26314019107E+03  0.12699999809E+01 0. -1.
       -4    1    3    3    0  502  0.72523519239E+02 -0.64800273441E+02  0.21690229119E+03  0.23771191199E+03  0.12699999809E+01 0.  1.
</event>
<event>
 5   0  0.3013734E-03  0.4995429E+03  0.7818609E-02  0.1013898E+00
       -1   -1    0    0    0  501  0.00000000000E+00  0.00000000000E+00  0.11994783094E+03  0.11994783105E+03  0.50400001928E-02 0. -1.
        1   -1    0    0  501    0  0.00000000000E+00  0.00000000000E+00 -0.52010757548E+03  0.52010757551E+03  0.50400001928E-02 0.  1.
    10030    2    1    2    0    0  0.00000000000E+00  0.00000000000E+00 -0.40015974454E+03  0.64005540655E+03  0.49954289336E+03 0.  0.
        2    1    3    3  502    0 -0.86764044076E+02  0.35499067093E+02  0.96551736085E+02  0.13457496371E+03  0.25500000920E-02 0. -1.
       -2    1    3    3    0  502  0.86764044076E+02 -0.35499067093E+02 -0.49671148063E+03  0.50548044285E+03  0.25500000920E-02 0.  1.
</event>
<event>
 5   0  0.5095783E-03  0.4997156E+03  0.7818609E-02  0.1013853E+00
        2   -1    0    0  501    0  0.00000000000E+00  0.00000000000E+00  0.10110957118E+04  0.10110957119E+04  0.25500000920E-02 0. -1.
       -2   -1    0    0    0  501  0.00000000000E+00  0.00000000000E+00 -0.61743826578E+02  0.61743826631E+02  0.25500000920E-02 0.  1.
    10030    2    1    2    0    0  0.00000000000E+00  0.00000000000E+00  0.94935188527E+03  0.10728395385E+04  0.49971559238E+03 0.  0.
        4    1    3    3  502    0  0.15141683425E+03 -0.19839321264E+03  0.50011294220E+03  0.55892887953E+03  0.12699999809E+01 0.  1.
       -4    1    3    3    0  502 -0.15141683425E+03  0.19839321264E+03  0.44923894307E+03  0.51391065896E+03  0.12699999809E+01 0. -1.
</event>
<event>
 5   0  0.4989875E-03  0.5000256E+03  0.7818609E-02  0.1013772E+00
        2   -1    0    0  501    0  0.00000000000E+00  0.00000000000E+00  0.95739746597E+03  0.95739746597E+03  0.25500000920E-02 0.  1.
       -2   -1    0    0    0  501  0.00000000000E+00  0.00000000000E+00 -0.65287816485E+02  0.65287816535E+02  0.25500000920E-02 0. -1.
    10030    2    1    2    0    0  0.00000000000E+00  0.00000000000E+00  0.89210964949E+03  0.10226852825E+04  0.50002555970E+03 0.  0.
        2    1    3    3  502    0 -0.11951236885E+03 -0.13233130390E+03  0.87627515524E+02  0.19867904214E+03  0.25500000920E-02 0. -1.
       -2    1    3    3    0  502  0.11951236885E+03  0.13233130390E+03  0.80448213396E+03  0.82400624037E+03  0.25500000920E-02 0.  1.
</event>
<event>
 5   0  0.4889251E-03  0.5000208E+03  0.7818609E-02  0.1013773E+00
       -2   -1    0    0    0  501  0.00000000000E+00  0.00000000000E+00  0.10423979382E+03  0.10423979385E+03  0.25500000920E-02 0. -1.
        2   -1    0    0  501    0  0.00000000000E+00  0.00000000000E+00 -0.59962894589E+03  0.59962894590E+03  0.25500000920E-02 0.  1.
    10030    2    1    2    0    0  0.00000000000E+00  0.00000000000E+00 -0.49538915207E+03  0.70386873975E+03  0.50002079038E+03 0.  0.
        5    1    3    3  502    0 -0.16042828421E+03 -0.18539712996E+03 -0.17911044776E+03  0.30366424331E+03  0.46999998093E+01 0. -1.
       -5    1    3    3    0  502  0.16042828421E+03  0.18539712996E+03 -0.31627870431E+03  0.40020449644E+03  0.46999998093E+01 0.  1.
</event>
<event>
 5   0  0.2005125E-03  0.4998887E+03  0.7818609E-02  0.1013808E+00
        4   -1    0    0  501    0  0.00000000000E+00  0.00000000000E+00  0.38979128026E+03  0.38979334919E+03  0.12699999809E+01 0. -1.
       -4   -1    0    0    0  501  0.00000000000E+00  0.00000000000E+00 -0.16026585726E+03  0.16027088914E+03  0.12699999809E+01 0.  1.
    10030    2    1    2    0    0  0.00000000000E+00  0.00000000000E+00  0.22952542300E+03  0.55006423832E+03  0.49988873410E+03 0.  0.
        4    1    3    3  502    0 -0.58821208014E+02  0.13851295756E+02  0.38163167612E+03  0.38638858941E+03  0.12699999809E+01 0. -1.
       -4    1    3    3    0  502  0.58821208014E+02 -0.13851295756E+02 -0.15210625312E+03  0.16367564891E+03  0.12699999809E+01 0.  1.
</event>
<event>
 5   0  0.5095783E-03  0.4999612E+03  0.7818609E-02  0.1013789E+00
       -2   -1    0    0    0  501  0.00000000000E+00  0.00000000000E+00  0.13593510083E+03  0.13593510085E+03  0.25500000920E-02 0. -1.
        2   -1    0    0  501    0  0.00000000000E+00  0.00000000000E+00 -0.45970691867E+03  0.45970691868E+03  0.25500000920E-02 0.  1.
    10030    2    1    2    0    0  0.00000000000E+00  0.00000000000E+00 -0.32377181784E+03  0.59564201953E+03  0.49996122390E+03 0.  0.
        4    1    3    3  502    0 -0.11620306857E+03 -0.20407481592E+03 -0.59823047706E+02  0.24234292557E+03  0.12699999809E+01 0. -1.
       -4    1    3    3    0  502  0.11620306857E+03  0.20407481592E+03 -0.26394877014E+03  0.35329909396E+03  0.12699999809E+01 0.  1.
</event>
<event>
 5   0  0.5118882E-03  0.4999048E+03  0.7818609E-02  0.1013804E+00
        2   -1    0    0  501    0  0.00000000000E+00  0.00000000000E+00  0.20024560917E+03  0.20024560919E+03  0.25500000920E-02 0. -1.
       -2   -1    0    0    0  501  0.00000000000E+00  0.00000000000E+00 -0.31199786817E+03  0.31199786818E+03  0.25500000920E-02 0.  1.
    10030    2    1    2    0    0  0.00000000000E+00  0.00000000000E+00 -0.11175225900E+03  0.51224347736E+03  0.49990480365E+03 0.  0.
        3    1    3    3  502    0  0.31252544933E+02  0.18462255315E+03 -0.22553446692E+03  0.29313480630E+03  0.10100000352E+00 0.  1.
       -3    1    3    3    0  502 -0.31252544933E+02 -0.18462255315E+03  0.11378220792E+03  0.21910867106E+03  0.10100000352E+00 0. -1.
</event>
<event>
 5   0  0.3055293E-03  0.5000485E+03  0.7818609E-02  0.1013766E+00
        1   -1    0    0  501    0  0.00000000000E+00  0.00000000000E+00  0.18051598169E+04  0.18051598169E+04  0.50400001928E-02 0. -1.
       -1   -1    0    0    0  501  0.00000000000E+00  0.00000000000E+00 -0.34629687905E+02  0.34629688272E+02  0.50400001928E-02 0.  1.
    10030    2    1    2    0    0  0.00000000000E+00  0.00000000000E+00  0.17705301290E+04  0.18397895052E+04  0.50004848334E+03 0.  0.
        3    1    3    3  502    0 -0.17194086383E+03 -0.99973022280E+02  0.32784352205E+03  0.38345749568E+03  0.10100000352E+00 0.  1.
       -3    1    3    3    0  502  0.17194086383E+03  0.99973022280E+02  0.14426866069E+04  0.14563320095E+04  0.10100000352E+00 0. -1.
</event>
<event>
 5   0  0.5118882E-03  0.4999917E+03  0.7818609E-02  0.1013781E+00
       -2   -1    0    0    0  501  0.00000000000E+00  0.00000000000E+00  0.17936075833E+03  0.17936075835E+03  0.25500000920E-02 0.  1.
        2   -1    0    0  501    0  0.00000000000E+00  0.00000000000E+00 -0.34844812907E+03  0.34844812908E+03  0.25500000920E-02 0. -1.
    10030    2    1    2    0    0  0.00000000000E+00  0.00000000000E+00 -0.16908737074E+03  0.52780888743E+03  0.49999168263E+03 0.  0.
        3    1    3    3  502    0  0.15215665162E+03  0.57678482332E+02 -0.28489052529E+03  0.32808699388E+03  0.10100000352E+00 0. -1.
       -3    1    3    3    0  502 -0.15215665162E+03 -0.57678482332E+02  0.11580315454E+03  0.19972189354E+03  0.10100000352E+00 0.  1.
</event>
<event>
 5   0  0.3013734E-03  0.5000222E+03  0.7818609E-02  0.1013773E+00
        1   -1    0    0  501    0  0.00000000000E+00  0.00000000000E+00  0.78137294144E+03  0.78137294145E+03  0.50400001928E-02 0.  1.
       -1   -1    0    0    0  501  0.00000000000E+00  0.00000000000E+00 -0.79994528483E+02  0.79994528641E+02  0.50400001928E-02 0. -1.
    10030    2    1    2    0    0  0.00000000000E+00  0.00000000000E+00  0.70137841295E+03  0.86136747009E+03  0.50002223988E+03 0.  0.
        2    1    3    3  502    0 -0.23209332137E+03  0.31301523018E+02  0.19993480219E+03  0.30793021986E+03  0.25500000920E-02 0. -1.
       -2    1    3    3    0  502  0.23209332137E+03 -0.31301523018E+02  0.50144361076E+03  0.55343725024E+03  0.25500000920E-02 0.  1.
</event>
<event>
 5   0  0.2863538E-03  0.4999588E+03  0.7818609E-02  0.1013790E+00
        1   -1    0    0  501    0  0.00000000000E+00  0.00000000000E+00  0.11471200603E+03  0.11471200614E+03  0.50400001928E-02 0.  1.
       -1   -1    0    0    0  501  0.00000000000E+00  0.00000000000E+00 -0.54475281893E+03  0.54475281895E+03  0.50400001928E-02 0. -1.
    10030    2    1    2    0    0  0.00000000000E+00  0.00000000000E+00 -0.43004081290E+03  0.65946482510E+03  0.49995875308E+03 0.  0.
        1    1    3    3  502    0 -0.19715414962E+03 -0.29724365144E+02 -0.41391282758E+03  0.45943130657E+03  0.50400001928E-02 0. -1.
       -1    1    3    3    0  502  0.19715414962E+03  0.29724365144E+02 -0.16127985314E+02  0.20003351852E+03  0.50400001928E-02 0.  1.
</event>
<event>
 5   0  0.5095783E-03  0.5000149E+03  0.7818609E-02  0.1013775E+00
       -2   -1    0    0    0  501  0.00000000000E+00  0.00000000000E+00  0.94187145985E+02  0.94187146020E+02  0.25500000920E-02 0. -1.
        2   -1    0    0  501    0  0.00000000000E+00  0.00000000000E+00 -0.66361217963E+03  0.66361217964E+03  0.25500000920E-02 0.  1.
    10030    2    1    2    0    0  0.00000000000E+00  0.00000000000E+00 -0.56942503365E+03  0.75779932566E+03  0.50001494880E+03 0.  0.
        4    1    3    3  502    0 -0.18974253240E+03 -0.33060236341E+02 -0.52628485694E+03  0.56042177989E+03  0.12699999809E+01 0.  1.
       -4    1    3    3    0  502  0.18974253240E+03  0.33060236341E+02 -0.43140176706E+02  0.19737754577E+03  0.12699999809E+01 0. -1.
</event>
<event>
 5   0  0.5095783E-03  0.4999660E+03  0.7818609E-02  0.1013788E+00
        2   -1    0    0  501    0  0.00000000000E+00  0.00000000000E+00  0.86554568299E+03  0.86554568299E+03  0.25500000920E-02 0.  1.
       -2   -1    0    0    0  501  0.00000000000E+00  0.00000000000E+00 -0.72198963723E+02  0.72198963768E+02  0.25500000920E-02 0. -1.
    10030    2    1    2    0    0  0.00000000000E+00  0.00000000000E+00  0.79334671927E+03  0.93774464676E+03  0.49996600440E+03 0.  0.
        4    1    3    3  502    0 -0.22675049283E+03 -0.15780256411E+01  0.59402900492E+03  0.63583830315E+03  0.12699999809E+01 0.  1.
       -4    1    3    3    0  502  0.22675049283E+03  0.15780256411E+01  0.19931771434E+03  0.30190634361E+03  0.12699999809E+01 0. -1.
</event>
<event>
 5   0  0.5095783E-03  0.4990878E+03  0.7818609E-02  0.1014017E+00
       -2   -1    0    0    0  501  0.00000000000E+00  0.00000000000E+00  0.76379153143E+02  0.76379153186E+02  0.25500000920E-02 0.  1.
        2   -1    0    0  501    0  0.00000000000E+00  0.00000000000E+00 -0.81530318392E+03  0.81530318393E+03  0.25500000920E-02 0. -1.
    10030    2    1    2    0    0  0.00000000000E+00  0.00000000000E+00 -0.73892403078E+03  0.89168233711E+03  0.49908783501E+03 0.  0.
        4    1    3    3  502    0 -0.24334613397E+03 -0.30539840037E+02 -0.45173466883E+03  0.51401930574E+03  0.12699999809E+01 0. -1.
       -4    1    3    3    0  502  0.24334613397E+03  0.30539840037E+02 -0.28718936195E+03  0.37766303137E+03  0.12699999809E+01 0.  1.
</event>
<event>
 5   0  0.2005125E-03  0.4997856E+03  0.7818609E-02  0.1013835E+00
        3   -1    0    0  501    0  0.00000000000E+00  0.00000000000E+00  0.33815198417E+03  0.33815199925E+03  0.10100000352E+00 0. -1.
       -3   -1    0    0    0  501  0.00000000000E+00  0.00000000000E+00 -0.18466960067E+03  0.18466962828E+03  0.10100000352E+00 0.  1.
    10030    2    1    2    0    0  0.00000000000E+00  0.00000000000E+00  0.15348238350E+03  0.52282162754E+03  0.49978556619E+03 0.  0.
        2    1    3    3  502    0  0.20806823403E+03  0.13814382089E+03  0.85512020396E+02  0.26398562631E+03  0.25500000920E-02 0.  1.
       -2    1    3    3    0  502 -0.20806823403E+03 -0.13814382089E+03  0.67970363107E+02  0.25883600122E+03  0.25500000920E-02 0. -1.
</event>
<event>
 5   0  0.2863538E-03  0.4998946E+03  0.7818609E-02  0.1013806E+00
       -1   -1    0    0    0  501  0.00000000000E+00  0.00000000000E+00  0.27610435765E+03  0.27610435770E+03  0.50400001928E-02 0. -1.
        1   -1    0    0  501    0  0.00000000000E+00  0.00000000000E+00 -0.22626823048E+03  0.22626823054E+03  0.50400001928E-02 0.  1.
    10030    2    1    2    0    0  0.00000000000E+00  0.00000000000E+00  0.49836127166E+02  0.50237258824E+03  0.49989456673E+03 0.  0.
        1    1    3    3  502    0 -0.24624902522E+03 -0.32779138332E+02  0.52633572202E+02  0.25393571486E+03  0.50400001928E-02 0. -1.
       -1    1    3    3    0  502  0.24624902522E+03  0.32779138332E+02 -0.27974450363E+01  0.24843687338E+03  0.50400001928E-02 0.  1.
</event>
<event>
 5   0  0.2005125E-03  0.4999762E+03  0.7818609E-02  0.1013785E+00
       -3   -1    0    0    0  501  0.00000000000E+00  0.00000000000E+00  0.69014338952E+02  0.69014412857E+02  0.10100000352E+00 0. -1.
        3   -1    0    0  501    0  0.00000000000E+00  0.00000000000E+00 -0.90552206435E+03  0.90552206998E+03  0.10100000352E+00 0.  1.
    10030    2    1    2    0    0  0.00000000000E+00  0.00000000000E+00 -0.83650772540E+03  0.97453648284E+03  0.49997618117E+03 0.  0.
        2    1    3    3  502    0  0.75998972642E+02  0.12567518740E+03 -0.81256364693E+03  0.82572984498E+03  0.25500000920E-02 0.  1.
       -2    1    3    3    0  502 -0.75998972642E+02 -0.12567518740E+03 -0.23944078466E+02  0.14880663786E+03  0.25500000920E-02 0. -1.
</event>
<event>
 5   0  0.5118882E-03  0.4997625E+03  0.7818609E-02  0.1013841E+00
       -2   -1    0    0    0  501  0.00000000000E+00  0.00000000000E+00  0.14649055215E+03  0.14649055217E+03  0.25500000920E-02 0. -1.
        2   -1    0    0  501    0  0.00000000000E+00  0.00000000000E+00 -0.42624352565E+03  0.42624352566E+03  0.25500000920E-02 0.  1.
    10030    2    1    2    0    0  0.00000000000E+00  0.00000000000E+00 -0.27975297350E+03  0.57273407783E+03  0.49976254134E+03 0.  0.
        3    1    3    3  502    0 -0.23052155419E+03  0.17996790573E+02 -0.24845514764E+03  0.33940247790E+03  0.10100000352E+00 0.  1.
       -3    1    3    3    0  502  0.23052155419E+03 -0.17996790573E+02 -0.31297825860E+02  0.23333159992E+03  0.10100000352E+00 0. -1.
</event>
<event>
 5   0  0.2005125E-03  0.4995790E+03  0.7818609E-02  0.1013889E+00
        3   -1    0    0  501    0  0.00000000000E+00  0.00000000000E+00  0.24269325634E+03  0.24269327736E+03  0.10100000352E+00 0.  1.
       -3   -1    0    0    0  501  0.00000000000E+00  0.00000000000E+00 -0.25709314969E+03  0.25709316952E+03  0.10100000352E+00 0. -1.
    10030    2    1    2    0    0  0.00000000000E+00  0.00000000000E+00 -0.14399893342E+02  0.49978644688E+03  0.49957895829E+03 0.  0.
        4    1    3    3  502    0  0.74555614203E+02  0.13949511822E+03 -0.20060831290E+03  0.25546572318E+03  0.12699999809E+01 0. -1.
       -4    1    3    3    0  502 -0.74555614203E+02 -0.13949511822E+03  0.18620841956E+03  0.24432072370E+03  0.12699999809E+01 0.  1.
</event>
<event>
 5   0  0.4978779E-03  0.4993297E+03  0.7818609E-02  0.1013954E+00
       -2   -1    0    0    0  501  0.00000000000E+00  0.00000000000E+00  0.91280426208E+02  0.91280426243E+02  0.25500000920E-02 0. -1.
        2   -1    0    0  501    0  0.00000000000E+00  0.00000000000E+00 -0.68286864587E+03  0.68286864587E+03  0.25500000920E-02 0.  1.
    10030    2    1    2    0    0  0.00000000000E+00  0.00000000000E+00 -0.59158821966E+03  0.77414907211E+03  0.49932971493E+03 0.  0.
        1    1    3    3  502    0 -0.15180104008E+03 -0.17726540372E+03 -0.43329740483E+03  0.49215162317E+03  0.50400001928E-02 0.  1.
       -1    1    3    3    0  502  0.15180104008E+03  0.17726540372E+03 -0.15829081483E+03  0.28199744895E+03  0.50400001928E-02 0. -1.
</event>
<event>
 5   0  0.2005125E-03  0.4998837E+03  0.7818609E-02  0.1013809E+00
       -4   -1    0    0    0  501  0.00000000000E+00  0.00000000000E+00  0.44946365521E+03  0.44946544946E+03  0.12699999809E+01 0. -1.
        4   -1    0    0  501    0  0.00000000000E+00  0.00000000000E+00 -0.13898496342E+03  0.13899076572E+03  0.12699999809E+01 0.  1.
    10030    2    1    2    0    0  0.00000000000E+00  0.00000000000E+00  0.31047869179E+03  0.58845621518E+03  0.49988368560E+03 0.  0.
        1    1    3    3  502    0 -0.16301974455E+03  0.15890476145E+03  0.27669373628E+03  0.35830934127E+03  0.50400001928E-02 0. -1.
       -1    1    3    3    0  502  0.16301974455E+03 -0.15890476145E+03  0.33784955519E+02  0.23014687391E+03  0.50400001928E-02 0.  1.
</event>
<event>
 5   0  0.2863538E-03  0.4999707E+03  0.7818609E-02  0.1013787E+00
       -1   -1    0    0    0  501  0.00000000000E+00  0.00000000000E+00  0.19801090963E+03  0.19801090969E+03  0.50400001928E-02 0. -1.
        1   -1    0    0  501    0  0.00000000000E+00  0.00000000000E+00 -0.31560224486E+03  0.31560224490E+03  0.50400001928E-02 0.  1.
    10030    2    1    2    0    0  0.00000000000E+00  0.00000000000E+00 -0.11759133523E+03  0.51361315459E+03  0.49997074959E+03 0.  0.
        1    1    3    3  502    0 -0.31773615924E+02  0.12592964466E+03 -0.27822377831E+03  0.30704447384E+03  0.50400001928E-02 0.  1.
       -1    1    3    3    0  502  0.31773615924E+02 -0.12592964466E+03  0.16063244307E+03  0.20656868075E+03  0.50400001928E-02 0. -1.
</event>
<event>
 5   0  0.2005125E-03  0.5000837E+03  0.7818609E-02  0.1013757E+00
        4   -1    0    0  501    0  0.00000000000E+00  0.00000000000E+00  0.51855150872E+03  0.51855306391E+03  0.12699999809E+01 0. -1.
       -4   -1    0    0    0  501  0.00000000000E+00  0.00000000000E+00 -0.12056330707E+03  0.12056999591E+03  0.12699999809E+01 0.  1.
    10030    2    1    2    0    0  0.00000000000E+00  0.00000000000E+00  0.39798820164E+03  0.63912305982E+03  0.50008366994E+03 0.  0.
        5    1    3    3  502    0  0.16669185787E+03 -0.13444273090E+03  0.34143763336E+02  0.21690760693E+03  0.46999998093E+01 0.  1.
       -5    1    3    3    0  502 -0.16669185787E+03  0.13444273090E+03  0.36384443831E+03  0.42221545289E+03  0.46999998093E+01 0. -1.
</event>
<event>
 5   0  0.5118882E-03  0.5000856E+03  0.7818609E-02  0.1013757E+00
        2   -1    0    0  501    0  0.00000000000E+00  0.00000000000E+00  0.18056016703E+04  0.18056016703E+04  0.25500000920E-02 0.  1.
       -2   -1    0    0    0  501  0.00000000000E+00  0.00000000000E+00 -0.34626351665E+02  0.34626351759E+02  0.25500000920E-02 0. -1.
    10030    2    1    2    0    0  0.00000000000E+00  0.00000000000E+00  0.17709753186E+04  0.18402280221E+04  0.50008558664E+03 0.  0.
        3    1    3    3  502    0 -0.15164152058E+03 -0.83578972975E+02  0.22168136393E+03  0.28128852235E+03  0.10100000352E+00 0. -1.
       -3    1    3    3    0  502  0.15164152058E+03  0.83578972975E+02  0.15492939547E+04  0.15589394997E+04  0.10100000352E+00 0.  1.
</event>
<event>
 5   0  0.3013734E-03  0.4997969E+03  0.7818609E-02  0.1013832E+00
       -1   -1    0    0    0  501  0.00000000000E+00  0.00000000000E+00  0.61292817368E+03  0.61292817370E+03  0.50400001928E-02 0. -1.
        1   -1    0    0  501    0  0.00000000000E+00  0.00000000000E+00 -0.10188669621E+03  0.10188669634E+03  0.50400001928E-02 0.  1.
    10030    2    1    2    0    0  0.00000000000E+00  0.00000000000E+00  0.51104147747E+03  0.71481487004E+03  0.49979686547E+03 0.  0.
        2    1    3    3  502    0  0.52868576667E+02  0.11527898963E+03 -0.52439529917E+02  0.13723788163E+03  0.25500000920E-02 0.  1.
       -2    1    3    3    0  502 -0.52868576667E+02 -0.11527898963E+03  0.56348100739E+03  0.57757698841E+03  0.25500000920E-02 0. -1.
</event>
<event>
 5   0  0.5095783E-03  0.4999872E+03  0.7818609E-02  0.1013782E+00
        2   -1    0    0  501    0  0.00000000000E+00  0.00000000000E+00  0.67467103917E+03  0.67467103917E+03  0.25500000920E-02 0.  1.
       -2   -1    0    0    0  501  0.00000000000E+00  0.00000000000E+00 -0.92632990401E+02  0.92632990436E+02  0.25500000920E-02 0. -1.
    10030    2    1    2    0    0  0.00000000000E+00  0.00000000000E+00  0.58203804877E+03  0.76730402961E+03  0.49998718348E+03 0.  0.
        4    1    3    3  502    0  0.22601381658E+03 -0.89240089362E+02  0.20089008068E+03  0.31528475424E+03  0.12699999809E+01 0. -1.
       -4    1    3    3    0  502 -0.22601381658E+03  0.89240089362E+02  0.38114796808E+03  0.45201927537E+03  0.12699999809E+01 0.  1.
</event>
<event>
 5   0  0.3055293E-03  0.4999803E+03  0.7818609E-02  0.1013784E+00
       -1   -1    0    0    0  501  0.00000000000E+00  0.00000000000E+00  0.41192283389E+02  0.41192283697E+02  0.50400001928E-02 0. -1.
        1   -1    0    0  501    0  0.00000000000E+00  0.00000000000E+00 -0.15171547733E+04  0.15171547733E+04  0.50400001928E-02 0.  1.
    10030    2    1    2    0    0  0.00000000000E+00  0.00000000000E+00 -0.14759624899E+04  0.15583470570E+04  0.49998027807E+03 0.  0.
        3    1    3    3  502    0 -0.40700836022E+02 -0.64579494878E+02 -0.14799407733E+04  0.14819081523E+04  0.10100000352E+00 0.  1.
       -3    1    3    3    0  502  0.40700836022E+02  0.64579494878E+02  0.39782833854E+01  0.76438904697E+02  0.10100000352E+00 0. -1.
</event>
<event>
 5   0  0.2863538E-03  0.5001026E+03  0.7818609E-02  0.1013752E+00
        1   -1    0    0  501    0  0.00000000000E+00  0.00000000000E+00  0.12374328352E+04  0.12374328352E+04  0.50400001928E-02 0.  1.
       -1   -1    0    0    0  501  0.00000000000E+00  0.00000000000E+00 -0.50528527542E+02  0.50528527794E+02  0.50400001928E-02 0. -1.
    10030    2    1    2    0    0  0.00000000000E+00  0.00000000000E+00  0.11869043077E+04  0.12879613630E+04  0.50010262652E+03 0.  0.
        1    1    3    3  502    0  0.22775345189E+03  0.62198004982E+02  0.38130731576E+03  0.44848132152E+03  0.50400001928E-02 0. -1.
       -1    1    3    3    0  502 -0.22775345189E+03 -0.62198004982E+02  0.80559699189E+03  0.83948004148E+03  0.50400001928E-02 0.  1.
</event>
<event>
 5   0  0.5095783E-03  0.5000557E+03  0.7818609E-02  0.1013764E+00
       -2   -1    0    0    0  501  0.00000000000E+00  0.00000000000E+00  0.50863969237E+02  0.50863969301E+02  0.25500000920E-02 0. -1.
        2   -1    0    0  501    0  0.00000000000E+00  0.00000000000E+00 -0.12290415081E+04  0.12290415081E+04  0.25500000920E-02 0.  1.
    10030    2    1    2    0    0  0.00000000000E+00  0.00000000000E+00 -0.11781775389E+04  0.12799054774E+04  0.50005571490E+03 0.  0.
        4    1    3    3  502    0 -0.15355938247E+03  0.19625154662E+03 -0.53681155368E+03  0.59183055899E+03  0.12699999809E+01 0. -1.
       -4    1    3    3    0  502  0.15355938247E+03 -0.19625154662E+03 -0.64136598517E+03  0.68807491840E+03  0.12699999809E+01 0.  1.
</event>
<event>
 5   0  0.4889251E-03  0.4998915E+03  0.7818609E-02  0.1013807E+00
       -2   -1    0    0    0  501  0.00000000000E+00  0.00000000000E+00  0.70462750316E+02  0.70462750362E+02  0.25500000920E-02 0.  1.
        2   -1    0    0  501    0  0.00000000000E+00  0.00000000000E+00 -0.88660858146E+03  0.88660858146E+03  0.25500000920E-02 0. -1.
    10030    2    1    2    0    0  0.00000000000E+00  0.00000000000E+00 -0.81614583114E+03  0.95707133182E+03  0.49989150474E+03 0.  0.
        5    1    3    3  502    0 -0.93798497686E+01 -0.10952060496E+01  0.70036398133E+02  0.70826323635E+02  0.46999998093E+01 0.  1.
       -5    1    3    3    0  502  0.93798497686E+01  0.10952060496E+01 -0.88618222928E+03  0.88624500819E+03  0.46999998093E+01 0. -1.
</event>
<event>
 5   0  0.2005125E-03  0.5010466E+03  0.7818609E-02  0.1013506E+00
       -4   -1    0    0    0  501  0.00000000000E+00  0.00000000000E+00  0.23039100088E+03  0.23039450121E+03  0.12699999809E+01 0. -1.
        4   -1    0    0  501    0  0.00000000000E+00  0.00000000000E+00 -0.27240779920E+03  0.27241075964E+03  0.12699999809E+01 0.  1.
    10030    2    1    2    0    0  0.00000000000E+00  0.00000000000E+00 -0.42016798323E+02  0.50280526085E+03  0.50104662357E+03 0.  0.
        5    1    3    3  502    0  0.12187893624E+03  0.58198412451E+02  0.19067823082E+03  0.23371308910E+03  0.46999998093E+01 0. -1.
       -5    1    3    3    0  502 -0.12187893624E+03 -0.58198412451E+02 -0.23269502914E+03  0.26909217175E+03  0.46999998093E+01 0.  1.
</event>
<event>
 5   0  0.3013734E-03  0.4999408E+03  0.7818609E-02  0.1013794E+00
        1   -1    0    0  501    0  0.00000000000E+00  0.00000000000E+00  0.18663706808E+03  0.18663706815E+03  0.50400001928E-02 0.  1.
       -1   -1    0    0    0  501  0.00000000000E+00  0.00000000000E+00 -0.33479521956E+03  0.33479521960E+03  0.50400001928E-02 0. -1.
    10030    2    1    2    0    0  0.00000000000E+00  0.00000000000E+00 -0.14815815148E+03  0.52143228775E+03  0.49994078935E+03 0.  0.
        2    1    3    3  502    0  0.10399068158E+03  0.14819053843E+03 -0.25385676547E+03  0.31179761852E+03  0.25500000920E-02 0. -1.
       -2    1    3    3    0  502 -0.10399068158E+03 -0.14819053843E+03  0.10569861399E+03  0.20963466923E+03  0.25500000920E-02 0.  1.
</event>
<event>
 5   0  0.2863538E-03  0.5000180E+03  0.7818609E-02  0.1013774E+00
        1   -1    0    0  501    0  0.00000000000E+00  0.00000000000E+00  0.92610536445E+02  0.92610536583E+02  0.50400001928E-02 0.  1.
       -1   -1    0    0    0  501  0.00000000000E+00  0.00000000000E+00 -0.67491792602E+03  0.67491792604E+03  0.50400001928E-02 0. -1.
    10030    2    1    2    0    0  0.00000000000E+00  0.00000000000E+00 -0.58230738958E+03  0.76752846263E+03  0.50001804466E+03 0.  0.
        1    1    3    3  502    0  0.13102004163E+03 -0.96782287804E+02 -0.58228424182E+03  0.60463873581E+03  0.50400001928E-02 0. -1.
       -1    1    3    3    0  502 -0.13102004163E+03  0.96782287804E+02 -0.23147758649E-01  0.16288972682E+03  0.50400001928E-02 0.  1.
</event>
<event>
 5   0  0.3057783E-03  0.5001746E+03  0.7818609E-02  0.1013733E+00
        1   -1    0    0  501    0  0.00000000000E+00  0.00000000000E+00  0.79331229788E+03  0.79331229789E+03  0.50400001928E-02 0. -1.
       -1   -1    0    0    0  501  0.00000000000E+00  0.00000000000E+00 -0.78838632472E+02  0.78838632633E+02  0.50400001928E-02 0.  1.
    10030    2    1    2    0    0  0.00000000000E+00  0.00000000000E+00  0.71447366541E+03  0.87215093053E+03  0.50017459658E+03 0.  0.
        5    1    3    3  502    0  0.40772034354E+02 -0.15104421645E+03  0.17127952698E+02  0.15745529801E+03  0.46999998093E+01 0.  1.
       -5    1    3    3    0  502 -0.40772034354E+02  0.15104421645E+03  0.69734571271E+03  0.71469563252E+03  0.46999998093E+01 0. -1.
</event>
<event>
 5   0  0.3055293E-03  0.5002036E+03  0.7818609E-02  0.1013726E+00
        1   -1    0    0  501    0  0.00000000000E+00  0.00000000000E+00  0.27661101437E+04  0.27661101438E+04  0.50400001928E-02 0. -1.
       -1   -1    0    0    0  501  0.00000000000E+00  0.00000000000E+00 -0.22613313066E+02  0.22613313628E+02  0.50400001928E-02 0.  1.
    10030    2    1    2    0    0  0.00000000000E+00  0.00000000000E+00  0.27434968307E+04  0.27887234574E+04  0.50020362032E+03 0.  0.
        3    1    3    3  502    0 -0.24230859600E+03  0.36423784965E+02  0.10923904893E+04  0.11195343403E+04  0.10100000352E+00 0.  1.
       -3    1    3    3    0  502  0.24230859600E+03 -0.36423784965E+02  0.16511063414E+04  0.16691891171E+04  0.10100000352E+00 0. -1.
</event>
<event>
 5   0  0.4978779E-03  0.5016498E+03  0.7818609E-02  0.1013349E+00
       -2   -1    0    0    0  501  0.00000000000E+00  0.00000000000E+00  0.26798852705E+03  0.26798852707E+03  0.25500000920E-02 0.  1.
        2   -1    0    0  501    0  0.00000000000E+00  0.00000000000E+00 -0.23476055976E+03  0.23476055978E+03  0.25500000920E-02 0. -1.
    10030    2    1    2    0    0  0.00000000000E+00  0.00000000000E+00  0.33227967290E+02  0.50274908684E+03  0.50164982459E+03 0.  0.
        1    1    3    3  502    0 -0.46247873158E+02  0.97965673020E+02 -0.21010507417E+03  0.23639010360E+03  0.50400001928E-02 0. -1.
       -1    1    3    3    0  502  0.46247873158E+02 -0.97965673020E+02  0.24333304146E+03  0.26635898324E+03  0.50400001928E-02 0.  1.
</event>
<event>
 5   0  0.3055293E-03  0.5001543E+03  0.7818609E-02  0.1013739E+00
       -1   -1    0    0    0  501  0.00000000000E+00  0.00000000000E+00  0.78917733604E+02  0.78917733765E+02  0.50400001928E-02 0.  1.
        1   -1    0    0  501    0  0.00000000000E+00  0.00000000000E+00 -0.79245269484E+03  0.79245269485E+03  0.50400001928E-02 0. -1.
    10030    2    1    2    0    0  0.00000000000E+00  0.00000000000E+00 -0.71353496123E+03  0.87137042862E+03  0.50015425917E+03 0.  0.
        3    1    3    3  502    0 -0.57262381909E+01  0.14254880824E+03  0.10660242892E+01  0.14266779294E+03  0.10100000352E+00 0.  1.
       -3    1    3    3    0  502  0.57262381909E+01 -0.14254880824E+03 -0.71460098552E+03  0.72870263568E+03  0.10100000352E+00 0. -1.
</event>
<event>
 5   0  0.2863538E-03  0.5000226E+03  0.7818609E-02  0.1013773E+00
        1   -1    0    0  501    0  0.00000000000E+00  0.00000000000E+00  0.29586912761E+03  0.29586912766E+03  0.50400001928E-02 0.  1.
       -1   -1    0    0    0  501  0.00000000000E+00  0.00000000000E+00 -0.21126118103E+03  0.21126118109E+03  0.50400001928E-02 0. -1.
    10030    2    1    2    0    0  0.00000000000E+00  0.00000000000E+00  0.84607946579E+02  0.50713030875E+03  0.50002264492E+03 0.  0.
        1    1    3    3  502    0 -0.72019558099E+02  0.18808980717E+02  0.28437019949E+03  0.29395068445E+03  0.50400001928E-02 0.  1.
       -1    1    3    3    0  502  0.72019558099E+02 -0.18808980717E+02 -0.19976225291E+03  0.21317962430E+03  0.50400001928E-02 0. -1.
</event>
<event>
 5   0  0.2863538E-03  0.4999807E+03  0.7818609E-02  0.1013784E+00
       -1   -1    0    0    0  501  0.00000000000E+00  0.00000000000E+00  0.11393975297E+03  0.11393975308E+03  0.50400001928E-02 0.  1.
        1   -1    0    0  501    0  0.00000000000E+00  0.00000000000E+00 -0.54849309708E+03  0.54849309710E+03  0.50400001928E-02 0. -1.
    10030    2    1    2    0    0  0.00000000000E+00  0.00000000000E+00 -0.43455334411E+03  0.66243285018E+03  0.49998067175E+03 0.  0.
        1    1    3    3  502    0  0.10642109504E+03 -0.17158979840E+03 -0.21984369624E+02  0.20310544286E+03  0.50400001928E-02 0.  1.
       -1    1    3    3    0  502 -0.10642109504E+03  0.17158979840E+03 -0.41256897449E+03  0.45932740732E+03  0.50400001928E-02 0. -1.
</event>
<event>
 5   0  0.3013734E-03  0.5008385E+03  0.7818609E-02  0.1013560E+00
        1   -1    0    0  501    0  0.00000000000E+00  0.00000000000E+00  0.26925146457E+03  0.26925146462E+03  0.50400001928E-02 0.  1.
       -1   -1    0    0    0  501  0.00000000000E+00  0.00000000000E+00 -0.23290420129E+03  0.23290420134E+03  0.50400001928E-02 0. -1.
    10030    2    1    2    0    0  0.00000000000E+00  0.00000000000E+00  0.36347263285E+02  0.50215566596E+03  0.50083848625E+03 0.  0.
        2    1    3    3  502    0 -0.45987999801E+02 -0.18104519389E+03  0.18539817765E+03  0.26318195728E+03  0.25500000920E-02 0.  1.
       -2    1    3    3    0  502  0.45987999801E+02  0.18104519389E+03 -0.14905091437E+03  0.23897370867E+03  0.25500000920E-02 0. -1.
</event>
<event>
 5   0  0.3055293E-03  0.5000754E+03  0.7818609E-02  0.1013759E+00
       -1   -1    0    0    0  501  0.00000000000E+00  0.00000000000E+00  0.40041682429E+02  0.40041682747E+02  0.50400001928E-02 0.  1.
        1   -1    0    0  501    0  0.00000000000E+00  0.00000000000E+00 -0.15613443295E+04  0.15613443295E+04  0.50400001928E-02 0. -1.
    10030    2    1    2    0    0  0.00000000000E+00  0.00000000000E+00 -0.15213026471E+04  0.16013860123E+04  0.50007541058E+03 0.  0.
        3    1    3    3  502    0  0.20857745941E+03 -0.32876044022E+01 -0.31920583014E+03  0.38132366451E+03  0.10100000352E+00 0.  1.
       -3    1    3    3    0  502 -0.20857745941E+03  0.32876044022E+01 -0.12020968170E+04  0.12200623478E+04  0.10100000352E+00 0. -1.
</event>
<event>
 5   0  0.4978779E-03  0.4997527E+03  0.7818609E-02  0.1013843E+00
        2   -1    0    0  501    0  0.00000000000E+00  0.00000000000E+00  0.15376802423E+04  0.15376802423E+04  0.25500000920E-02 0. -1.
       -2   -1    0    0    0  501  0.00000000000E+00  0.00000000000E+00 -0.40605448664E+02  0.40605448744E+02  0.25500000920E-02 0.  1.
    10030    2    1    2    0    0  0.00000000000E+00  0.00000000000E+00  0.14970747936E+04  0.15782856911E+04  0.49975272368E+03 0.  0.
        1    1    3    3  502    0  0.20066375266E+02 -0.14404761945E+03  0.13902357243E+04  0.13978225013E+04  0.50400001928E-02 0. -1.
       -1    1    3    3    0  502 -0.20066375266E+02  0.14404761945E+03  0.10683906938E+03  0.18046318976E+03  0.50400001928E-02 0.  1.
</event>
<event>
 5   0  0.4889251E-03  0.5000851E+03  0.7818609E-02  0.1013757E+00
       -2   -1    0    0    0  501  0.00000000000E+00  0.00000000000E+00  0.27612647855E+03  0.27612647856E+03  0.25500000920E-02 0.  1.
        2   -1    0    0  501    0  0.00000000000E+00  0.00000000000E+00 -0.22642264237E+03  0.22642264238E+03  0.25500000920E-02 0. -1.
    10030    2    1    2    0    0  0.00000000000E+00  0.00000000000E+00  0.49703836180E+02  0.50254912094E+03  0.50008514038E+03 0.  0.
        5    1    3    3  502    0  0.18308141474E+03 -0.15499823361E+03  0.95597217714E+02  0.25827151388E+03  0.46999998093E+01 0.  1.
       -5    1    3    3    0  502 -0.18308141474E+03  0.15499823361E+03 -0.45893381534E+02  0.24427760706E+03  0.46999998093E+01 0. -1.
</event>
<event>
 5   0  0.3055293E-03  0.5001088E+03  0.7818609E-02  0.1013751E+00
       -1   -1    0    0    0  501  0.00000000000E+00  0.00000000000E+00  0.97469780026E+02  0.97469780157E+02  0.50400001928E-02 0. -1.
        1   -1    0    0  501    0  0.00000000000E+00  0.00000000000E+00 -0.64150350386E+03  0.64150350388E+03  0.50400001928E-02 0.  1.
    10030    2    1    2    0    0  0.00000000000E+00  0.00000000000E+00 -0.54403372383E+03  0.73897328403E+03  0.50010881001E+03 0.  0.
        3    1    3    3  502    0 -0.14791585374E+03 -0.15843108305E+03 -0.87771258811E+02  0.23384463205E+03  0.10100000352E+00 0. -1.
       -3    1    3    3    0  502  0.14791585374E+03  0.15843108305E+03 -0.45626246502E+03  0.50512865198E+03  0.10100000352E+00 0.  1.
</event>
<event>
 5   0  0.2005125E-03  0.4998651E+03  0.7818609E-02  0.1013814E+00
       -4   -1    0    0    0  501  0.00000000000E+00  0.00000000000E+00  0.15809661987E+03  0.15810172078E+03  0.12699999809E+01 0.  1.
        4   -1    0    0  501    0  0.00000000000E+00  0.00000000000E+00 -0.39510209936E+03  0.39510414047E+03  0.12699999809E+01 0. -1.
    10030    2    1    2    0    0  0.00000000000E+00  0.00000000000E+00 -0.23700547949E+03  0.55320586125E+03  0.49986510942E+03 0.  0.
        2    1    3    3  502    0  0.31353688241E+02  0.13515362431E+03  0.11156720063E+03  0.17803594074E+03  0.25500000920E-02 0.  1.
       -2    1    3    3    0  502 -0.31353688241E+02 -0.13515362431E+03 -0.34857268011E+03  0.37516992052E+03  0.25500000920E-02 0. -1.
</event>
<event>
 5   0  0.3013734E-03  0.5000757E+03  0.7818609E-02  0.1013759E+00
       -1   -1    0    0    0  501  0.00000000000E+00  0.00000000000E+00  0.46739312959E+03  0.46739312961E+03  0.50400001928E-02 0.  1.
        1   -1    0    0  501    0  0.00000000000E+00  0.00000000000E+00 -0.13376088306E+03  0.13376088316E+03  0.50400001928E-02 0. -1.
    10030    2    1    2    0    0  0.00000000000E+00  0.00000000000E+00  0.33363224652E+03  0.60115401277E+03  0.50007566543E+03 0.  0.
        2    1    3    3  502    0  0.74840744233E+02 -0.75587844866E+02 -0.10520527557E+03  0.14960885436E+03  0.25500000920E-02 0. -1.
       -2    1    3    3    0  502 -0.74840744233E+02  0.75587844866E+02  0.43883752209E+03  0.45154515841E+03  0.25500000920E-02 0.  1.
</event>
<event>
 5   0  0.3013734E-03  0.4998722E+03  0.7818609E-02  0.1013812E+00
        1   -1    0    0  501    0  0.00000000000E+00  0.00000000000E+00  0.26219659870E+03  0.26219659875E+03  0.50400001928E-02 0. -1.
       -1   -1    0    0    0  501  0.00000000000E+00  0.00000000000E+00 -0.23824895106E+03  0.23824895111E+03  0.50400001928E-02 0.  1.
    10030    2    1    2    0    0  0.00000000000E+00  0.00000000000E+00  0.23947647641E+02  0.50044554986E+03  0.49987224223E+03 0.  0.
        2    1    3    3  502    0  0.23003880937E+03  0.14834328560E+02 -0.84729678940E+02  0.24559525569E+03  0.25500000920E-02 0.  1.
       -2    1    3    3    0  502 -0.23003880937E+03 -0.14834328560E+02  0.10867732658E+03  0.25485029417E+03  0.25500000920E-02 0. -1.
</event>
<event>
 5   0  0.2863538E-03  0.4979185E+03  0.7818609E-02  0.1014324E+00
        1   -1    0    0  501    0  0.00000000000E+00  0.00000000000E+00  0.78287222202E+03  0.78287222204E+03  0.50400001928E-02 0. -1.
       -1   -1    0    0    0  501  0.00000000000E+00  0.00000000000E+00 -0.79170909685E+02  0.79170909845E+02  0.50400001928E-02 0.  1.
    10030    2    1    2    0    0  0.00000000000E+00  0.00000000000E+00  0.70370131234E+03  0.86204313188E+03  0.49791849156E+03 0.  0.
        1    1    3    3  502    0 -0.12055518721E+03 -0.23126590294E+02  0.72683589060E+03  0.73712875689E+03  0.50400001928E-02 0. -1.
       -1    1    3    3    0  502  0.12055518721E+03  0.23126590294E+02 -0.23134578265E+02  0.12491437499E+03  0.50400001928E-02 0.  1.
</event>
<event>
 5   0  0.3055293E-03  0.5002992E+03  0.7818609E-02  0.1013701E+00
       -1   -1    0    0    0  501  0.00000000000E+00  0.00000000000E+00  0.15949621355E+03  0.15949621363E+03  0.50400001928E-02 0. -1.
        1   -1    0    0  501    0  0.00000000000E+00  0.00000000000E+00 -0.39232790242E+03  0.39232790245E+03  0.50400001928E-02 0.  1.
    10030    2    1    2    0    0  0.00000000000E+00  0.00000000000E+00 -0.23283168887E+03  0.55182411608E+03  0.50029917025E+03 0.  0.
        3    1    3    3  502    0  0.99175824357E+02  0.13266119539E+03  0.90346559817E+02  0.18867259465E+03  0.10100000352E+00 0. -1.
       -3    1    3    3    0  502 -0.99175824357E+02 -0.13266119539E+03 -0.32317824868E+03  0.36315152144E+03  0.10100000352E+00 0.  1.
</event>
<event>
 5   0  0.4889251E-03  0.4984913E+03  0.7818609E-02  0.1014173E+00
       -2   -1    0    0    0  501  0.00000000000E+00  0.00000000000E+00  0.12550706644E+03  0.12550706647E+03  0.25500000920E-02 0.  1.
        2   -1    0    0  501    0  0.00000000000E+00  0.00000000000E+00 -0.49497924820E+03  0.49497924821E+03  0.25500000920E-02 0. -1.
    10030    2    1    2    0    0  0.00000000000E+00  0.00000000000E+00 -0.36947218176E+03  0.62048631467E+03  0.49849129742E+03 0.  0.
        5    1    3    3  502    0  0.39140681865E+02  0.23869154284E+03 -0.25937474560E+03  0.35468717802E+03  0.46999998093E+01 0. -1.
       -5    1    3    3    0  502 -0.39140681865E+02 -0.23869154284E+03 -0.11009743616E+03  0.26579913665E+03  0.46999998093E+01 0.  1.
</event>
<event>
 5   0  0.5095783E-03  0.5000168E+03  0.7818609E-02  0.1013775E+00
       -2   -1    0    0    0  501  0.00000000000E+00  0.00000000000E+00  0.15616439215E+03  0.15616439217E+03  0.25500000920E-02 0. -1.
        2   -1    0    0  501    0  0.00000000000E+00  0.00000000000E+00 -0.40024625105E+03  0.40024625105E+03  0.25500000920E-02 0.  1.
    10030    2    1    2    0    0  0.00000000000E+00  0.00000000000E+00 -0.24408185890E+03  0.55641064322E+03  0.50001684976E+03 0.  0.
        4    1    3    3  502    0  0.54864726219E+01  0.23584437941E+03 -0.21413968427E+03  0.31860648135E+03  0.12699999809E+01 0.  1.
       -4    1    3    3    0  502 -0.54864726219E+01 -0.23584437941E+03 -0.29942174629E+02  0.23780416187E+03  0.12699999809E+01 0. -1.
</event>
<event>
 5   0  0.3057783E-03  0.5005438E+03  0.7818609E-02  0.1013637E+00
       -1   -1    0    0    0  501  0.00000000000E+00  0.00000000000E+00  0.55988779739E+03  0.55988779741E+03  0.50400001928E-02 0.  1.
        1   -1    0    0  501    0  0.00000000000E+00  0.00000000000E+00 -0.11187244256E+03  0.11187244267E+03  0.50400001928E-02 0. -1.
    10030    2    1    2    0    0  0.00000000000E+00  0.00000000000E+00  0.44801535483E+03  0.67176024008E+03  0.50054376631E+03 0.  0.
        5    1    3    3  502    0 -0.59104077043E+02 -0.10564626973E+03 -0.69899071184E+02  0.13986563689E+03  0.46999998093E+01 0. -1.
       -5    1    3    3    0  502  0.59104077043E+02  0.10564626973E+03  0.51791442602E+03  0.53189460319E+03  0.46999998093E+01 0.  1.
</event>
<event>
 5   0  0.3057783E-03  0.5001779E+03  0.7818609E-02  0.1013732E+00
        1   -1    0    0  501    0  0.00000000000E+00  0.00000000000E+00  0.72141936197E+02  0.72141936374E+02  0.50400001928E-02 0.  1.
       -1   -1    0    0    0  501  0.00000000000E+00  0.00000000000E+00 -0.86696445673E+03  0.86696445674E+03  0.50400001928E-02 0. -1.
    10030    2    1    2    0    0  0.00000000000E+00  0.00000000000E+00 -0.79482252053E+03  0.93910639311E+03  0.50017794678E+03 0.  0.
        5    1    3    3  502    0  0.83174004061E+01 -0.43381235271E+02  0.64675667929E+02  0.78461090633E+02  0.46999998093E+01 0.  1.
       -5    1    3    3    0  502 -0.83174004061E+01  0.43381235271E+02 -0.85949818846E+03  0.86064530248E+03  0.46999998093E+01 0. -1.
</event>
<event>
 5   0  0.5118882E-03  0.5002378E+03  0.7818609E-02  0.1013717E+00
       -2   -1    0    0    0  501  0.00000000000E+00  0.00000000000E+00  0.19219146948E+03  0.19219146949E+03  0.25500000920E-02 0.  1.
        2   -1    0    0  501    0  0.00000000000E+00  0.00000000000E+00 -0.32550593798E+03  0.32550593799E+03  0.25500000920E-02 0. -1.
    10030    2    1    2    0    0  0.00000000000E+00  0.00000000000E+00 -0.13331446851E+03  0.51769740749E+03  0.50023780165E+03 0.  0.
        3    1    3    3  502    0  0.12397794314E+03 -0.21660163489E+03 -0.49568621964E+02  0.25444814227E+03  0.10100000352E+00 0.  1.
       -3    1    3    3    0  502 -0.12397794314E+03  0.21660163489E+03 -0.83745846543E+02  0.26324926521E+03  0.10100000352E+00 0. -1.
</event>
<event>
 5   0  0.5095783E-03  0.5000092E+03  0.7818609E-02  0.1013777E+00
        2   -1    0    0  501    0  0.00000000000E+00  0.00000000000E+00  0.95146481434E+03  0.95146481434E+03  0.25500000920E-02 0. -1.
       -2   -1    0    0    0  501  0.00000000000E+00  0.00000000000E+00 -0.65690613844E+02  0.65690613894E+02  0.25500000920E-02 0.  1.
    10030    2    1    2    0    0  0.00000000000E+00  0.00000000000E+00  0.88577420049E+03  0.10171554282E+04  0.50000923084E+03 0.  0.
        4    1    3    3  502    0 -0.81119180288E-01  0.20110085794E+03  0.14075037308E+03  0.24546658034E+03  0.12699999809E+01 0.  1.
       -4    1    3    3    0  502  0.81119180288E-01 -0.20110085794E+03  0.74502382741E+03  0.77168884789E+03  0.12699999809E+01 0. -1.
</event>
<event>
 5   0  0.5095783E-03  0.4999406E+03  0.7818609E-02  0.1013794E+00
        2   -1    0    0  501    0  0.00000000000E+00  0.00000000000E+00  0.80352544446E+03  0.80352544446E+03  0.25500000920E-02 0. -1.
       -2   -1    0    0    0  501  0.00000000000E+00  0.00000000000E+00 -0.77763762833E+02  0.77763762875E+02  0.25500000920E-02 0.  1.
    10030    2    1    2    0    0  0.00000000000E+00  0.00000000000E+00  0.72576168162E+03  0.88128920734E+03  0.49994064493E+03 0.  0.
        4    1    3    3  502    0  0.36487189048E+02  0.12152814440E+03 -0.16766269674E+02  0.12799658411E+03  0.12699999809E+01 0.  1.
       -4    1    3    3    0  502 -0.36487189048E+02 -0.12152814440E+03  0.74252795130E+03  0.75329262322E+03  0.12699999809E+01 0. -1.
</event>
<event>
 5   0  0.3211775E-03  0.5000090E+03  0.7818609E-02  0.1013777E+00
       -1   -1    0    0    0  501  0.00000000000E+00  0.00000000000E+00  0.23987644118E+03  0.23987644123E+03  0.50400001928E-02 0. -1.
        1   -1    0    0  501    0  0.00000000000E+00  0.00000000000E+00 -0.26056018573E+03  0.26056018578E+03  0.50400001928E-02 0.  1.
    10030    2    1    2    0    0  0.00000000000E+00  0.00000000000E+00 -0.20683744553E+02  0.50043662701E+03  0.50000900028E+03 0.  0.
        4    1    3    3  502    0 -0.16542273415E+03  0.13988568926E+03 -0.13522017365E+03  0.25537970807E+03  0.12699999809E+01 0.  1.
       -4    1    3    3    0  502  0.16542273415E+03 -0.13988568926E+03  0.11453642910E+03  0.24505691894E+03  0.12699999809E+01 0. -1.
</event>
<event>
 5   0  0.3055293E-03  0.5000938E+03  0.7818609E-02  0.1013754E+00
       -1   -1    0    0    0  501  0.00000000000E+00  0.00000000000E+00  0.27607737742E+02  0.27607738202E+02  0.50400001928E-02 0.  1.
        1   -1    0    0  501    0  0.00000000000E+00  0.00000000000E+00 -0.22647077630E+04  0.22647077630E+04  0.50400001928E-02 0. -1.
    10030    2    1    2    0    0  0.00000000000E+00  0.00000000000E+00 -0.22371000252E+04  0.22923155012E+04  0.50009382526E+03 0.  0.
        3    1    3    3  502    0 -0.54324091951E+02 -0.43482083288E+02 -0.22194344582E+04  0.22205249656E+04  0.10100000352E+00 0. -1.
       -3    1    3    3    0  502  0.54324091951E+02  0.43482083288E+02 -0.17665567012E+02  0.71790535533E+02  0.10100000352E+00 0.  1.
</event>
<event>
 5   0  0.2863538E-03  0.4999997E+03  0.7818609E-02  0.1013779E+00
        1   -1    0    0  501    0  0.00000000000E+00  0.00000000000E+00  0.74689744993E+03  0.74689744995E+03  0.50400001928E-02 0. -1.
       -1   -1    0    0    0  501  0.00000000000E+00  0.00000000000E+00 -0.83679402059E+02  0.83679402211E+02  0.50400001928E-02 0.  1.
    10030    2    1    2    0    0  0.00000000000E+00  0.00000000000E+00  0.66321804787E+03  0.83057685216E+03  0.49999972832E+03 0.  0.
        1    1    3    3  502    0 -0.17803675862E+03  0.16720222352E+03  0.42023222288E+03  0.48605430987E+03  0.50400001928E-02 0. -1.
       -1    1    3    3    0  502  0.17803675862E+03 -0.16720222352E+03  0.24298582499E+03  0.34452254229E+03  0.50400001928E-02 0.  1.
</event>
<event>
 5   0  0.4978779E-03  0.4999490E+03  0.7818609E-02  0.1013792E+00
       -2   -1    0    0    0  501  0.00000000000E+00  0.00000000000E+00  0.10080983547E+03  0.10080983551E+03  0.25500000920E-02 0. -1.
        2   -1    0    0  501    0  0.00000000000E+00  0.00000000000E+00 -0.61985271998E+03  0.61985271999E+03  0.25500000920E-02 0.  1.
    10030    2    1    2    0    0  0.00000000000E+00  0.00000000000E+00 -0.51904288451E+03  0.72066255550E+03  0.49994900033E+03 0.  0.
        1    1    3    3  502    0  0.71348792753E+02 -0.91858605024E+02 -0.57847006832E+03  0.59004768749E+03  0.50400001928E-02 0.  1.
       -1    1    3    3    0  502 -0.71348792753E+02  0.91858605024E+02  0.59427183807E+02  0.13061486801E+03  0.50400001928E-02 0. -1.
</event>
<event>
 5   0  0.3211775E-03  0.5001602E+03  0.7818609E-02  0.1013737E+00
        1   -1    0    0  501    0  0.00000000000E+00  0.00000000000E+00  0.68302526095E+03  0.68302526097E+03  0.50400001928E-02 0. -1.
       -1   -1    0    0    0  501  0.00000000000E+00  0.00000000000E+00 -0.91563309862E+02  0.91563310001E+02  0.50400001928E-02 0.  1.
    10030    2    1    2    0    0  0.00000000000E+00  0.00000000000E+00  0.59146195109E+03  0.77458857097E+03  0.50016018903E+03 0.  0.
        4    1    3    3  502    0 -0.10623545758E+03 -0.28612293757E+02  0.64352557304E+03  0.65286400717E+03  0.12699999809E+01 0. -1.
       -4    1    3    3    0  502  0.10623545758E+03  0.28612293757E+02 -0.52063621955E+02  0.12172456380E+03  0.12699999809E+01 0.  1.
</event>
<event>
 5   0  0.2005125E-03  0.5000216E+03  0.7818609E-02  0.1013773E+00
        3   -1    0    0  501    0  0.00000000000E+00  0.00000000000E+00  0.25519849606E+03  0.25519851604E+03  0.10100000352E+00 0.  1.
       -3   -1    0    0    0  501  0.00000000000E+00  0.00000000000E+00 -0.24492852395E+03  0.24492854478E+03  0.10100000352E+00 0. -1.
    10030    2    1    2    0    0  0.00000000000E+00  0.00000000000E+00  0.10269972106E+02  0.50012706082E+03  0.50002160417E+03 0.  0.
        3    1    3    3  502    0 -0.32522926085E+02  0.17974292370E+03  0.17587579684E+03  0.25356964616E+03  0.10100000352E+00 0.  1.
       -3    1    3    3    0  502  0.32522926085E+02 -0.17974292370E+03 -0.16560582473E+03  0.24655741466E+03  0.10100000352E+00 0. -1.
</event>
<event>
 5   0  0.5118882E-03  0.4996926E+03  0.7818609E-02  0.1013859E+00
        2   -1    0    0  501    0  0.00000000000E+00  0.00000000000E+00  0.80279559590E+03  0.80279559591E+03  0.25500000920E-02 0.  1.
       -2   -1    0    0    0  501  0.00000000000E+00  0.00000000000E+00 -0.77757253461E+02  0.77757253503E+02  0.25500000920E-02 0. -1.
    10030    2    1    2    0    0  0.00000000000E+00  0.00000000000E+00  0.72503834244E+03  0.88055284941E+03  0.49969262812E+03 0.  0.
        3    1    3    3  502    0 -0.22811678634E+03 -0.63003093921E+02  0.22136230666E+03  0.32404928493E+03  0.10100000352E+00 0. -1.
       -3    1    3    3    0  502  0.22811678634E+03  0.63003093921E+02  0.50367603578E+03  0.55650356448E+03  0.10100000352E+00 0.  1.
</event>
<event>
 5   0  0.3055293E-03  0.4995923E+03  0.7818609E-02  0.1013885E+00
       -1   -1    0    0    0  501  0.00000000000E+00  0.00000000000E+00  0.75566331587E+02  0.75566331755E+02  0.50400001928E-02 0.  1.
        1   -1    0    0  501    0  0.00000000000E+00  0.00000000000E+00 -0.82573955172E+03  0.82573955173E+03  0.50400001928E-02 0. -1.
    10030    2    1    2    0    0  0.00000000000E+00  0.00000000000E+00 -0.75017322013E+03  0.90130588349E+03  0.49959226916E+03 0.  0.
        3    1    3    3  502    0 -0.46591205711E+02 -0.16759182946E+03 -0.69851765888E+03  0.71985046483E+03  0.10100000352E+00 0. -1.
       -3    1    3    3    0  502  0.46591205711E+02  0.16759182946E+03 -0.51655561252E+02  0.18145541866E+03  0.10100000352E+00 0.  1.
</event>
<event>
 5   0  0.5118882E-03  0.4999616E+03  0.7818609E-02  0.1013789E+00
        2   -1    0    0  501    0  0.00000000000E+00  0.00000000000E+00  0.33490230407E+03  0.33490230408E+03  0.25500000920E-02 0.  1.
       -2   -1    0    0    0  501  0.00000000000E+00  0.00000000000E+00 -0.18659293511E+03  0.18659293513E+03  0.25500000920E-02 0. -1.
    10030    2    1    2    0    0  0.00000000000E+00  0.00000000000E+00  0.14830936896E+03  0.52149523921E+03  0.49996161412E+03 0.  0.
        3    1    3    3  502    0  0.22615178424E+03  0.10141702681E+03  0.10812022119E+03  0.27040716572E+03  0.10100000352E+00 0. -1.
       -3    1    3    3    0  502 -0.22615178424E+03 -0.10141702681E+03  0.40189147773E+02  0.25108807348E+03  0.10100000352E+00 0.  1.
</event>
<event>
 5   0  0.4978779E-03  0.5000106E+03  0.7818609E-02  0.1013776E+00
        2   -1    0    0  501    0  0.00000000000E+00  0.00000000000E+00  0.24553469252E+04  0.24553469252E+04  0.25500000920E-02 0.  1.
       -2   -1    0    0    0  501  0.00000000000E+00  0.00000000000E+00 -0.25455729126E+02  0.25455729254E+02  0.25500000920E-02 0. -1.
    10030    2    1    2    0    0  0.00000000000E+00  0.00000000000E+00  0.24298911961E+04  0.24808026545E+04  0.50001058549E+03 0.  0.
        1    1    3    3  502    0  0.14237280346E+02 -0.86925706896E+02  0.23758080334E+04  0.23774403442E+04  0.50400001928E-02 0.  1.
       -1    1    3    3    0  502 -0.14237280346E+02  0.86925706896E+02  0.54083162689E+02  0.10336231026E+03  0.50400001928E-02 0. -1.
</event>
<event>
 5   0  0.3057783E-03  0.4998902E+03  0.7818609E-02  0.1013808E+00
       -1   -1    0    0    0  501  0.00000000000E+00  0.00000000000E+00  0.13013978644E+03  0.13013978654E+03  0.50400001928E-02 0. -1.
        1   -1    0    0  501    0  0.00000000000E+00  0.00000000000E+00 -0.48004196502E+03  0.48004196505E+03  0.50400001928E-02 0.  1.
    10030    2    1    2    0    0  0.00000000000E+00  0.00000000000E+00 -0.34990217859E+03  0.61018175159E+03  0.49989022334E+03 0.  0.
        5    1    3    3  502    0 -0.25987613036E+02 -0.21614767321E+03 -0.25179573875E+02  0.21920600723E+03  0.46999998093E+01 0. -1.
       -5    1    3    3    0  502  0.25987613036E+02  0.21614767321E+03 -0.32472260471E+03  0.39097574436E+03  0.46999998093E+01 0.  1.
</event>
<event>
 5   0  0.3013734E-03  0.4998211E+03  0.7818609E-02  0.1013826E+00
       -1   -1    0    0    0  501  0.00000000000E+00  0.00000000000E+00  0.92007845084E+02  0.92007845222E+02  0.50400001928E-02 0. -1.
        1   -1    0    0  501    0  0.00000000000E+00  0.00000000000E+00 -0.67880400378E+03  0.67880400380E+03  0.50400001928E-02 0.  1.
    10030    2    1    2    0    0  0.00000000000E+00  0.00000000000E+00 -0.58679615869E+03  0.77081184902E+03  0.49982114274E+03 0.  0.
        2    1    3    3  502    0  0.12275400496E+03 -0.14684583646E+03 -0.54121874111E+03  0.57406443119E+03  0.25500000920E-02 0.  1.
       -2    1    3    3    0  502 -0.12275400496E+03  0.14684583646E+03 -0.45577417579E+02  0.19674741782E+03  0.25500000920E-02 0. -1.
</event>
<event>
 5   0  0.4989875E-03  0.4998835E+03  0.7818609E-02  0.1013809E+00
       -2   -1    0    0    0  501  0.00000000000E+00  0.00000000000E+00  0.12557683327E+03  0.12557683330E+03  0.25500000920E-02 0.  1.
        2   -1    0    0  501    0  0.00000000000E+00  0.00000000000E+00 -0.49747127405E+03  0.49747127405E+03  0.25500000920E-02 0. -1.
    10030    2    1    2    0    0  0.00000000000E+00  0.00000000000E+00 -0.37189444078E+03  0.62304810735E+03  0.49988345541E+03 0.  0.
        2    1    3    3  502    0 -0.10711306726E+03 -0.14968161890E+03 -0.39670480827E+03  0.43732425170E+03  0.25500000920E-02 0. -1.
       -2    1    3    3    0  502  0.10711306726E+03  0.14968161890E+03  0.24810367491E+02  0.18572385565E+03  0.25500000920E-02 0.  1.
</event>
<event>
 5   0  0.4989875E-03  0.5000530E+03  0.7818609E-02  0.1013765E+00
        2   -1    0    0  501    0  0.00000000000E+00  0.00000000000E+00  0.47727838705E+03  0.47727838706E+03  0.25500000920E-02 0. -1.
       -2   -1    0    0    0  501  0.00000000000E+00  0.00000000000E+00 -0.13097858565E+03  0.13097858567E+03  0.25500000920E-02 0.  1.
    10030    2    1    2    0    0  0.00000000000E+00  0.00000000000E+00  0.34629980141E+03  0.60825697273E+03  0.50005298962E+03 0.  0.
        2    1    3    3  502    0  0.45253879517E+02  0.63590542841E+02  0.46208059403E+03  0.46862580609E+03  0.25500000920E-02 0. -1.
       -2    1    3    3    0  502 -0.45253879517E+02 -0.63590542841E+02 -0.11578079262E+03  0.13963116664E+03  0.25500000920E-02 0.  1.
</event>
<event>
 5   0  0.2863538E-03  0.4999612E+03  0.7818609E-02  0.1013789E+00
       -1   -1    0    0    0  501  0.00000000000E+00  0.00000000000E+00  0.58148243349E+02  0.58148243568E+02  0.50400001928E-02 0. -1.
        1   -1    0    0  501    0  0.00000000000E+00  0.00000000000E+00 -0.10746721959E+04  0.10746721959E+04  0.50400001928E-02 0.  1.
    10030    2    1    2    0    0  0.00000000000E+00  0.00000000000E+00 -0.10165239526E+04  0.11328204395E+04  0.49996120050E+03 0.  0.
        1    1    3    3  502    0 -0.61619483250E+02 -0.13394912619E+03 -0.50864507641E+02  0.15596963578E+03  0.50400001928E-02 0. -1.
       -1    1    3    3    0  502  0.61619483250E+02  0.13394912619E+03 -0.96565944495E+03  0.97685080374E+03  0.50400001928E-02 0.  1.
</event>
<event>
 5   0  0.3013734E-03  0.5003480E+03  0.7818609E-02  0.1013688E+00
       -1   -1    0    0    0  501  0.00000000000E+00  0.00000000000E+00  0.11826065952E+03  0.11826065963E+03  0.50400001928E-02 0. -1.
        1   -1    0    0  501    0  0.00000000000E+00  0.00000000000E+00 -0.52922949846E+03  0.52922949849E+03  0.50400001928E-02 0.  1.
    10030    2    1    2    0    0  0.00000000000E+00  0.00000000000E+00 -0.41096883894E+03  0.64749015812E+03  0.50034799718E+03 0.  0.
        2    1    3    3  502    0 -0.56147936304E+02  0.10476808752E+03 -0.49035272802E+03  0.50455400186E+03  0.25500000920E-02 0.  1.
       -2    1    3    3    0  502  0.56147936304E+02 -0.10476808752E+03  0.79383889080E+02  0.14293615626E+03  0.25500000920E-02 0. -1.
</event>
<event>
 5   0  0.4978779E-03  0.4997699E+03  0.7818609E-02  0.1013839E+00
        2   -1    0    0  501    0  0.00000000000E+00  0.00000000000E+00  0.79947689436E+03  0.79947689436E+03  0.25500000920E-02 0. -1.
       -2   -1    0    0    0  501  0.00000000000E+00  0.00000000000E+00 -0.78104191993E+02  0.78104192034E+02  0.25500000920E-02 0.  1.
    10030    2    1    2    0    0  0.00000000000E+00  0.00000000000E+00  0.72137270237E+03  0.87758108640E+03  0.49976993455E+03 0.  0.
        1    1    3    3  502    0  0.18292944637E+03  0.10772975053E+01  0.61768063197E+02  0.19307935305E+03  0.50400001928E-02 0.  1.
       -1    1    3    3    0  502 -0.18292944637E+03 -0.10772975053E+01  0.65960463917E+03  0.68450173335E+03  0.50400001928E-02 0. -1.
</event>
<event>
 5   0  0.3211775E-03  0.5000403E+03  0.7818609E-02  0.1013768E+00
       -1   -1    0    0    0  501  0.00000000000E+00  0.00000000000E+00  0.15731771004E+03  0.15731771012E+03  0.50400001928E-02 0.  1.
        1   -1    0    0  501    0  0.00000000000E+00  0.00000000000E+00 -0.39734918850E+03  0.39734918853E+03  0.50400001928E-02 0. -1.
    10030    2    1    2    0    0  0.00000000000E+00  0.00000000000E+00 -0.24003147846E+03  0.55466689865E+03  0.50004025619E+03 0.  0.
        4    1    3    3  502    0 -0.21675490124E+02  0.94829167835E+02  0.13546244440E+03  0.16677555182E+03  0.12699999809E+01 0.  1.
       -4    1    3    3    0  502  0.21675490124E+02 -0.94829167835E+02 -0.37549392285E+03  0.38789134683E+03  0.12699999809E+01 0. -1.
</event>
<event>
 5   0  0.4978779E-03  0.5000202E+03  0.7818609E-02  0.1013774E+00
       -2   -1    0    0    0  501  0.00000000000E+00  0.00000000000E+00  0.37111007486E+02  0.37111007574E+02  0.25500000920E-02 0. -1.
        2   -1    0    0  501    0  0.00000000000E+00  0.00000000000E+00 -0.16842723769E+04  0.16842723769E+04  0.25500000920E-02 0.  1.
    10030    2    1    2    0    0  0.00000000000E+00  0.00000000000E+00 -0.16471613694E+04  0.17213833844E+04  0.50002017905E+03 0.  0.
        1    1    3    3  502    0 -0.12132460649E+03  0.87901820752E+02 -0.13455048846E+03  0.20137086234E+03  0.50400001928E-02 0. -1.
       -1    1    3    3    0  502  0.12132460649E+03 -0.87901820752E+02 -0.15126108809E+04  0.15200125221E+04  0.50400001928E-02 0.  1.
</event>
<event>
 5   0  0.2863538E-03  0.5003629E+03  0.7818609E-02  0.1013684E+00
        1   -1    0    0  501    0  0.00000000000E+00  0.00000000000E+00  0.11924166807E+03  0.11924166818E+03  0.50400001928E-02 0.  1.
       -1   -1    0    0    0  501  0.00000000000E+00  0.00000000000E+00 -0.52490673996E+03  0.52490673999E+03  0.50400001928E-02 0. -1.
    10030    2    1    2    0    0  0.00000000000E+00  0.00000000000E+00 -0.40566507189E+03  0.64414840817E+03  0.50036288950E+03 0.  0.
        1    1    3    3  502    0 -0.10789005568E+03 -0.17536751719E+03 -0.38578628901E+03  0.43729291215E+03  0.50400001928E-02 0. -1.
       -1    1    3    3    0  502  0.10789005568E+03  0.17536751719E+03 -0.19878782873E+02  0.20685549602E+03  0.50400001928E-02 0.  1.
</event>
<event>
 5   0  0.5095783E-03  0.4997104E+03  0.7818609E-02  0.1013855E+00
       -2   -1    0    0    0  501  0.00000000000E+00  0.00000000000E+00  0.13875564985E+03  0.13875564987E+03  0.25500000920E-02 0. -1.
        2   -1    0    0  501    0  0.00000000000E+00  0.00000000000E+00 -0.44991046861E+03  0.44991046862E+03  0.25500000920E-02 0.  1.
    10030    2    1    2    0    0  0.00000000000E+00  0.00000000000E+00 -0.31115481877E+03  0.58866611849E+03  0.49971039394E+03 0.  0.
        4    1    3    3  502    0  0.17142418310E+03  0.10550186064E+02  0.58187442676E+02  0.18134207554E+03  0.12699999809E+01 0. -1.
       -4    1    3    3    0  502 -0.17142418310E+03 -0.10550186064E+02 -0.36934226144E+03  0.40732404295E+03  0.12699999809E+01 0.  1.
</event>
<event>
 5   0  0.3057783E-03  0.5000844E+03  0.7818609E-02  0.1013757E+00
       -1   -1    0    0    0  501  0.00000000000E+00  0.00000000000E+00  0.79841101903E+02  0.79841102062E+02  0.50400001928E-02 0. -1.
        1   -1    0    0  501    0  0.00000000000E+00  0.00000000000E+00 -0.78306923809E+03  0.78306923811E+03  0.50400001928E-02 0.  1.
    10030    2    1    2    0    0  0.00000000000E+00  0.00000000000E+00 -0.70322813619E+03  0.86291034017E+03  0.50008443651E+03 0.  0.
        5    1    3    3  502    0 -0.24328030885E+03 -0.52986426471E+02 -0.31279346132E+03  0.39981834563E+03  0.46999998093E+01 0. -1.
       -5    1    3    3    0  502  0.24328030885E+03  0.52986426471E+02 -0.39043467487E+03  0.46309199453E+03  0.46999998093E+01 0.  1.
</event>
<event>
 5   0  0.5118882E-03  0.4998769E+03  0.7818609E-02  0.1013811E+00
        2   -1    0    0  501    0  0.00000000000E+00  0.00000000000E+00  0.55252657956E+03  0.55252657957E+03  0.25500000920E-02 0. -1.
       -2   -1    0    0    0  501  0.00000000000E+00  0.00000000000E+00 -0.11306105697E+03  0.11306105699E+03  0.25500000920E-02 0.  1.
    10030    2    1    2    0    0  0.00000000000E+00  0.00000000000E+00  0.43946552260E+03  0.66558763656E+03  0.49987694125E+03 0.  0.
        3    1    3    3  502    0  0.23672667024E+03  0.19184510167E+02  0.11606632194E+03  0.26434629395E+03  0.10100000352E+00 0.  1.
       -3    1    3    3    0  502 -0.23672667024E+03 -0.19184510167E+02  0.32339920066E+03  0.40124134261E+03  0.10100000352E+00 0. -1.
</event>
<event>
 5   0  0.4989875E-03  0.5000425E+03  0.7818609E-02  0.1013768E+00
       -2   -1    0    0    0  501  0.00000000000E+00  0.00000000000E+00  0.37833454447E+02  0.37833454533E+02  0.25500000920E-02 0. -1.
        2   -1    0    0  501    0  0.00000000000E+00  0.00000000000E+00 -0.16522581368E+04  0.16522581368E+04  0.25500000920E-02 0.  1.
    10030    2    1    2    0    0  0.00000000000E+00  0.00000000000E+00 -0.16144246824E+04  0.16900915914E+04  0.50004253031E+03 0.  0.
        2    1    3    3  502    0  0.42711577017E+02 -0.79753462546E+00  0.25407095339E+02  0.49703474454E+02  0.25500000920E-02 0. -1.
       -2    1    3    3    0  502 -0.42711577017E+02  0.79753462546E+00 -0.16398317777E+04  0.16403881169E+04  0.25500000920E-02 0.  1.
</event>
<event>
 5   0  0.4978779E-03  0.4999048E+03  0.7818609E-02  0.1013804E+00
        2   -1    0    0  501    0  0.00000000000E+00  0.00000000000E+00  0.65408207818E+03  0.65408207819E+03  0.25500000920E-02 0.  1.
       -2   -1    0    0    0  501  0.00000000000E+00  0.00000000000E+00 -0.95517362795E+02  0.95517362829E+02  0.25500000920E-02 0. -1.
    10030    2    1    2    0    0  0.00000000000E+00  0.00000000000E+00  0.55856471539E+03  0.74959944101E+03  0.49990477163E+03 0.  0.
        1    1    3    3  502    0 -0.51276796315E+02  0.16077658319E+03  0.55576458754E+03  0.58082070928E+03  0.50400001928E-02 0.  1.
       -1    1    3    3    0  502  0.51276796315E+02 -0.16077658319E+03  0.28001278432E+01  0.16877873173E+03  0.50400001928E-02 0. -1.
</event>
<event>
 5   0  0.3013734E-03  0.4999853E+03  0.7818609E-02  0.1013783E+00
        1   -1    0    0  501    0  0.00000000000E+00  0.00000000000E+00  0.19700025717E+04  0.19700025717E+04  0.50400001928E-02 0. -1.
       -1   -1    0    0    0  501  0.00000000000E+00  0.00000000000E+00 -0.31723980676E+02  0.31723981077E+02  0.50400001928E-02 0.  1.
    10030    2    1    2    0    0  0.00000000000E+00  0.00000000000E+00  0.19382785910E+04  0.20017265527E+04  0.49998529548E+03 0.  0.
        2    1    3    3  502    0 -0.21456236508E+03  0.58338830364E+02  0.14265969130E+04  0.14438210345E+04  0.25500000920E-02 0. -1.
       -2    1    3    3    0  502  0.21456236508E+03 -0.58338830364E+02  0.51168167800E+03  0.55790551820E+03  0.25500000920E-02 0.  1.
</event>
<event>
 5   0  0.4989875E-03  0.5000617E+03  0.7818609E-02  0.1013763E+00
       -2   -1    0    0    0  501  0.00000000000E+00  0.00000000000E+00  0.44169043100E+02  0.44169043174E+02  0.25500000920E-02 0. -1.
        2   -1    0    0  501    0  0.00000000000E+00  0.00000000000E+00 -0.14153672746E+04  0.14153672746E+04  0.25500000920E-02 0.  1.
    10030    2    1    2    0    0  0.00000000000E+00  0.00000000000E+00 -0.13711982315E+04  0.14595363178E+04  0.50006166904E+03 0.  0.
        2    1    3    3  502    0  0.14541675519E+03  0.93741844695E+02 -0.15875853026E+03  0.23481447373E+03  0.25500000920E-02 0. -1.
       -2    1    3    3    0  502 -0.14541675519E+03 -0.93741844695E+02 -0.12124397012E+04  0.12247218440E+04  0.25500000920E-02 0.  1.
</event>
<event>
 5   0  0.3055293E-03  0.4994783E+03  0.7818609E-02  0.1013915E+00
       -1   -1    0    0    0  501  0.00000000000E+00  0.00000000000E+00  0.26363943473E+03  0.26363943478E+03  0.50400001928E-02 0. -1.
        1   -1    0    0  501    0  0.00000000000E+00  0.00000000000E+00 -0.23657178646E+03  0.23657178652E+03  0.50400001928E-02 0.  1.
    10030    2    1    2    0    0  0.00000000000E+00  0.00000000000E+00  0.27067648268E+02  0.50021122129E+03  0.49947833619E+03 0.  0.
        3    1    3    3  502    0  0.19002500882E+03  0.77881948967E+02  0.15584983288E+03  0.25780667672E+03  0.10100000352E+00 0. -1.
       -3    1    3    3    0  502 -0.19002500882E+03 -0.77881948967E+02 -0.12878218461E+03  0.24240454457E+03  0.10100000352E+00 0.  1.
</event>
<event>
 5   0  0.3013734E-03  0.5000165E+03  0.7818609E-02  0.1013775E+00
       -1   -1    0    0    0  501  0.00000000000E+00  0.00000000000E+00  0.90023211516E+02  0.90023211657E+02  0.50400001928E-02 0.  1.
        1   -1    0    0  501    0  0.00000000000E+00  0.00000000000E+00 -0.69431130525E+03  0.69431130527E+03  0.50400001928E-02 0. -1.
    10030    2    1    2    0    0  0.00000000000E+00  0.00000000000E+00 -0.60428809373E+03  0.78433451692E+03  0.50001653394E+03 0.  0.
        2    1    3    3  502    0 -0.44315661611E+02  0.23663381451E+03 -0.19639675290E+03  0.31069458410E+03  0.25500000920E-02 0.  1.
       -2    1    3    3    0  502  0.44315661611E+02 -0.23663381451E+03 -0.40789134083E+03  0.47363993282E+03  0.25500000920E-02 0. -1.
</event>
<event>
 5   0  0.3013734E-03  0.5001389E+03  0.7818609E-02  0.1013743E+00
        1   -1    0    0  501    0  0.00000000000E+00  0.00000000000E+00  0.32428426001E+03  0.32428426005E+03  0.50400001928E-02 0.  1.
       -1   -1    0    0    0  501  0.00000000000E+00  0.00000000000E+00 -0.19283921284E+03  0.19283921291E+03  0.50400001928E-02 0. -1.
    10030    2    1    2    0    0  0.00000000000E+00  0.00000000000E+00  0.13144504717E+03  0.51712347296E+03  0.50013886658E+03 0.  0.
        2    1    3    3  502    0  0.79976875785E+02  0.22228005345E+03  0.15054503640E+03  0.28012234972E+03  0.25500000920E-02 0.  1.
       -2    1    3    3    0  502 -0.79976875785E+02 -0.22228005345E+03 -0.19099989231E+02  0.23700112324E+03  0.25500000920E-02 0. -1.
</event>
<event>
 5   0  0.3057783E-03  0.5000557E+03  0.7818609E-02  0.1013764E+00
       -1   -1    0    0    0  501  0.00000000000E+00  0.00000000000E+00  0.15122681282E+03  0.15122681290E+03  0.50400001928E-02 0. -1.
        1   -1    0    0  501    0  0.00000000000E+00  0.00000000000E+00 -0.41337863783E+03  0.41337863786E+03  0.50400001928E-02 0.  1.
    10030    2    1    2    0    0  0.00000000000E+00  0.00000000000E+00 -0.26215182502E+03  0.56460545076E+03  0.50005573257E+03 0.  0.
        5    1    3    3  502    0 -0.58193093503E+02  0.12495555654E+03  0.10439048140E+03  0.17297337901E+03  0.46999998093E+01 0. -1.
       -5    1    3    3    0  502  0.58193093503E+02 -0.12495555654E+03 -0.36654230641E+03  0.39163207176E+03  0.46999998093E+01 0.  1.
</event>
<event>
 5   0  0.5118882E-03  0.5011832E+03  0.7818609E-02  0.1013471E+00
       -2   -1    0    0    0  501  0.00000000000E+00  0.00000000000E+00  0.15596342070E+03  0.15596342072E+03  0.25500000920E-02 0. -1.
        2   -1    0    0  501    0  0.00000000000E+00  0.00000000000E+00 -0.40263376911E+03  0.40263376912E+03  0.25500000920E-02 0.  1.
    10030    2    1    2    0    0  0.00000000000E+00  0.00000000000E+00 -0.24667034842E+03  0.55859718984E+03  0.50118315984E+03 0.  0.
        3    1    3    3  502    0 -0.25003469682E+03  0.98078981952E+01 -0.10827482250E+03  0.27264810997E+03  0.10100000352E+00 0. -1.
       -3    1    3    3    0  502  0.25003469682E+03 -0.98078981952E+01 -0.13839552592E+03  0.28594907987E+03  0.10100000352E+00 0.  1.
</event>
<event>
 5   0  0.5095783E-03  0.4997968E+03  0.7818609E-02  0.1013832E+00
        2   -1    0    0  501    0  0.00000000000E+00  0.00000000000E+00  0.53736350269E+02  0.53736350330E+02  0.25500000920E-02 0. -1.
       -2   -1    0    0    0  501  0.00000000000E+00  0.00000000000E+00 -0.11621410023E+04  0.11621410023E+04  0.25500000920E-02 0.  1.
    10030    2    1    2    0    0  0.00000000000E+00  0.00000000000E+00 -0.11084046520E+04  0.12158773526E+04  0.49979682272E+03 0.  0.
        4    1    3    3  502    0  0.21741271087E+03  0.40083433034E+02 -0.83762093204E+03  0.86630560840E+03  0.12699999809E+01 0.  1.
       -4    1    3    3    0  502 -0.21741271087E+03 -0.40083433034E+02 -0.27078371998E+03  0.34957174422E+03  0.12699999809E+01 0. -1.
</event>
<event>
 5   0  0.4889251E-03  0.4996231E+03  0.7818609E-02  0.1013877E+00
       -2   -1    0    0    0  501  0.00000000000E+00  0.00000000000E+00  0.18283869038E+03  0.18283869040E+03  0.25500000920E-02 0.  1.
        2   -1    0    0  501    0  0.00000000000E+00  0.00000000000E+00 -0.34131617945E+03  0.34131617946E+03  0.25500000920E-02 0. -1.
    10030    2    1    2    0    0  0.00000000000E+00  0.00000000000E+00 -0.15847748907E+03  0.52415486987E+03  0.49962307099E+03 0.  0.
        5    1    3    3  502    0 -0.15859475026E+03 -0.63814010765E+02 -0.27027645319E+03  0.31983741796E+03  0.46999998093E+01 0. -1.
       -5    1    3    3    0  502  0.15859475026E+03  0.63814010765E+02  0.11179896412E+03  0.20431745191E+03  0.46999998093E+01 0.  1.
</event>
<event>
 5   0  0.3013734E-03  0.4999585E+03  0.7818609E-02  0.1013790E+00
        1   -1    0    0  501    0  0.00000000000E+00  0.00000000000E+00  0.63117765862E+03  0.63117765864E+03  0.50400001928E-02 0. -1.
       -1   -1    0    0    0  501  0.00000000000E+00  0.00000000000E+00 -0.99004805808E+02  0.99004805937E+02  0.50400001928E-02 0.  1.
    10030    2    1    2    0    0  0.00000000000E+00  0.00000000000E+00  0.53217285281E+03  0.73018246457E+03  0.49995848458E+03 0.  0.
        2    1    3    3  502    0 -0.13968776323E+03  0.19474428870E+03  0.36989003852E+03  0.44074556127E+03  0.25500000920E-02 0. -1.
       -2    1    3    3    0  502  0.13968776323E+03 -0.19474428870E+03  0.16228281429E+03  0.28943690330E+03  0.25500000920E-02 0.  1.
</event>
<event>
 5   0  0.2005125E-03  0.5001197E+03  0.7818609E-02  0.1013748E+00
        4   -1    0    0  501    0  0.00000000000E+00  0.00000000000E+00  0.11320807075E+03  0.11321519413E+03  0.12699999809E+01 0.  1.
       -4   -1    0    0    0  501  0.00000000000E+00  0.00000000000E+00 -0.55231988044E+03  0.55232134055E+03  0.12699999809E+01 0. -1.
    10030    2    1    2    0    0  0.00000000000E+00  0.00000000000E+00 -0.43911180969E+03  0.66553653468E+03  0.50011968326E+03 0.  0.
        1    1    3    3  502    0 -0.43708332596E+02  0.12815367007E+03  0.60207006050E+02  0.14818456429E+03  0.50400001928E-02 0.  1.
       -1    1    3    3    0  502  0.43708332596E+02 -0.12815367007E+03 -0.49931881574E+03  0.51735197039E+03  0.50400001928E-02 0. -1.
</event>
<event>
 5   0  0.3057783E-03  0.5000572E+03  0.7818609E-02  0.1013764E+00
       -1   -1    0    0    0  501  0.00000000000E+00  0.00000000000E+00  0.10997679627E+03  0.10997679639E+03  0.50400001928E-02 0. -1.
        1   -1    0    0  501    0  0.00000000000E+00  0.00000000000E+00 -0.56843177918E+03  0.56843177920E+03  0.50400001928E-02 0.  1.
    10030    2    1    2    0    0  0.00000000000E+00  0.00000000000E+00 -0.45845498291E+03  0.67840857559E+03  0.50005722080E+03 0.  0.
        5    1    3    3  502    0 -0.10037396824E+03  0.22844615482E+03 -0.24978603924E+03  0.35309734430E+03  0.46999998093E+01 0.  1.
       -5    1    3    3    0  502  0.10037396824E+03 -0.22844615482E+03 -0.20866894367E+03  0.32531123129E+03  0.46999998093E+01 0. -1.
</event>
<event>
 5   0  0.3057783E-03  0.4998747E+03  0.7818609E-02  0.1013812E+00
        1   -1    0    0  501    0  0.00000000000E+00  0.00000000000E+00  0.11046255021E+04  0.11046255021E+04  0.50400001928E-02 0. -1.
       -1   -1    0    0    0  501  0.00000000000E+00  0.00000000000E+00 -0.56551917336E+02  0.56551917560E+02  0.50400001928E-02 0.  1.
    10030    2    1    2    0    0  0.00000000000E+00  0.00000000000E+00  0.10480735847E+04  0.11611774196E+04  0.49987474518E+03 0.  0.
        5    1    3    3  502    0  0.11117144334E+03  0.15225966296E+03  0.90505865237E+03  0.92449734938E+03  0.46999998093E+01 0. -1.
       -5    1    3    3    0  502 -0.11117144334E+03 -0.15225966296E+03  0.14301493236E+03  0.23668007026E+03  0.46999998093E+01 0.  1.
</event>
<event>
 5   0  0.3211775E-03  0.4998026E+03  0.7818609E-02  0.1013830E+00
        1   -1    0    0  501    0  0.00000000000E+00  0.00000000000E+00  0.11791552375E+04  0.11791552376E+04  0.50400001928E-02 0. -1.
       -1   -1    0    0    0  501  0.00000000000E+00  0.00000000000E+00 -0.52962203189E+02  0.52962203428E+02  0.50400001928E-02 0.  1.
    10030    2    1    2    0    0  0.00000000000E+00  0.00000000000E+00  0.11261930344E+04  0.12321174410E+04  0.49980259878E+03 0.  0.
        4    1    3    3  502    0 -0.11701042937E+03  0.77433318451E+02  0.53318608704E+02  0.15010611687E+03  0.12699999809E+01 0. -1.
       -4    1    3    3    0  502  0.11701042937E+03 -0.77433318451E+02  0.10728744257E+04  0.10820113241E+04  0.12699999809E+01 0.  1.
</event>
<event>
 5   0  0.2863538E-03  0.5009020E+03  0.7818609E-02  0.1013544E+00
       -1   -1    0    0    0  501  0.00000000000E+00  0.00000000000E+00  0.23627194735E+03  0.23627194741E+03  0.50400001928E-02 0. -1.
        1   -1    0    0  501    0  0.00000000000E+00  0.00000000000E+00 -0.26548091145E+03  0.26548091150E+03  0.50400001928E-02 0.  1.
    10030    2    1    2    0    0  0.00000000000E+00  0.00000000000E+00 -0.29208964097E+02  0.50175285891E+03  0.50090195432E+03 0.  0.
        1    1    3    3  502    0 -0.16900621926E+03  0.22357070521E+02  0.16918130949E+03  0.24017755153E+03  0.50400001928E-02 0. -1.
       -1    1    3    3    0  502  0.16900621926E+03 -0.22357070521E+02 -0.19839027359E+03  0.26157530738E+03  0.50400001928E-02 0.  1.
</event>
<event>
 5   0  0.5095783E-03  0.4999828E+03  0.7818609E-02  0.1013783E+00
        2   -1    0    0  501    0  0.00000000000E+00  0.00000000000E+00  0.17813574014E+04  0.17813574014E+04  0.25500000920E-02 0. -1.
       -2   -1    0    0    0  501  0.00000000000E+00  0.00000000000E+00 -0.35083183202E+02  0.35083183295E+02  0.25500000920E-02 0.  1.
    10030    2    1    2    0    0  0.00000000000E+00  0.00000000000E+00  0.17462742182E+04  0.18164405847E+04  0.49998275230E+03 0.  0.
        4    1    3    3  502    0 -0.82582587587E+02 -0.23188928279E+03  0.10315608547E+04  0.10605243671E+04  0.12699999809E+01 0.  1.
       -4    1    3    3    0  502  0.82582587587E+02  0.23188928279E+03  0.71471336350E+03  0.75591621765E+03  0.12699999809E+01 0. -1.
</event>
<event>
 5   0  0.4889251E-03  0.5001643E+03  0.7818609E-02  0.1013736E+00
       -2   -1    0    0    0  501  0.00000000000E+00  0.00000000000E+00  0.28958570241E+03  0.28958570242E+03  0.25500000920E-02 0. -1.
        2   -1    0    0  501    0  0.00000000000E+00  0.00000000000E+00 -0.21596743723E+03  0.21596743724E+03  0.25500000920E-02 0.  1.
    10030    2    1    2    0    0  0.00000000000E+00  0.00000000000E+00  0.73618265186E+02  0.50555313967E+03  0.50016430106E+03 0.  0.
        5    1    3    3  502    0  0.68308787948E+02 -0.21783503839E+03 -0.66273960749E+02  0.23776568788E+03  0.46999998093E+01 0.  1.
       -5    1    3    3    0  502 -0.68308787948E+02  0.21783503839E+03  0.13989222594E+03  0.26778745179E+03  0.46999998093E+01 0. -1.
</event>
<event>
 5   0  0.3057783E-03  0.4998995E+03  0.7818609E-02  0.1013805E+00
       -1   -1    0    0    0  501  0.00000000000E+00  0.00000000000E+00  0.46077140035E+02  0.46077140310E+02  0.50400001928E-02 0.  1.
        1   -1    0    0  501    0  0.00000000000E+00  0.00000000000E+00 -0.13558755101E+04  0.13558755101E+04  0.50400001928E-02 0. -1.
    10030    2    1    2    0    0  0.00000000000E+00  0.00000000000E+00 -0.13097983700E+04  0.14019526504E+04  0.49989945368E+03 0.  0.
        5    1    3    3  502    0 -0.28792107082E+02 -0.13542576414E+03 -0.71437103755E+02  0.15586684321E+03  0.46999998093E+01 0.  1.
       -5    1    3    3    0  502  0.28792107082E+02  0.13542576414E+03 -0.12383612663E+04  0.12460858072E+04  0.46999998093E+01 0. -1.
</event>
<event>
 5   0  0.4978779E-03  0.4999606E+03  0.7818609E-02  0.1013789E+00
        2   -1    0    0  501    0  0.00000000000E+00  0.00000000000E+00  0.48373135940E+03  0.48373135940E+03  0.25500000920E-02 0.  1.
       -2   -1    0    0    0  501  0.00000000000E+00  0.00000000000E+00 -0.12918360293E+03  0.12918360295E+03  0.25500000920E-02 0. -1.
    10030    2    1    2    0    0  0.00000000000E+00  0.00000000000E+00  0.35454775647E+03  0.61291496235E+03  0.49996063791E+03 0.  0.
        1    1    3    3  502    0  0.17653026393E+03 -0.39857812961E+02  0.38868339194E+03  0.42874976214E+03  0.50400001928E-02 0.  1.
       -1    1    3    3    0  502 -0.17653026393E+03  0.39857812961E+02 -0.34135635475E+02  0.18416520022E+03  0.50400001928E-02 0. -1.
</event>
<event>
 5   0  0.4989875E-03  0.5001465E+03  0.7818609E-02  0.1013741E+00
        2   -1    0    0  501    0  0.00000000000E+00  0.00000000000E+00  0.62461186328E+03  0.62461186328E+03  0.25500000920E-02 0.  1.
       -2   -1    0    0    0  501  0.00000000000E+00  0.00000000000E+00 -0.10012078925E+03  0.10012078928E+03  0.25500000920E-02 0. -1.
    10030    2    1    2    0    0  0.00000000000E+00  0.00000000000E+00  0.52449107403E+03  0.72473265256E+03  0.50014650949E+03 0.  0.
        2    1    3    3  502    0  0.16876009759E+02 -0.79664084266E+02 -0.80370529846E+02  0.11441410797E+03  0.25500000920E-02 0. -1.
       -2    1    3    3    0  502 -0.16876009759E+02  0.79664084266E+02  0.60486160387E+03  0.61031854459E+03  0.25500000920E-02 0.  1.
</event>
<event>
 5   0  0.4989875E-03  0.5000410E+03  0.7818609E-02  0.1013768E+00
       -2   -1    0    0    0  501  0.00000000000E+00  0.00000000000E+00  0.17741200001E+03  0.17741200003E+03  0.25500000920E-02 0.  1.
        2   -1    0    0  501    0  0.00000000000E+00  0.00000000000E+00 -0.35234517552E+03  0.35234517553E+03  0.25500000920E-02 0. -1.
    10030    2    1    2    0    0  0.00000000000E+00  0.00000000000E+00 -0.17493317551E+03  0.52975717556E+03  0.50004104748E+03 0.  0.
        2    1    3    3  502    0 -0.51597546286E+01  0.24787238754E+03 -0.53253173032E+02  0.25358084316E+03  0.25500000920E-02 0.  1.
       -2    1    3    3    0  502  0.51597546286E+01 -0.24787238754E+03 -0.12168000248E+03  0.27617633240E+03  0.25500000920E-02 0. -1.
</event>
<event>
 5   0  0.3211775E-03  0.5001183E+03  0.7818609E-02  0.1013748E+00
       -1   -1    0    0    0  501  0.00000000000E+00  0.00000000000E+00  0.65665189948E+03  0.65665189950E+03  0.50400001928E-02 0. -1.
        1   -1    0    0  501    0  0.00000000000E+00  0.00000000000E+00 -0.95224858671E+02  0.95224858804E+02  0.50400001928E-02 0.  1.
    10030    2    1    2    0    0  0.00000000000E+00  0.00000000000E+00  0.56142704081E+03  0.75187675830E+03  0.50011832352E+03 0.  0.
        4    1    3    3  502    0  0.10947357050E+03  0.71155029722E+02 -0.39903348444E+02  0.13653347945E+03  0.12699999809E+01 0.  1.
       -4    1    3    3    0  502 -0.10947357050E+03 -0.71155029722E+02  0.60133038925E+03  0.61534327885E+03  0.12699999809E+01 0. -1.
</event>
<event>
 5   0  0.2863538E-03  0.4999805E+03  0.7818609E-02  0.1013784E+00
        1   -1    0    0  501    0  0.00000000000E+00  0.00000000000E+00  0.12192643371E+03  0.12192643382E+03  0.50400001928E-02 0.  1.
       -1   -1    0    0    0  501  0.00000000000E+00  0.00000000000E+00 -0.51256419822E+03  0.51256419825E+03  0.50400001928E-02 0. -1.
    10030    2    1    2    0    0  0.00000000000E+00  0.00000000000E+00 -0.39063776451E+03  0.63449063206E+03  0.49998049873E+03 0.  0.
        1    1    3    3  502    0  0.77403045744E+02  0.28536448694E+01 -0.49695270491E+03  0.50295264760E+03  0.50400001928E-02 0. -1.
       -1    1    3    3    0  502 -0.77403045744E+02 -0.28536448694E+01  0.10631494040E+03  0.13153798447E+03  0.50400001928E-02 0.  1.
</event>
<event>
 5   0  0.4889251E-03  0.5003305E+03  0.7818609E-02  0.1013693E+00
        2   -1    0    0  501    0  0.00000000000E+00  0.00000000000E+00  0.18217730336E+03  0.18217730337E+03  0.25500000920E-02 0.  1.
       -2   -1    0    0    0  501  0.00000000000E+00  0.00000000000E+00 -0.34352608641E+03  0.34352608642E+03  0.25500000920E-02 0. -1.
    10030    2    1    2    0    0  0.00000000000E+00  0.00000000000E+00 -0.16134878305E+03  0.52570338979E+03  0.50033051501E+03 0.  0.
        5    1    3    3  502    0 -0.14412982420E+03  0.56283881809E+02  0.12580936746E+03  0.19947773939E+03  0.46999998093E+01 0.  1.
       -5    1    3    3    0  502  0.14412982420E+03 -0.56283881809E+02 -0.28715815051E+03  0.32622565040E+03  0.46999998093E+01 0. -1.
</event>
<event>
 5   0  0.3057783E-03  0.5002739E+03  0.7818609E-02  0.1013707E+00
        1   -1    0    0  501    0  0.00000000000E+00  0.00000000000E+00  0.10794653182E+03  0.10794653193E+03  0.50400001928E-02 0.  1.
       -1   -1    0    0    0  501  0.00000000000E+00  0.00000000000E+00 -0.57962489543E+03  0.57962489545E+03  0.50400001928E-02 0. -1.
    10030    2    1    2    0    0  0.00000000000E+00  0.00000000000E+00 -0.47167836361E+03  0.68757142738E+03  0.50027391402E+03 0.  0.
        5    1    3    3  502    0 -0.10981477943E+03 -0.21287619821E+03 -0.33466962732E+03  0.41158402665E+03  0.46999998093E+01 0. -1.
       -5    1    3    3    0  502  0.10981477943E+03  0.21287619821E+03 -0.13700873629E+03  0.27598740073E+03  0.46999998093E+01 0.  1.
</event>
<event>
 5   0  0.4989875E-03  0.5000506E+03  0.7818609E-02  0.1013766E+00
       -2   -1    0    0    0  501  0.00000000000E+00  0.00000000000E+00  0.31026537304E+02  0.31026537408E+02  0.25500000920E-02 0. -1.
        2   -1    0    0  501    0  0.00000000000E+00  0.00000000000E+00 -0.20148126957E+04  0.20148126957E+04  0.25500000920E-02 0.  1.
    10030    2    1    2    0    0  0.00000000000E+00  0.00000000000E+00 -0.19837861584E+04  0.20458392331E+04  0.50005064293E+03 0.  0.
        2    1    3    3  502    0  0.80347544842E+02  0.13619220736E+03 -0.17842539727E+04  0.17912471311E+04  0.25500000920E-02 0.  1.
       -2    1    3    3    0  502 -0.80347544842E+02 -0.13619220736E+03 -0.19953218568E+03  0.25459210207E+03  0.25500000920E-02 0. -1.
</event>
<event>
 5   0  0.5095783E-03  0.4999127E+03  0.7818609E-02  0.1013802E+00
       -2   -1    0    0    0  501  0.00000000000E+00  0.00000000000E+00  0.53686370131E+02  0.53686370191E+02  0.25500000920E-02 0. -1.
        2   -1    0    0  501    0  0.00000000000E+00  0.00000000000E+00 -0.11637624323E+04  0.11637624323E+04  0.25500000920E-02 0.  1.
    10030    2    1    2    0    0  0.00000000000E+00  0.00000000000E+00 -0.11100760622E+04  0.12174488025E+04  0.49991271528E+03 0.  0.
        4    1    3    3  502    0  0.51899105147E+02  0.21619867857E+03 -0.27692905691E+03  0.35514321223E+03  0.12699999809E+01 0. -1.
       -4    1    3    3    0  502 -0.51899105147E+02 -0.21619867857E+03 -0.83314700530E+03  0.86230559030E+03  0.12699999809E+01 0.  1.
</event>
<event>
 5   0  0.3211775E-03  0.5001405E+03  0.7818609E-02  0.1013742E+00
       -1   -1    0    0    0  501  0.00000000000E+00  0.00000000000E+00  0.14090817809E+03  0.14090817818E+03  0.50400001928E-02 0. -1.
        1   -1    0    0  501    0  0.00000000000E+00  0.00000000000E+00 -0.44380061988E+03  0.44380061991E+03  0.50400001928E-02 0.  1.
    10030    2    1    2    0    0  0.00000000000E+00  0.00000000000E+00 -0.30289244179E+03  0.58470879808E+03  0.50014052751E+03 0.  0.
        4    1    3    3  502    0  0.31136079667E+02 -0.16333372411E+03 -0.36980677307E+03  0.40547012614E+03  0.12699999809E+01 0.  1.
       -4    1    3    3    0  502 -0.31136079667E+02  0.16333372411E+03  0.66914331273E+02  0.17923867194E+03  0.12699999809E+01 0. -1.
</event>
<event>
 5   0  0.4889251E-03  0.5010289E+03  0.7818609E-02  0.1013511E+00
        2   -1    0    0  501    0  0.00000000000E+00  0.00000000000E+00  0.74254707882E+03  0.74254707882E+03  0.25500000920E-02 0. -1.
       -2   -1    0    0    0  501  0.00000000000E+00  0.00000000000E+00 -0.84516502851E+02  0.84516502889E+02  0.25500000920E-02 0.  1.
    10030    2    1    2    0    0  0.00000000000E+00  0.00000000000E+00  0.65803057597E+03  0.82706358171E+03  0.50102887071E+03 0.  0.
        5    1    3    3  502    0 -0.22529134042E+02 -0.15894902219E+03  0.11649593561E+02  0.16102843403E+03  0.46999998093E+01 0.  1.
       -5    1    3    3    0  502  0.22529134042E+02  0.15894902219E+03  0.64638098241E+03  0.66603514768E+03  0.46999998093E+01 0. -1.
</event>
<event>
 5   0  0.5118882E-03  0.5002233E+03  0.7818609E-02  0.1013721E+00
       -2   -1    0    0    0  501  0.00000000000E+00  0.00000000000E+00  0.26661278023E+02  0.26661278145E+02  0.25500000920E-02 0.  1.
        2   -1    0    0  501    0  0.00000000000E+00  0.00000000000E+00 -0.23463184986E+04  0.23463184986E+04  0.25500000920E-02 0. -1.
    10030    2    1    2    0    0  0.00000000000E+00  0.00000000000E+00 -0.23196572205E+04  0.23729797767E+04  0.50022334998E+03 0.  0.
        3    1    3    3  502    0  0.77065049261E+02  0.19824877971E+03 -0.17840401374E+04  0.17966749352E+04  0.10100000352E+00 0. -1.
       -3    1    3    3    0  502 -0.77065049261E+02 -0.19824877971E+03 -0.53561708312E+03  0.57630484156E+03  0.10100000352E+00 0.  1.
</event>
<event>
 5   0  0.5095783E-03  0.4999340E+03  0.7818609E-02  0.1013796E+00
        2   -1    0    0  501    0  0.00000000000E+00  0.00000000000E+00  0.96993633920E+03  0.96993633920E+03  0.25500000920E-02 0.  1.
       -2   -1    0    0    0  501  0.00000000000E+00  0.00000000000E+00 -0.64420199652E+02  0.64420199702E+02  0.25500000920E-02 0. -1.
    10030    2    1    2    0    0  0.00000000000E+00  0.00000000000E+00  0.90551613954E+03  0.10343565389E+04  0.49993396623E+03 0.  0.
        4    1    3    3  502    0  0.23169707734E+03 -0.57854794077E+02  0.60551550554E+03  0.65090809888E+03  0.12699999809E+01 0.  1.
       -4    1    3    3    0  502 -0.23169707734E+03  0.57854794077E+02  0.30000063401E+03  0.38344844002E+03  0.12699999809E+01 0. -1.
</event>
<event>
 5   0  0.3013734E-03  0.4999520E+03  0.7818609E-02  0.1013791E+00
        1   -1    0    0  501    0  0.00000000000E+00  0.00000000000E+00  0.26615802079E+03  0.26615802084E+03  0.50400001928E-02 0.  1.
       -1   -1    0    0    0  501  0.00000000000E+00  0.00000000000E+00 -0.23477778127E+03  0.23477778133E+03  0.50400001928E-02 0. -1.
    10030    2    1    2    0    0  0.00000000000E+00  0.00000000000E+00  0.31380239520E+02  0.50093580216E+03  0.49995195615E+03 0.  0.
        2    1    3    3  502    0 -0.10251026226E+03 -0.71220051293E+02 -0.20131711013E+03  0.23687386603E+03  0.25500000920E-02 0. -1.
       -2    1    3    3    0  502  0.10251026226E+03  0.71220051293E+02  0.23269734964E+03  0.26406193613E+03  0.25500000920E-02 0.  1.
</event>
<event>
 5   0  0.4889251E-03  0.4987295E+03  0.7818609E-02  0.1014111E+00
       -2   -1    0    0    0  501  0.00000000000E+00  0.00000000000E+00  0.60557544512E+02  0.60557544565E+02  0.25500000920E-02 0.  1.
        2   -1    0    0  501    0  0.00000000000E+00  0.00000000000E+00 -0.10268380303E+04  0.10268380303E+04  0.25500000920E-02 0. -1.
    10030    2    1    2    0    0  0.00000000000E+00  0.00000000000E+00 -0.96628048576E+03  0.10873955748E+04  0.49872954497E+03 0.  0.
        5    1    3    3  502    0  0.16655968513E+03  0.12474527923E+03 -0.18373395897E+03  0.27763964248E+03  0.46999998093E+01 0.  1.
       -5    1    3    3    0  502 -0.16655968513E+03 -0.12474527923E+03 -0.78254652680E+03  0.80975593237E+03  0.46999998093E+01 0. -1.
</event>
<event>
 5   0  0.3055293E-03  0.4999469E+03  0.7818609E-02  0.1013793E+00
        1   -1    0    0  501    0  0.00000000000E+00  0.00000000000E+00  0.95043510357E+03  0.95043510358E+03  0.50400001928E-02 0.  1.
       -1   -1    0    0    0  501  0.00000000000E+00  0.00000000000E+00 -0.65745382143E+02  0.65745382336E+02  0.50400001928E-02 0. -1.
    10030    2    1    2    0    0  0.00000000000E+00  0.00000000000E+00  0.88468972142E+03  0.10161804859E+04  0.49994687394E+03 0.  0.
        3    1    3    3  502    0  0.14307048343E+03  0.89022225159E+02  0.81764349690E+03  0.83482634005E+03  0.10100000352E+00 0.  1.
       -3    1    3    3    0  502 -0.14307048343E+03 -0.89022225159E+02  0.67046224520E+02  0.18135414587E+03  0.10100000352E+00 0. -1.
</event>
<event>
 5   0  0.5095783E-03  0.5002436E+03  0.7818609E-02  0.1013715E+00
       -2   -1    0    0    0  501  0.00000000000E+00  0.00000000000E+00  0.48412023970E+03  0.48412023970E+03  0.25500000920E-02 0. -1.
        2   -1    0    0  501    0  0.00000000000E+00  0.00000000000E+00 -0.12922596455E+03  0.12922596458E+03  0.25500000920E-02 0.  1.
    10030    2    1    2    0    0  0.00000000000E+00  0.00000000000E+00  0.35489427514E+03  0.61334620428E+03  0.50024356045E+03 0.  0.
        4    1    3    3  502    0  0.13801066848E+03  0.10572605612E+03 -0.43026279172E+02  0.17910281170E+03  0.12699999809E+01 0.  1.
       -4    1    3    3    0  502 -0.13801066848E+03 -0.10572605612E+03  0.39792055431E+03  0.43424339259E+03  0.12699999809E+01 0. -1.
</event>
<event>
 5   0  0.2863538E-03  0.4999454E+03  0.7818609E-02  0.1013793E+00
        1   -1    0    0  501    0  0.00000000000E+00  0.00000000000E+00  0.20670677156E+03  0.20670677162E+03  0.50400001928E-02 0.  1.
       -1   -1    0    0    0  501  0.00000000000E+00  0.00000000000E+00 -0.30229468785E+03  0.30229468789E+03  0.50400001928E-02 0. -1.
    10030    2    1    2    0    0  0.00000000000E+00  0.00000000000E+00 -0.95587916290E+02  0.50900145952E+03  0.49994543307E+03 0.  0.
        1    1    3    3  502    0  0.53252341861E+02  0.17417079851E+03  0.12652393333E+03  0.22176470571E+03  0.50400001928E-02 0.  1.
       -1    1    3    3    0  502 -0.53252341861E+02 -0.17417079851E+03 -0.22211184962E+03  0.28723675380E+03  0.50400001928E-02 0. -1.
</event>
<event>
 5   0  0.4889251E-03  0.4997802E+03  0.7818609E-02  0.1013836E+00
        2   -1    0    0  501    0  0.00000000000E+00  0.00000000000E+00  0.13041088004E+04  0.13041088004E+04  0.25500000920E-02 0. -1.
       -2   -1    0    0    0  501  0.00000000000E+00  0.00000000000E+00 -0.47883320292E+02  0.47883320360E+02  0.25500000920E-02 0.  1.
    10030    2    1    2    0    0  0.00000000000E+00  0.00000000000E+00  0.12562254801E+04  0.13519921208E+04  0.49978018941E+03 0.  0.
        5    1    3    3  502    0  0.13265680150E+03 -0.91572826867E+02  0.11445073309E+04  0.11558124978E+04  0.46999998093E+01 0. -1.
       -5    1    3    3    0  502 -0.13265680150E+03  0.91572826867E+02  0.11171814921E+03  0.19617962296E+03  0.46999998093E+01 0.  1.
</event>
<event>
 5   0  0.3057783E-03  0.4998654E+03  0.7818609E-02  0.1013814E+00
       -1   -1    0    0    0  501  0.00000000000E+00  0.00000000000E+00  0.12820574911E+03  0.12820574921E+03  0.50400001928E-02 0. -1.
        1   -1    0    0  501    0  0.00000000000E+00  0.00000000000E+00 -0.48723524268E+03  0.48723524270E+03  0.50400001928E-02 0.  1.
    10030    2    1    2    0    0  0.00000000000E+00  0.00000000000E+00 -0.35902949357E+03  0.61544099191E+03  0.49986541916E+03 0.  0.
        5    1    3    3  502    0  0.97719553653E+02  0.17081882201E+03  0.10092466209E+02  0.19710943405E+03  0.46999998093E+01 0. -1.
       -5    1    3    3    0  502 -0.97719553653E+02 -0.17081882201E+03 -0.36912195978E+03  0.41833155786E+03  0.46999998093E+01 0.  1.
</event>
<event>
 5   0  0.3057783E-03  0.5001083E+03  0.7818609E-02  0.1013751E+00
        1   -1    0    0  501    0  0.00000000000E+00  0.00000000000E+00  0.10362744479E+03  0.10362744491E+03  0.50400001928E-02 0. -1.
       -1   -1    0    0    0  501  0.00000000000E+00  0.00000000000E+00 -0.60338342657E+03  0.60338342659E+03  0.50400001928E-02 0.  1.
    10030    2    1    2    0    0  0.00000000000E+00  0.00000000000E+00 -0.49975598178E+03  0.70701087150E+03  0.50010831936E+03 0.  0.
        5    1    3    3  502    0  0.39621105241E+02 -0.21361456060E+03 -0.74988299403E+02  0.22988333460E+03  0.46999998093E+01 0. -1.
       -5    1    3    3    0  502 -0.39621105241E+02  0.21361456060E+03 -0.42476768238E+03  0.47712753690E+03  0.46999998093E+01 0.  1.
</event>
<event>
 5   0  0.4889251E-03  0.4999200E+03  0.7818609E-02  0.1013800E+00
       -2   -1    0    0    0  501  0.00000000000E+00  0.00000000000E+00  0.32482653738E+03  0.32482653739E+03  0.25500000920E-02 0.  1.
        2   -1    0    0  501    0  0.00000000000E+00  0.00000000000E+00 -0.19234883252E+03  0.19234883253E+03  0.25500000920E-02 0. -1.
    10030    2    1    2    0    0  0.00000000000E+00  0.00000000000E+00  0.13247770486E+03  0.51717536992E+03  0.49992001457E+03 0.  0.
        5    1    3    3  502    0  0.11833820585E+03  0.10374695144E+03 -0.13460270107E+03  0.20714086519E+03  0.46999998093E+01 0. -1.
       -5    1    3    3    0  502 -0.11833820585E+03 -0.10374695144E+03  0.26708040593E+03  0.31003450474E+03  0.46999998093E+01 0.  1.
</event>
<event>
 5   0  0.3211775E-03  0.4994994E+03  0.7818609E-02  0.1013910E+00
       -1   -1    0    0    0  501  0.00000000000E+00  0.00000000000E+00  0.72651894182E+02  0.72651894357E+02  0.50400001928E-02 0. -1.
        1   -1    0    0  501    0  0.00000000000E+00  0.00000000000E+00 -0.85854480313E+03  0.85854480315E+03  0.50400001928E-02 0.  1.
    10030    2    1    2    0    0  0.00000000000E+00  0.00000000000E+00 -0.78589290895E+03  0.93119669750E+03  0.49949937448E+03 0.  0.
        4    1    3    3  502    0  0.14531059080E+03  0.17487528076E+03 -0.20031542114E+03  0.30302543204E+03  0.12699999809E+01 0. -1.
       -4    1    3    3    0  502 -0.14531059080E+03 -0.17487528076E+03 -0.58557748781E+03  0.62817126546E+03  0.12699999809E+01 0.  1.
</event>
<event>
 5   0  0.3211775E-03  0.4998342E+03  0.7818609E-02  0.1013822E+00
       -1   -1    0    0    0  501  0.00000000000E+00  0.00000000000E+00  0.23655085177E+02  0.23655085714E+02  0.50400001928E-02 0. -1.
        1   -1    0    0  501    0  0.00000000000E+00  0.00000000000E+00 -0.26403864867E+04  0.26403864867E+04  0.50400001928E-02 0.  1.
    10030    2    1    2    0    0  0.00000000000E+00  0.00000000000E+00 -0.26167314015E+04  0.26640415724E+04  0.49983424439E+03 0.  0.
        4    1    3    3  502    0  0.20661536557E+03 -0.12057152829E+03 -0.16937972385E+04  0.17106075239E+04  0.12699999809E+01 0.  1.
       -4    1    3    3    0  502 -0.20661536557E+03  0.12057152829E+03 -0.92293416302E+03  0.95343404853E+03  0.12699999809E+01 0. -1.
</event>
<event>
 5   0  0.3057783E-03  0.5000244E+03  0.7818609E-02  0.1013773E+00
       -1   -1    0    0    0  501  0.00000000000E+00  0.00000000000E+00  0.14468752650E+03  0.14468752658E+03  0.50400001928E-02 0.  1.
        1   -1    0    0  501    0  0.00000000000E+00  0.00000000000E+00 -0.43200751866E+03  0.43200751869E+03  0.50400001928E-02 0. -1.
    10030    2    1    2    0    0  0.00000000000E+00  0.00000000000E+00 -0.28731999217E+03  0.57669504528E+03  0.50002439675E+03 0.  0.
        5    1    3    3  502    0 -0.99246851794E+02 -0.20588714348E+03 -0.26039513212E+03  0.34650709701E+03  0.46999998093E+01 0. -1.
       -5    1    3    3    0  502  0.99246851794E+02  0.20588714348E+03 -0.26924860041E+02  0.23018794827E+03  0.46999998093E+01 0.  1.
</event>
<event>
 5   0  0.3013734E-03  0.4998215E+03  0.7818609E-02  0.1013826E+00
       -1   -1    0    0    0  501  0.00000000000E+00  0.00000000000E+00  0.17604285502E+03  0.17604285509E+03  0.50400001928E-02 0. -1.
        1   -1    0    0  501    0  0.00000000000E+00  0.00000000000E+00 -0.35477374948E+03  0.35477374952E+03  0.50400001928E-02 0.  1.
    10030    2    1    2    0    0  0.00000000000E+00  0.00000000000E+00 -0.17873089446E+03  0.53081660461E+03  0.49982150323E+03 0.  0.
        2    1    3    3  502    0 -0.65289850855E+02 -0.57040935707E+02 -0.33829115116E+03  0.34922390515E+03  0.25500000920E-02 0.  1.
       -2    1    3    3    0  502  0.65289850855E+02  0.57040935707E+02  0.15956025670E+03  0.18159269945E+03  0.25500000920E-02 0. -1.
</event>
<event>
 5   0  0.3211775E-03  0.4999082E+03  0.7818609E-02  0.1013803E+00
        1   -1    0    0  501    0  0.00000000000E+00  0.00000000000E+00  0.32209206481E+03  0.32209206485E+03  0.50400001928E-02 0.  1.
       -1   -1    0    0    0  501  0.00000000000E+00  0.00000000000E+00 -0.19397264623E+03  0.19397264629E+03  0.50400001928E-02 0. -1.
    10030    2    1    2    0    0  0.00000000000E+00  0.00000000000E+00  0.12811941858E+03  0.51606471114E+03  0.49990819224E+03 0.  0.
        4    1    3    3  502    0 -0.24516500193E+03 -0.99253143425E+01  0.14864026546E+02  0.24581892161E+03  0.12699999809E+01 0. -1.
       -4    1    3    3    0  502  0.24516500193E+03  0.99253143425E+01  0.11325539204E+03  0.27024578953E+03  0.12699999809E+01 0.  1.
</event>
<event>
 5   0  0.3211775E-03  0.5000483E+03  0.7818609E-02  0.1013766E+00
        1   -1    0    0  501    0  0.00000000000E+00  0.00000000000E+00  0.25270405652E+03  0.25270405657E+03  0.50400001928E-02 0. -1.
       -1   -1    0    0    0  501  0.00000000000E+00  0.00000000000E+00 -0.24737265481E+03  0.24737265487E+03  0.50400001928E-02 0.  1.
    10030    2    1    2    0    0  0.00000000000E+00  0.00000000000E+00  0.53314017037E+01  0.50007671143E+03  0.50004829114E+03 0.  0.
        4    1    3    3  502    0  0.18997937900E+03 -0.36487008945E+02 -0.15573204511E+03  0.24834965078E+03  0.12699999809E+01 0.  1.
       -4    1    3    3    0  502 -0.18997937900E+03  0.36487008945E+02  0.16106344681E+03  0.25172706066E+03  0.12699999809E+01 0. -1.
</event>
<event>
 5   0  0.2863538E-03  0.4998938E+03  0.7818609E-02  0.1013807E+00
       -1   -1    0    0    0  501  0.00000000000E+00  0.00000000000E+00  0.21972579872E+03  0.21972579878E+03  0.50400001928E-02 0. -1.
        1   -1    0    0  501    0  0.00000000000E+00  0.00000000000E+00 -0.28432462897E+03  0.28432462902E+03  0.50400001928E-02 0.  1.
    10030    2    1    2    0    0  0.00000000000E+00  0.00000000000E+00 -0.64598830255E+02  0.50405042779E+03  0.49989381361E+03 0.  0.
        1    1    3    3  502    0 -0.94097061731E+02 -0.18754542618E+03  0.10464562105E+03  0.23447441212E+03  0.50400001928E-02 0. -1.
       -1    1    3    3    0  502  0.94097061731E+02  0.18754542618E+03 -0.16924445130E+03  0.26957601568E+03  0.50400001928E-02 0.  1.
</event>
<event>
 5   0  0.4989875E-03  0.4997080E+03  0.7818609E-02  0.1013855E+00
        2   -1    0    0  501    0  0.00000000000E+00  0.00000000000E+00  0.18810735014E+04  0.18810735014E+04  0.25500000920E-02 0.  1.
       -2   -1    0    0    0  501  0.00000000000E+00  0.00000000000E+00 -0.33186908780E+02  0.33186908878E+02  0.25500000920E-02 0. -1.
    10030    2    1    2    0    0  0.00000000000E+00  0.00000000000E+00  0.18478865926E+04  0.19142604102E+04  0.49970797390E+03 0.  0.
        2    1    3    3  502    0 -0.20545342835E+03 -0.11448935254E+03  0.60097399080E+03  0.64535932681E+03  0.25500000920E-02 0. -1.
       -2    1    3    3    0  502  0.20545342835E+03  0.11448935254E+03  0.12469126018E+04  0.12689010834E+04  0.25500000920E-02 0.  1.
</event>
<event>
 5   0  0.2863538E-03  0.5003024E+03  0.7818609E-02  0.1013700E+00
       -1   -1    0    0    0  501  0.00000000000E+00  0.00000000000E+00  0.68091874903E+03  0.68091874905E+03  0.50400001928E-02 0.  1.
        1   -1    0    0  501    0  0.00000000000E+00  0.00000000000E+00 -0.91898824201E+02  0.91898824339E+02  0.50400001928E-02 0. -1.
    10030    2    1    2    0    0  0.00000000000E+00  0.00000000000E+00  0.58901992483E+03  0.77281757339E+03  0.50030243842E+03 0.  0.
        1    1    3    3  502    0  0.55496202127E+01 -0.18581161572E+03  0.55307496204E+03  0.58347979270E+03  0.50400001928E-02 0.  1.
       -1    1    3    3    0  502 -0.55496202127E+01  0.18581161572E+03  0.35944962783E+02  0.18933778069E+03  0.50400001928E-02 0. -1.
</event>
<event>
 5   0  0.3211775E-03  0.5000583E+03  0.7818609E-02  0.1013764E+00
       -1   -1    0    0    0  501  0.00000000000E+00  0.00000000000E+00  0.21178129948E+03  0.21178129954E+03  0.50400001928E-02 0. -1.
        1   -1    0    0  501    0  0.00000000000E+00  0.00000000000E+00 -0.29518461127E+03  0.29518461132E+03  0.50400001928E-02 0.  1.
    10030    2    1    2    0    0  0.00000000000E+00  0.00000000000E+00 -0.83403311790E+02  0.50696591086E+03  0.50005831895E+03 0.  0.
        4    1    3    3  502    0  0.17555897106E+02  0.23348924211E+02 -0.29344523536E+03  0.29489845852E+03  0.12699999809E+01 0.  1.
       -4    1    3    3    0  502 -0.17555897106E+02 -0.23348924211E+02  0.21004192357E+03  0.21206745234E+03  0.12699999809E+01 0. -1.
</event>
<event>
 5   0  0.2005125E-03  0.4999343E+03  0.7818609E-02  0.1013796E+00
       -3   -1    0    0    0  501  0.00000000000E+00  0.00000000000E+00  0.94663682089E+02  0.94663735969E+02  0.10100000352E+00 0.  1.
        3   -1    0    0  501    0  0.00000000000E+00  0.00000000000E+00 -0.66005840786E+03  0.66005841559E+03  0.10100000352E+00 0. -1.
    10030    2    1    2    0    0  0.00000000000E+00  0.00000000000E+00 -0.56539472578E+03  0.75472215156E+03  0.49993432581E+03 0.  0.
        5    1    3    3  502    0  0.11679958110E+03 -0.15125742793E+03 -0.52584141711E+03  0.55951071267E+03  0.46999998093E+01 0. -1.
       -5    1    3    3    0  502 -0.11679958110E+03  0.15125742793E+03 -0.39553308667E+02  0.19521143889E+03  0.46999998093E+01 0.  1.
</event>
<event>
 5   0  0.4889251E-03  0.5002835E+03  0.7818609E-02  0.1013705E+00
        2   -1    0    0  501    0  0.00000000000E+00  0.00000000000E+00  0.22322373059E+03  0.22322373060E+03  0.25500000920E-02 0.  1.
       -2   -1    0    0    0  501  0.00000000000E+00  0.00000000000E+00 -0.28030578970E+03  0.28030578971E+03  0.25500000920E-02 0. -1.
    10030    2    1    2    0    0  0.00000000000E+00  0.00000000000E+00 -0.57082059110E+02  0.50352952032E+03  0.50028353596E+03 0.  0.
        5    1    3    3  502    0  0.27456122292E+01  0.15999714537E+03  0.16490955223E+03  0.22983445201E+03  0.46999998093E+01 0.  1.
       -5    1    3    3    0  502 -0.27456122292E+01 -0.15999714537E+03 -0.22199161134E+03  0.27369506831E+03  0.46999998093E+01 0. -1.
</event>
<event>
 5   0  0.2005125E-03  0.4999343E+03  0.7818609E-02  0.1013796E+00
       -4   -1    0    0    0  501  0.00000000000E+00  0.00000000000E+00  0.20189520325E+04  0.20189524319E+04  0.12699999809E+01 0.  1.
        4   -1    0    0  501    0  0.00000000000E+00  0.00000000000E+00 -0.30935085414E+02  0.30961143543E+02  0.12699999809E+01 0. -1.
    10030    2    1    2    0    0  0.00000000000E+00  0.00000000000E+00  0.19880169471E+04  0.20499135755E+04  0.49993428072E+03 0.  0.
        4    1    3    3  502    0  0.13830801439E+03  0.12325949063E+03  0.30592905173E+03  0.35765375220E+03  0.12699999809E+01 0. -1.
       -4    1    3    3    0  502 -0.13830801439E+03 -0.12325949063E+03  0.16820878953E+04  0.16922598233E+04  0.12699999809E+01 0.  1.
</event>
<event>
 5   0  0.3055293E-03  0.4999491E+03  0.7818609E-02  0.1013792E+00
       -1   -1    0    0    0  501  0.00000000000E+00  0.00000000000E+00  0.28022095145E+03  0.28022095149E+03  0.50400001928E-02 0.  1.
        1   -1    0    0  501    0  0.00000000000E+00  0.00000000000E+00 -0.22299290974E+03  0.22299290980E+03  0.50400001928E-02 0. -1.
    10030    2    1    2    0    0  0.00000000000E+00  0.00000000000E+00  0.57228041703E+02  0.50321386129E+03  0.49994913885E+03 0.  0.
        3    1    3    3  502    0  0.10233011423E+03  0.15481010967E+03  0.19718799130E+03  0.27077802062E+03  0.10100000352E+00 0.  1.
       -3    1    3    3    0  502 -0.10233011423E+03 -0.15481010967E+03 -0.13995994960E+03  0.23243584067E+03  0.10100000352E+00 0. -1.
</event>
<event>
 5   0  0.3211775E-03  0.4997166E+03  0.7818609E-02  0.1013853E+00
       -1   -1    0    0    0  501  0.00000000000E+00  0.00000000000E+00  0.71482532928E+02  0.71482533106E+02  0.50400001928E-02 0. -1.
        1   -1    0    0  501    0  0.00000000000E+00  0.00000000000E+00 -0.87334843340E+03  0.87334843342E+03  0.50400001928E-02 0.  1.
    10030    2    1    2    0    0  0.00000000000E+00  0.00000000000E+00 -0.80186590048E+03  0.94483096652E+03  0.49971655261E+03 0.  0.
        4    1    3    3  502    0 -0.24609258047E+03 -0.10467069021E+02 -0.32169275899E+03  0.40516535116E+03  0.12699999809E+01 0.  1.
       -4    1    3    3    0  502  0.24609258047E+03  0.10467069021E+02 -0.48017314149E+03  0.53966561536E+03  0.12699999809E+01 0. -1.
</event>
<event>
 5   0  0.3013734E-03  0.4999098E+03  0.7818609E-02  0.1013802E+00
        1   -1    0    0  501    0  0.00000000000E+00  0.00000000000E+00  0.52154776967E+03  0.52154776970E+03  0.50400001928E-02 0.  1.
       -1   -1    0    0    0  501  0.00000000000E+00  0.00000000000E+00 -0.11979237514E+03  0.11979237524E+03  0.50400001928E-02 0. -1.
    10030    2    1    2    0    0  0.00000000000E+00  0.00000000000E+00  0.40175539454E+03  0.64134014494E+03  0.49990977633E+03 0.  0.
        2    1    3    3  502    0  0.33286855910E+02  0.79875633488E+02  0.50171795256E+03  0.50912575611E+03  0.25500000920E-02 0.  1.
       -2    1    3    3    0  502 -0.33286855910E+02 -0.79875633488E+02 -0.99962558025E+02  0.13221438883E+03  0.25500000920E-02 0. -1.
</event>
<event>
 5   0  0.5095783E-03  0.4995061E+03  0.7818609E-02  0.1013908E+00
        2   -1    0    0  501    0  0.00000000000E+00  0.00000000000E+00  0.63492776823E+03  0.63492776823E+03  0.25500000920E-02 0.  1.
       -2   -1    0    0    0  501  0.00000000000E+00  0.00000000000E+00 -0.98242032258E+02  0.98242032291E+02  0.25500000920E-02 0. -1.
    10030    2    1    2    0    0  0.00000000000E+00  0.00000000000E+00  0.53668573597E+03  0.73316980052E+03  0.49950613330E+03 0.  0.
        4    1    3    3  502    0  0.73281772274E+02 -0.25430180790E+02  0.61679393248E+03  0.62165366586E+03  0.12699999809E+01 0.  1.
       -4    1    3    3    0  502 -0.73281772274E+02  0.25430180790E+02 -0.80108196505E+02  0.11151613466E+03  0.12699999809E+01 0. -1.
</event>
<event>
 5   0  0.3057783E-03  0.5000596E+03  0.7818609E-02  0.1013763E+00
        1   -1    0    0  501    0  0.00000000000E+00  0.00000000000E+00  0.13148636617E+04  0.13148636618E+04  0.50400001928E-02 0.  1.
       -1   -1    0    0    0  501  0.00000000000E+00  0.00000000000E+00 -0.47544778430E+02  0.47544778697E+02  0.50400001928E-02 0. -1.
    10030    2    1    2    0    0  0.00000000000E+00  0.00000000000E+00  0.12673188833E+04  0.13624084404E+04  0.50005960305E+03 0.  0.
        5    1    3    3  502    0 -0.64919368394E+02  0.19472677274E+03  0.24490801064E+03  0.31958576953E+03  0.46999998093E+01 0. -1.
       -5    1    3    3    0  502  0.64919368394E+02 -0.19472677274E+03  0.10224108727E+04  0.10428226709E+04  0.46999998093E+01 0.  1.
</event>
<event>
 5   0  0.3055293E-03  0.4999989E+03  0.7818609E-02  0.1013779E+00
       -1   -1    0    0    0  501  0.00000000000E+00  0.00000000000E+00  0.27072937339E+03  0.27072937343E+03  0.50400001928E-02 0. -1.
        1   -1    0    0  501    0  0.00000000000E+00  0.00000000000E+00 -0.23085685212E+03  0.23085685217E+03  0.50400001928E-02 0.  1.
    10030    2    1    2    0    0  0.00000000000E+00  0.00000000000E+00  0.39872521269E+02  0.50158622561E+03  0.49999892377E+03 0.  0.
        3    1    3    3  502    0  0.61725420959E+02 -0.20265855163E+03  0.15309500197E+03  0.26137828136E+03  0.10100000352E+00 0. -1.
       -3    1    3    3    0  502 -0.61725420959E+02  0.20265855163E+03 -0.11322248070E+03  0.24020794424E+03  0.10100000352E+00 0.  1.
</event>
<event>
 5   0  0.4989875E-03  0.5000458E+03  0.7818609E-02  0.1013767E+00
        2   -1    0    0  501    0  0.00000000000E+00  0.00000000000E+00  0.14999404842E+04  0.14999404842E+04  0.25500000920E-02 0. -1.
       -2   -1    0    0    0  501  0.00000000000E+00  0.00000000000E+00 -0.41675949181E+02  0.41675949259E+02  0.25500000920E-02 0.  1.
    10030    2    1    2    0    0  0.00000000000E+00  0.00000000000E+00  0.14582645350E+04  0.15416164335E+04  0.50004577173E+03 0.  0.
        2    1    3    3  502    0  0.19395746435E+03  0.12877695239E+03  0.44811929544E+03  0.50498901413E+03  0.25500000920E-02 0.  1.
       -2    1    3    3    0  502 -0.19395746435E+03 -0.12877695239E+03  0.10101452396E+04  0.10366274194E+04  0.25500000920E-02 0. -1.
</event>
<event>
 5   0  0.4889251E-03  0.5002415E+03  0.7818609E-02  0.1013716E+00
        2   -1    0    0  501    0  0.00000000000E+00  0.00000000000E+00  0.13958129481E+04  0.13958129481E+04  0.25500000920E-02 0.  1.
       -2   -1    0    0    0  501  0.00000000000E+00  0.00000000000E+00 -0.44820045137E+02  0.44820045209E+02  0.25500000920E-02 0. -1.
    10030    2    1    2    0    0  0.00000000000E+00  0.00000000000E+00  0.13509929029E+04  0.14406329933E+04  0.50024153921E+03 0.  0.
        5    1    3    3  502    0  0.91016859295E+02 -0.87797657067E+02  0.12968144161E+04  0.13029743732E+04  0.46999998093E+01 0.  1.
       -5    1    3    3    0  502 -0.91016859295E+02  0.87797657067E+02  0.54178486817E+02  0.13765862012E+03  0.46999998093E+01 0. -1.
</event>
<event>
 5   0  0.5118882E-03  0.5000788E+03  0.7818609E-02  0.1013758E+00
       -2   -1    0    0    0  501  0.00000000000E+00  0.00000000000E+00  0.11612737948E+03  0.11612737951E+03  0.25500000920E-02 0.  1.
        2   -1    0    0  501    0  0.00000000000E+00  0.00000000000E+00 -0.53837182016E+03  0.53837182017E+03  0.25500000920E-02 0. -1.
    10030    2    1    2    0    0  0.00000000000E+00  0.00000000000E+00 -0.42224444068E+03  0.65449919967E+03  0.50007882847E+03 0.  0.
        3    1    3    3  502    0 -0.11666691001E+02  0.15787503587E+03 -0.46443032648E+03  0.49066911150E+03  0.10100000352E+00 0. -1.
       -3    1    3    3    0  502  0.11666691001E+02 -0.15787503587E+03  0.42185885795E+02  0.16383008817E+03  0.10100000352E+00 0.  1.
</event>
<event>
 5   0  0.2005125E-03  0.4998885E+03  0.7818609E-02  0.1013808E+00
        4   -1    0    0  501    0  0.00000000000E+00  0.00000000000E+00  0.92044407695E+03  0.92044495310E+03  0.12699999809E+01 0.  1.
       -4   -1    0    0    0  501  0.00000000000E+00  0.00000000000E+00 -0.67864874053E+02  0.67876756185E+02  0.12699999809E+01 0. -1.
    10030    2    1    2    0    0  0.00000000000E+00  0.00000000000E+00  0.85257920289E+03  0.98832170928E+03  0.49988849140E+03 0.  0.
        3    1    3    3  502    0  0.22159551318E+03 -0.12852379883E+02  0.65345960897E+03  0.69012986161E+03  0.10100000352E+00 0.  1.
       -3    1    3    3    0  502 -0.22159551318E+03  0.12852379883E+02  0.19911959392E+03  0.29819184767E+03  0.10100000352E+00 0. -1.
</event>
<event>
 5   0  0.5118882E-03  0.5004656E+03  0.7818609E-02  0.1013657E+00
        2   -1    0    0  501    0  0.00000000000E+00  0.00000000000E+00  0.10122487081E+04  0.10122487081E+04  0.25500000920E-02 0. -1.
       -2   -1    0    0    0  501  0.00000000000E+00  0.00000000000E+00 -0.61858761312E+02  0.61858761364E+02  0.25500000920E-02 0.  1.
    10030    2    1    2    0    0  0.00000000000E+00  0.00000000000E+00  0.95038994682E+03  0.10741074695E+04  0.50046558825E+03 0.  0.
        3    1    3    3  502    0 -0.10934132316E+03 -0.14108863569E+03  0.98811308226E+02  0.20402257940E+03  0.10100000352E+00 0.  1.
       -3    1    3    3    0  502  0.10934132316E+03  0.14108863569E+03  0.85157863860E+03  0.87008489010E+03  0.10100000352E+00 0. -1.
</event>
<event>
 5   0  0.3057783E-03  0.5001353E+03  0.7818609E-02  0.1013744E+00
        1   -1    0    0  501    0  0.00000000000E+00  0.00000000000E+00  0.13018643218E+04  0.13018643218E+04  0.50400001928E-02 0.  1.
       -1   -1    0    0    0  501  0.00000000000E+00  0.00000000000E+00 -0.48034055363E+02  0.48034055627E+02  0.50400001928E-02 0. -1.
    10030    2    1    2    0    0  0.00000000000E+00  0.00000000000E+00  0.12538302665E+04  0.13498983775E+04  0.50013527408E+03 0.  0.
        5    1    3    3  502    0 -0.25778346908E+02 -0.20774067796E+03  0.25791196249E+03  0.33220683744E+03  0.46999998093E+01 0. -1.
       -5    1    3    3    0  502  0.25778346908E+02  0.20774067796E+03  0.99591830399E+03  0.10176915400E+04  0.46999998093E+01 0.  1.
</event>
<event>
 5   0  0.3055293E-03  0.5003167E+03  0.7818609E-02  0.1013696E+00
       -1   -1    0    0    0  501  0.00000000000E+00  0.00000000000E+00  0.38871853380E+02  0.38871853707E+02  0.50400001928E-02 0. -1.
        1   -1    0    0  501    0  0.00000000000E+00  0.00000000000E+00 -0.16098849431E+04  0.16098849431E+04  0.50400001928E-02 0.  1.
    10030    2    1    2    0    0  0.00000000000E+00  0.00000000000E+00 -0.15710130898E+04  0.16487567969E+04  0.50031674665E+03 0.  0.
        3    1    3    3  502    0 -0.71676695436E+02 -0.11587859073E+03 -0.94143730386E+02  0.16561536351E+03  0.10100000352E+00 0. -1.
       -3    1    3    3    0  502  0.71676695436E+02  0.11587859073E+03 -0.14768693594E+04  0.14831414333E+04  0.10100000352E+00 0.  1.
</event>
<event>
 5   0  0.2005125E-03  0.4999626E+03  0.7818609E-02  0.1013789E+00
        3   -1    0    0  501    0  0.00000000000E+00  0.00000000000E+00  0.19269829380E+03  0.19269832027E+03  0.10100000352E+00 0.  1.
       -3   -1    0    0    0  501  0.00000000000E+00  0.00000000000E+00 -0.32429261738E+03  0.32429263311E+03  0.10100000352E+00 0. -1.
    10030    2    1    2    0    0  0.00000000000E+00  0.00000000000E+00 -0.13159432358E+03  0.51699095337E+03  0.49996257847E+03 0.  0.
        4    1    3    3  502    0 -0.18166069385E+03 -0.54395991187E+02 -0.23422349009E+03  0.30136653391E+03  0.12699999809E+01 0. -1.
       -4    1    3    3    0  502  0.18166069385E+03  0.54395991187E+02  0.10262916651E+03  0.21562441946E+03  0.12699999809E+01 0.  1.
</event>
<event>
 5   0  0.3211775E-03  0.5000211E+03  0.7818609E-02  0.1013773E+00
        1   -1    0    0  501    0  0.00000000000E+00  0.00000000000E+00  0.43043392686E+03  0.43043392689E+03  0.50400001928E-02 0.  1.
       -1   -1    0    0    0  501  0.00000000000E+00  0.00000000000E+00 -0.14521456720E+03  0.14521456729E+03  0.50400001928E-02 0. -1.
    10030    2    1    2    0    0  0.00000000000E+00  0.00000000000E+00  0.28521935966E+03  0.57564849418E+03  0.50002110528E+03 0.  0.
        4    1    3    3  502    0  0.16104232947E+03  0.91310662219E+01  0.36251215235E+03  0.39678039487E+03  0.12699999809E+01 0.  1.
       -4    1    3    3    0  502 -0.16104232947E+03 -0.91310662219E+01 -0.77292792687E+02  0.17886809932E+03  0.12699999809E+01 0. -1.
</event>
<event>
 5   0  0.5095783E-03  0.4997508E+03  0.7818609E-02  0.1013844E+00
        2   -1    0    0  501    0  0.00000000000E+00  0.00000000000E+00  0.10283715719E+04  0.10283715719E+04  0.25500000920E-02 0. -1.
       -2   -1    0    0    0  501  0.00000000000E+00  0.00000000000E+00 -0.60715130484E+02  0.60715130538E+02  0.25500000920E-02 0.  1.
    10030    2    1    2    0    0  0.00000000000E+00  0.00000000000E+00  0.96765644143E+03  0.10890867025E+04  0.49975079472E+03 0.  0.
        4    1    3    3  502    0 -0.23779844592E+02 -0.10982607705E+03 -0.25366878593E+01  0.11240683206E+03  0.12699999809E+01 0.  1.
       -4    1    3    3    0  502  0.23779844592E+02  0.10982607705E+03  0.97019312929E+03  0.97667987039E+03  0.12699999809E+01 0. -1.
</event>
<event>
 5   0  0.3211775E-03  0.5001442E+03  0.7818609E-02  0.1013741E+00
        1   -1    0    0  501    0  0.00000000000E+00  0.00000000000E+00  0.14480710440E+03  0.14480710448E+03  0.50400001928E-02 0. -1.
       -1   -1    0    0    0  501  0.00000000000E+00  0.00000000000E+00 -0.43185761330E+03  0.43185761333E+03  0.50400001928E-02 0.  1.
    10030    2    1    2    0    0  0.00000000000E+00  0.00000000000E+00 -0.28705050891E+03  0.57666471782E+03  0.50014418132E+03 0.  0.
        4    1    3    3  502    0 -0.16067152810E+03  0.17886437514E+03 -0.64256122716E+02  0.24887399792E+03  0.12699999809E+01 0. -1.
       -4    1    3    3    0  502  0.16067152810E+03 -0.17886437514E+03 -0.22279438619E+03  0.32779071990E+03  0.12699999809E+01 0.  1.
</event>
<event>
 5   0  0.2005125E-03  0.5000897E+03  0.7818609E-02  0.1013756E+00
        4   -1    0    0  501    0  0.00000000000E+00  0.00000000000E+00  0.22051290417E+03  0.22051656129E+03  0.12699999809E+01 0. -1.
       -4   -1    0    0    0  501  0.00000000000E+00  0.00000000000E+00 -0.28352440162E+03  0.28352724598E+03  0.12699999809E+01 0.  1.
    10030    2    1    2    0    0  0.00000000000E+00  0.00000000000E+00 -0.63011497447E+02  0.50404380727E+03  0.50008970279E+03 0.  0.
        2    1    3    3  502    0  0.14817670756E+03  0.15914892836E+03 -0.15592288989E+03  0.26757553262E+03  0.25500000920E-02 0.  1.
       -2    1    3    3    0  502 -0.14817670756E+03 -0.15914892836E+03  0.92911392440E+02  0.23646827465E+03  0.25500000920E-02 0. -1.
</event>
<event>
 5   0  0.3055293E-03  0.4999067E+03  0.7818609E-02  0.1013803E+00
        1   -1    0    0  501    0  0.00000000000E+00  0.00000000000E+00  0.19511499640E+03  0.19511499646E+03  0.50400001928E-02 0.  1.
       -1   -1    0    0    0  501  0.00000000000E+00  0.00000000000E+00 -0.32020432442E+03  0.32020432445E+03  0.50400001928E-02 0. -1.
    10030    2    1    2    0    0  0.00000000000E+00  0.00000000000E+00 -0.12508932802E+03  0.51531932092E+03  0.49990665381E+03 0.  0.
        3    1    3    3  502    0 -0.21387358508E+03 -0.84061008702E+02 -0.16390472805E+03  0.28226394325E+03  0.10100000352E+00 0. -1.
       -3    1    3    3    0  502  0.21387358508E+03  0.84061008702E+02  0.38815400032E+02  0.23305537767E+03  0.10100000352E+00 0.  1.
</event>
<event>
 5   0  0.4989875E-03  0.4999645E+03  0.7818609E-02  0.1013788E+00
        2   -1    0    0  501    0  0.00000000000E+00  0.00000000000E+00  0.26238184741E+03  0.26238184742E+03  0.25500000920E-02 0. -1.
       -2   -1    0    0    0  501  0.00000000000E+00  0.00000000000E+00 -0.23816867104E+03  0.23816867105E+03  0.25500000920E-02 0.  1.
    10030    2    1    2    0    0  0.00000000000E+00  0.00000000000E+00  0.24213176374E+02  0.50055051848E+03  0.49996454238E+03 0.  0.
        2    1    3    3  502    0 -0.17122701586E+03 -0.17334149558E+03  0.68075336320E+02  0.25298264065E+03  0.25500000920E-02 0.  1.
       -2    1    3    3    0  502  0.17122701586E+03  0.17334149558E+03 -0.43862159946E+02  0.24756787782E+03  0.25500000920E-02 0. -1.
</event>
<event>
 5   0  0.5095783E-03  0.4997271E+03  0.7818609E-02  0.1013850E+00
       -2   -1    0    0    0  501  0.00000000000E+00  0.00000000000E+00  0.21383951056E+03  0.21383951058E+03  0.25500000920E-02 0.  1.
        2   -1    0    0  501    0  0.00000000000E+00  0.00000000000E+00 -0.29195630370E+03  0.29195630371E+03  0.25500000920E-02 0. -1.
    10030    2    1    2    0    0  0.00000000000E+00  0.00000000000E+00 -0.78116793136E+02  0.50579581428E+03  0.49972709790E+03 0.  0.
        4    1    3    3  502    0 -0.17349857361E+03 -0.17368867682E+03 -0.86105882500E+02  0.26016407784E+03  0.12699999809E+01 0. -1.
       -4    1    3    3    0  502  0.17349857361E+03  0.17368867682E+03  0.79890893636E+01  0.24563173644E+03  0.12699999809E+01 0.  1.
</event>
<event>
 5   0  0.4989875E-03  0.5000169E+03  0.7818609E-02  0.1013775E+00
        2   -1    0    0  501    0  0.00000000000E+00  0.00000000000E+00  0.30321311044E+03  0.30321311045E+03  0.25500000920E-02 0. -1.
       -2   -1    0    0    0  501  0.00000000000E+00  0.00000000000E+00 -0.20613956913E+03  0.20613956915E+03  0.25500000920E-02 0.  1.
    10030    2    1    2    0    0  0.00000000000E+00  0.00000000000E+00  0.97073541302E+02  0.50935267960E+03  0.50001687951E+03 0.  0.
        2    1    3    3  502    0  0.20659275063E+02 -0.30629547862E+02 -0.20334339243E+03  0.20667247059E+03  0.25500000920E-02 0.  1.
       -2    1    3    3    0  502 -0.20659275063E+02  0.30629547862E+02  0.30041693373E+03  0.30268020901E+03  0.25500000920E-02 0. -1.
</event>
<event>
 5   0  0.3211775E-03  0.5001652E+03  0.7818609E-02  0.1013736E+00
        1   -1    0    0  501    0  0.00000000000E+00  0.00000000000E+00  0.68479307513E+03  0.68479307514E+03  0.50400001928E-02 0.  1.
       -1   -1    0    0    0  501  0.00000000000E+00  0.00000000000E+00 -0.91328778837E+02  0.91328778976E+02  0.50400001928E-02 0. -1.
    10030    2    1    2    0    0  0.00000000000E+00  0.00000000000E+00  0.59346429629E+03  0.77612185412E+03  0.50016523417E+03 0.  0.
        4    1    3    3  502    0  0.17898316023E+03 -0.11663777249E+03  0.95004976188E+02  0.23380953791E+03  0.12699999809E+01 0. -1.
       -4    1    3    3    0  502 -0.17898316023E+03  0.11663777249E+03  0.49845932010E+03  0.54231231621E+03  0.12699999809E+01 0.  1.
</event>
<event>
 5   0  0.4889251E-03  0.4999724E+03  0.7818609E-02  0.1013786E+00
        2   -1    0    0  501    0  0.00000000000E+00  0.00000000000E+00  0.39939809674E+03  0.39939809674E+03  0.25500000920E-02 0.  1.
       -2   -1    0    0    0  501  0.00000000000E+00  0.00000000000E+00 -0.15646817438E+03  0.15646817440E+03  0.25500000920E-02 0. -1.
    10030    2    1    2    0    0  0.00000000000E+00  0.00000000000E+00  0.24292992236E+03  0.55586627114E+03  0.49997236345E+03 0.  0.
        5    1    3    3  502    0  0.19996140932E+03 -0.60442789352E+02  0.27404063209E+03  0.34461319481E+03  0.46999998093E+01 0.  1.
       -5    1    3    3    0  502 -0.19996140932E+03  0.60442789352E+02 -0.31110709735E+02  0.21125307633E+03  0.46999998093E+01 0. -1.
</event>
<event>
 5   0  0.3013734E-03  0.5000864E+03  0.7818609E-02  0.1013756E+00
        1   -1    0    0  501    0  0.00000000000E+00  0.00000000000E+00  0.15894039380E+03  0.15894039388E+03  0.50400001928E-02 0. -1.
       -1   -1    0    0    0  501  0.00000000000E+00  0.00000000000E+00 -0.39336501317E+03  0.39336501320E+03  0.50400001928E-02 0.  1.
    10030    2    1    2    0    0  0.00000000000E+00  0.00000000000E+00 -0.23442461937E+03  0.55230540708E+03  0.50008635306E+03 0.  0.
        2    1    3    3  502    0 -0.21933922423E+03  0.85614273794E+02 -0.21015495777E+03  0.31560197313E+03  0.25500000920E-02 0.  1.
       -2    1    3    3    0  502  0.21933922423E+03 -0.85614273794E+02 -0.24269661601E+02  0.23670343395E+03  0.25500000920E-02 0. -1.
</event>
<event>
 5   0  0.2863538E-03  0.5007966E+03  0.7818609E-02  0.1013571E+00
       -1   -1    0    0    0  501  0.00000000000E+00  0.00000000000E+00  0.14027876808E+03  0.14027876817E+03  0.50400001928E-02 0. -1.
        1   -1    0    0  501    0  0.00000000000E+00  0.00000000000E+00 -0.44696227016E+03  0.44696227018E+03  0.50400001928E-02 0.  1.
    10030    2    1    2    0    0  0.00000000000E+00  0.00000000000E+00 -0.30668350208E+03  0.58724103835E+03  0.50079663206E+03 0.  0.
        1    1    3    3  502    0  0.24977082981E+03 -0.17069854178E+02 -0.14778335116E+03  0.29071767447E+03  0.50400001928E-02 0.  1.
       -1    1    3    3    0  502 -0.24977082981E+03  0.17069854178E+02 -0.15890015092E+03  0.29652336389E+03  0.50400001928E-02 0. -1.
</event>
<event>
 5   0  0.3057783E-03  0.5001136E+03  0.7818609E-02  0.1013749E+00
       -1   -1    0    0    0  501  0.00000000000E+00  0.00000000000E+00  0.15545153329E+03  0.15545153338E+03  0.50400001928E-02 0. -1.
        1   -1    0    0  501    0  0.00000000000E+00  0.00000000000E+00 -0.40223722744E+03  0.40223722747E+03  0.50400001928E-02 0.  1.
    10030    2    1    2    0    0  0.00000000000E+00  0.00000000000E+00 -0.24678569415E+03  0.55768876085E+03  0.50011356224E+03 0.  0.
        5    1    3    3  502    0  0.59140048004E+02 -0.24100994648E+03 -0.89515008873E+02  0.26385292569E+03  0.46999998093E+01 0.  1.
       -5    1    3    3    0  502 -0.59140048004E+02  0.24100994648E+03 -0.15727068527E+03  0.29383583516E+03  0.46999998093E+01 0. -1.
</event>
<event>
 5   0  0.3013734E-03  0.4995873E+03  0.7818609E-02  0.1013887E+00
       -1   -1    0    0    0  501  0.00000000000E+00  0.00000000000E+00  0.62167855173E+02  0.62167855377E+02  0.50400001928E-02 0. -1.
        1   -1    0    0  501    0  0.00000000000E+00  0.00000000000E+00 -0.10036836869E+04  0.10036836869E+04  0.50400001928E-02 0.  1.
    10030    2    1    2    0    0  0.00000000000E+00  0.00000000000E+00 -0.94151583173E+03  0.10658515423E+04  0.49958727847E+03 0.  0.
        2    1    3    3  502    0  0.18097510777E+03 -0.58976482982E+01 -0.83787552217E+03  0.85721768679E+03  0.25500000920E-02 0. -1.
       -2    1    3    3    0  502 -0.18097510777E+03  0.58976482982E+01 -0.10364030956E+03  0.20863385550E+03  0.25500000920E-02 0.  1.
</event>
<event>
 5   0  0.4978779E-03  0.4999721E+03  0.7818609E-02  0.1013786E+00
        2   -1    0    0  501    0  0.00000000000E+00  0.00000000000E+00  0.39072744131E+03  0.39072744132E+03  0.25500000920E-02 0.  1.
       -2   -1    0    0    0  501  0.00000000000E+00  0.00000000000E+00 -0.15994016931E+03  0.15994016933E+03  0.25500000920E-02 0. -1.
    10030    2    1    2    0    0  0.00000000000E+00  0.00000000000E+00  0.23078727200E+03  0.55066761065E+03  0.49997205172E+03 0.  0.
        1    1    3    3  502    0  0.22877323347E+03 -0.93198936413E+02  0.15761865208E+03  0.29303049945E+03  0.50400001928E-02 0.  1.
       -1    1    3    3    0  502 -0.22877323347E+03  0.93198936413E+02  0.73168619918E+02  0.25763711120E+03  0.50400001928E-02 0. -1.
</event>
<event>
 5   0  0.3211775E-03  0.5001431E+03  0.7818609E-02  0.1013742E+00
       -1   -1    0    0    0  501  0.00000000000E+00  0.00000000000E+00  0.14818451256E+03  0.14818451264E+03  0.50400001928E-02 0.  1.
        1   -1    0    0  501    0  0.00000000000E+00  0.00000000000E+00 -0.42201291009E+03  0.42201291012E+03  0.50400001928E-02 0. -1.
    10030    2    1    2    0    0  0.00000000000E+00  0.00000000000E+00 -0.27382839754E+03  0.57019742277E+03  0.50014308916E+03 0.  0.
        4    1    3    3  502    0 -0.93546281068E+02 -0.26782852406E+02  0.12571251221E+03  0.15897633947E+03  0.12699999809E+01 0.  1.
       -4    1    3    3    0  502  0.93546281068E+02  0.26782852406E+02 -0.39954090975E+03  0.41122108330E+03  0.12699999809E+01 0. -1.
</event>
<event>
 5   0  0.5118882E-03  0.4999654E+03  0.7818609E-02  0.1013788E+00
       -2   -1    0    0    0  501  0.00000000000E+00  0.00000000000E+00  0.22977668433E+03  0.22977668435E+03  0.25500000920E-02 0. -1.
        2   -1    0    0  501    0  0.00000000000E+00  0.00000000000E+00 -0.27196562145E+03  0.27196562147E+03  0.25500000920E-02 0.  1.
    10030    2    1    2    0    0  0.00000000000E+00  0.00000000000E+00 -0.42188937120E+02  0.50174230582E+03  0.49996543384E+03 0.  0.
        3    1    3    3  502    0 -0.62200425425E+02  0.57839285667E+02 -0.25704081660E+03  0.27071067117E+03  0.10100000352E+00 0.  1.
       -3    1    3    3    0  502  0.62200425425E+02 -0.57839285667E+02  0.21485187948E+03  0.23103163464E+03  0.10100000352E+00 0. -1.
</event>
<event>
 5   0  0.4978779E-03  0.5000228E+03  0.7818609E-02  0.1013773E+00
       -2   -1    0    0    0  501  0.00000000000E+00  0.00000000000E+00  0.48760955961E+03  0.48760955962E+03  0.25500000920E-02 0.  1.
        2   -1    0    0  501    0  0.00000000000E+00  0.00000000000E+00 -0.12818801421E+03  0.12818801424E+03  0.25500000920E-02 0. -1.
    10030    2    1    2    0    0  0.00000000000E+00  0.00000000000E+00  0.35942154539E+03  0.61579757386E+03  0.50002280415E+03 0.  0.
        1    1    3    3  502    0 -0.10022370316E+02  0.65758480515E+02  0.47651185956E+03  0.48113218349E+03  0.50400001928E-02 0.  1.
       -1    1    3    3    0  502  0.10022370316E+02 -0.65758480515E+02 -0.11709031416E+03  0.13466539037E+03  0.50400001928E-02 0. -1.
</event>
<event>
 5   0  0.4978779E-03  0.4973597E+03  0.7818609E-02  0.1014470E+00
       -2   -1    0    0    0  501  0.00000000000E+00  0.00000000000E+00  0.27520231481E+03  0.27520231482E+03  0.25500000920E-02 0.  1.
        2   -1    0    0  501    0  0.00000000000E+00  0.00000000000E+00 -0.22471343046E+03  0.22471343048E+03  0.25500000920E-02 0. -1.
    10030    2    1    2    0    0  0.00000000000E+00  0.00000000000E+00  0.50488884348E+02  0.49991574530E+03  0.49735965353E+03 0.  0.
        1    1    3    3  502    0 -0.16472041432E+03 -0.13602506770E+03  0.15320156889E+03  0.26288087544E+03  0.50400001928E-02 0.  1.
       -1    1    3    3    0  502  0.16472041432E+03  0.13602506770E+03 -0.10271268454E+03  0.23703486986E+03  0.50400001928E-02 0. -1.
</event>
<event>
 5   0  0.4889251E-03  0.5001780E+03  0.7818609E-02  0.1013732E+00
       -2   -1    0    0    0  501  0.00000000000E+00  0.00000000000E+00  0.15455512595E+03  0.15455512598E+03  0.25500000920E-02 0.  1.
        2   -1    0    0  501    0  0.00000000000E+00  0.00000000000E+00 -0.40467437484E+03  0.40467437485E+03  0.25500000920E-02 0. -1.
    10030    2    1    2    0    0  0.00000000000E+00  0.00000000000E+00 -0.25011924889E+03  0.55922950083E+03  0.50017796426E+03 0.  0.
        5    1    3    3  502    0 -0.88633022982E+02 -0.91971966058E+02  0.11527865464E+03  0.17212179849E+03  0.46999998093E+01 0.  1.
       -5    1    3    3    0  502  0.88633022982E+02  0.91971966058E+02 -0.36539790353E+03  0.38710770233E+03  0.46999998093E+01 0. -1.
</event>
<event>
 5   0  0.3057783E-03  0.4997972E+03  0.7818609E-02  0.1013832E+00
        1   -1    0    0  501    0  0.00000000000E+00  0.00000000000E+00  0.41593708540E+03  0.41593708543E+03  0.50400001928E-02 0.  1.
       -1   -1    0    0    0  501  0.00000000000E+00  0.00000000000E+00 -0.15014126170E+03  0.15014126178E+03  0.50400001928E-02 0. -1.
    10030    2    1    2    0    0  0.00000000000E+00  0.00000000000E+00  0.26579582370E+03  0.56607834721E+03  0.49979723418E+03 0.  0.
        5    1    3    3  502    0 -0.11454477467E+03 -0.24122941661E+02 -0.11711230627E+03  0.16564964231E+03  0.46999998093E+01 0. -1.
       -5    1    3    3    0  502  0.11454477467E+03  0.24122941661E+02  0.38290812997E+03  0.40042870491E+03  0.46999998093E+01 0.  1.
</event>
<event>
 5   0  0.5118882E-03  0.4997217E+03  0.7818609E-02  0.1013852E+00
        2   -1    0    0  501    0  0.00000000000E+00  0.00000000000E+00  0.65176558287E+03  0.65176558288E+03  0.25500000920E-02 0. -1.
       -2   -1    0    0    0  501  0.00000000000E+00  0.00000000000E+00 -0.95786659977E+02  0.95786660011E+02  0.25500000920E-02 0.  1.
    10030    2    1    2    0    0  0.00000000000E+00  0.00000000000E+00  0.55597892289E+03  0.74755224289E+03  0.49972171570E+03 0.  0.
        3    1    3    3  502    0 -0.22836760197E+03  0.82931425152E+02  0.19074855581E+03  0.30889222174E+03  0.10100000352E+00 0.  1.
       -3    1    3    3    0  502  0.22836760197E+03 -0.82931425152E+02  0.36523036708E+03  0.43866002114E+03  0.10100000352E+00 0. -1.
</event>
<event>
 5   0  0.3013734E-03  0.5002098E+03  0.7818609E-02  0.1013724E+00
        1   -1    0    0  501    0  0.00000000000E+00  0.00000000000E+00  0.13871426762E+04  0.13871426762E+04  0.50400001928E-02 0. -1.
       -1   -1    0    0    0  501  0.00000000000E+00  0.00000000000E+00 -0.45094476735E+02  0.45094477017E+02  0.50400001928E-02 0.  1.
    10030    2    1    2    0    0  0.00000000000E+00  0.00000000000E+00  0.13420481995E+04  0.14322371532E+04  0.50020984936E+03 0.  0.
        2    1    3    3  502    0  0.12646373940E+03 -0.21397700479E+03  0.59140466020E+03  0.64151282768E+03  0.25500000920E-02 0.  1.
       -2    1    3    3    0  502 -0.12646373940E+03  0.21397700479E+03  0.75064353925E+03  0.79072432553E+03  0.25500000920E-02 0. -1.
</event>
<event>
 5   0  0.2863538E-03  0.5004293E+03  0.7818609E-02  0.1013667E+00
        1   -1    0    0  501    0  0.00000000000E+00  0.00000000000E+00  0.56761613294E+03  0.56761613296E+03  0.50400001928E-02 0. -1.
       -1   -1    0    0    0  501  0.00000000000E+00  0.00000000000E+00 -0.11029877934E+03  0.11029877945E+03  0.50400001928E-02 0.  1.
    10030    2    1    2    0    0  0.00000000000E+00  0.00000000000E+00  0.45731735360E+03  0.67791491242E+03  0.50042928229E+03 0.  0.
        1    1    3    3  502    0 -0.24437316494E+03 -0.17856424295E+02  0.29733735531E+03  0.38528768281E+03  0.50400001928E-02 0.  1.
       -1    1    3    3    0  502  0.24437316494E+03  0.17856424295E+02  0.15997999829E+03  0.29262722961E+03  0.50400001928E-02 0. -1.
</event>
<event>
 5   0  0.3055293E-03  0.4999399E+03  0.7818609E-02  0.1013795E+00
       -1   -1    0    0    0  501  0.00000000000E+00  0.00000000000E+00  0.42453281102E+03  0.42453281105E+03  0.50400001928E-02 0.  1.
        1   -1    0    0  501    0  0.00000000000E+00  0.00000000000E+00 -0.14718527277E+03  0.14718527286E+03  0.50400001928E-02 0. -1.
    10030    2    1    2    0    0  0.00000000000E+00  0.00000000000E+00  0.27734753825E+03  0.57171808391E+03  0.49993990689E+03 0.  0.
        3    1    3    3  502    0 -0.24201360160E+03 -0.60488413271E+02  0.12039318339E+03  0.27699090293E+03  0.10100000352E+00 0. -1.
       -3    1    3    3    0  502  0.24201360160E+03  0.60488413271E+02  0.15695435486E+03  0.29472718098E+03  0.10100000352E+00 0.  1.
</event>
<event>
 5   0  0.3055293E-03  0.4999974E+03  0.7818609E-02  0.1013780E+00
       -1   -1    0    0    0  501  0.00000000000E+00  0.00000000000E+00  0.48761234520E+02  0.48761234780E+02  0.50400001928E-02 0. -1.
        1   -1    0    0  501    0  0.00000000000E+00  0.00000000000E+00 -0.12817426617E+04  0.12817426617E+04  0.50400001928E-02 0.  1.
    10030    2    1    2    0    0  0.00000000000E+00  0.00000000000E+00 -0.12329814272E+04  0.13305038965E+04  0.49999741880E+03 0.  0.
        3    1    3    3  502    0 -0.31287484356E+02 -0.24799701369E+03 -0.62775504873E+03  0.67569063696E+03  0.10100000352E+00 0. -1.
       -3    1    3    3    0  502  0.31287484356E+02  0.24799701369E+03 -0.60522637848E+03  0.65481325955E+03  0.10100000352E+00 0.  1.
</event>
<event>
 5   0  0.4989875E-03  0.4995387E+03  0.7818609E-02  0.1013899E+00
       -2   -1    0    0    0  501  0.00000000000E+00  0.00000000000E+00  0.56036871076E+02  0.56036871134E+02  0.25500000920E-02 0.  1.
        2   -1    0    0  501    0  0.00000000000E+00  0.00000000000E+00 -0.11132798921E+04  0.11132798921E+04  0.25500000920E-02 0. -1.
    10030    2    1    2    0    0  0.00000000000E+00  0.00000000000E+00 -0.10572430210E+04  0.11693167632E+04  0.49953867445E+03 0.  0.
        2    1    3    3  502    0 -0.73930941168E+00 -0.20974999645E+03 -0.84604821755E+03  0.87166116927E+03  0.25500000920E-02 0. -1.
       -2    1    3    3    0  502  0.73930941168E+00  0.20974999645E+03 -0.21119480343E+03  0.29765559392E+03  0.25500000920E-02 0.  1.
</event>
<event>
 5   0  0.3057783E-03  0.4999645E+03  0.7818609E-02  0.1013788E+00
       -1   -1    0    0    0  501  0.00000000000E+00  0.00000000000E+00  0.23093156751E+03  0.23093156757E+03  0.50400001928E-02 0.  1.
        1   -1    0    0  501    0  0.00000000000E+00  0.00000000000E+00 -0.27060453964E+03  0.27060453969E+03  0.50400001928E-02 0. -1.
    10030    2    1    2    0    0  0.00000000000E+00  0.00000000000E+00 -0.39672972128E+02  0.50153610726E+03  0.49996452091E+03 0.  0.
        5    1    3    3  502    0 -0.14377511459E+03 -0.68383696055E+02  0.17343836628E+03  0.23547944784E+03  0.46999998093E+01 0.  1.
       -5    1    3    3    0  502  0.14377511459E+03  0.68383696055E+02 -0.21311133841E+03  0.26605665941E+03  0.46999998093E+01 0. -1.
</event>
<event>
 5   0  0.4889251E-03  0.5008294E+03  0.7818609E-02  0.1013563E+00
       -2   -1    0    0    0  501  0.00000000000E+00  0.00000000000E+00  0.12403170089E+03  0.12403170091E+03  0.25500000920E-02 0. -1.
        2   -1    0    0  501    0  0.00000000000E+00  0.00000000000E+00 -0.50557652097E+03  0.50557652097E+03  0.25500000920E-02 0.  1.
    10030    2    1    2    0    0  0.00000000000E+00  0.00000000000E+00 -0.38154482008E+03  0.62960822189E+03  0.50082937548E+03 0.  0.
        5    1    3    3  502    0 -0.16384262924E+03 -0.24260419869E+02 -0.42680678369E+03  0.45784178024E+03  0.46999998093E+01 0.  1.
       -5    1    3    3    0  502  0.16384262924E+03  0.24260419869E+02  0.45261963611E+02  0.17176644165E+03  0.46999998093E+01 0. -1.
</event>
<event>
 5   0  0.2005125E-03  0.5000711E+03  0.7818609E-02  0.1013760E+00
        4   -1    0    0  501    0  0.00000000000E+00  0.00000000000E+00  0.38985241943E+03  0.38985448803E+03  0.12699999809E+01 0.  1.
       -4   -1    0    0    0  501  0.00000000000E+00  0.00000000000E+00 -0.16035765309E+03  0.16036268208E+03  0.12699999809E+01 0. -1.
    10030    2    1    2    0    0  0.00000000000E+00  0.00000000000E+00  0.22949476634E+03  0.55021717011E+03  0.50007108145E+03 0.  0.
        3    1    3    3  502    0 -0.61469525733E+02 -0.17642431240E+03  0.29758471009E+03  0.35136976318E+03  0.10100000352E+00 0.  1.
       -3    1    3    3    0  502  0.61469525733E+02  0.17642431240E+03 -0.68089943745E+02  0.19884740692E+03  0.10100000352E+00 0. -1.
</event>
<event>
 5   0  0.2005125E-03  0.5001231E+03  0.7818609E-02  0.1013747E+00
        4   -1    0    0  501    0  0.00000000000E+00  0.00000000000E+00  0.55643865596E+03  0.55644010527E+03  0.12699999809E+01 0. -1.
       -4   -1    0    0    0  501  0.00000000000E+00  0.00000000000E+00 -0.11237157268E+03  0.11237874909E+03  0.12699999809E+01 0.  1.
    10030    2    1    2    0    0  0.00000000000E+00  0.00000000000E+00  0.44406708328E+03  0.66881885436E+03  0.50012307034E+03 0.  0.
        4    1    3    3  502    0 -0.21990688594E+03 -0.59247896173E+02  0.83961328740E+02  0.24273538948E+03  0.12699999809E+01 0.  1.
       -4    1    3    3    0  502  0.21990688594E+03  0.59247896173E+02  0.36010575454E+03  0.42608346487E+03  0.12699999809E+01 0. -1.
</event>
<event>
 5   0  0.2863538E-03  0.5000222E+03  0.7818609E-02  0.1013773E+00
       -1   -1    0    0    0  501  0.00000000000E+00  0.00000000000E+00  0.56008411173E+03  0.56008411176E+03  0.50400001928E-02 0. -1.
        1   -1    0    0  501    0  0.00000000000E+00  0.00000000000E+00 -0.11160027057E+03  0.11160027069E+03  0.50400001928E-02 0.  1.
    10030    2    1    2    0    0  0.00000000000E+00  0.00000000000E+00  0.44848384116E+03  0.67168438244E+03  0.50002215334E+03 0.  0.
        1    1    3    3  502    0 -0.39266358329E+02 -0.24683845118E+03  0.23212870796E+03  0.34110820125E+03  0.50400001928E-02 0. -1.
       -1    1    3    3    0  502  0.39266358329E+02  0.24683845118E+03  0.21635513320E+03  0.33057618119E+03  0.50400001928E-02 0.  1.
</event>
<event>
 5   0  0.3013734E-03  0.4996887E+03  0.7818609E-02  0.1013860E+00
       -1   -1    0    0    0  501  0.00000000000E+00  0.00000000000E+00  0.53966555454E+02  0.53966555690E+02  0.50400001928E-02 0. -1.
        1   -1    0    0  501    0  0.00000000000E+00  0.00000000000E+00 -0.11566830605E+04  0.11566830605E+04  0.50400001928E-02 0.  1.
    10030    2    1    2    0    0  0.00000000000E+00  0.00000000000E+00 -0.11027165050E+04  0.12106496162E+04  0.49968870580E+03 0.  0.
        2    1    3    3  502    0 -0.13390809002E+03 -0.19998491270E+03 -0.38888811047E+03  0.45733937547E+03  0.25500000920E-02 0. -1.
       -2    1    3    3    0  502  0.13390809002E+03  0.19998491270E+03 -0.71382839456E+03  0.75331024071E+03  0.25500000920E-02 0.  1.
</event>
<event>
 5   0  0.4978779E-03  0.4999013E+03  0.7818609E-02  0.1013805E+00
       -2   -1    0    0    0  501  0.00000000000E+00  0.00000000000E+00  0.11861115665E+03  0.11861115667E+03  0.25500000920E-02 0.  1.
        2   -1    0    0  501    0  0.00000000000E+00  0.00000000000E+00 -0.52672390901E+03  0.52672390901E+03  0.25500000920E-02 0. -1.
    10030    2    1    2    0    0  0.00000000000E+00  0.00000000000E+00 -0.40811275236E+03  0.64533506569E+03  0.49990131863E+03 0.  0.
        1    1    3    3  502    0 -0.56330617801E+02 -0.10093043456E+03  0.82037868476E+02  0.14174026602E+03  0.50400001928E-02 0.  1.
       -1    1    3    3    0  502  0.56330617801E+02  0.10093043456E+03 -0.49015062083E+03  0.50359479967E+03  0.50400001928E-02 0. -1.
</event>
<event>
 5   0  0.4978779E-03  0.4998929E+03  0.7818609E-02  0.1013807E+00
        2   -1    0    0  501    0  0.00000000000E+00  0.00000000000E+00  0.89235765989E+03  0.89235765990E+03  0.25500000920E-02 0.  1.
       -2   -1    0    0    0  501  0.00000000000E+00  0.00000000000E+00 -0.70009176042E+02  0.70009176088E+02  0.25500000920E-02 0. -1.
    10030    2    1    2    0    0  0.00000000000E+00  0.00000000000E+00  0.82234848385E+03  0.96236683598E+03  0.49989288664E+03 0.  0.
        1    1    3    3  502    0  0.54952099505E+02 -0.23555653558E+03  0.28992656338E+03  0.37757651790E+03  0.50400001928E-02 0. -1.
       -1    1    3    3    0  502 -0.54952099505E+02  0.23555653558E+03  0.53242192047E+03  0.58479031808E+03  0.50400001928E-02 0.  1.
</event>
<event>
 5   0  0.3057783E-03  0.4998642E+03  0.7818609E-02  0.1013814E+00
        1   -1    0    0  501    0  0.00000000000E+00  0.00000000000E+00  0.29275346909E+03  0.29275346913E+03  0.50400001928E-02 0. -1.
       -1   -1    0    0    0  501  0.00000000000E+00  0.00000000000E+00 -0.21337429342E+03  0.21337429348E+03  0.50400001928E-02 0.  1.
    10030    2    1    2    0    0  0.00000000000E+00  0.00000000000E+00  0.79379175670E+02  0.50612776261E+03  0.49986424013E+03 0.  0.
        5    1    3    3  502    0 -0.12800575252E+03  0.45634843262E+02 -0.17264256887E+03  0.21976250404E+03  0.46999998093E+01 0.  1.
       -5    1    3    3    0  502  0.12800575252E+03 -0.45634843262E+02  0.25202174454E+03  0.28636525857E+03  0.46999998093E+01 0. -1.
</event>
<event>
 5   0  0.3211775E-03  0.4994809E+03  0.7818609E-02  0.1013914E+00
        1   -1    0    0  501    0  0.00000000000E+00  0.00000000000E+00  0.13525488824E+04  0.13525488824E+04  0.50400001928E-02 0. -1.
       -1   -1    0    0    0  501  0.00000000000E+00  0.00000000000E+00 -0.46113157572E+02  0.46113157847E+02  0.50400001928E-02 0.  1.
    10030    2    1    2    0    0  0.00000000000E+00  0.00000000000E+00  0.13064357249E+04  0.13986620403E+04  0.49948093032E+03 0.  0.
        4    1    3    3  502    0  0.42297828560E+02 -0.23109393488E+03  0.89041535563E+03  0.92088795816E+03  0.12699999809E+01 0. -1.
       -4    1    3    3    0  502 -0.42297828560E+02  0.23109393488E+03  0.41602036924E+03  0.47777408214E+03  0.12699999809E+01 0.  1.
</event>
<event>
 5   0  0.4889251E-03  0.4999786E+03  0.7818609E-02  0.1013784E+00
       -2   -1    0    0    0  501  0.00000000000E+00  0.00000000000E+00  0.66416099049E+02  0.66416099098E+02  0.25500000920E-02 0.  1.
        2   -1    0    0  501    0  0.00000000000E+00  0.00000000000E+00 -0.94095644817E+03  0.94095644817E+03  0.25500000920E-02 0. -1.
    10030    2    1    2    0    0  0.00000000000E+00  0.00000000000E+00 -0.87454034912E+03  0.10073725473E+04  0.49997862630E+03 0.  0.
        5    1    3    3  502    0  0.30912014705E+02  0.22463683151E+02  0.60406992342E+02  0.71632844672E+02  0.46999998093E+01 0.  1.
       -5    1    3    3    0  502 -0.30912014705E+02 -0.22463683151E+02 -0.93494734146E+03  0.93573970260E+03  0.46999998093E+01 0. -1.
</event>
<event>
 5   0  0.3057783E-03  0.5002523E+03  0.7818609E-02  0.1013713E+00
        1   -1    0    0  501    0  0.00000000000E+00  0.00000000000E+00  0.11233248059E+03  0.11233248070E+03  0.50400001928E-02 0. -1.
       -1   -1    0    0    0  501  0.00000000000E+00  0.00000000000E+00 -0.55694579028E+03  0.55694579030E+03  0.50400001928E-02 0.  1.
    10030    2    1    2    0    0  0.00000000000E+00  0.00000000000E+00 -0.44461330969E+03  0.66927827100E+03  0.50025234520E+03 0.  0.
        5    1    3    3  502    0  0.16908179639E+02 -0.15724609044E+03 -0.48148570197E+03  0.50681632836E+03  0.46999998093E+01 0.  1.
       -5    1    3    3    0  502 -0.16908179639E+02  0.15724609044E+03  0.36872392275E+02  0.16246194264E+03  0.46999998093E+01 0. -1.
</event>
<event>
 5   0  0.3013734E-03  0.5000021E+03  0.7818609E-02  0.1013778E+00
        1   -1    0    0  501    0  0.00000000000E+00  0.00000000000E+00  0.99534321260E+03  0.99534321261E+03  0.50400001928E-02 0. -1.
       -1   -1    0    0    0  501  0.00000000000E+00  0.00000000000E+00 -0.62792933350E+02  0.62792933552E+02  0.50400001928E-02 0.  1.
    10030    2    1    2    0    0  0.00000000000E+00  0.00000000000E+00  0.93255027925E+03  0.10581361462E+04  0.50000208049E+03 0.  0.
        2    1    3    3  502    0 -0.14716803126E+02  0.24750143518E+03  0.39845639275E+03  0.46929845688E+03  0.25500000920E-02 0. -1.
       -2    1    3    3    0  502  0.14716803126E+02 -0.24750143518E+03  0.53409388650E+03  0.58883768928E+03  0.25500000920E-02 0.  1.
</event>
<event>
 5   0  0.4889251E-03  0.4999967E+03  0.7818609E-02  0.1013780E+00
        2   -1    0    0  501    0  0.00000000000E+00  0.00000000000E+00  0.42906919430E+03  0.42906919431E+03  0.25500000920E-02 0.  1.
       -2   -1    0    0    0  501  0.00000000000E+00  0.00000000000E+00 -0.14566223762E+03  0.14566223764E+03  0.25500000920E-02 0. -1.
    10030    2    1    2    0    0  0.00000000000E+00  0.00000000000E+00  0.28340695668E+03  0.57473143195E+03  0.49999671577E+03 0.  0.
        5    1    3    3  502    0  0.24170523916E+03  0.30598199553E+02  0.77503559402E+02  0.25570796658E+03  0.46999998093E+01 0.  1.
       -5    1    3    3    0  502 -0.24170523916E+03 -0.30598199553E+02  0.20590339728E+03  0.31902346538E+03  0.46999998093E+01 0. -1.
</event>
<event>
 5   0  0.4978779E-03  0.5005007E+03  0.7818609E-02  0.1013648E+00
       -2   -1    0    0    0  501  0.00000000000E+00  0.00000000000E+00  0.80199294209E+02  0.80199294250E+02  0.25500000920E-02 0.  1.
        2   -1    0    0  501    0  0.00000000000E+00  0.00000000000E+00 -0.78087003440E+03  0.78087003441E+03  0.25500000920E-02 0. -1.
    10030    2    1    2    0    0  0.00000000000E+00  0.00000000000E+00 -0.70067074019E+03  0.86106932866E+03  0.50050065194E+03 0.  0.
        1    1    3    3  502    0 -0.24048748581E+03 -0.58941181575E+02 -0.41276850352E+03  0.48133785561E+03  0.50400001928E-02 0.  1.
       -1    1    3    3    0  502  0.24048748581E+03  0.58941181575E+02 -0.28790223667E+03  0.37973147305E+03  0.50400001928E-02 0. -1.
</event>
<event>
 5   0  0.3013734E-03  0.4999466E+03  0.7818609E-02  0.1013793E+00
        1   -1    0    0  501    0  0.00000000000E+00  0.00000000000E+00  0.24401273691E+03  0.24401273696E+03  0.50400001928E-02 0.  1.
       -1   -1    0    0    0  501  0.00000000000E+00  0.00000000000E+00 -0.25607947589E+03  0.25607947594E+03  0.50400001928E-02 0. -1.
    10030    2    1    2    0    0  0.00000000000E+00  0.00000000000E+00 -0.12066738986E+02  0.50009221290E+03  0.49994661236E+03 0.  0.
        2    1    3    3  502    0 -0.90195498705E+02 -0.13243719006E+03  0.18588656484E+03  0.24541526499E+03  0.25500000920E-02 0.  1.
       -2    1    3    3    0  502  0.90195498705E+02  0.13243719006E+03 -0.19795330382E+03  0.25467694791E+03  0.25500000920E-02 0. -1.
</event>
<event>
 5   0  0.3057783E-03  0.5002458E+03  0.7818609E-02  0.1013715E+00
        1   -1    0    0  501    0  0.00000000000E+00  0.00000000000E+00  0.10923944463E+04  0.10923944463E+04  0.50400001928E-02 0. -1.
       -1   -1    0    0    0  501  0.00000000000E+00  0.00000000000E+00 -0.57270043368E+02  0.57270043590E+02  0.50400001928E-02 0.  1.
    10030    2    1    2    0    0  0.00000000000E+00  0.00000000000E+00  0.10351244029E+04  0.11496644899E+04  0.50024584936E+03 0.  0.
        5    1    3    3  502    0 -0.20416513932E+03  0.12359307733E+03  0.34587682416E+03  0.42025173452E+03  0.46999998093E+01 0. -1.
       -5    1    3    3    0  502  0.20416513932E+03 -0.12359307733E+03  0.68924757879E+03  0.72941275540E+03  0.46999998093E+01 0.  1.
</event>
<event>
 5   0  0.3055293E-03  0.4999877E+03  0.7818609E-02  0.1013782E+00
        1   -1    0    0  501    0  0.00000000000E+00  0.00000000000E+00  0.59340936048E+02  0.59340936262E+02  0.50400001928E-02 0. -1.
       -1   -1    0    0    0  501  0.00000000000E+00  0.00000000000E+00 -0.10531841327E+04  0.10531841327E+04  0.50400001928E-02 0.  1.
    10030    2    1    2    0    0  0.00000000000E+00  0.00000000000E+00 -0.99384319668E+03  0.11125250690E+04  0.49998772942E+03 0.  0.
        3    1    3    3  502    0 -0.14188332247E+03  0.12799273727E+03 -0.85559788342E+03  0.87667597566E+03  0.10100000352E+00 0.  1.
       -3    1    3    3    0  502  0.14188332247E+03 -0.12799273727E+03 -0.13824531326E+03  0.23584909334E+03  0.10100000352E+00 0. -1.
</event>
<event>
 5   0  0.3055293E-03  0.4999188E+03  0.7818609E-02  0.1013800E+00
       -1   -1    0    0    0  501  0.00000000000E+00  0.00000000000E+00  0.70815287095E+02  0.70815287274E+02  0.50400001928E-02 0. -1.
        1   -1    0    0  501    0  0.00000000000E+00  0.00000000000E+00 -0.88229109069E+03  0.88229109071E+03  0.50400001928E-02 0.  1.
    10030    2    1    2    0    0  0.00000000000E+00  0.00000000000E+00 -0.81147580360E+03  0.95310637798E+03  0.49991878133E+03 0.  0.
        3    1    3    3  502    0  0.78549156832E+02 -0.20545357346E+03 -0.63211322533E+03  0.66928938489E+03  0.10100000352E+00 0.  1.
       -3    1    3    3    0  502 -0.78549156832E+02  0.20545357346E+03 -0.17936257827E+03  0.28381699309E+03  0.10100000352E+00 0. -1.
</event>
<event>
 5   0  0.3057783E-03  0.4999985E+03  0.7818609E-02  0.1013779E+00
       -1   -1    0    0    0  501  0.00000000000E+00  0.00000000000E+00  0.12386215311E+03  0.12386215321E+03  0.50400001928E-02 0.  1.
        1   -1    0    0  501    0  0.00000000000E+00  0.00000000000E+00 -0.50459011766E+03  0.50459011768E+03  0.50400001928E-02 0. -1.
    10030    2    1    2    0    0  0.00000000000E+00  0.00000000000E+00 -0.38072796455E+03  0.62845227089E+03  0.49999847380E+03 0.  0.
        5    1    3    3  502    0 -0.12452522683E+03 -0.51123408525E+02  0.74355942126E+02  0.15385392794E+03  0.46999998093E+01 0.  1.
       -5    1    3    3    0  502  0.12452522683E+03  0.51123408525E+02 -0.45508390668E+03  0.47459834295E+03  0.46999998093E+01 0. -1.
</event>
<event>
 5   0  0.3211775E-03  0.4999407E+03  0.7818609E-02  0.1013794E+00
        1   -1    0    0  501    0  0.00000000000E+00  0.00000000000E+00  0.74952070166E+03  0.74952070168E+03  0.50400001928E-02 0.  1.
       -1   -1    0    0    0  501  0.00000000000E+00  0.00000000000E+00 -0.83366857458E+02  0.83366857610E+02  0.50400001928E-02 0. -1.
    10030    2    1    2    0    0  0.00000000000E+00  0.00000000000E+00  0.66615384421E+03  0.83288755929E+03  0.49994073876E+03 0.  0.
        4    1    3    3  502    0 -0.81695481361E+02  0.78012417024E+02  0.70456820041E+03  0.71356713125E+03  0.12699999809E+01 0.  1.
       -4    1    3    3    0  502  0.81695481361E+02 -0.78012417024E+02 -0.38414356199E+02  0.11932042804E+03  0.12699999809E+01 0. -1.
</event>
<event>
 5   0  0.3055293E-03  0.4999534E+03  0.7818609E-02  0.1013791E+00
        1   -1    0    0  501    0  0.00000000000E+00  0.00000000000E+00  0.70853906367E+03  0.70853906369E+03  0.50400001928E-02 0.  1.
       -1   -1    0    0    0  501  0.00000000000E+00  0.00000000000E+00 -0.88193228609E+02  0.88193228753E+02  0.50400001928E-02 0. -1.
    10030    2    1    2    0    0  0.00000000000E+00  0.00000000000E+00  0.62034583506E+03  0.79673229244E+03  0.49995338857E+03 0.  0.
        3    1    3    3  502    0 -0.99257563775E+02 -0.17004411319E+03  0.55561662382E+03  0.58947171880E+03  0.10100000352E+00 0.  1.
       -3    1    3    3    0  502  0.99257563775E+02  0.17004411319E+03  0.64729211239E+02  0.20726057364E+03  0.10100000352E+00 0. -1.
</event>
<event>
 5   0  0.5095783E-03  0.4995796E+03  0.7818609E-02  0.1013889E+00
       -2   -1    0    0    0  501  0.00000000000E+00  0.00000000000E+00  0.23166419032E+03  0.23166419033E+03  0.25500000920E-02 0. -1.
        2   -1    0    0  501    0  0.00000000000E+00  0.00000000000E+00 -0.26933352701E+03  0.26933352702E+03  0.25500000920E-02 0.  1.
    10030    2    1    2    0    0  0.00000000000E+00  0.00000000000E+00 -0.37669336687E+02  0.50099771735E+03  0.49957955709E+03 0.  0.
        4    1    3    3  502    0  0.23511938336E+03 -0.80065745162E+02 -0.45398966349E+02  0.25249619210E+03  0.12699999809E+01 0.  1.
       -4    1    3    3    0  502 -0.23511938336E+03  0.80065745162E+02  0.77296296622E+01  0.24850152525E+03  0.12699999809E+01 0. -1.
</event>
<event>
 5   0  0.3055293E-03  0.5000989E+03  0.7818609E-02  0.1013753E+00
        1   -1    0    0  501    0  0.00000000000E+00  0.00000000000E+00  0.25406170858E+03  0.25406170863E+03  0.50400001928E-02 0.  1.
       -1   -1    0    0    0  501  0.00000000000E+00  0.00000000000E+00 -0.24610058868E+03  0.24610058873E+03  0.50400001928E-02 0. -1.
    10030    2    1    2    0    0  0.00000000000E+00  0.00000000000E+00  0.79611198986E+01  0.50016229735E+03  0.50009893448E+03 0.  0.
        3    1    3    3  502    0 -0.60345130282E+02  0.17229959205E+03 -0.16690958161E+03  0.24736107778E+03  0.10100000352E+00 0. -1.
       -3    1    3    3    0  502  0.60345130282E+02 -0.17229959205E+03  0.17487070151E+03  0.25280121957E+03  0.10100000352E+00 0.  1.
</event>
<event>
 5   0  0.5118882E-03  0.5001477E+03  0.7818609E-02  0.1013740E+00
       -2   -1    0    0    0  501  0.00000000000E+00  0.00000000000E+00  0.10325657685E+03  0.10325657688E+03  0.25500000920E-02 0.  1.
        2   -1    0    0  501    0  0.00000000000E+00  0.00000000000E+00 -0.60564589717E+03  0.60564589717E+03  0.25500000920E-02 0. -1.
    10030    2    1    2    0    0  0.00000000000E+00  0.00000000000E+00 -0.50238932032E+03  0.70890247405E+03  0.50014766675E+03 0.  0.
        3    1    3    3  502    0  0.36560364906E+02  0.53476474569E+01 -0.60175546538E+03  0.60288880229E+03  0.10100000352E+00 0. -1.
       -3    1    3    3    0  502 -0.36560364906E+02 -0.53476474569E+01  0.99366145061E+02  0.10601367176E+03  0.10100000352E+00 0.  1.
</event>
<event>
 5   0  0.5118882E-03  0.4994125E+03  0.7818609E-02  0.1013932E+00
        2   -1    0    0  501    0  0.00000000000E+00  0.00000000000E+00  0.10334446292E+03  0.10334446295E+03  0.25500000920E-02 0. -1.
       -2   -1    0    0    0  501  0.00000000000E+00  0.00000000000E+00 -0.60335324756E+03  0.60335324757E+03  0.25500000920E-02 0.  1.
    10030    2    1    2    0    0  0.00000000000E+00  0.00000000000E+00 -0.50000878464E+03  0.70669771052E+03  0.49941252421E+03 0.  0.
        3    1    3    3  502    0  0.20993675586E+03 -0.12517458990E+03 -0.32231216527E+03  0.40450866678E+03  0.10100000352E+00 0.  1.
       -3    1    3    3    0  502 -0.20993675586E+03  0.12517458990E+03 -0.17769661937E+03  0.30218904374E+03  0.10100000352E+00 0. -1.
</event>
<event>
 5   0  0.2005125E-03  0.5000207E+03  0.7818609E-02  0.1013774E+00
       -4   -1    0    0    0  501  0.00000000000E+00  0.00000000000E+00  0.34244476622E+03  0.34244712119E+03  0.12699999809E+01 0.  1.
        4   -1    0    0  501    0  0.00000000000E+00  0.00000000000E+00 -0.18252111957E+03  0.18252553791E+03  0.12699999809E+01 0. -1.
    10030    2    1    2    0    0  0.00000000000E+00  0.00000000000E+00  0.15992364666E+03  0.52497265910E+03  0.50002071961E+03 0.  0.
        4    1    3    3  502    0 -0.10563753435E+03 -0.22419340278E+03  0.11449061184E+03  0.27300491500E+03  0.12699999809E+01 0. -1.
       -4    1    3    3    0  502  0.10563753435E+03  0.22419340278E+03  0.45433034819E+02  0.25196774410E+03  0.12699999809E+01 0.  1.
</event>
<event>
 5   0  0.4889251E-03  0.5004003E+03  0.7818609E-02  0.1013674E+00
       -2   -1    0    0    0  501  0.00000000000E+00  0.00000000000E+00  0.91367760960E+02  0.91367760996E+02  0.25500000920E-02 0.  1.
        2   -1    0    0  501    0  0.00000000000E+00  0.00000000000E+00 -0.68514452122E+03  0.68514452123E+03  0.25500000920E-02 0. -1.
    10030    2    1    2    0    0  0.00000000000E+00  0.00000000000E+00 -0.59377676026E+03  0.77651228222E+03  0.50040032316E+03 0.  0.
        5    1    3    3  502    0 -0.90985379500E+02 -0.22691375994E+03 -0.37914508744E+03  0.45115549543E+03  0.46999998093E+01 0.  1.
       -5    1    3    3    0  502  0.90985379500E+02  0.22691375994E+03 -0.21463167282E+03  0.32535678679E+03  0.46999998093E+01 0. -1.
</event>
<event>
 5   0  0.3057783E-03  0.4982580E+03  0.7818609E-02  0.1014235E+00
        1   -1    0    0  501    0  0.00000000000E+00  0.00000000000E+00  0.95729776111E+03  0.95729776113E+03  0.50400001928E-02 0. -1.
       -1   -1    0    0    0  501  0.00000000000E+00  0.00000000000E+00 -0.64833817154E+02  0.64833817350E+02  0.50400001928E-02 0.  1.
    10030    2    1    2    0    0  0.00000000000E+00  0.00000000000E+00  0.89246394396E+03  0.10221315785E+04  0.49825803802E+03 0.  0.
        5    1    3    3  502    0  0.49699288288E+02  0.54674020413E+01  0.94680658453E+03  0.94813749544E+03  0.46999998093E+01 0. -1.
       -5    1    3    3    0  502 -0.49699288288E+02 -0.54674020413E+01 -0.54342640576E+02  0.73994083036E+02  0.46999998093E+01 0.  1.
</event>
<event>
 5   0  0.3013734E-03  0.4983961E+03  0.7818609E-02  0.1014198E+00
        1   -1    0    0  501    0  0.00000000000E+00  0.00000000000E+00  0.46115046887E+03  0.46115046890E+03  0.50400001928E-02 0.  1.
       -1   -1    0    0    0  501  0.00000000000E+00  0.00000000000E+00 -0.13466248184E+03  0.13466248194E+03  0.50400001928E-02 0. -1.
    10030    2    1    2    0    0  0.00000000000E+00  0.00000000000E+00  0.32648798703E+03  0.59581295083E+03  0.49839609419E+03 0.  0.
        2    1    3    3  502    0 -0.13904976663E+03  0.18902673178E+03  0.26350405399E+03  0.35284604207E+03  0.25500000920E-02 0.  1.
       -2    1    3    3    0  502  0.13904976663E+03 -0.18902673178E+03  0.62983933042E+02  0.24296690877E+03  0.25500000920E-02 0. -1.
</event>
<event>
 5   0  0.4889251E-03  0.5009234E+03  0.7818609E-02  0.1013538E+00
       -2   -1    0    0    0  501  0.00000000000E+00  0.00000000000E+00  0.42657121825E+03  0.42657121825E+03  0.25500000920E-02 0. -1.
        2   -1    0    0  501    0  0.00000000000E+00  0.00000000000E+00 -0.14705880319E+03  0.14705880321E+03  0.25500000920E-02 0.  1.
    10030    2    1    2    0    0  0.00000000000E+00  0.00000000000E+00  0.27951241506E+03  0.57363002147E+03  0.50092335877E+03 0.  0.
        5    1    3    3  502    0  0.93030644624E+02  0.10060084025E+03  0.37978295569E+03  0.40377272485E+03  0.46999998093E+01 0. -1.
       -5    1    3    3    0  502 -0.93030644624E+02 -0.10060084025E+03 -0.10027054063E+03  0.16985729662E+03  0.46999998093E+01 0.  1.
</event>
<event>
 5   0  0.4978779E-03  0.5000651E+03  0.7818609E-02  0.1013762E+00
        2   -1    0    0  501    0  0.00000000000E+00  0.00000000000E+00  0.10326107757E+03  0.10326107760E+03  0.25500000920E-02 0. -1.
       -2   -1    0    0    0  501  0.00000000000E+00  0.00000000000E+00 -0.60541958524E+03  0.60541958524E+03  0.25500000920E-02 0.  1.
    10030    2    1    2    0    0  0.00000000000E+00  0.00000000000E+00 -0.50215850767E+03  0.70868066284E+03  0.50006511082E+03 0.  0.
        1    1    3    3  502    0  0.15782906137E+03  0.75679122956E+02 -0.50411154016E+03  0.53363450714E+03  0.50400001928E-02 0.  1.
       -1    1    3    3    0  502 -0.15782906137E+03 -0.75679122956E+02  0.19530324901E+01  0.17504615570E+03  0.50400001928E-02 0. -1.
</event>
<event>
 5   0  0.3013734E-03  0.4999183E+03  0.7818609E-02  0.1013800E+00
       -1   -1    0    0    0  501  0.00000000000E+00  0.00000000000E+00  0.11493054171E+03  0.11493054182E+03  0.50400001928E-02 0.  1.
        1   -1    0    0  501    0  0.00000000000E+00  0.00000000000E+00 -0.54362911658E+03  0.54362911660E+03  0.50400001928E-02 0. -1.
    10030    2    1    2    0    0  0.00000000000E+00  0.00000000000E+00 -0.42869857487E+03  0.65855965843E+03  0.49991834894E+03 0.  0.
        2    1    3    3  502    0  0.14410296361E+03 -0.46115178785E+02  0.47754966701E+02  0.15865941726E+03  0.25500000920E-02 0.  1.
       -2    1    3    3    0  502 -0.14410296361E+03  0.46115178785E+02 -0.47645354157E+03  0.49990024116E+03  0.25500000920E-02 0. -1.
</event>
<event>
 5   0  0.4978779E-03  0.5000206E+03  0.7818609E-02  0.1013774E+00
       -2   -1    0    0    0  501  0.00000000000E+00  0.00000000000E+00  0.53541685482E+02  0.53541685543E+02  0.25500000920E-02 0.  1.
        2   -1    0    0  501    0  0.00000000000E+00  0.00000000000E+00 -0.11674109514E+04  0.11674109514E+04  0.25500000920E-02 0. -1.
    10030    2    1    2    0    0  0.00000000000E+00  0.00000000000E+00 -0.11138692659E+04  0.12209526369E+04  0.50002059969E+03 0.  0.
        1    1    3    3  502    0  0.23093576590E+02  0.21871521736E+03 -0.84724755085E+03  0.87532740847E+03  0.50400001928E-02 0. -1.
       -1    1    3    3    0  502 -0.23093576590E+02 -0.21871521736E+03 -0.26662171508E+03  0.34562522848E+03  0.50400001928E-02 0.  1.
</event>
<event>
 5   0  0.3211775E-03  0.5001267E+03  0.7818609E-02  0.1013746E+00
        1   -1    0    0  501    0  0.00000000000E+00  0.00000000000E+00  0.24844154170E+03  0.24844154176E+03  0.50400001928E-02 0. -1.
       -1   -1    0    0    0  501  0.00000000000E+00  0.00000000000E+00 -0.25169572111E+03  0.25169572116E+03  0.50400001928E-02 0.  1.
    10030    2    1    2    0    0  0.00000000000E+00  0.00000000000E+00 -0.32541794013E+01  0.50013726291E+03  0.50012667602E+03 0.  0.
        4    1    3    3  502    0 -0.43239810386E+02  0.16752373147E+03  0.17892084949E+03  0.24889388319E+03  0.12699999809E+01 0. -1.
       -4    1    3    3    0  502  0.43239810386E+02 -0.16752373147E+03 -0.18217502889E+03  0.25124337973E+03  0.12699999809E+01 0.  1.
</event>
<event>
 5   0  0.2005125E-03  0.5001831E+03  0.7818609E-02  0.1013731E+00
       -3   -1    0    0    0  501  0.00000000000E+00  0.00000000000E+00  0.21550297039E+03  0.21550299406E+03  0.10100000352E+00 0.  1.
        3   -1    0    0  501    0  0.00000000000E+00  0.00000000000E+00 -0.29023161421E+03  0.29023163178E+03  0.10100000352E+00 0. -1.
    10030    2    1    2    0    0  0.00000000000E+00  0.00000000000E+00 -0.74728643817E+02  0.50573462585E+03  0.50018310804E+03 0.  0.
        4    1    3    3  502    0  0.15093780490E+03  0.19925693505E+03 -0.45106025028E+02  0.25401124681E+03  0.12699999809E+01 0. -1.
       -4    1    3    3    0  502 -0.15093780490E+03 -0.19925693505E+03 -0.29622618789E+02  0.25172337904E+03  0.12699999809E+01 0.  1.
</event>
<event>
 5   0  0.5118882E-03  0.5002983E+03  0.7818609E-02  0.1013701E+00
        2   -1    0    0  501    0  0.00000000000E+00  0.00000000000E+00  0.56603156302E+03  0.56603156303E+03  0.25500000920E-02 0.  1.
       -2   -1    0    0    0  501  0.00000000000E+00  0.00000000000E+00 -0.11054967095E+03  0.11054967098E+03  0.25500000920E-02 0. -1.
    10030    2    1    2    0    0  0.00000000000E+00  0.00000000000E+00  0.45548189207E+03  0.67658123401E+03  0.50029832321E+03 0.  0.
        3    1    3    3  502    0 -0.94139813684E+02 -0.21974178951E+03  0.32735581380E+03  0.40535243629E+03  0.10100000352E+00 0.  1.
       -3    1    3    3    0  502  0.94139813684E+02  0.21974178951E+03  0.12812607827E+03  0.27122879772E+03  0.10100000352E+00 0. -1.
</event>
<event>
 5   0  0.3211775E-03  0.5001263E+03  0.7818609E-02  0.1013746E+00
        1   -1    0    0  501    0  0.00000000000E+00  0.00000000000E+00  0.10623591438E+04  0.10623591438E+04  0.50400001928E-02 0.  1.
       -1   -1    0    0    0  501  0.00000000000E+00  0.00000000000E+00 -0.58861065522E+02  0.58861065737E+02  0.50400001928E-02 0. -1.
    10030    2    1    2    0    0  0.00000000000E+00  0.00000000000E+00  0.10034980782E+04  0.11212202095E+04  0.50012634922E+03 0.  0.
        4    1    3    3  502    0  0.15977929395E+02 -0.80540745172E+02 -0.27769391708E+02  0.86688279925E+02  0.12699999809E+01 0. -1.
       -4    1    3    3    0  502 -0.15977929395E+02  0.80540745172E+02  0.10312674700E+04  0.10345319296E+04  0.12699999809E+01 0.  1.
</event>
<event>
 5   0  0.5118882E-03  0.5001034E+03  0.7818609E-02  0.1013752E+00
        2   -1    0    0  501    0  0.00000000000E+00  0.00000000000E+00  0.68126722439E+02  0.68126722487E+02  0.25500000920E-02 0. -1.
       -2   -1    0    0    0  501  0.00000000000E+00  0.00000000000E+00 -0.91778757665E+03  0.91778757666E+03  0.25500000920E-02 0.  1.
    10030    2    1    2    0    0  0.00000000000E+00  0.00000000000E+00 -0.84966085421E+03  0.98591429914E+03  0.50010342737E+03 0.  0.
        3    1    3    3  502    0 -0.14197908794E+03  0.11093527004E+03 -0.76663837507E+03  0.78752720835E+03  0.10100000352E+00 0.  1.
       -3    1    3    3    0  502  0.14197908794E+03 -0.11093527004E+03 -0.83022479141E+02  0.19838709080E+03  0.10100000352E+00 0. -1.
</event>
<event>
 5   0  0.5095783E-03  0.5002900E+03  0.7818609E-02  0.1013703E+00
        2   -1    0    0  501    0  0.00000000000E+00  0.00000000000E+00  0.16260946427E+03  0.16260946429E+03  0.25500000920E-02 0.  1.
       -2   -1    0    0    0  501  0.00000000000E+00  0.00000000000E+00 -0.38480241350E+03  0.38480241351E+03  0.25500000920E-02 0. -1.
    10030    2    1    2    0    0  0.00000000000E+00  0.00000000000E+00 -0.22219294923E+03  0.54741187779E+03  0.50028997318E+03 0.  0.
        4    1    3    3  502    0  0.73678311418E+02  0.23209260883E+03 -0.48474537551E+02  0.24828786989E+03  0.12699999809E+01 0. -1.
       -4    1    3    3    0  502 -0.73678311418E+02 -0.23209260883E+03 -0.17371841168E+03  0.29912400790E+03  0.12699999809E+01 0.  1.
</event>
<event>
 5   0  0.4989875E-03  0.4998086E+03  0.7818609E-02  0.1013829E+00
        2   -1    0    0  501    0  0.00000000000E+00  0.00000000000E+00  0.37886295947E+03  0.37886295948E+03  0.25500000920E-02 0. -1.
       -2   -1    0    0    0  501  0.00000000000E+00  0.00000000000E+00 -0.16484104671E+03  0.16484104673E+03  0.25500000920E-02 0.  1.
    10030    2    1    2    0    0  0.00000000000E+00  0.00000000000E+00  0.21402191276E+03  0.54370400621E+03  0.49980863060E+03 0.  0.
        2    1    3    3  502    0 -0.68172334943E+02  0.23954046178E+03  0.84583122434E+02  0.26302358200E+03  0.25500000920E-02 0. -1.
       -2    1    3    3    0  502  0.68172334943E+02 -0.23954046178E+03  0.12943879033E+03  0.28068042420E+03  0.25500000920E-02 0.  1.
</event>
<event>
 5   0  0.4989875E-03  0.5002327E+03  0.7818609E-02  0.1013718E+00
       -2   -1    0    0    0  501  0.00000000000E+00  0.00000000000E+00  0.39221606238E+02  0.39221606321E+02  0.25500000920E-02 0.  1.
        2   -1    0    0  501    0  0.00000000000E+00  0.00000000000E+00 -0.15949928152E+04  0.15949928152E+04  0.25500000920E-02 0. -1.
    10030    2    1    2    0    0  0.00000000000E+00  0.00000000000E+00 -0.15557712089E+04  0.16342144215E+04  0.50023266674E+03 0.  0.
        2    1    3    3  502    0 -0.56015364100E+02  0.13062512013E+03 -0.14502463344E+04  0.14571942470E+04  0.25500000920E-02 0. -1.
       -2    1    3    3    0  502  0.56015364100E+02 -0.13062512013E+03 -0.10552487450E+03  0.17702017447E+03  0.25500000920E-02 0.  1.
</event>
<event>
 5   0  0.3013734E-03  0.5000820E+03  0.7818609E-02  0.1013758E+00
       -1   -1    0    0    0  501  0.00000000000E+00  0.00000000000E+00  0.83715177231E+02  0.83715177383E+02  0.50400001928E-02 0.  1.
        1   -1    0    0  501    0  0.00000000000E+00  0.00000000000E+00 -0.74682410696E+03  0.74682410697E+03  0.50400001928E-02 0. -1.
    10030    2    1    2    0    0  0.00000000000E+00  0.00000000000E+00 -0.66310892973E+03  0.83053928436E+03  0.50008204345E+03 0.  0.
        2    1    3    3  502    0 -0.30239374866E+02  0.23016937526E+03 -0.17728577248E+03  0.29210033589E+03  0.25500000920E-02 0.  1.
       -2    1    3    3    0  502  0.30239374866E+02 -0.23016937526E+03 -0.48582315725E+03  0.53843894846E+03  0.25500000920E-02 0. -1.
</event>
<event>
 5   0  0.4989875E-03  0.4998451E+03  0.7818609E-02  0.1013819E+00
       -2   -1    0    0    0  501  0.00000000000E+00  0.00000000000E+00  0.61834515532E+02  0.61834515585E+02  0.25500000920E-02 0. -1.
        2   -1    0    0  501    0  0.00000000000E+00  0.00000000000E+00 -0.10101362966E+04  0.10101362966E+04  0.25500000920E-02 0.  1.
    10030    2    1    2    0    0  0.00000000000E+00  0.00000000000E+00 -0.94830178111E+03  0.10719708122E+04  0.49984513023E+03 0.  0.
        2    1    3    3  502    0 -0.11874722192E+03  0.83973976311E+02 -0.38269267466E+02  0.15038972122E+03  0.25500000920E-02 0. -1.
       -2    1    3    3    0  502  0.11874722192E+03 -0.83973976311E+02 -0.91003251364E+03  0.92158109101E+03  0.25500000920E-02 0.  1.
</event>
<event>
 5   0  0.4889251E-03  0.5001760E+03  0.7818609E-02  0.1013733E+00
       -2   -1    0    0    0  501  0.00000000000E+00  0.00000000000E+00  0.20092157503E+03  0.20092157505E+03  0.25500000920E-02 0. -1.
        2   -1    0    0  501    0  0.00000000000E+00  0.00000000000E+00 -0.31128564003E+03  0.31128564004E+03  0.25500000920E-02 0.  1.
    10030    2    1    2    0    0  0.00000000000E+00  0.00000000000E+00 -0.11036406500E+03  0.51220721508E+03  0.50017597338E+03 0.  0.
        5    1    3    3  502    0  0.15922005537E+01  0.16210439157E+03  0.13976929686E+03  0.21409791034E+03  0.46999998093E+01 0. -1.
       -5    1    3    3    0  502 -0.15922005537E+01 -0.16210439157E+03 -0.25013336185E+03  0.29810930475E+03  0.46999998093E+01 0.  1.
</event>
<event>
 5   0  0.4889251E-03  0.4998801E+03  0.7818609E-02  0.1013810E+00
       -2   -1    0    0    0  501  0.00000000000E+00  0.00000000000E+00  0.60864875478E+02  0.60864875532E+02  0.25500000920E-02 0.  1.
        2   -1    0    0  501    0  0.00000000000E+00  0.00000000000E+00 -0.10263726069E+04  0.10263726069E+04  0.25500000920E-02 0. -1.
    10030    2    1    2    0    0  0.00000000000E+00  0.00000000000E+00 -0.96550773141E+03  0.10872374824E+04  0.49988014941E+03 0.  0.
        5    1    3    3  502    0  0.56972855584E+02 -0.24002276403E+03 -0.39599584399E+03  0.46657435847E+03  0.46999998093E+01 0.  1.
       -5    1    3    3    0  502 -0.56972855584E+02  0.24002276403E+03 -0.56951188741E+03  0.62066312395E+03  0.46999998093E+01 0. -1.
</event>
<event>
 5   0  0.5118882E-03  0.4999494E+03  0.7818609E-02  0.1013792E+00
        2   -1    0    0  501    0  0.00000000000E+00  0.00000000000E+00  0.60696756442E+02  0.60696756496E+02  0.25500000920E-02 0.  1.
       -2   -1    0    0    0  501  0.00000000000E+00  0.00000000000E+00 -0.10295004645E+04  0.10295004645E+04  0.25500000920E-02 0. -1.
    10030    2    1    2    0    0  0.00000000000E+00  0.00000000000E+00 -0.96880370806E+03  0.10901972210E+04  0.49994935336E+03 0.  0.
        3    1    3    3  502    0 -0.14008983149E+03  0.16325432872E+03 -0.20676754112E+03  0.29837889167E+03  0.10100000352E+00 0.  1.
       -3    1    3    3    0  502  0.14008983149E+03 -0.16325432872E+03 -0.76203616693E+03  0.79181832932E+03  0.10100000352E+00 0. -1.
</event>
<event>
 5   0  0.3057783E-03  0.5005557E+03  0.7818609E-02  0.1013634E+00
        1   -1    0    0  501    0  0.00000000000E+00  0.00000000000E+00  0.30783958296E+03  0.30783958300E+03  0.50400001928E-02 0.  1.
       -1   -1    0    0    0  501  0.00000000000E+00  0.00000000000E+00 -0.20347935460E+03  0.20347935467E+03  0.50400001928E-02 0. -1.
    10030    2    1    2    0    0  0.00000000000E+00  0.00000000000E+00  0.10436022836E+03  0.51131893767E+03  0.50055568996E+03 0.  0.
        5    1    3    3  502    0  0.10161366121E+03 -0.22919696259E+02  0.28459442956E+03  0.30309524569E+03  0.46999998093E+01 0.  1.
       -5    1    3    3    0  502 -0.10161366121E+03  0.22919696259E+02 -0.18023420120E+03  0.20822369198E+03  0.46999998093E+01 0. -1.
</event>
<event>
 5   0  0.2005125E-03  0.5000037E+03  0.7818609E-02  0.1013778E+00
       -3   -1    0    0    0  501  0.00000000000E+00  0.00000000000E+00  0.34496556658E+03  0.34496558137E+03  0.10100000352E+00 0.  1.
        3   -1    0    0  501    0  0.00000000000E+00  0.00000000000E+00 -0.18118018051E+03  0.18118020866E+03  0.10100000352E+00 0. -1.
    10030    2    1    2    0    0  0.00000000000E+00  0.00000000000E+00  0.16378538607E+03  0.52614579003E+03  0.50000373966E+03 0.  0.
        5    1    3    3  502    0  0.81374481535E+02  0.22210747440E+03 -0.31101343031E+01  0.23661212852E+03  0.46999998093E+01 0. -1.
       -5    1    3    3    0  502 -0.81374481535E+02 -0.22210747440E+03  0.16689552037E+03  0.28953366151E+03  0.46999998093E+01 0.  1.
</event>
<event>
 5   0  0.2863538E-03  0.5000659E+03  0.7818609E-02  0.1013762E+00
        1   -1    0    0  501    0  0.00000000000E+00  0.00000000000E+00  0.35746114083E+03  0.35746114087E+03  0.50400001928E-02 0. -1.
       -1   -1    0    0    0  501  0.00000000000E+00  0.00000000000E+00 -0.17489026589E+03  0.17489026596E+03  0.50400001928E-02 0.  1.
    10030    2    1    2    0    0  0.00000000000E+00  0.00000000000E+00  0.18257087494E+03  0.53235140683E+03  0.50006589164E+03 0.  0.
        1    1    3    3  502    0  0.23471499240E+03  0.38005817420E+02  0.89561050018E+01  0.23794071038E+03  0.50400001928E-02 0.  1.
       -1    1    3    3    0  502 -0.23471499240E+03 -0.38005817420E+02  0.17361476994E+03  0.29441069645E+03  0.50400001928E-02 0. -1.
</event>
<event>
 5   0  0.5118882E-03  0.4994347E+03  0.7818609E-02  0.1013927E+00
       -2   -1    0    0    0  501  0.00000000000E+00  0.00000000000E+00  0.10470128980E+03  0.10470128983E+03  0.25500000920E-02 0. -1.
        2   -1    0    0  501    0  0.00000000000E+00  0.00000000000E+00 -0.59558716448E+03  0.59558716448E+03  0.25500000920E-02 0.  1.
    10030    2    1    2    0    0  0.00000000000E+00  0.00000000000E+00 -0.49088587467E+03  0.70028845432E+03  0.49943465768E+03 0.  0.
        3    1    3    3  502    0 -0.19192816990E+03  0.30052714743E+02 -0.46544906759E+03  0.50436339359E+03  0.10100000352E+00 0.  1.
       -3    1    3    3    0  502  0.19192816990E+03 -0.30052714743E+02 -0.25436807080E+02  0.19592506073E+03  0.10100000352E+00 0. -1.
</event>
<event>
 5   0  0.2005125E-03  0.4999073E+03  0.7818609E-02  0.1013803E+00
       -4   -1    0    0    0  501  0.00000000000E+00  0.00000000000E+00  0.46672832320E+03  0.46673005108E+03  0.12699999809E+01 0.  1.
        4   -1    0    0  501    0  0.00000000000E+00  0.00000000000E+00 -0.13385626072E+03  0.13386228533E+03  0.12699999809E+01 0. -1.
    10030    2    1    2    0    0  0.00000000000E+00  0.00000000000E+00  0.33287206249E+03  0.60059233641E+03  0.49990733598E+03 0.  0.
        1    1    3    3  502    0 -0.20982239913E+03  0.34762542380E+02  0.86762776355E+01  0.21285946384E+03  0.50400001928E-02 0. -1.
       -1    1    3    3    0  502  0.20982239913E+03 -0.34762542380E+02  0.32419578485E+03  0.38773287256E+03  0.50400001928E-02 0.  1.
</event>
<event>
 5   0  0.5095783E-03  0.5002077E+03  0.7818609E-02  0.1013725E+00
        2   -1    0    0  501    0  0.00000000000E+00  0.00000000000E+00  0.84256697510E+03  0.84256697511E+03  0.25500000920E-02 0. -1.
       -2   -1    0    0    0  501  0.00000000000E+00  0.00000000000E+00 -0.74239721363E+02  0.74239721407E+02  0.25500000920E-02 0.  1.
    10030    2    1    2    0    0  0.00000000000E+00  0.00000000000E+00  0.76832725374E+03  0.91680669651E+03  0.50020770679E+03 0.  0.
        4    1    3    3  502    0 -0.13200846483E+03 -0.12012145367E+03  0.63048551666E+02  0.18929376954E+03  0.12699999809E+01 0.  1.
       -4    1    3    3    0  502  0.13200846483E+03  0.12012145367E+03  0.70527870207E+03  0.72751292698E+03  0.12699999809E+01 0. -1.
</event>
<event>
 5   0  0.2005125E-03  0.5000302E+03  0.7818609E-02  0.1013771E+00
       -3   -1    0    0    0  501  0.00000000000E+00  0.00000000000E+00  0.48336190141E+03  0.48336191196E+03  0.10100000352E+00 0.  1.
        3   -1    0    0  501    0  0.00000000000E+00  0.00000000000E+00 -0.12931829134E+03  0.12931833078E+03  0.10100000352E+00 0. -1.
    10030    2    1    2    0    0  0.00000000000E+00  0.00000000000E+00  0.35404361008E+03  0.61268024274E+03  0.50003020110E+03 0.  0.
        2    1    3    3  502    0  0.20714207070E+01 -0.16929473985E+03  0.40242973177E+03  0.43659442133E+03  0.25500000920E-02 0.  1.
       -2    1    3    3    0  502 -0.20714207070E+01  0.16929473985E+03 -0.48386121688E+02  0.17608582141E+03  0.25500000920E-02 0. -1.
</event>
<event>
 5   0  0.3211775E-03  0.5002971E+03  0.7818609E-02  0.1013701E+00
       -1   -1    0    0    0  501  0.00000000000E+00  0.00000000000E+00  0.25664151343E+03  0.25664151348E+03  0.50400001928E-02 0. -1.
        1   -1    0    0  501    0  0.00000000000E+00  0.00000000000E+00 -0.24381980960E+03  0.24381980965E+03  0.50400001928E-02 0.  1.
    10030    2    1    2    0    0  0.00000000000E+00  0.00000000000E+00  0.12821703827E+02  0.50046132313E+03  0.50029705162E+03 0.  0.
        4    1    3    3  502    0 -0.94598025551E+02  0.16949573532E+03  0.16424441145E+03  0.25427432101E+03  0.12699999809E+01 0. -1.
       -4    1    3    3    0  502  0.94598025551E+02 -0.16949573532E+03 -0.15142270763E+03  0.24618700212E+03  0.12699999809E+01 0.  1.
</event>
<event>
 5   0  0.5095783E-03  0.4999585E+03  0.7818609E-02  0.1013790E+00
        2   -1    0    0  501    0  0.00000000000E+00  0.00000000000E+00  0.17930342295E+04  0.17930342295E+04  0.25500000920E-02 0.  1.
       -2   -1    0    0    0  501  0.00000000000E+00  0.00000000000E+00 -0.34851322781E+02  0.34851322874E+02  0.25500000920E-02 0. -1.
    10030    2    1    2    0    0  0.00000000000E+00  0.00000000000E+00  0.17581829068E+04  0.18278855524E+04  0.49995845738E+03 0.  0.
        4    1    3    3  502    0  0.16066947630E+03  0.70805233297E+02  0.22855726441E+03  0.28821536686E+03  0.12699999809E+01 0. -1.
       -4    1    3    3    0  502 -0.16066947630E+03 -0.70805233297E+02  0.15296256423E+04  0.15396701856E+04  0.12699999809E+01 0.  1.
</event>
<event>
 5   0  0.4978779E-03  0.4997094E+03  0.7818609E-02  0.1013855E+00
        2   -1    0    0  501    0  0.00000000000E+00  0.00000000000E+00  0.43167881131E+03  0.43167881132E+03  0.25500000920E-02 0. -1.
       -2   -1    0    0    0  501  0.00000000000E+00  0.00000000000E+00 -0.14461530389E+03  0.14461530391E+03  0.25500000920E-02 0.  1.
    10030    2    1    2    0    0  0.00000000000E+00  0.00000000000E+00  0.28706350742E+03  0.57629411523E+03  0.49970936548E+03 0.  0.
        1    1    3    3  502    0 -0.24636714730E+03  0.28759030344E+02  0.10886660834E+03  0.27087966245E+03  0.50400001928E-02 0.  1.
       -1    1    3    3    0  502  0.24636714730E+03 -0.28759030344E+02  0.17819689908E+03  0.30541445277E+03  0.50400001928E-02 0. -1.
</event>
<event>
 5   0  0.4989875E-03  0.4998921E+03  0.7818609E-02  0.1013807E+00
       -2   -1    0    0    0  501  0.00000000000E+00  0.00000000000E+00  0.56093817189E+03  0.56093817190E+03  0.25500000920E-02 0.  1.
        2   -1    0    0  501    0  0.00000000000E+00  0.00000000000E+00 -0.11137238974E+03  0.11137238977E+03  0.25500000920E-02 0. -1.
    10030    2    1    2    0    0  0.00000000000E+00  0.00000000000E+00  0.44956578215E+03  0.67231056166E+03  0.49989208720E+03 0.  0.
        2    1    3    3  502    0 -0.16354600159E+03 -0.10673821348E+03  0.14991009412E+02  0.19587003656E+03  0.25500000920E-02 0. -1.
       -2    1    3    3    0  502  0.16354600159E+03  0.10673821348E+03  0.43457477274E+03  0.47644052510E+03  0.25500000920E-02 0.  1.
</event>
<event>
 5   0  0.3055293E-03  0.5000665E+03  0.7818609E-02  0.1013762E+00
       -1   -1    0    0    0  501  0.00000000000E+00  0.00000000000E+00  0.32397927722E+03  0.32397927726E+03  0.50400001928E-02 0.  1.
        1   -1    0    0  501    0  0.00000000000E+00  0.00000000000E+00 -0.19296485902E+03  0.19296485909E+03  0.50400001928E-02 0. -1.
    10030    2    1    2    0    0  0.00000000000E+00  0.00000000000E+00  0.13101441820E+03  0.51694413635E+03  0.50006645791E+03 0.  0.
        3    1    3    3  502    0  0.11263705322E+03  0.67282109214E+02  0.28553499861E+03  0.31423595213E+03  0.10100000352E+00 0.  1.
       -3    1    3    3    0  502 -0.11263705322E+03 -0.67282109214E+02 -0.15452058041E+03  0.20270818422E+03  0.10100000352E+00 0. -1.
</event>
<event>
 5   0  0.2005125E-03  0.4992005E+03  0.7818609E-02  0.1013988E+00
        3   -1    0    0  501    0  0.00000000000E+00  0.00000000000E+00  0.24044664467E+03  0.24044666588E+03  0.10100000352E+00 0. -1.
       -3   -1    0    0    0  501  0.00000000000E+00  0.00000000000E+00 -0.25910230776E+03  0.25910232744E+03  0.10100000352E+00 0.  1.
    10030    2    1    2    0    0  0.00000000000E+00  0.00000000000E+00 -0.18655663090E+02  0.49954899332E+03  0.49920052380E+03 0.  0.
        2    1    3    3  502    0 -0.29432524759E+02 -0.21015607151E+03  0.12217334676E+03  0.24486358359E+03  0.25500000920E-02 0. -1.
       -2    1    3    3    0  502  0.29432524759E+02  0.21015607151E+03 -0.14082900985E+03  0.25468540973E+03  0.25500000920E-02 0.  1.
</event>
<event>
 5   0  0.3211775E-03  0.5001474E+03  0.7818609E-02  0.1013740E+00
       -1   -1    0    0    0  501  0.00000000000E+00  0.00000000000E+00  0.44217196955E+02  0.44217197242E+02  0.50400001928E-02 0. -1.
        1   -1    0    0  501    0  0.00000000000E+00  0.00000000000E+00 -0.14143109834E+04  0.14143109834E+04  0.50400001928E-02 0.  1.
    10030    2    1    2    0    0  0.00000000000E+00  0.00000000000E+00 -0.13700937865E+04  0.14585281807E+04  0.50014744836E+03 0.  0.
        4    1    3    3  502    0  0.42195550084E+02  0.14219267563E+03 -0.97912676716E+02  0.17772936339E+03  0.12699999809E+01 0. -1.
       -4    1    3    3    0  502 -0.42195550084E+02 -0.14219267563E+03 -0.12721811097E+04  0.12807988173E+04  0.12699999809E+01 0.  1.
</event>
<event>
 5   0  0.3013734E-03  0.5001961E+03  0.7818609E-02  0.1013728E+00
       -1   -1    0    0    0  501  0.00000000000E+00  0.00000000000E+00  0.21295948078E+03  0.21295948084E+03  0.50400001928E-02 0.  1.
        1   -1    0    0  501    0  0.00000000000E+00  0.00000000000E+00 -0.29371330001E+03  0.29371330005E+03  0.50400001928E-02 0. -1.
    10030    2    1    2    0    0  0.00000000000E+00  0.00000000000E+00 -0.80753819230E+02  0.50667278089E+03  0.50019608913E+03 0.  0.
        2    1    3    3  502    0 -0.38309023534E+02  0.73612983782E+02 -0.27936097539E+03  0.29142581773E+03  0.25500000920E-02 0. -1.
       -2    1    3    3    0  502  0.38309023534E+02 -0.73612983782E+02  0.19860715616E+03  0.21524696316E+03  0.25500000920E-02 0.  1.
</event>
<event>
 5   0  0.4989875E-03  0.5000488E+03  0.7818609E-02  0.1013766E+00
        2   -1    0    0  501    0  0.00000000000E+00  0.00000000000E+00  0.19100357130E+04  0.19100357130E+04  0.25500000920E-02 0. -1.
       -2   -1    0    0    0  501  0.00000000000E+00  0.00000000000E+00 -0.32728294607E+02  0.32728294706E+02  0.25500000920E-02 0.  1.
    10030    2    1    2    0    0  0.00000000000E+00  0.00000000000E+00  0.18773074184E+04  0.19427640077E+04  0.50004884411E+03 0.  0.
        2    1    3    3  502    0 -0.12705274905E+03  0.81591752529E+02  0.16442055841E+03  0.22323470868E+03  0.25500000920E-02 0.  1.
       -2    1    3    3    0  502  0.12705274905E+03 -0.81591752529E+02  0.17128868600E+04  0.17195292990E+04  0.25500000920E-02 0. -1.
</event>
<event>
 5   0  0.4889251E-03  0.5000105E+03  0.7818609E-02  0.1013776E+00
        2   -1    0    0  501    0  0.00000000000E+00  0.00000000000E+00  0.54083415900E+03  0.54083415901E+03  0.25500000920E-02 0.  1.
       -2   -1    0    0    0  501  0.00000000000E+00  0.00000000000E+00 -0.11556709735E+03  0.11556709738E+03  0.25500000920E-02 0. -1.
    10030    2    1    2    0    0  0.00000000000E+00  0.00000000000E+00  0.42526706165E+03  0.65640125639E+03  0.50001053556E+03 0.  0.
        5    1    3    3  502    0  0.23460637398E+03 -0.23905615935E+01  0.32582699272E+03  0.40153603161E+03  0.46999998093E+01 0.  1.
       -5    1    3    3    0  502 -0.23460637398E+03  0.23905615935E+01  0.99440068931E+02  0.25486522478E+03  0.46999998093E+01 0. -1.
</event>
<event>
 5   0  0.2863538E-03  0.5001384E+03  0.7818609E-02  0.1013743E+00
        1   -1    0    0  501    0  0.00000000000E+00  0.00000000000E+00  0.14722276839E+04  0.14722276840E+04  0.50400001928E-02 0.  1.
       -1   -1    0    0    0  501  0.00000000000E+00  0.00000000000E+00 -0.42476181940E+02  0.42476182239E+02  0.50400001928E-02 0. -1.
    10030    2    1    2    0    0  0.00000000000E+00  0.00000000000E+00  0.14297515020E+04  0.15147038662E+04  0.50013842561E+03 0.  0.
        1    1    3    3  502    0  0.23214600357E+03 -0.39909499248E+02  0.96916875524E+03  0.99738288098E+03  0.50400001928E-02 0. -1.
       -1    1    3    3    0  502 -0.23214600357E+03  0.39909499248E+02  0.46058274676E+03  0.51732098521E+03  0.50400001928E-02 0.  1.
</event>
<event>
 5   0  0.4978779E-03  0.4995476E+03  0.7818609E-02  0.1013897E+00
        2   -1    0    0  501    0  0.00000000000E+00  0.00000000000E+00  0.69456167197E+03  0.69456167198E+03  0.25500000920E-02 0.  1.
       -2   -1    0    0    0  501  0.00000000000E+00  0.00000000000E+00 -0.89822030595E+02  0.89822030631E+02  0.25500000920E-02 0. -1.
    10030    2    1    2    0    0  0.00000000000E+00  0.00000000000E+00  0.60473964138E+03  0.78438370261E+03  0.49954755436E+03 0.  0.
        1    1    3    3  502    0 -0.55986287807E+01 -0.11492385470E+03 -0.45731044825E+02  0.12381504557E+03  0.50400001928E-02 0. -1.
       -1    1    3    3    0  502  0.55986287807E+01  0.11492385470E+03  0.65047068620E+03  0.66056865703E+03  0.50400001928E-02 0.  1.
</event>
<event>
 5   0  0.3211775E-03  0.5001275E+03  0.7818609E-02  0.1013746E+00
        1   -1    0    0  501    0  0.00000000000E+00  0.00000000000E+00  0.37927462264E+03  0.37927462267E+03  0.50400001928E-02 0.  1.
       -1   -1    0    0    0  501  0.00000000000E+00  0.00000000000E+00 -0.16487233167E+03  0.16487233175E+03  0.50400001928E-02 0. -1.
    10030    2    1    2    0    0  0.00000000000E+00  0.00000000000E+00  0.21440229097E+03  0.54414695442E+03  0.50012754937E+03 0.  0.
        4    1    3    3  502    0 -0.52695898217E+02  0.47720679505E+02  0.36804420644E+03  0.37484966551E+03  0.12699999809E+01 0.  1.
       -4    1    3    3    0  502  0.52695898217E+02 -0.47720679505E+02 -0.15364191548E+03  0.16929728891E+03  0.12699999809E+01 0. -1.
</event>
<event>
 5   0  0.4889251E-03  0.4999052E+03  0.7818609E-02  0.1013804E+00
        2   -1    0    0  501    0  0.00000000000E+00  0.00000000000E+00  0.95117601037E+03  0.95117601038E+03  0.25500000920E-02 0. -1.
       -2   -1    0    0    0  501  0.00000000000E+00  0.00000000000E+00 -0.65683231215E+02  0.65683231264E+02  0.25500000920E-02 0.  1.
    10030    2    1    2    0    0  0.00000000000E+00  0.00000000000E+00  0.88549277916E+03  0.10168592416E+04  0.49990524639E+03 0.  0.
        5    1    3    3  502    0 -0.22595622374E+03  0.17092835657E+02  0.22838383433E+03  0.32176023038E+03  0.46999998093E+01 0.  1.
       -5    1    3    3    0  502  0.22595622374E+03 -0.17092835657E+02  0.65710894483E+03  0.69509901126E+03  0.46999998093E+01 0. -1.
</event>
<event>
 5   0  0.4978779E-03  0.5002262E+03  0.7818609E-02  0.1013720E+00
       -2   -1    0    0    0  501  0.00000000000E+00  0.00000000000E+00  0.31540256361E+03  0.31540256362E+03  0.25500000920E-02 0.  1.
        2   -1    0    0  501    0  0.00000000000E+00  0.00000000000E+00 -0.19833875810E+03  0.19833875812E+03  0.25500000920E-02 0. -1.
    10030    2    1    2    0    0  0.00000000000E+00  0.00000000000E+00  0.11706380551E+03  0.51374132174E+03  0.50022615996E+03 0.  0.
        1    1    3    3  502    0  0.13384001692E+03 -0.17837846915E+03  0.17483699559E+03  0.28337255237E+03  0.50400001928E-02 0.  1.
       -1    1    3    3    0  502 -0.13384001692E+03  0.17837846915E+03 -0.57773190079E+02  0.23036876937E+03  0.50400001928E-02 0. -1.
</event>
<event>
 5   0  0.4889251E-03  0.4997896E+03  0.7818609E-02  0.1013834E+00
       -2   -1    0    0    0  501  0.00000000000E+00  0.00000000000E+00  0.17931196000E+03  0.17931196002E+03  0.25500000920E-02 0.  1.
        2   -1    0    0  501    0  0.00000000000E+00  0.00000000000E+00 -0.34826120748E+03  0.34826120749E+03  0.25500000920E-02 0. -1.
    10030    2    1    2    0    0  0.00000000000E+00  0.00000000000E+00 -0.16894924747E+03  0.52757316751E+03  0.49978955457E+03 0.  0.
        5    1    3    3  502    0  0.77414427781E+02 -0.46703424558E-01 -0.33523531184E+03  0.34408981402E+03  0.46999998093E+01 0. -1.
       -5    1    3    3    0  502 -0.77414427781E+02  0.46703424558E-01  0.16628606436E+03  0.18348335349E+03  0.46999998093E+01 0.  1.
</event>
<event>
 5   0  0.4889251E-03  0.5004576E+03  0.7818609E-02  0.1013660E+00
       -2   -1    0    0    0  501  0.00000000000E+00  0.00000000000E+00  0.54096157296E+03  0.54096157296E+03  0.25500000920E-02 0.  1.
        2   -1    0    0  501    0  0.00000000000E+00  0.00000000000E+00 -0.11574657477E+03  0.11574657480E+03  0.25500000920E-02 0. -1.
    10030    2    1    2    0    0  0.00000000000E+00  0.00000000000E+00  0.42521499819E+03  0.65670814776E+03  0.50045758726E+03 0.  0.
        5    1    3    3  502    0  0.37974982320E-02 -0.17661540965E+03 -0.19915276659E+02  0.17779682557E+03  0.46999998093E+01 0. -1.
       -5    1    3    3    0  502 -0.37974982320E-02  0.17661540965E+03  0.44513027485E+03  0.47891132219E+03  0.46999998093E+01 0.  1.
</event>
<event>
 5   0  0.2005125E-03  0.4999361E+03  0.7818609E-02  0.1013796E+00
       -4   -1    0    0    0  501  0.00000000000E+00  0.00000000000E+00  0.39309250060E+03  0.39309455214E+03  0.12699999809E+01 0.  1.
        4   -1    0    0  501    0  0.00000000000E+00  0.00000000000E+00 -0.15894999035E+03  0.15895506388E+03  0.12699999809E+01 0. -1.
    10030    2    1    2    0    0  0.00000000000E+00  0.00000000000E+00  0.23414251024E+03  0.55204961602E+03  0.49993605936E+03 0.  0.
        4    1    3    3  502    0 -0.18771310874E+03  0.13848518105E+02  0.29869920701E+03  0.35305923273E+03  0.12699999809E+01 0.  1.
       -4    1    3    3    0  502  0.18771310874E+03 -0.13848518105E+02 -0.64556696770E+02  0.19899038329E+03  0.12699999809E+01 0. -1.
</event>
<event>
 5   0  0.5118882E-03  0.4980809E+03  0.7818609E-02  0.1014281E+00
        2   -1    0    0  501    0  0.00000000000E+00  0.00000000000E+00  0.20225213598E+04  0.20225213598E+04  0.25500000920E-02 0. -1.
       -2   -1    0    0    0  501  0.00000000000E+00  0.00000000000E+00 -0.30665265169E+02  0.30665265275E+02  0.25500000920E-02 0.  1.
    10030    2    1    2    0    0  0.00000000000E+00  0.00000000000E+00  0.19918560946E+04  0.20531866251E+04  0.49808093285E+03 0.  0.
        3    1    3    3  502    0  0.69339813993E+02 -0.16553649412E+03  0.28419792410E+03  0.33612320799E+03  0.10100000352E+00 0.  1.
       -3    1    3    3    0  502 -0.69339813993E+02  0.16553649412E+03  0.17076581705E+04  0.17170634171E+04  0.10100000352E+00 0. -1.
</event>
<event>
 5   0  0.3013734E-03  0.5000912E+03  0.7818609E-02  0.1013755E+00
        1   -1    0    0  501    0  0.00000000000E+00  0.00000000000E+00  0.44185974246E+03  0.44185974249E+03  0.50400001928E-02 0. -1.
       -1   -1    0    0    0  501  0.00000000000E+00  0.00000000000E+00 -0.14149922207E+03  0.14149922216E+03  0.50400001928E-02 0.  1.
    10030    2    1    2    0    0  0.00000000000E+00  0.00000000000E+00  0.30036052040E+03  0.58335896465E+03  0.50009123110E+03 0.  0.
        2    1    3    3  502    0  0.22312382109E+03  0.11262593809E+03  0.15874977705E+03  0.29609176481E+03  0.25500000920E-02 0.  1.
       -2    1    3    3    0  502 -0.22312382109E+03 -0.11262593809E+03  0.14161074335E+03  0.28726719984E+03  0.25500000920E-02 0. -1.
</event>
<event>
 5   0  0.5095783E-03  0.4994507E+03  0.7818609E-02  0.1013922E+00
       -2   -1    0    0    0  501  0.00000000000E+00  0.00000000000E+00  0.24057221766E+03  0.24057221767E+03  0.25500000920E-02 0.  1.
        2   -1    0    0  501    0  0.00000000000E+00  0.00000000000E+00 -0.25922675541E+03  0.25922675542E+03  0.25500000920E-02 0. -1.
    10030    2    1    2    0    0  0.00000000000E+00  0.00000000000E+00 -0.18654537757E+02  0.49979897309E+03  0.49945072002E+03 0.  0.
        4    1    3    3  502    0  0.10995823692E+03  0.94578282349E+02 -0.21275520992E+03  0.25749224766E+03  0.12699999809E+01 0. -1.
       -4    1    3    3    0  502 -0.10995823692E+03 -0.94578282349E+02  0.19410067216E+03  0.24230672543E+03  0.12699999809E+01 0.  1.
</event>
<event>
 5   0  0.3055293E-03  0.4999457E+03  0.7818609E-02  0.1013793E+00
        1   -1    0    0  501    0  0.00000000000E+00  0.00000000000E+00  0.19241950264E+04  0.19241950265E+04  0.50400001928E-02 0.  1.
       -1   -1    0    0    0  501  0.00000000000E+00  0.00000000000E+00 -0.32474058203E+02  0.32474058594E+02  0.50400001928E-02 0. -1.
    10030    2    1    2    0    0  0.00000000000E+00  0.00000000000E+00  0.18917209682E+04  0.19566690850E+04  0.49994568374E+03 0.  0.
        3    1    3    3  502    0 -0.21019528440E+03 -0.11244286388E+03  0.12403294013E+04  0.12630290927E+04  0.10100000352E+00 0.  1.
       -3    1    3    3    0  502  0.21019528440E+03  0.11244286388E+03  0.65139156698E+03  0.69363999233E+03  0.10100000352E+00 0. -1.
</event>
<event>
 5   0  0.5118882E-03  0.5000007E+03  0.7818609E-02  0.1013779E+00
       -2   -1    0    0    0  501  0.00000000000E+00  0.00000000000E+00  0.42953578054E+02  0.42953578130E+02  0.25500000920E-02 0.  1.
        2   -1    0    0  501    0  0.00000000000E+00  0.00000000000E+00 -0.14550634910E+04  0.14550634910E+04  0.25500000920E-02 0. -1.
    10030    2    1    2    0    0  0.00000000000E+00  0.00000000000E+00 -0.14121099129E+04  0.14980170691E+04  0.50000073317E+03 0.  0.
        3    1    3    3  502    0  0.22394286917E+03 -0.65911397680E+02 -0.43799061171E+03  0.49631694223E+03  0.10100000352E+00 0.  1.
       -3    1    3    3    0  502 -0.22394286917E+03  0.65911397680E+02 -0.97411930124E+03  0.10017001269E+04  0.10100000352E+00 0. -1.
</event>
<event>
 5   0  0.3211775E-03  0.5001926E+03  0.7818609E-02  0.1013729E+00
        1   -1    0    0  501    0  0.00000000000E+00  0.00000000000E+00  0.15104603486E+03  0.15104603494E+03  0.50400001928E-02 0.  1.
       -1   -1    0    0    0  501  0.00000000000E+00  0.00000000000E+00 -0.41410001105E+03  0.41410001108E+03  0.50400001928E-02 0. -1.
    10030    2    1    2    0    0  0.00000000000E+00  0.00000000000E+00 -0.26305397619E+03  0.56514604603E+03  0.50019262185E+03 0.  0.
        4    1    3    3  502    0 -0.22498962563E+03 -0.15747210476E+02 -0.25362601804E+03  0.33940547463E+03  0.12699999809E+01 0. -1.
       -4    1    3    3    0  502  0.22498962563E+03  0.15747210476E+02 -0.94279581502E+01  0.22574057140E+03  0.12699999809E+01 0.  1.
</event>
<event>
 5   0  0.4978779E-03  0.4998038E+03  0.7818609E-02  0.1013830E+00
       -2   -1    0    0    0  501  0.00000000000E+00  0.00000000000E+00  0.99895832322E+02  0.99895832355E+02  0.25500000920E-02 0.  1.
        2   -1    0    0  501    0  0.00000000000E+00  0.00000000000E+00 -0.62516091146E+03  0.62516091146E+03  0.25500000920E-02 0. -1.
    10030    2    1    2    0    0  0.00000000000E+00  0.00000000000E+00 -0.52526507914E+03  0.72505674382E+03  0.49980383992E+03 0.  0.
        1    1    3    3  502    0 -0.11370891933E+03  0.15674019830E+03 -0.49179338596E+03  0.52854322680E+03  0.50400001928E-02 0. -1.
       -1    1    3    3    0  502  0.11370891933E+03 -0.15674019830E+03 -0.33471693176E+02  0.19651351702E+03  0.50400001928E-02 0.  1.
</event>
<event>
 5   0  0.3057783E-03  0.5000393E+03  0.7818609E-02  0.1013769E+00
       -1   -1    0    0    0  501  0.00000000000E+00  0.00000000000E+00  0.10709979819E+03  0.10709979831E+03  0.50400001928E-02 0.  1.
        1   -1    0    0  501    0  0.00000000000E+00  0.00000000000E+00 -0.58365956645E+03  0.58365956647E+03  0.50400001928E-02 0. -1.
    10030    2    1    2    0    0  0.00000000000E+00  0.00000000000E+00 -0.47655976826E+03  0.69075936478E+03  0.50003928577E+03 0.  0.
        5    1    3    3  502    0 -0.57236281204E+01  0.23381897845E+03 -0.36015484983E+03  0.42946208268E+03  0.46999998093E+01 0.  1.
       -5    1    3    3    0  502  0.57236281204E+01 -0.23381897845E+03 -0.11640491842E+03  0.26129728210E+03  0.46999998093E+01 0. -1.
</event>
<event>
 5   0  0.3211775E-03  0.5002245E+03  0.7818609E-02  0.1013720E+00
       -1   -1    0    0    0  501  0.00000000000E+00  0.00000000000E+00  0.13078674362E+03  0.13078674372E+03  0.50400001928E-02 0. -1.
        1   -1    0    0  501    0  0.00000000000E+00  0.00000000000E+00 -0.47830635803E+03  0.47830635805E+03  0.50400001928E-02 0.  1.
    10030    2    1    2    0    0  0.00000000000E+00  0.00000000000E+00 -0.34751961441E+03  0.60909310177E+03  0.50022447383E+03 0.  0.
        4    1    3    3  502    0 -0.10119033629E+03  0.73471434652E+02 -0.43750453085E+03  0.45502677205E+03  0.12699999809E+01 0.  1.
       -4    1    3    3    0  502  0.10119033629E+03 -0.73471434652E+02  0.89984916438E+02  0.15406632972E+03  0.12699999809E+01 0. -1.
</event>
<event>
 5   0  0.5118882E-03  0.5000276E+03  0.7818609E-02  0.1013772E+00
        2   -1    0    0  501    0  0.00000000000E+00  0.00000000000E+00  0.78725433418E+03  0.78725433419E+03  0.25500000920E-02 0.  1.
       -2   -1    0    0    0  501  0.00000000000E+00  0.00000000000E+00 -0.79398615197E+02  0.79398615238E+02  0.25500000920E-02 0. -1.
    10030    2    1    2    0    0  0.00000000000E+00  0.00000000000E+00  0.70785571899E+03  0.86665294943E+03  0.50002761508E+03 0.  0.
        3    1    3    3  502    0  0.65691733048E+02  0.21899661296E+03  0.52924764575E+03  0.57652233349E+03  0.10100000352E+00 0.  1.
       -3    1    3    3    0  502 -0.65691733048E+02 -0.21899661296E+03  0.17860807323E+03  0.29013061593E+03  0.10100000352E+00 0. -1.
</event>
<event>
 5   0  0.3057783E-03  0.4994757E+03  0.7818609E-02  0.1013916E+00
       -1   -1    0    0    0  501  0.00000000000E+00  0.00000000000E+00  0.12695267153E+03  0.12695267163E+03  0.50400001928E-02 0.  1.
        1   -1    0    0  501    0  0.00000000000E+00  0.00000000000E+00 -0.49127749697E+03  0.49127749700E+03  0.50400001928E-02 0. -1.
    10030    2    1    2    0    0  0.00000000000E+00  0.00000000000E+00 -0.36432482545E+03  0.61823016863E+03  0.49947568806E+03 0.  0.
        5    1    3    3  502    0  0.14498124818E+03  0.14081573356E+03 -0.36364609085E+03  0.41606394044E+03  0.46999998093E+01 0. -1.
       -5    1    3    3    0  502 -0.14498124818E+03 -0.14081573356E+03 -0.67873459681E+00  0.20216622819E+03  0.46999998093E+01 0.  1.
</event>
<event>
 5   0  0.3055293E-03  0.4998918E+03  0.7818609E-02  0.1013807E+00
       -1   -1    0    0    0  501  0.00000000000E+00  0.00000000000E+00  0.29204606513E+03  0.29204606517E+03  0.50400001928E-02 0. -1.
        1   -1    0    0  501    0  0.00000000000E+00  0.00000000000E+00 -0.21391471988E+03  0.21391471994E+03  0.50400001928E-02 0.  1.
    10030    2    1    2    0    0  0.00000000000E+00  0.00000000000E+00  0.78131345244E+02  0.50596078511E+03  0.49989179725E+03 0.  0.
        3    1    3    3  502    0 -0.11838832602E+03 -0.11474980126E+03  0.22920169147E+03  0.28234152759E+03  0.10100000352E+00 0. -1.
       -3    1    3    3    0  502  0.11838832602E+03  0.11474980126E+03 -0.15107034622E+03  0.22361925753E+03  0.10100000352E+00 0.  1.
</event>
<event>
 5   0  0.3013734E-03  0.4996504E+03  0.7818609E-02  0.1013870E+00
       -1   -1    0    0    0  501  0.00000000000E+00  0.00000000000E+00  0.15475757361E+03  0.15475757369E+03  0.50400001928E-02 0. -1.
        1   -1    0    0  501    0  0.00000000000E+00  0.00000000000E+00 -0.40329290166E+03  0.40329290169E+03  0.50400001928E-02 0.  1.
    10030    2    1    2    0    0  0.00000000000E+00  0.00000000000E+00 -0.24853532805E+03  0.55805047539E+03  0.49965040157E+03 0.  0.
        2    1    3    3  502    0  0.79203029180E+02  0.39992504324E+02  0.13656696522E+03  0.16285900721E+03  0.25500000920E-02 0. -1.
       -2    1    3    3    0  502 -0.79203029180E+02 -0.39992504324E+02 -0.38510229327E+03  0.39519146818E+03  0.25500000920E-02 0.  1.
</event>
<event>
 5   0  0.4989875E-03  0.5003659E+03  0.7818609E-02  0.1013683E+00
        2   -1    0    0  501    0  0.00000000000E+00  0.00000000000E+00  0.16548833660E+03  0.16548833662E+03  0.25500000920E-02 0. -1.
       -2   -1    0    0    0  501  0.00000000000E+00  0.00000000000E+00 -0.37822308937E+03  0.37822308937E+03  0.25500000920E-02 0.  1.
    10030    2    1    2    0    0  0.00000000000E+00  0.00000000000E+00 -0.21273475276E+03  0.54371142599E+03  0.50036590584E+03 0.  0.
        2    1    3    3  502    0  0.86614135894E+02  0.11158846629E+03 -0.33074352822E+03  0.35964604240E+03  0.25500000920E-02 0.  1.
       -2    1    3    3    0  502 -0.86614135894E+02 -0.11158846629E+03  0.11800877546E+03  0.18406538359E+03  0.25500000920E-02 0. -1.
</event>
<event>
 5   0  0.3013734E-03  0.5000817E+03  0.7818609E-02  0.1013758E+00
       -1   -1    0    0    0  501  0.00000000000E+00  0.00000000000E+00  0.32972206842E+03  0.32972206846E+03  0.50400001928E-02 0. -1.
        1   -1    0    0  501    0  0.00000000000E+00  0.00000000000E+00 -0.18961552192E+03  0.18961552199E+03  0.50400001928E-02 0.  1.
    10030    2    1    2    0    0  0.00000000000E+00  0.00000000000E+00  0.14010654650E+03  0.51933759045E+03  0.50008168181E+03 0.  0.
        2    1    3    3  502    0  0.33042178826E+02  0.72186416016E+02 -0.17617933902E+03  0.19324032639E+03  0.25500000920E-02 0.  1.
       -2    1    3    3    0  502 -0.33042178826E+02 -0.72186416016E+02  0.31628588552E+03  0.32609726406E+03  0.25500000920E-02 0. -1.
</event>
<event>
 5   0  0.3013734E-03  0.5001474E+03  0.7818609E-02  0.1013740E+00
       -1   -1    0    0    0  501  0.00000000000E+00  0.00000000000E+00  0.42989343507E+02  0.42989343802E+02  0.50400001928E-02 0. -1.
        1   -1    0    0  501    0  0.00000000000E+00  0.00000000000E+00 -0.14547057918E+04  0.14547057918E+04  0.50400001928E-02 0.  1.
    10030    2    1    2    0    0  0.00000000000E+00  0.00000000000E+00 -0.14117164482E+04  0.14976951356E+04  0.50014736713E+03 0.  0.
        2    1    3    3  502    0  0.90053609945E+02  0.11657419655E+03 -0.10071829477E+03  0.17844710945E+03  0.25500000920E-02 0. -1.
       -2    1    3    3    0  502 -0.90053609945E+02 -0.11657419655E+03 -0.13109981535E+04  0.13192480261E+04  0.25500000920E-02 0.  1.
</event>
<event>
 5   0  0.3055293E-03  0.4999986E+03  0.7818609E-02  0.1013779E+00
       -1   -1    0    0    0  501  0.00000000000E+00  0.00000000000E+00  0.49730035284E+02  0.49730035540E+02  0.50400001928E-02 0. -1.
        1   -1    0    0  501    0  0.00000000000E+00  0.00000000000E+00 -0.12567787455E+04  0.12567787455E+04  0.50400001928E-02 0.  1.
    10030    2    1    2    0    0  0.00000000000E+00  0.00000000000E+00 -0.12070487102E+04  0.13065087811E+04  0.49999860613E+03 0.  0.
        3    1    3    3  502    0  0.72764787607E+02  0.10262496969E+03 -0.39007912558E+02  0.13171266516E+03  0.10100000352E+00 0. -1.
       -3    1    3    3    0  502 -0.72764787607E+02 -0.10262496969E+03 -0.11680407977E+04  0.11747961159E+04  0.10100000352E+00 0.  1.
</event>
<event>
 5   0  0.4978779E-03  0.4993314E+03  0.7818609E-02  0.1013954E+00
       -2   -1    0    0    0  501  0.00000000000E+00  0.00000000000E+00  0.73376931488E+02  0.73376931532E+02  0.25500000920E-02 0. -1.
        2   -1    0    0  501    0  0.00000000000E+00  0.00000000000E+00 -0.84948978515E+03  0.84948978516E+03  0.25500000920E-02 0.  1.
    10030    2    1    2    0    0  0.00000000000E+00  0.00000000000E+00 -0.77611285366E+03  0.92286671669E+03  0.49933136808E+03 0.  0.
        1    1    3    3  502    0  0.13932002611E+03  0.17963574092E+03 -0.19728904046E+03  0.30100171860E+03  0.50400001928E-02 0. -1.
       -1    1    3    3    0  502 -0.13932002611E+03 -0.17963574092E+03 -0.57882381320E+03  0.62186499809E+03  0.50400001928E-02 0.  1.
</event>
<event>
 5   0  0.2005125E-03  0.4998870E+03  0.7818609E-02  0.1013808E+00
        3   -1    0    0  501    0  0.00000000000E+00  0.00000000000E+00  0.65162711376E+03  0.65162712158E+03  0.10100000352E+00 0. -1.
       -3   -1    0    0    0  501  0.00000000000E+00  0.00000000000E+00 -0.95870364256E+02  0.95870417458E+02  0.10100000352E+00 0.  1.
    10030    2    1    2    0    0  0.00000000000E+00  0.00000000000E+00  0.55575674950E+03  0.74749753904E+03  0.49988699349E+03 0.  0.
        1    1    3    3  502    0  0.20210394380E+03  0.59879283196E+02  0.47872236054E+03  0.52307421190E+03  0.50400001928E-02 0. -1.
       -1    1    3    3    0  502 -0.20210394380E+03 -0.59879283196E+02  0.77034388965E+02  0.22442332714E+03  0.50400001928E-02 0.  1.
</event>
<event>
 5   0  0.5095783E-03  0.4995733E+03  0.7818609E-02  0.1013890E+00
       -2   -1    0    0    0  501  0.00000000000E+00  0.00000000000E+00  0.33471400924E+03  0.33471400925E+03  0.25500000920E-02 0.  1.
        2   -1    0    0  501    0  0.00000000000E+00  0.00000000000E+00 -0.18640797027E+03  0.18640797029E+03  0.25500000920E-02 0. -1.
    10030    2    1    2    0    0  0.00000000000E+00  0.00000000000E+00  0.14830603896E+03  0.52112197954E+03  0.49957325425E+03 0.  0.
        4    1    3    3  502    0  0.24410597347E+03 -0.49164976277E+02  0.53636792887E+02  0.25472227941E+03  0.12699999809E+01 0.  1.
       -4    1    3    3    0  502 -0.24410597347E+03  0.49164976277E+02  0.94669246076E+02  0.26639970013E+03  0.12699999809E+01 0. -1.
</event>
<event>
 5   0  0.2863538E-03  0.4999417E+03  0.7818609E-02  0.1013794E+00
       -1   -1    0    0    0  501  0.00000000000E+00  0.00000000000E+00  0.10549804814E+03  0.10549804826E+03  0.50400001928E-02 0.  1.
        1   -1    0    0  501    0  0.00000000000E+00  0.00000000000E+00 -0.59228992992E+03  0.59228992994E+03  0.50400001928E-02 0. -1.
    10030    2    1    2    0    0  0.00000000000E+00  0.00000000000E+00 -0.48679188178E+03  0.69778797820E+03  0.49994172296E+03 0.  0.
        1    1    3    3  502    0 -0.20972102204E+03  0.89542522926E+02 -0.10047979418E+03  0.24919261538E+03  0.50400001928E-02 0.  1.
       -1    1    3    3    0  502  0.20972102204E+03 -0.89542522926E+02 -0.38631208760E+03  0.44859536282E+03  0.50400001928E-02 0. -1.
</event>
<event>
 5   0  0.4978779E-03  0.4991364E+03  0.7818609E-02  0.1014005E+00
       -2   -1    0    0    0  501  0.00000000000E+00  0.00000000000E+00  0.60996733712E+02  0.60996733765E+02  0.25500000920E-02 0.  1.
        2   -1    0    0  501    0  0.00000000000E+00  0.00000000000E+00 -0.10211087088E+04  0.10211087088E+04  0.25500000920E-02 0. -1.
    10030    2    1    2    0    0  0.00000000000E+00  0.00000000000E+00 -0.96011197512E+03  0.10821054426E+04  0.49913643840E+03 0.  0.
        1    1    3    3  502    0 -0.15664390976E+03 -0.31195402422E+02 -0.89579399312E+03  0.90992161516E+03  0.50400001928E-02 0. -1.
       -1    1    3    3    0  502  0.15664390976E+03  0.31195402422E+02 -0.64317982000E+02  0.17218382744E+03  0.50400001928E-02 0.  1.
</event>
<event>
 5   0  0.2005125E-03  0.5001131E+03  0.7818609E-02  0.1013749E+00
        3   -1    0    0  501    0  0.00000000000E+00  0.00000000000E+00  0.14077041834E+03  0.14077045457E+03  0.10100000352E+00 0.  1.
       -3   -1    0    0    0  501  0.00000000000E+00  0.00000000000E+00 -0.44418608724E+03  0.44418609873E+03  0.10100000352E+00 0. -1.
    10030    2    1    2    0    0  0.00000000000E+00  0.00000000000E+00 -0.30341566891E+03  0.58495655329E+03  0.50011308831E+03 0.  0.
        3    1    3    3  502    0 -0.22105726184E+03 -0.69537196152E+02 -0.41819801021E+02  0.23547959703E+03  0.10100000352E+00 0. -1.
       -3    1    3    3    0  502  0.22105726184E+03  0.69537196152E+02 -0.26159586789E+03  0.34947695626E+03  0.10100000352E+00 0.  1.
</event>
<event>
 5   0  0.5095783E-03  0.5000735E+03  0.7818609E-02  0.1013760E+00
       -2   -1    0    0    0  501  0.00000000000E+00  0.00000000000E+00  0.30245677947E+03  0.30245677948E+03  0.25500000920E-02 0.  1.
        2   -1    0    0  501    0  0.00000000000E+00  0.00000000000E+00 -0.20670187429E+03  0.20670187431E+03  0.25500000920E-02 0. -1.
    10030    2    1    2    0    0  0.00000000000E+00  0.00000000000E+00  0.95754905181E+02  0.50915865379E+03  0.50007352746E+03 0.  0.
        4    1    3    3  502    0 -0.13145619397E+03 -0.13437633800E+03  0.21573323803E+03  0.28614711957E+03  0.12699999809E+01 0.  1.
       -4    1    3    3    0  502  0.13145619397E+03  0.13437633800E+03 -0.11997833285E+03  0.22301153423E+03  0.12699999809E+01 0. -1.
</event>
<event>
 5   0  0.4889251E-03  0.4997959E+03  0.7818609E-02  0.1013832E+00
       -2   -1    0    0    0  501  0.00000000000E+00  0.00000000000E+00  0.13721879512E+03  0.13721879514E+03  0.25500000920E-02 0.  1.
        2   -1    0    0  501    0  0.00000000000E+00  0.00000000000E+00 -0.45510511061E+03  0.45510511061E+03  0.25500000920E-02 0. -1.
    10030    2    1    2    0    0  0.00000000000E+00  0.00000000000E+00 -0.31788631549E+03  0.59232390575E+03  0.49979585808E+03 0.  0.
        5    1    3    3  502    0 -0.14633030782E+03 -0.16925438657E+03 -0.29073959785E+03  0.36689400392E+03  0.46999998093E+01 0. -1.
       -5    1    3    3    0  502  0.14633030782E+03  0.16925438657E+03 -0.27146717644E+02  0.22542990183E+03  0.46999998093E+01 0.  1.
</event>
<event>
 5   0  0.4978779E-03  0.5008792E+03  0.7818609E-02  0.1013550E+00
        2   -1    0    0  501    0  0.00000000000E+00  0.00000000000E+00  0.54173496078E+03  0.54173496079E+03  0.25500000920E-02 0. -1.
       -2   -1    0    0    0  501  0.00000000000E+00  0.00000000000E+00 -0.11577614473E+03  0.11577614476E+03  0.25500000920E-02 0.  1.
    10030    2    1    2    0    0  0.00000000000E+00  0.00000000000E+00  0.42595881605E+03  0.65751110554E+03  0.50087916800E+03 0.  0.
        1    1    3    3  502    0  0.14041695278E+02 -0.16648969636E+03 -0.31918279646E+02  0.17010221868E+03  0.50400001928E-02 0.  1.
       -1    1    3    3    0  502 -0.14041695278E+02  0.16648969636E+03  0.45787709570E+03  0.48740888686E+03  0.50400001928E-02 0. -1.
</event>
<event>
 5   0  0.4889251E-03  0.4998667E+03  0.7818609E-02  0.1013814E+00
        2   -1    0    0  501    0  0.00000000000E+00  0.00000000000E+00  0.80404656588E+03  0.80404656589E+03  0.25500000920E-02 0. -1.
       -2   -1    0    0    0  501  0.00000000000E+00  0.00000000000E+00 -0.77690360652E+02  0.77690360694E+02  0.25500000920E-02 0.  1.
    10030    2    1    2    0    0  0.00000000000E+00  0.00000000000E+00  0.72635620523E+03  0.88173692658E+03  0.49986665304E+03 0.  0.
        5    1    3    3  502    0  0.50287425474E+02  0.40388003403E+02 -0.62676780523E+02  0.90058230022E+02  0.46999998093E+01 0.  1.
       -5    1    3    3    0  502 -0.50287425474E+02 -0.40388003403E+02  0.78903298576E+03  0.79167869656E+03  0.46999998093E+01 0. -1.
</event>
<event>
 5   0  0.4978779E-03  0.5000018E+03  0.7818609E-02  0.1013778E+00
        2   -1    0    0  501    0  0.00000000000E+00  0.00000000000E+00  0.10564963731E+04  0.10564963732E+04  0.25500000920E-02 0. -1.
       -2   -1    0    0    0  501  0.00000000000E+00  0.00000000000E+00 -0.59158236243E+02  0.59158236298E+02  0.25500000920E-02 0.  1.
    10030    2    1    2    0    0  0.00000000000E+00  0.00000000000E+00  0.99733813691E+03  0.11156546095E+04  0.50000184826E+03 0.  0.
        1    1    3    3  502    0  0.62857078851E+02  0.10737873258E+03  0.98250268271E+03  0.99034979989E+03  0.50400001928E-02 0. -1.
       -1    1    3    3    0  502 -0.62857078851E+02 -0.10737873258E+03  0.14835454193E+02  0.12530480956E+03  0.50400001928E-02 0.  1.
</event>
<event>
 5   0  0.3211775E-03  0.5005799E+03  0.7818609E-02  0.1013628E+00
       -1   -1    0    0    0  501  0.00000000000E+00  0.00000000000E+00  0.62225373942E+02  0.62225374146E+02  0.50400001928E-02 0. -1.
        1   -1    0    0  501    0  0.00000000000E+00  0.00000000000E+00 -0.10067447358E+04  0.10067447358E+04  0.50400001928E-02 0.  1.
    10030    2    1    2    0    0  0.00000000000E+00  0.00000000000E+00 -0.94451936187E+03  0.10689701100E+04  0.50057993474E+03 0.  0.
        4    1    3    3  502    0 -0.12918659350E+03 -0.84612368291E+02 -0.51649143779E+02  0.16284248758E+03  0.12699999809E+01 0. -1.
       -4    1    3    3    0  502  0.12918659350E+03  0.84612368291E+02 -0.89287021809E+03  0.90612762240E+03  0.12699999809E+01 0.  1.
</event>
<event>
 5   0  0.3055293E-03  0.4997132E+03  0.7818609E-02  0.1013854E+00
       -1   -1    0    0    0  501  0.00000000000E+00  0.00000000000E+00  0.34144300933E+03  0.34144300937E+03  0.50400001928E-02 0. -1.
        1   -1    0    0  501    0  0.00000000000E+00  0.00000000000E+00 -0.18283670090E+03  0.18283670097E+03  0.50400001928E-02 0.  1.
    10030    2    1    2    0    0  0.00000000000E+00  0.00000000000E+00  0.15860630843E+03  0.52427971033E+03  0.49971317132E+03 0.  0.
        3    1    3    3  502    0 -0.16088555768E+03 -0.90314097988E+02 -0.97465746097E+02  0.20866331932E+03  0.10100000352E+00 0.  1.
       -3    1    3    3    0  502  0.16088555768E+03  0.90314097988E+02  0.25607205453E+03  0.31561639101E+03  0.10100000352E+00 0. -1.
</event>
<event>
 5   0  0.4978779E-03  0.5003488E+03  0.7818609E-02  0.1013688E+00
       -2   -1    0    0    0  501  0.00000000000E+00  0.00000000000E+00  0.13295031078E+03  0.13295031080E+03  0.25500000920E-02 0.  1.
        2   -1    0    0  501    0  0.00000000000E+00  0.00000000000E+00 -0.47075658328E+03  0.47075658329E+03  0.25500000920E-02 0. -1.
    10030    2    1    2    0    0  0.00000000000E+00  0.00000000000E+00 -0.33780627251E+03  0.60370689409E+03  0.50034881456E+03 0.  0.
        1    1    3    3  502    0  0.19403239786E+03  0.60252986080E+02 -0.34503058849E+03  0.40040616975E+03  0.50400001928E-02 0. -1.
       -1    1    3    3    0  502 -0.19403239786E+03 -0.60252986080E+02  0.72243159880E+01  0.20330072434E+03  0.50400001928E-02 0.  1.
</event>
<event>
 5   0  0.3013734E-03  0.5001421E+03  0.7818609E-02  0.1013742E+00
       -1   -1    0    0    0  501  0.00000000000E+00  0.00000000000E+00  0.11930185177E+03  0.11930185188E+03  0.50400001928E-02 0.  1.
        1   -1    0    0  501    0  0.00000000000E+00  0.00000000000E+00 -0.52417906693E+03  0.52417906695E+03  0.50400001928E-02 0. -1.
    10030    2    1    2    0    0  0.00000000000E+00  0.00000000000E+00 -0.40487721516E+03  0.64348091884E+03  0.50014211336E+03 0.  0.
        2    1    3    3  502    0  0.30680757935E+02 -0.24604181559E+03 -0.24428067393E+03  0.34806742391E+03  0.25500000920E-02 0.  1.
       -2    1    3    3    0  502 -0.30680757935E+02  0.24604181559E+03 -0.16059654123E+03  0.29541349493E+03  0.25500000920E-02 0. -1.
</event>
<event>
 5   0  0.4989875E-03  0.5000350E+03  0.7818609E-02  0.1013770E+00
       -2   -1    0    0    0  501  0.00000000000E+00  0.00000000000E+00  0.45046651967E+02  0.45046652040E+02  0.25500000920E-02 0. -1.
        2   -1    0    0  501    0  0.00000000000E+00  0.00000000000E+00 -0.13876446082E+04  0.13876446082E+04  0.25500000920E-02 0.  1.
    10030    2    1    2    0    0  0.00000000000E+00  0.00000000000E+00 -0.13425979562E+04  0.14326912602E+04  0.50003497386E+03 0.  0.
        2    1    3    3  502    0 -0.10301232376E+01  0.17238252945E+03 -0.11901418164E+04  0.12025615746E+04  0.25500000920E-02 0.  1.
       -2    1    3    3    0  502  0.10301232376E+01 -0.17238252945E+03 -0.15245613977E+03  0.23012968556E+03  0.25500000920E-02 0. -1.
</event>
<event>
 5   0  0.3211775E-03  0.5000511E+03  0.7818609E-02  0.1013766E+00
       -1   -1    0    0    0  501  0.00000000000E+00  0.00000000000E+00  0.94384157733E+02  0.94384157868E+02  0.50400001928E-02 0. -1.
        1   -1    0    0  501    0  0.00000000000E+00  0.00000000000E+00 -0.66232282787E+03  0.66232282789E+03  0.50400001928E-02 0.  1.
    10030    2    1    2    0    0  0.00000000000E+00  0.00000000000E+00 -0.56793867013E+03  0.75670698575E+03  0.50005112664E+03 0.  0.
        4    1    3    3  502    0  0.61441626976E+02 -0.10045399779E+03  0.49789552923E+02  0.12785418131E+03  0.12699999809E+01 0. -1.
       -4    1    3    3    0  502 -0.61441626976E+02  0.10045399779E+03 -0.61772822306E+03  0.62885280445E+03  0.12699999809E+01 0.  1.
</event>
<event>
 5   0  0.4889251E-03  0.4989092E+03  0.7818609E-02  0.1014064E+00
        2   -1    0    0  501    0  0.00000000000E+00  0.00000000000E+00  0.25002134540E+04  0.25002134540E+04  0.25500000920E-02 0. -1.
       -2   -1    0    0    0  501  0.00000000000E+00  0.00000000000E+00 -0.24888911539E+02  0.24888911670E+02  0.25500000920E-02 0.  1.
    10030    2    1    2    0    0  0.00000000000E+00  0.00000000000E+00  0.24753245425E+04  0.25251023657E+04  0.49890917672E+03 0.  0.
        5    1    3    3  502    0 -0.94824423287E+02  0.18303689552E+03  0.52707829651E+03  0.56597508516E+03  0.46999998093E+01 0.  1.
       -5    1    3    3    0  502  0.94824423287E+02 -0.18303689552E+03  0.19482462460E+04  0.19591272805E+04  0.46999998093E+01 0. -1.
</event>
<event>
 5   0  0.3211775E-03  0.5000199E+03  0.7818609E-02  0.1013774E+00
        1   -1    0    0  501    0  0.00000000000E+00  0.00000000000E+00  0.53364833207E+03  0.53364833209E+03  0.50400001928E-02 0.  1.
       -1   -1    0    0    0  501  0.00000000000E+00  0.00000000000E+00 -0.11712763261E+03  0.11712763272E+03  0.50400001928E-02 0. -1.
    10030    2    1    2    0    0  0.00000000000E+00  0.00000000000E+00  0.41652069946E+03  0.65077596482E+03  0.50001986291E+03 0.  0.
        4    1    3    3  502    0  0.94896991272E+02  0.85049789956E+02 -0.71681570110E+02  0.14621479445E+03  0.12699999809E+01 0. -1.
       -4    1    3    3    0  502 -0.94896991272E+02 -0.85049789956E+02  0.48820226957E+03  0.50456117036E+03  0.12699999809E+01 0.  1.
</event>
<event>
 5   0  0.4978779E-03  0.5000769E+03  0.7818609E-02  0.1013759E+00
        2   -1    0    0  501    0  0.00000000000E+00  0.00000000000E+00  0.23706356551E+04  0.23706356551E+04  0.25500000920E-02 0. -1.
       -2   -1    0    0    0  501  0.00000000000E+00  0.00000000000E+00 -0.26372345609E+02  0.26372345732E+02  0.25500000920E-02 0.  1.
    10030    2    1    2    0    0  0.00000000000E+00  0.00000000000E+00  0.23442633095E+04  0.23970080009E+04  0.50007688592E+03 0.  0.
        1    1    3    3  502    0 -0.16522204257E+03  0.71056908856E+02  0.20047259336E+04  0.20127775527E+04  0.50400001928E-02 0. -1.
       -1    1    3    3    0  502  0.16522204257E+03 -0.71056908856E+02  0.33953737590E+03  0.38423044818E+03  0.50400001928E-02 0.  1.
</event>
<event>
 5   0  0.3013734E-03  0.4989205E+03  0.7818609E-02  0.1014061E+00
        1   -1    0    0  501    0  0.00000000000E+00  0.00000000000E+00  0.15202550643E+04  0.15202550643E+04  0.50400001928E-02 0. -1.
       -1   -1    0    0    0  501  0.00000000000E+00  0.00000000000E+00 -0.40934197870E+02  0.40934198180E+02  0.50400001928E-02 0.  1.
    10030    2    1    2    0    0  0.00000000000E+00  0.00000000000E+00  0.14793208664E+04  0.15611892625E+04  0.49892052218E+03 0.  0.
        2    1    3    3  502    0  0.62747828820E+02  0.12143738028E+03  0.86682067186E+02  0.16185829645E+03  0.25500000920E-02 0.  1.
       -2    1    3    3    0  502 -0.62747828820E+02 -0.12143738028E+03  0.13926387992E+04  0.13993309660E+04  0.25500000920E-02 0. -1.
</event>
<event>
 5   0  0.2005125E-03  0.4995816E+03  0.7818609E-02  0.1013888E+00
       -4   -1    0    0    0  501  0.00000000000E+00  0.00000000000E+00  0.11425730381E+03  0.11426436179E+03  0.12699999809E+01 0. -1.
        4   -1    0    0  501    0  0.00000000000E+00  0.00000000000E+00 -0.54607120564E+03  0.54607268246E+03  0.12699999809E+01 0.  1.
    10030    2    1    2    0    0  0.00000000000E+00  0.00000000000E+00 -0.43181390182E+03  0.66033704424E+03  0.49958159113E+03 0.  0.
        5    1    3    3  502    0 -0.21169276368E+03 -0.98695900511E+02 -0.33278285145E+03  0.40659712640E+03  0.46999998093E+01 0.  1.
       -5    1    3    3    0  502  0.21169276368E+03  0.98695900511E+02 -0.99031050367E+02  0.25373991785E+03  0.46999998093E+01 0. -1.
</event>
<event>
 5   0  0.3055293E-03  0.5002380E+03  0.7818609E-02  0.1013717E+00
        1   -1    0    0  501    0  0.00000000000E+00  0.00000000000E+00  0.11912613221E+04  0.11912613221E+04  0.50400001928E-02 0. -1.
       -1   -1    0    0    0  501  0.00000000000E+00  0.00000000000E+00 -0.52515348294E+02  0.52515348536E+02  0.50400001928E-02 0.  1.
    10030    2    1    2    0    0  0.00000000000E+00  0.00000000000E+00  0.11387459738E+04  0.12437766706E+04  0.50023795695E+03 0.  0.
        3    1    3    3  502    0 -0.17921022129E+03 -0.14923092110E+02  0.10016045957E+04  0.10176201543E+04  0.10100000352E+00 0. -1.
       -3    1    3    3    0  502  0.17921022129E+03  0.14923092110E+02  0.13714137807E+03  0.22615651632E+03  0.10100000352E+00 0.  1.
</event>
<event>
 5   0  0.3057783E-03  0.5001046E+03  0.7818609E-02  0.1013752E+00
        1   -1    0    0  501    0  0.00000000000E+00  0.00000000000E+00  0.21568107668E+03  0.21568107674E+03  0.50400001928E-02 0.  1.
       -1   -1    0    0    0  501  0.00000000000E+00  0.00000000000E+00 -0.28990094800E+03  0.28990094804E+03  0.50400001928E-02 0. -1.
    10030    2    1    2    0    0  0.00000000000E+00  0.00000000000E+00 -0.74219871313E+02  0.50558202479E+03  0.50010458355E+03 0.  0.
        5    1    3    3  502    0 -0.13383456843E+03  0.13222519887E+03 -0.20356095032E+03  0.27722616294E+03  0.46999998093E+01 0. -1.
       -5    1    3    3    0  502  0.13383456843E+03 -0.13222519887E+03  0.12934107901E+03  0.22835586185E+03  0.46999998093E+01 0.  1.
</event>
<event>
 5   0  0.3211775E-03  0.5001821E+03  0.7818609E-02  0.1013731E+00
        1   -1    0    0  501    0  0.00000000000E+00  0.00000000000E+00  0.74602060504E+03  0.74602060506E+03  0.50400001928E-02 0.  1.
       -1   -1    0    0    0  501  0.00000000000E+00  0.00000000000E+00 -0.83838877458E+02  0.83838877609E+02  0.50400001928E-02 0. -1.
    10030    2    1    2    0    0  0.00000000000E+00  0.00000000000E+00  0.66218172759E+03  0.82985948267E+03  0.50018208747E+03 0.  0.
        4    1    3    3  502    0  0.14227404296E+03 -0.18417047945E+03  0.17918218201E+03  0.29371505928E+03  0.12699999809E+01 0. -1.
       -4    1    3    3    0  502 -0.14227404296E+03  0.18417047945E+03  0.48299954558E+03  0.53614442339E+03  0.12699999809E+01 0.  1.
</event>
<event>
 5   0  0.5095783E-03  0.5002017E+03  0.7818609E-02  0.1013726E+00
        2   -1    0    0  501    0  0.00000000000E+00  0.00000000000E+00  0.81253782014E+03  0.81253782015E+03  0.25500000920E-02 0.  1.
       -2   -1    0    0    0  501  0.00000000000E+00  0.00000000000E+00 -0.76981565486E+02  0.76981565528E+02  0.25500000920E-02 0. -1.
    10030    2    1    2    0    0  0.00000000000E+00  0.00000000000E+00  0.73555625466E+03  0.88951938568E+03  0.50020169305E+03 0.  0.
        4    1    3    3  502    0  0.12682236727E+02  0.13594321592E+03  0.74040934557E+03  0.75289375677E+03  0.12699999809E+01 0.  1.
       -4    1    3    3    0  502 -0.12682236727E+02 -0.13594321592E+03 -0.48530909104E+01  0.13662562890E+03  0.12699999809E+01 0. -1.
</event>
<event>
 5   0  0.4978779E-03  0.5000039E+03  0.7818609E-02  0.1013778E+00
       -2   -1    0    0    0  501  0.00000000000E+00  0.00000000000E+00  0.74675153679E+02  0.74675153723E+02  0.25500000920E-02 0.  1.
        2   -1    0    0  501    0  0.00000000000E+00  0.00000000000E+00 -0.83697153840E+03  0.83697153840E+03  0.25500000920E-02 0. -1.
    10030    2    1    2    0    0  0.00000000000E+00  0.00000000000E+00 -0.76229638472E+03  0.91164669212E+03  0.50000391309E+03 0.  0.
        1    1    3    3  502    0  0.34739429974E+02 -0.22383743640E+03 -0.57402796262E+03  0.61710463280E+03  0.50400001928E-02 0.  1.
       -1    1    3    3    0  502 -0.34739429974E+02  0.22383743640E+03 -0.18826842210E+03  0.29454205933E+03  0.50400001928E-02 0. -1.
</event>
<event>
 5   0  0.4889251E-03  0.5002665E+03  0.7818609E-02  0.1013709E+00
        2   -1    0    0  501    0  0.00000000000E+00  0.00000000000E+00  0.50785786981E+03  0.50785786982E+03  0.25500000920E-02 0.  1.
       -2   -1    0    0    0  501  0.00000000000E+00  0.00000000000E+00 -0.12319716726E+03  0.12319716728E+03  0.25500000920E-02 0. -1.
    10030    2    1    2    0    0  0.00000000000E+00  0.00000000000E+00  0.38466070256E+03  0.63105503710E+03  0.50026653272E+03 0.  0.
        5    1    3    3  502    0 -0.12141627270E+03  0.15951480786E+03  0.37140977760E+01  0.20055615105E+03  0.46999998093E+01 0. -1.
       -5    1    3    3    0  502  0.12141627270E+03 -0.15951480786E+03  0.38094660478E+03  0.43049888605E+03  0.46999998093E+01 0.  1.
</event>
<event>
 5   0  0.4989875E-03  0.4996924E+03  0.7818609E-02  0.1013859E+00
       -2   -1    0    0    0  501  0.00000000000E+00  0.00000000000E+00  0.24626972482E+03  0.24626972484E+03  0.25500000920E-02 0. -1.
        2   -1    0    0  501    0  0.00000000000E+00  0.00000000000E+00 -0.25347457538E+03  0.25347457539E+03  0.25500000920E-02 0.  1.
    10030    2    1    2    0    0  0.00000000000E+00  0.00000000000E+00 -0.72048505514E+01  0.49974430023E+03  0.49969236110E+03 0.  0.
        2    1    3    3  502    0 -0.14103488531E+03  0.49590538654E+02  0.19660093265E+03  0.24698580349E+03  0.25500000920E-02 0. -1.
       -2    1    3    3    0  502  0.14103488531E+03 -0.49590538654E+02 -0.20380578320E+03  0.25275849674E+03  0.25500000920E-02 0.  1.
</event>
<event>
 5   0  0.2005125E-03  0.5001129E+03  0.7818609E-02  0.1013749E+00
        4   -1    0    0  501    0  0.00000000000E+00  0.00000000000E+00  0.16426956291E+03  0.16427447214E+03  0.12699999809E+01 0.  1.
       -4   -1    0    0    0  501  0.00000000000E+00  0.00000000000E+00 -0.38063233912E+03  0.38063445783E+03  0.12699999809E+01 0. -1.
    10030    2    1    2    0    0  0.00000000000E+00  0.00000000000E+00 -0.21636277622E+03  0.54490892997E+03  0.50011287829E+03 0.  0.
        5    1    3    3  502    0  0.18011292245E+03  0.11732397471E+03  0.30928196778E+02  0.21721929755E+03  0.46999998093E+01 0.  1.
       -5    1    3    3    0  502 -0.18011292245E+03 -0.11732397471E+03 -0.24729097299E+03  0.32768963242E+03  0.46999998093E+01 0. -1.
</event>
<event>
 5   0  0.2863538E-03  0.5004317E+03  0.7818609E-02  0.1013666E+00
        1   -1    0    0  501    0  0.00000000000E+00  0.00000000000E+00  0.86352246735E+03  0.86352246736E+03  0.50400001928E-02 0. -1.
       -1   -1    0    0    0  501  0.00000000000E+00  0.00000000000E+00 -0.72502999473E+02  0.72502999648E+02  0.50400001928E-02 0.  1.
    10030    2    1    2    0    0  0.00000000000E+00  0.00000000000E+00  0.79101946787E+03  0.93602546701E+03  0.50043168998E+03 0.  0.
        1    1    3    3  502    0  0.23993402238E+02 -0.22088492551E+03  0.61074918373E+03  0.64990799281E+03  0.50400001928E-02 0. -1.
       -1    1    3    3    0  502 -0.23993402238E+02  0.22088492551E+03  0.18027028414E+03  0.28611747419E+03  0.50400001928E-02 0.  1.
</event>
<event>
 5   0  0.4889251E-03  0.4999968E+03  0.7818609E-02  0.1013780E+00
       -2   -1    0    0    0  501  0.00000000000E+00  0.00000000000E+00  0.52294306345E+03  0.52294306345E+03  0.25500000920E-02 0. -1.
        2   -1    0    0  501    0  0.00000000000E+00  0.00000000000E+00 -0.11951435413E+03  0.11951435415E+03  0.25500000920E-02 0.  1.
    10030    2    1    2    0    0  0.00000000000E+00  0.00000000000E+00  0.40342870932E+03  0.64245741761E+03  0.49999680992E+03 0.  0.
        5    1    3    3  502    0  0.69726307359E+02  0.23894307485E+03  0.23105906924E+03  0.33965561151E+03  0.46999998093E+01 0. -1.
       -5    1    3    3    0  502 -0.69726307359E+02 -0.23894307485E+03  0.17236964008E+03  0.30280180610E+03  0.46999998093E+01 0.  1.
</event>
<event>
 5   0  0.4978779E-03  0.4998512E+03  0.7818609E-02  0.1013818E+00
       -2   -1    0    0    0  501  0.00000000000E+00  0.00000000000E+00  0.50717195687E+02  0.50717195751E+02  0.25500000920E-02 0.  1.
        2   -1    0    0  501    0  0.00000000000E+00  0.00000000000E+00 -0.12315904825E+04  0.12315904825E+04  0.25500000920E-02 0. -1.
    10030    2    1    2    0    0  0.00000000000E+00  0.00000000000E+00 -0.11808732868E+04  0.12823076783E+04  0.49985124007E+03 0.  0.
        1    1    3    3  502    0  0.13151740975E+02  0.68127406235E+02  0.25513398057E+02  0.73927297237E+02  0.50400001928E-02 0.  1.
       -1    1    3    3    0  502 -0.13151740975E+02 -0.68127406235E+02 -0.12063866849E+04  0.12083803810E+04  0.50400001928E-02 0. -1.
</event>
<event>
 5   0  0.3057783E-03  0.4996253E+03  0.7818609E-02  0.1013877E+00
        1   -1    0    0  501    0  0.00000000000E+00  0.00000000000E+00  0.34151623202E+03  0.34151623206E+03  0.50400001928E-02 0. -1.
       -1   -1    0    0    0  501  0.00000000000E+00  0.00000000000E+00 -0.18273320482E+03  0.18273320489E+03  0.50400001928E-02 0.  1.
    10030    2    1    2    0    0  0.00000000000E+00  0.00000000000E+00  0.15878302720E+03  0.52424943695E+03  0.49962528201E+03 0.  0.
        5    1    3    3  502    0  0.33680506971E+02 -0.21582640844E+03 -0.47692700391E+02  0.22363384985E+03  0.46999998093E+01 0.  1.
       -5    1    3    3    0  502 -0.33680506971E+02  0.21582640844E+03  0.20647572759E+03  0.30061558711E+03  0.46999998093E+01 0. -1.
</event>
<event>
 5   0  0.2863538E-03  0.4997411E+03  0.7818609E-02  0.1013847E+00
        1   -1    0    0  501    0  0.00000000000E+00  0.00000000000E+00  0.40480425644E+02  0.40480425958E+02  0.50400001928E-02 0. -1.
       -1   -1    0    0    0  501  0.00000000000E+00  0.00000000000E+00 -0.15423576559E+04  0.15423576559E+04  0.50400001928E-02 0.  1.
    10030    2    1    2    0    0  0.00000000000E+00  0.00000000000E+00 -0.15018772302E+04  0.15828380819E+04  0.49974111162E+03 0.  0.
        1    1    3    3  502    0 -0.10338691019E+03 -0.47609429963E+02 -0.46399178374E+02  0.12291621048E+03  0.50400001928E-02 0. -1.
       -1    1    3    3    0  502  0.10338691019E+03  0.47609429963E+02 -0.14554780519E+04  0.14599218714E+04  0.50400001928E-02 0.  1.
</event>
<event>
 5   0  0.4889251E-03  0.5000613E+03  0.7818609E-02  0.1013763E+00
        2   -1    0    0  501    0  0.00000000000E+00  0.00000000000E+00  0.15127182804E+04  0.15127182804E+04  0.25500000920E-02 0.  1.
       -2   -1    0    0    0  501  0.00000000000E+00  0.00000000000E+00 -0.41326479253E+02  0.41326479332E+02  0.25500000920E-02 0. -1.
    10030    2    1    2    0    0  0.00000000000E+00  0.00000000000E+00  0.14713918011E+04  0.15540447597E+04  0.50006127901E+03 0.  0.
        5    1    3    3  502    0 -0.28591430324E+02  0.24043921736E+03  0.54249878541E+03  0.59410058854E+03  0.46999998093E+01 0. -1.
       -5    1    3    3    0  502  0.28591430324E+02 -0.24043921736E+03  0.92889301571E+03  0.95994417117E+03  0.46999998093E+01 0.  1.
</event>
<event>
 5   0  0.3055293E-03  0.5000279E+03  0.7818609E-02  0.1013772E+00
       -1   -1    0    0    0  501  0.00000000000E+00  0.00000000000E+00  0.19877937038E+03  0.19877937044E+03  0.50400001928E-02 0. -1.
        1   -1    0    0  501    0  0.00000000000E+00  0.00000000000E+00 -0.31445402178E+03  0.31445402182E+03  0.50400001928E-02 0.  1.
    10030    2    1    2    0    0  0.00000000000E+00  0.00000000000E+00 -0.11567465140E+03  0.51323339226E+03  0.50002788918E+03 0.  0.
        3    1    3    3  502    0 -0.23620356236E+03  0.79911260172E+02 -0.76455554740E+02  0.26081294912E+03  0.10100000352E+00 0. -1.
       -3    1    3    3    0  502  0.23620356236E+03 -0.79911260172E+02 -0.39219096659E+02  0.25242044315E+03  0.10100000352E+00 0.  1.
</event>
<event>
 5   0  0.4889251E-03  0.4998461E+03  0.7818609E-02  0.1013819E+00
       -2   -1    0    0    0  501  0.00000000000E+00  0.00000000000E+00  0.86477017876E+02  0.86477017914E+02  0.25500000920E-02 0.  1.
        2   -1    0    0  501    0  0.00000000000E+00  0.00000000000E+00 -0.72229046788E+03  0.72229046789E+03  0.25500000920E-02 0. -1.
    10030    2    1    2    0    0  0.00000000000E+00  0.00000000000E+00 -0.63581345001E+03  0.80876748580E+03  0.49984607919E+03 0.  0.
        5    1    3    3  502    0  0.54487760544E+02  0.83012513506E+02  0.53111617639E+02  0.11270726407E+03  0.46999998093E+01 0.  1.
       -5    1    3    3    0  502 -0.54487760544E+02 -0.83012513506E+02 -0.68892506765E+03  0.69606022173E+03  0.46999998093E+01 0. -1.
</event>
<event>
 5   0  0.3013734E-03  0.4995190E+03  0.7818609E-02  0.1013905E+00
       -1   -1    0    0    0  501  0.00000000000E+00  0.00000000000E+00  0.63666599081E+02  0.63666599280E+02  0.50400001928E-02 0. -1.
        1   -1    0    0  501    0  0.00000000000E+00  0.00000000000E+00 -0.97978847636E+03  0.97978847637E+03  0.50400001928E-02 0.  1.
    10030    2    1    2    0    0  0.00000000000E+00  0.00000000000E+00 -0.91612187728E+03  0.10434550757E+04  0.49951896949E+03 0.  0.
        2    1    3    3  502    0 -0.12481398275E+03 -0.10955904489E+03 -0.68388717890E+02  0.17960715840E+03  0.25500000920E-02 0. -1.
       -2    1    3    3    0  502  0.12481398275E+03  0.10955904489E+03 -0.84773315939E+03  0.86384791725E+03  0.25500000920E-02 0.  1.
</event>
<event>
 5   0  0.4978779E-03  0.4998177E+03  0.7818609E-02  0.1013827E+00
        2   -1    0    0  501    0  0.00000000000E+00  0.00000000000E+00  0.32497529991E+03  0.32497529992E+03  0.25500000920E-02 0. -1.
       -2   -1    0    0    0  501  0.00000000000E+00  0.00000000000E+00 -0.19218207488E+03  0.19218207490E+03  0.25500000920E-02 0.  1.
    10030    2    1    2    0    0  0.00000000000E+00  0.00000000000E+00  0.13279322502E+03  0.51715737482E+03  0.49981767647E+03 0.  0.
        1    1    3    3  502    0  0.11652325788E+03  0.15537580657E+03  0.22912678739E+03  0.30036377215E+03  0.50400001928E-02 0. -1.
       -1    1    3    3    0  502 -0.11652325788E+03 -0.15537580657E+03 -0.96333562370E+02  0.21679360267E+03  0.50400001928E-02 0.  1.
</event>
<event>
 5   0  0.3013734E-03  0.5001562E+03  0.7818609E-02  0.1013738E+00
        1   -1    0    0  501    0  0.00000000000E+00  0.00000000000E+00  0.69428421624E+03  0.69428421626E+03  0.50400001928E-02 0. -1.
       -1   -1    0    0    0  501  0.00000000000E+00  0.00000000000E+00 -0.90077009848E+02  0.90077009989E+02  0.50400001928E-02 0.  1.
    10030    2    1    2    0    0  0.00000000000E+00  0.00000000000E+00  0.60420720639E+03  0.78436122625E+03  0.50015616060E+03 0.  0.
        2    1    3    3  502    0  0.15454741739E+03 -0.58496470396E+02  0.59646511351E+03  0.61893244616E+03  0.25500000920E-02 0. -1.
       -2    1    3    3    0  502 -0.15454741739E+03  0.58496470396E+02  0.77420928812E+01  0.16542878008E+03  0.25500000920E-02 0.  1.
</event>
<event>
 5   0  0.2005125E-03  0.5000821E+03  0.7818609E-02  0.1013757E+00
        3   -1    0    0  501    0  0.00000000000E+00  0.00000000000E+00  0.25033218732E+04  0.25033218752E+04  0.10100000352E+00 0. -1.
       -3   -1    0    0    0  501  0.00000000000E+00  0.00000000000E+00 -0.24974919600E+02  0.24975123824E+02  0.10100000352E+00 0.  1.
    10030    2    1    2    0    0  0.00000000000E+00  0.00000000000E+00  0.24783469536E+04  0.25282969990E+04  0.50008208630E+03 0.  0.
        3    1    3    3  502    0 -0.10293520198E+03 -0.16634864921E+03  0.45182066459E+03  0.49235094399E+03  0.10100000352E+00 0.  1.
       -3    1    3    3    0  502  0.10293520198E+03  0.16634864921E+03  0.20265262890E+04  0.20359460550E+04  0.10100000352E+00 0. -1.
</event>
<event>
 5   0  0.5095783E-03  0.5001475E+03  0.7818609E-02  0.1013740E+00
        2   -1    0    0  501    0  0.00000000000E+00  0.00000000000E+00  0.37651472158E+03  0.37651472159E+03  0.25500000920E-02 0. -1.
       -2   -1    0    0    0  501  0.00000000000E+00  0.00000000000E+00 -0.16609411250E+03  0.16609411252E+03  0.25500000920E-02 0.  1.
    10030    2    1    2    0    0  0.00000000000E+00  0.00000000000E+00  0.21042060908E+03  0.54260883411E+03  0.50014749238E+03 0.  0.
        4    1    3    3  502    0  0.20098624866E+03  0.14357817446E+03  0.62842290219E+02  0.25487434291E+03  0.12699999809E+01 0. -1.
       -4    1    3    3    0  502 -0.20098624866E+03 -0.14357817446E+03  0.14757831886E+03  0.28773449121E+03  0.12699999809E+01 0.  1.
</event>
<event>
 5   0  0.3013734E-03  0.4996971E+03  0.7818609E-02  0.1013858E+00
       -1   -1    0    0    0  501  0.00000000000E+00  0.00000000000E+00  0.82286363807E+03  0.82286363808E+03  0.50400001928E-02 0. -1.
        1   -1    0    0  501    0  0.00000000000E+00  0.00000000000E+00 -0.75862255470E+02  0.75862255638E+02  0.50400001928E-02 0.  1.
    10030    2    1    2    0    0  0.00000000000E+00  0.00000000000E+00  0.74700138260E+03  0.89872589372E+03  0.49969707468E+03 0.  0.
        2    1    3    3  502    0 -0.51088416672E+02  0.18187584115E+03  0.79421601502E+02  0.20493081443E+03  0.25500000920E-02 0.  1.
       -2    1    3    3    0  502  0.51088416672E+02 -0.18187584115E+03  0.66757978109E+03  0.69379507929E+03  0.25500000920E-02 0. -1.
</event>
<event>
 5   0  0.2005125E-03  0.4999982E+03  0.7818609E-02  0.1013779E+00
       -4   -1    0    0    0  501  0.00000000000E+00  0.00000000000E+00  0.35036882410E+03  0.35037112581E+03  0.12699999809E+01 0. -1.
        4   -1    0    0  501    0  0.00000000000E+00  0.00000000000E+00 -0.17837700877E+03  0.17838152976E+03  0.12699999809E+01 0.  1.
    10030    2    1    2    0    0  0.00000000000E+00  0.00000000000E+00  0.17199181533E+03  0.52875265557E+03  0.49999818623E+03 0.  0.
        1    1    3    3  502    0  0.70648063242E+02  0.21432913770E+03  0.19975272466E+03  0.30137896268E+03  0.50400001928E-02 0. -1.
       -1    1    3    3    0  502 -0.70648063242E+02 -0.21432913770E+03 -0.27760909332E+02  0.22737369290E+03  0.50400001928E-02 0.  1.
</event>
<event>
 5   0  0.3055293E-03  0.5002491E+03  0.7818609E-02  0.1013714E+00
        1   -1    0    0  501    0  0.00000000000E+00  0.00000000000E+00  0.87136611807E+03  0.87136611809E+03  0.50400001928E-02 0. -1.
       -1   -1    0    0    0  501  0.00000000000E+00  0.00000000000E+00 -0.71797949204E+02  0.71797949381E+02  0.50400001928E-02 0.  1.
    10030    2    1    2    0    0  0.00000000000E+00  0.00000000000E+00  0.79956816887E+03  0.94316406747E+03  0.50024913943E+03 0.  0.
        3    1    3    3  502    0  0.12759410413E+03  0.21441831784E+03  0.43280906292E+03  0.49957898833E+03  0.10100000352E+00 0. -1.
       -3    1    3    3    0  502 -0.12759410413E+03 -0.21441831784E+03  0.36675910595E+03  0.44358507914E+03  0.10100000352E+00 0.  1.
</event>
<event>
 5   0  0.3013734E-03  0.5000181E+03  0.7818609E-02  0.1013774E+00
       -1   -1    0    0    0  501  0.00000000000E+00  0.00000000000E+00  0.53262146739E+03  0.53262146741E+03  0.50400001928E-02 0. -1.
        1   -1    0    0  501    0  0.00000000000E+00  0.00000000000E+00 -0.11735264361E+03  0.11735264372E+03  0.50400001928E-02 0.  1.
    10030    2    1    2    0    0  0.00000000000E+00  0.00000000000E+00  0.41526882378E+03  0.64997411113E+03  0.50001814881E+03 0.  0.
        2    1    3    3  502    0 -0.17322006868E+02 -0.22959373823E+03  0.80994421215E+02  0.24407669457E+03  0.25500000920E-02 0.  1.
       -2    1    3    3    0  502  0.17322006868E+02  0.22959373823E+03  0.33427440257E+03  0.40589741656E+03  0.25500000920E-02 0. -1.
</event>
<event>
 5   0  0.2863538E-03  0.5002065E+03  0.7818609E-02  0.1013725E+00
       -1   -1    0    0    0  501  0.00000000000E+00  0.00000000000E+00  0.17710596847E+03  0.17710596855E+03  0.50400001928E-02 0.  1.
        1   -1    0    0  501    0  0.00000000000E+00  0.00000000000E+00 -0.35318766276E+03  0.35318766280E+03  0.50400001928E-02 0. -1.
    10030    2    1    2    0    0  0.00000000000E+00  0.00000000000E+00 -0.17608169429E+03  0.53029363134E+03  0.50020652972E+03 0.  0.
        1    1    3    3  502    0  0.14137688774E+03 -0.99681906345E+02 -0.27953720837E+03  0.32873234969E+03  0.50400001928E-02 0. -1.
       -1    1    3    3    0  502 -0.14137688774E+03  0.99681906345E+02  0.10345551409E+03  0.20156128165E+03  0.50400001928E-02 0.  1.
</event>
<event>
 5   0  0.3055293E-03  0.4993941E+03  0.7818609E-02  0.1013937E+00
       -1   -1    0    0    0  501  0.00000000000E+00  0.00000000000E+00  0.10540754233E+03  0.10540754245E+03  0.50400001928E-02 0. -1.
        1   -1    0    0  501    0  0.00000000000E+00  0.00000000000E+00 -0.59150062233E+03  0.59150062235E+03  0.50400001928E-02 0.  1.
    10030    2    1    2    0    0  0.00000000000E+00  0.00000000000E+00 -0.48609308000E+03  0.69690816480E+03  0.49939414067E+03 0.  0.
        3    1    3    3  502    0 -0.14279901765E+03 -0.80733216162E+02  0.19661942724E+02  0.16521505327E+03  0.10100000352E+00 0. -1.
       -3    1    3    3    0  502  0.14279901765E+03  0.80733216162E+02 -0.50575502272E+03  0.53169311153E+03  0.10100000352E+00 0.  1.
</event>
<event>
 5   0  0.3057783E-03  0.5001506E+03  0.7818609E-02  0.1013740E+00
       -1   -1    0    0    0  501  0.00000000000E+00  0.00000000000E+00  0.15043122356E+03  0.15043122364E+03  0.50400001928E-02 0. -1.
        1   -1    0    0  501    0  0.00000000000E+00  0.00000000000E+00 -0.41572249916E+03  0.41572249919E+03  0.50400001928E-02 0.  1.
    10030    2    1    2    0    0  0.00000000000E+00  0.00000000000E+00 -0.26529127560E+03  0.56615372284E+03  0.50015055430E+03 0.  0.
        5    1    3    3  502    0 -0.19337859799E+03 -0.53068442500E+02 -0.30169950612E+03  0.36229300813E+03  0.46999998093E+01 0.  1.
       -5    1    3    3    0  502  0.19337859799E+03  0.53068442500E+02  0.36408230521E+02  0.20386071470E+03  0.46999998093E+01 0. -1.
</event>
<event>
 5   0  0.3057783E-03  0.5000418E+03  0.7818609E-02  0.1013768E+00
        1   -1    0    0  501    0  0.00000000000E+00  0.00000000000E+00  0.13487498698E+04  0.13487498698E+04  0.50400001928E-02 0.  1.
       -1   -1    0    0    0  501  0.00000000000E+00  0.00000000000E+00 -0.46346951092E+02  0.46346951366E+02  0.50400001928E-02 0. -1.
    10030    2    1    2    0    0  0.00000000000E+00  0.00000000000E+00  0.13024029187E+04  0.13950968212E+04  0.50004177605E+03 0.  0.
        5    1    3    3  502    0  0.22727123972E+02 -0.24866639713E+03  0.68383985119E+03  0.72801822182E+03  0.46999998093E+01 0. -1.
       -5    1    3    3    0  502 -0.22727123972E+02  0.24866639713E+03  0.61856306754E+03  0.66707859938E+03  0.46999998093E+01 0.  1.
</event>
<event>
 5   0  0.5095783E-03  0.4999349E+03  0.7818609E-02  0.1013796E+00
        2   -1    0    0  501    0  0.00000000000E+00  0.00000000000E+00  0.45940955647E+03  0.45940955647E+03  0.25500000920E-02 0.  1.
       -2   -1    0    0    0  501  0.00000000000E+00  0.00000000000E+00 -0.13600876828E+03  0.13600876830E+03  0.25500000920E-02 0. -1.
    10030    2    1    2    0    0  0.00000000000E+00  0.00000000000E+00  0.32340078819E+03  0.59541832477E+03  0.49993490744E+03 0.  0.
        4    1    3    3  502    0  0.16218564317E+03 -0.77129177451E+02 -0.45371322604E+02  0.18523839418E+03  0.12699999809E+01 0. -1.
       -4    1    3    3    0  502 -0.16218564317E+03  0.77129177451E+02  0.36877211079E+03  0.41017993059E+03  0.12699999809E+01 0.  1.
</event>
<event>
 5   0  0.3211775E-03  0.4999724E+03  0.7818609E-02  0.1013786E+00
        1   -1    0    0  501    0  0.00000000000E+00  0.00000000000E+00  0.52259063195E+03  0.52259063197E+03  0.50400001928E-02 0.  1.
       -1   -1    0    0    0  501  0.00000000000E+00  0.00000000000E+00 -0.11958327231E+03  0.11958327242E+03  0.50400001928E-02 0. -1.
    10030    2    1    2    0    0  0.00000000000E+00  0.00000000000E+00  0.40300735963E+03  0.64217390439E+03  0.49997239080E+03 0.  0.
        4    1    3    3  502    0  0.14302675040E+03  0.96881625448E+02  0.43358497432E+03  0.46673358947E+03  0.12699999809E+01 0.  1.
       -4    1    3    3    0  502 -0.14302675040E+03 -0.96881625448E+02 -0.30577614692E+02  0.17544031492E+03  0.12699999809E+01 0. -1.
</event>
<event>
 5   0  0.5118882E-03  0.4998592E+03  0.7818609E-02  0.1013816E+00
       -2   -1    0    0    0  501  0.00000000000E+00  0.00000000000E+00  0.53800928042E+02  0.53800928103E+02  0.25500000920E-02 0. -1.
        2   -1    0    0  501    0  0.00000000000E+00  0.00000000000E+00 -0.11610359301E+04  0.11610359301E+04  0.25500000920E-02 0.  1.
    10030    2    1    2    0    0  0.00000000000E+00  0.00000000000E+00 -0.11072350021E+04  0.12148368582E+04  0.49985922246E+03 0.  0.
        3    1    3    3  502    0 -0.95227178880E+02 -0.73337282841E+02 -0.10861833505E+04  0.10928132749E+04  0.10100000352E+00 0.  1.
       -3    1    3    3    0  502  0.95227178880E+02  0.73337282841E+02 -0.21051651552E+02  0.12202358332E+03  0.10100000352E+00 0. -1.
</event>
<event>
 5   0  0.2005125E-03  0.4998010E+03  0.7818609E-02  0.1013831E+00
       -3   -1    0    0    0  501  0.00000000000E+00  0.00000000000E+00  0.33172168303E+03  0.33172169841E+03  0.10100000352E+00 0.  1.
        3   -1    0    0  501    0  0.00000000000E+00  0.00000000000E+00 -0.18826096781E+03  0.18826099490E+03  0.10100000352E+00 0. -1.
    10030    2    1    2    0    0  0.00000000000E+00  0.00000000000E+00  0.14346071522E+03  0.51998269331E+03  0.49980098492E+03 0.  0.
        3    1    3    3  502    0 -0.52660007022E+02  0.24373385413E+03  0.54604246616E+02  0.25526633530E+03  0.10100000352E+00 0.  1.
       -3    1    3    3    0  502  0.52660007022E+02 -0.24373385413E+03  0.88856468608E+02  0.26471635802E+03  0.10100000352E+00 0. -1.
</event>
<event>
 5   0  0.4978779E-03  0.5000074E+03  0.7818609E-02  0.1013777E+00
        2   -1    0    0  501    0  0.00000000000E+00  0.00000000000E+00  0.16413178146E+03  0.16413178148E+03  0.25500000920E-02 0. -1.
       -2   -1    0    0    0  501  0.00000000000E+00  0.00000000000E+00 -0.38080283462E+03  0.38080283463E+03  0.25500000920E-02 0.  1.
    10030    2    1    2    0    0  0.00000000000E+00  0.00000000000E+00 -0.21667105316E+03  0.54493461611E+03  0.50000739051E+03 0.  0.
        1    1    3    3  502    0  0.21436698619E+03  0.10565077917E+03 -0.18832328954E+03  0.30427118384E+03  0.50400001928E-02 0.  1.
       -1    1    3    3    0  502 -0.21436698619E+03 -0.10565077917E+03 -0.28347763611E+02  0.24066343227E+03  0.50400001928E-02 0. -1.
</event>
<event>
 5   0  0.3013734E-03  0.5001561E+03  0.7818609E-02  0.1013738E+00
        1   -1    0    0  501    0  0.00000000000E+00  0.00000000000E+00  0.71057472839E+03  0.71057472841E+03  0.50400001928E-02 0.  1.
       -1   -1    0    0    0  501  0.00000000000E+00  0.00000000000E+00 -0.88011886120E+02  0.88011886264E+02  0.50400001928E-02 0. -1.
    10030    2    1    2    0    0  0.00000000000E+00  0.00000000000E+00  0.62256284227E+03  0.79858661467E+03  0.50015606420E+03 0.  0.
        2    1    3    3  502    0  0.64517600694E+02  0.24098653956E+03  0.28353467193E+03  0.37766247264E+03  0.25500000920E-02 0.  1.
       -2    1    3    3    0  502 -0.64517600694E+02 -0.24098653956E+03  0.33902817034E+03  0.42092414203E+03  0.25500000920E-02 0. -1.
</event>
<event>
 5   0  0.4978779E-03  0.5001547E+03  0.7818609E-02  0.1013739E+00
       -2   -1    0    0    0  501  0.00000000000E+00  0.00000000000E+00  0.10692897211E+03  0.10692897214E+03  0.25500000920E-02 0.  1.
        2   -1    0    0  501    0  0.00000000000E+00  0.00000000000E+00 -0.58486181233E+03  0.58486181234E+03  0.25500000920E-02 0. -1.
    10030    2    1    2    0    0  0.00000000000E+00  0.00000000000E+00 -0.47793284022E+03  0.69179078448E+03  0.50015466581E+03 0.  0.
        1    1    3    3  502    0 -0.19635162384E+03  0.78111936985E+01 -0.45290277838E+03  0.49369616327E+03  0.50400001928E-02 0.  1.
       -1    1    3    3    0  502  0.19635162384E+03 -0.78111936985E+01 -0.25030061833E+02  0.19809462121E+03  0.50400001928E-02 0. -1.
</event>
<event>
 5   0  0.5118882E-03  0.4999428E+03  0.7818609E-02  0.1013794E+00
       -2   -1    0    0    0  501  0.00000000000E+00  0.00000000000E+00  0.10565996030E+03  0.10565996033E+03  0.25500000920E-02 0. -1.
        2   -1    0    0  501    0  0.00000000000E+00  0.00000000000E+00 -0.59138481809E+03  0.59138481809E+03  0.25500000920E-02 0.  1.
    10030    2    1    2    0    0  0.00000000000E+00  0.00000000000E+00 -0.48572485778E+03  0.69704477843E+03  0.49994278239E+03 0.  0.
        3    1    3    3  502    0  0.16480438931E+03 -0.18791282424E+03 -0.23765122546E+03  0.34489104282E+03  0.10100000352E+00 0. -1.
       -3    1    3    3    0  502 -0.16480438931E+03  0.18791282424E+03 -0.24807363232E+03  0.35215373561E+03  0.10100000352E+00 0.  1.
</event>
<event>
 5   0  0.3013734E-03  0.5001552E+03  0.7818609E-02  0.1013738E+00
        1   -1    0    0  501    0  0.00000000000E+00  0.00000000000E+00  0.51986903191E+03  0.51986903193E+03  0.50400001928E-02 0. -1.
       -1   -1    0    0    0  501  0.00000000000E+00  0.00000000000E+00 -0.12029723790E+03  0.12029723800E+03  0.50400001928E-02 0.  1.
    10030    2    1    2    0    0  0.00000000000E+00  0.00000000000E+00  0.39957179401E+03  0.64016626993E+03  0.50015521050E+03 0.  0.
        2    1    3    3  502    0 -0.11698007850E+03  0.12238735163E+03 -0.35791060674E+02  0.17304335479E+03  0.25500000920E-02 0.  1.
       -2    1    3    3    0  502  0.11698007850E+03 -0.12238735163E+03  0.43536285468E+03  0.46712291514E+03  0.25500000920E-02 0. -1.
</event>
<event>
 5   0  0.5118882E-03  0.5007254E+03  0.7818609E-02  0.1013590E+00
        2   -1    0    0  501    0  0.00000000000E+00  0.00000000000E+00  0.70532728397E+03  0.70532728398E+03  0.25500000920E-02 0.  1.
       -2   -1    0    0    0  501  0.00000000000E+00  0.00000000000E+00 -0.88868636371E+02  0.88868636408E+02  0.25500000920E-02 0. -1.
    10030    2    1    2    0    0  0.00000000000E+00  0.00000000000E+00  0.61645864760E+03  0.79419592038E+03  0.50072536959E+03 0.  0.
        3    1    3    3  502    0 -0.12547526509E+03  0.13323827779E+03  0.37267705273E+02  0.18677626422E+03  0.10100000352E+00 0. -1.
       -3    1    3    3    0  502  0.12547526509E+03 -0.13323827779E+03  0.57919094233E+03  0.60741965616E+03  0.10100000352E+00 0.  1.
</event>
<event>
 5   0  0.3211775E-03  0.4997417E+03  0.7818609E-02  0.1013846E+00
       -1   -1    0    0    0  501  0.00000000000E+00  0.00000000000E+00  0.43962276751E+02  0.43962277040E+02  0.50400001928E-02 0. -1.
        1   -1    0    0  501    0  0.00000000000E+00  0.00000000000E+00 -0.14202051462E+04  0.14202051462E+04  0.50400001928E-02 0.  1.
    10030    2    1    2    0    0  0.00000000000E+00  0.00000000000E+00 -0.13762428694E+04  0.14641674232E+04  0.49974174089E+03 0.  0.
        4    1    3    3  502    0 -0.31542428320E+01 -0.24800623267E+03 -0.77683336233E+03  0.81546840921E+03  0.12699999809E+01 0.  1.
       -4    1    3    3    0  502  0.31542428320E+01  0.24800623267E+03 -0.59940950709E+03  0.64869901401E+03  0.12699999809E+01 0. -1.
</event>
<event>
 5   0  0.2005125E-03  0.5001241E+03  0.7818609E-02  0.1013747E+00
        4   -1    0    0  501    0  0.00000000000E+00  0.00000000000E+00  0.30613888919E+03  0.30614152344E+03  0.12699999809E+01 0. -1.
       -4   -1    0    0    0  501  0.00000000000E+00  0.00000000000E+00 -0.20425160026E+03  0.20425554854E+03  0.12699999809E+01 0.  1.
    10030    2    1    2    0    0  0.00000000000E+00  0.00000000000E+00  0.10188728893E+03  0.51039707198E+03  0.50012413603E+03 0.  0.
        1    1    3    3  502    0  0.73170951931E+02 -0.11645200159E+03 -0.16219057478E+03  0.21265192088E+03  0.50400001928E-02 0.  1.
       -1    1    3    3    0  502 -0.73170951931E+02  0.11645200159E+03  0.26407786371E+03  0.29774515110E+03  0.50400001928E-02 0. -1.
</event>
<event>
 5   0  0.3211775E-03  0.4999540E+03  0.7818609E-02  0.1013791E+00
        1   -1    0    0  501    0  0.00000000000E+00  0.00000000000E+00  0.89938429340E+03  0.89938429342E+03  0.50400001928E-02 0. -1.
       -1   -1    0    0    0  501  0.00000000000E+00  0.00000000000E+00 -0.69479203663E+02  0.69479203846E+02  0.50400001928E-02 0.  1.
    10030    2    1    2    0    0  0.00000000000E+00  0.00000000000E+00  0.82990508974E+03  0.96886349726E+03  0.49995401624E+03 0.  0.
        4    1    3    3  502    0  0.11929340036E+03  0.20662086586E+02  0.83876960062E+03  0.84746321042E+03  0.12699999809E+01 0. -1.
       -4    1    3    3    0  502 -0.11929340036E+03 -0.20662086586E+02 -0.88645108846E+01  0.12140028684E+03  0.12699999809E+01 0.  1.
</event>
<event>
 5   0  0.4978779E-03  0.4999575E+03  0.7818609E-02  0.1013790E+00
        2   -1    0    0  501    0  0.00000000000E+00  0.00000000000E+00  0.37089559987E+03  0.37089559988E+03  0.25500000920E-02 0. -1.
       -2   -1    0    0    0  501  0.00000000000E+00  0.00000000000E+00 -0.16848235829E+03  0.16848235831E+03  0.25500000920E-02 0.  1.
    10030    2    1    2    0    0  0.00000000000E+00  0.00000000000E+00  0.20241324158E+03  0.53937795819E+03  0.49995745960E+03 0.  0.
        1    1    3    3  502    0  0.82912541250E+02 -0.28528253886E+02 -0.15134748993E+03  0.17491258816E+03  0.50400001928E-02 0.  1.
       -1    1    3    3    0  502 -0.82912541250E+02  0.28528253886E+02  0.35376073151E+03  0.36446537002E+03  0.50400001928E-02 0. -1.
</event>
<event>
 5   0  0.2863538E-03  0.4998405E+03  0.7818609E-02  0.1013821E+00
        1   -1    0    0  501    0  0.00000000000E+00  0.00000000000E+00  0.47106806864E+03  0.47106806867E+03  0.50400001928E-02 0. -1.
       -1   -1    0    0    0  501  0.00000000000E+00  0.00000000000E+00 -0.13259258215E+03  0.13259258225E+03  0.50400001928E-02 0.  1.
    10030    2    1    2    0    0  0.00000000000E+00  0.00000000000E+00  0.33847548649E+03  0.60366065091E+03  0.49984050107E+03 0.  0.
        1    1    3    3  502    0  0.48624567587E+02 -0.26410423472E+02  0.46357709692E+03  0.46686784410E+03  0.50400001928E-02 0. -1.
       -1    1    3    3    0  502 -0.48624567587E+02  0.26410423472E+02 -0.12510161042E+03  0.13679280682E+03  0.50400001928E-02 0.  1.
</event>
<event>
 5   0  0.3013734E-03  0.5004218E+03  0.7818609E-02  0.1013669E+00
        1   -1    0    0  501    0  0.00000000000E+00  0.00000000000E+00  0.11856236602E+04  0.11856236602E+04  0.50400001928E-02 0.  1.
       -1   -1    0    0    0  501  0.00000000000E+00  0.00000000000E+00 -0.52803859367E+02  0.52803859608E+02  0.50400001928E-02 0. -1.
    10030    2    1    2    0    0  0.00000000000E+00  0.00000000000E+00  0.11328198008E+04  0.12384275198E+04  0.50042184274E+03 0.  0.
        2    1    3    3  502    0  0.15972366280E+03 -0.14705418495E+03  0.87420689914E+03  0.90076316770E+03  0.25500000920E-02 0.  1.
       -2    1    3    3    0  502 -0.15972366280E+03  0.14705418495E+03  0.25861290171E+03  0.33766435214E+03  0.25500000920E-02 0. -1.
</event>
<event>
 5   0  0.4989875E-03  0.4999810E+03  0.7818609E-02  0.1013784E+00
        2   -1    0    0  501    0  0.00000000000E+00  0.00000000000E+00  0.25002143652E+03  0.25002143653E+03  0.25500000920E-02 0.  1.
       -2   -1    0    0    0  501  0.00000000000E+00  0.00000000000E+00 -0.24995956641E+03  0.24995956643E+03  0.25500000920E-02 0. -1.
    10030    2    1    2    0    0  0.00000000000E+00  0.00000000000E+00  0.61870100442E-01  0.49998100296E+03  0.49998099913E+03 0.  0.
        2    1    3    3  502    0  0.14744334016E+03 -0.58854054284E+02 -0.19308020438E+03  0.24996660496E+03  0.25500000920E-02 0. -1.
       -2    1    3    3    0  502 -0.14744334016E+03  0.58854054284E+02  0.19314207448E+03  0.25001439800E+03  0.25500000920E-02 0.  1.
</event>
<event>
 5   0  0.4989875E-03  0.5001998E+03  0.7818609E-02  0.1013727E+00
        2   -1    0    0  501    0  0.00000000000E+00  0.00000000000E+00  0.16962368290E+04  0.16962368290E+04  0.25500000920E-02 0.  1.
       -2   -1    0    0    0  501  0.00000000000E+00  0.00000000000E+00 -0.36875723877E+02  0.36875723965E+02  0.25500000920E-02 0. -1.
    10030    2    1    2    0    0  0.00000000000E+00  0.00000000000E+00  0.16593611051E+04  0.17331125530E+04  0.50019980413E+03 0.  0.
        2    1    3    3  502    0  0.11574638178E+02 -0.12314089006E+03  0.15828536040E+04  0.15876785515E+04  0.25500000920E-02 0.  1.
       -2    1    3    3    0  502 -0.11574638178E+02  0.12314089006E+03  0.76507501068E+02  0.14543400145E+03  0.25500000920E-02 0. -1.
</event>
<event>
 5   0  0.2005125E-03  0.5000330E+03  0.7818609E-02  0.1013770E+00
       -4   -1    0    0    0  501  0.00000000000E+00  0.00000000000E+00  0.86878581168E+02  0.86887863167E+02  0.12699999809E+01 0.  1.
        4   -1    0    0  501    0  0.00000000000E+00  0.00000000000E+00 -0.71944162816E+03  0.71944274909E+03  0.12699999809E+01 0. -1.
    10030    2    1    2    0    0  0.00000000000E+00  0.00000000000E+00 -0.63256304699E+03  0.80633061226E+03  0.50003304676E+03 0.  0.
        2    1    3    3  502    0 -0.90514924694E+02  0.22165077712E+03 -0.43241057711E+03  0.49426807078E+03  0.25500000920E-02 0.  1.
       -2    1    3    3    0  502  0.90514924694E+02 -0.22165077712E+03 -0.20015246988E+03  0.31206254148E+03  0.25500000920E-02 0. -1.
</event>
<event>
 5   0  0.4978779E-03  0.4999278E+03  0.7818609E-02  0.1013798E+00
        2   -1    0    0  501    0  0.00000000000E+00  0.00000000000E+00  0.64060194938E+02  0.64060194989E+02  0.25500000920E-02 0. -1.
       -2   -1    0    0    0  501  0.00000000000E+00  0.00000000000E+00 -0.97536293873E+03  0.97536293873E+03  0.25500000920E-02 0.  1.
    10030    2    1    2    0    0  0.00000000000E+00  0.00000000000E+00 -0.91130274379E+03  0.10394231337E+04  0.49992775486E+03 0.  0.
        1    1    3    3  502    0 -0.14604805029E+03 -0.19069193523E+03 -0.31177663212E+03  0.39357097900E+03  0.50400001928E-02 0. -1.
       -1    1    3    3    0  502  0.14604805029E+03  0.19069193523E+03 -0.59952611167E+03  0.64585215472E+03  0.50400001928E-02 0.  1.
</event>
<event>
 5   0  0.2863538E-03  0.4999009E+03  0.7818609E-02  0.1013805E+00
        1   -1    0    0  501    0  0.00000000000E+00  0.00000000000E+00  0.16880579212E+04  0.16880579212E+04  0.50400001928E-02 0. -1.
       -1   -1    0    0    0  501  0.00000000000E+00  0.00000000000E+00 -0.37010125133E+02  0.37010125476E+02  0.50400001928E-02 0.  1.
    10030    2    1    2    0    0  0.00000000000E+00  0.00000000000E+00  0.16510477961E+04  0.17250680467E+04  0.49990093098E+03 0.  0.
        1    1    3    3  502    0  0.23659611925E+03  0.80123851713E+02  0.85593811623E+03  0.89164321009E+03  0.50400001928E-02 0.  1.
       -1    1    3    3    0  502 -0.23659611925E+03 -0.80123851713E+02  0.79510967985E+03  0.83342483661E+03  0.50400001928E-02 0. -1.
</event>
<event>
 5   0  0.5095783E-03  0.5002089E+03  0.7818609E-02  0.1013724E+00
        2   -1    0    0  501    0  0.00000000000E+00  0.00000000000E+00  0.25050038295E+03  0.25050038297E+03  0.25500000920E-02 0.  1.
       -2   -1    0    0    0  501  0.00000000000E+00  0.00000000000E+00 -0.24970911066E+03  0.24970911068E+03  0.25500000920E-02 0. -1.
    10030    2    1    2    0    0  0.00000000000E+00  0.00000000000E+00  0.79127229242E+00  0.50020949364E+03  0.50020886779E+03 0.  0.
        4    1    3    3  502    0 -0.12892419002E+03  0.20301410931E+03  0.69057498932E+02  0.25021336177E+03  0.12699999809E+01 0.  1.
       -4    1    3    3    0  502  0.12892419002E+03 -0.20301410931E+03 -0.68266226640E+02  0.24999613187E+03  0.12699999809E+01 0. -1.
</event>
<event>
 5   0  0.4889251E-03  0.4998650E+03  0.7818609E-02  0.1013814E+00
       -2   -1    0    0    0  501  0.00000000000E+00  0.00000000000E+00  0.41060900875E+03  0.41060900875E+03  0.25500000920E-02 0.  1.
        2   -1    0    0  501    0  0.00000000000E+00  0.00000000000E+00 -0.15213072853E+03  0.15213072855E+03  0.25500000920E-02 0. -1.
    10030    2    1    2    0    0  0.00000000000E+00  0.00000000000E+00  0.25847828022E+03  0.56273973730E+03  0.49986497236E+03 0.  0.
        5    1    3    3  502    0  0.12405463404E+03 -0.19581398110E+03  0.24163727162E+02  0.23310650598E+03  0.46999998093E+01 0. -1.
       -5    1    3    3    0  502 -0.12405463404E+03  0.19581398110E+03  0.23431455306E+03  0.32963323132E+03  0.46999998093E+01 0.  1.
</event>
<event>
 5   0  0.5118882E-03  0.4999413E+03  0.7818609E-02  0.1013794E+00
       -2   -1    0    0    0  501  0.00000000000E+00  0.00000000000E+00  0.12318879220E+03  0.12318879223E+03  0.25500000920E-02 0. -1.
        2   -1    0    0  501    0  0.00000000000E+00  0.00000000000E+00 -0.50723232595E+03  0.50723232596E+03  0.25500000920E-02 0.  1.
    10030    2    1    2    0    0  0.00000000000E+00  0.00000000000E+00 -0.38404353375E+03  0.63042111818E+03  0.49994134700E+03 0.  0.
        3    1    3    3  502    0 -0.44739546932E+02  0.84077854886E+01 -0.50196126991E+03  0.50402127396E+03  0.10100000352E+00 0.  1.
       -3    1    3    3    0  502  0.44739546932E+02 -0.84077854886E+01  0.11791773616E+03  0.12639984422E+03  0.10100000352E+00 0. -1.
</event>
<event>
 5   0  0.2863538E-03  0.4993083E+03  0.7818609E-02  0.1013960E+00
       -1   -1    0    0    0  501  0.00000000000E+00  0.00000000000E+00  0.25607226462E+03  0.25607226467E+03  0.50400001928E-02 0. -1.
        1   -1    0    0  501    0  0.00000000000E+00  0.00000000000E+00 -0.24339684905E+03  0.24339684910E+03  0.50400001928E-02 0.  1.
    10030    2    1    2    0    0  0.00000000000E+00  0.00000000000E+00  0.12675415571E+02  0.49946911377E+03  0.49930825094E+03 0.  0.
        1    1    3    3  502    0  0.42492012486E+02  0.55975260617E+02  0.24597360902E+03  0.25581598325E+03  0.50400001928E-02 0. -1.
       -1    1    3    3    0  502 -0.42492012486E+02 -0.55975260617E+02 -0.23329819344E+03  0.24365313053E+03  0.50400001928E-02 0.  1.
</event>
<event>
 5   0  0.2005125E-03  0.5000899E+03  0.7818609E-02  0.1013755E+00
       -4   -1    0    0    0  501  0.00000000000E+00  0.00000000000E+00  0.67896186354E+03  0.67896305130E+03  0.12699999809E+01 0. -1.
        4   -1    0    0  501    0  0.00000000000E+00  0.00000000000E+00 -0.92079742489E+02  0.92088500242E+02  0.12699999809E+01 0.  1.
    10030    2    1    2    0    0  0.00000000000E+00  0.00000000000E+00  0.58688212105E+03  0.77105155155E+03  0.50008986306E+03 0.  0.
        1    1    3    3  502    0 -0.13327993830E+03 -0.14941004022E+03  0.52438356760E+03  0.56130653663E+03  0.50400001928E-02 0. -1.
       -1    1    3    3    0  502  0.13327993830E+03  0.14941004022E+03  0.62498553448E+02  0.20974501491E+03  0.50400001928E-02 0.  1.
</event>
<event>
 5   0  0.3013734E-03  0.4999593E+03  0.7818609E-02  0.1013790E+00
        1   -1    0    0  501    0  0.00000000000E+00  0.00000000000E+00  0.81765324713E+03  0.81765324715E+03  0.50400001928E-02 0.  1.
       -1   -1    0    0    0  501  0.00000000000E+00  0.00000000000E+00 -0.76425818935E+02  0.76425819101E+02  0.50400001928E-02 0. -1.
    10030    2    1    2    0    0  0.00000000000E+00  0.00000000000E+00  0.74122742820E+03  0.89407906625E+03  0.49995927473E+03 0.  0.
        2    1    3    3  502    0  0.14521465694E+03 -0.19218282271E+03  0.25107413075E+03  0.34793642102E+03  0.25500000920E-02 0. -1.
       -2    1    3    3    0  502 -0.14521465694E+03  0.19218282271E+03  0.49015329745E+03  0.54614264523E+03  0.25500000920E-02 0.  1.
</event>
<event>
 5   0  0.4989875E-03  0.5001650E+03  0.7818609E-02  0.1013736E+00
        2   -1    0    0  501    0  0.00000000000E+00  0.00000000000E+00  0.14219072949E+04  0.14219072949E+04  0.25500000920E-02 0.  1.
       -2   -1    0    0    0  501  0.00000000000E+00  0.00000000000E+00 -0.43984056288E+02  0.43984056362E+02  0.25500000920E-02 0. -1.
    10030    2    1    2    0    0  0.00000000000E+00  0.00000000000E+00  0.13779232386E+04  0.14658913513E+04  0.50016497499E+03 0.  0.
        2    1    3    3  502    0 -0.39781515331E+02  0.23648896190E+03  0.48106672413E+03  0.53752654924E+03  0.25500000920E-02 0. -1.
       -2    1    3    3    0  502  0.39781515331E+02 -0.23648896190E+03  0.89685651449E+03  0.92836480203E+03  0.25500000920E-02 0.  1.
</event>
<event>
 5   0  0.5095783E-03  0.4997860E+03  0.7818609E-02  0.1013835E+00
       -2   -1    0    0    0  501  0.00000000000E+00  0.00000000000E+00  0.53373243285E+02  0.53373243346E+02  0.25500000920E-02 0.  1.
        2   -1    0    0  501    0  0.00000000000E+00  0.00000000000E+00 -0.11699967647E+04  0.11699967648E+04  0.25500000920E-02 0. -1.
    10030    2    1    2    0    0  0.00000000000E+00  0.00000000000E+00 -0.11166235215E+04  0.12233700081E+04  0.49978604225E+03 0.  0.
        4    1    3    3  502    0 -0.16142365736E+03  0.56080191718E+02 -0.10046040622E+04  0.10190355832E+04  0.12699999809E+01 0. -1.
       -4    1    3    3    0  502  0.16142365736E+03 -0.56080191718E+02 -0.11201945926E+03  0.20433442493E+03  0.12699999809E+01 0.  1.
</event>
<event>
 5   0  0.4889251E-03  0.4998134E+03  0.7818609E-02  0.1013828E+00
        2   -1    0    0  501    0  0.00000000000E+00  0.00000000000E+00  0.19791755009E+04  0.19791755009E+04  0.25500000920E-02 0. -1.
       -2   -1    0    0    0  501  0.00000000000E+00  0.00000000000E+00 -0.31555244026E+02  0.31555244129E+02  0.25500000920E-02 0.  1.
    10030    2    1    2    0    0  0.00000000000E+00  0.00000000000E+00  0.19476202569E+04  0.20107307450E+04  0.49981342921E+03 0.  0.
        5    1    3    3  502    0 -0.12215110747E+02 -0.22213143209E+02  0.19738108829E+04  0.19739792613E+04  0.46999998093E+01 0. -1.
       -5    1    3    3    0  502  0.12215110747E+02  0.22213143209E+02 -0.26190626053E+02  0.36751483685E+02  0.46999998093E+01 0.  1.
</event>
<event>
 5   0  0.3211775E-03  0.4999050E+03  0.7818609E-02  0.1013804E+00
       -1   -1    0    0    0  501  0.00000000000E+00  0.00000000000E+00  0.33779514119E+02  0.33779514495E+02  0.50400001928E-02 0.  1.
        1   -1    0    0  501    0  0.00000000000E+00  0.00000000000E+00 -0.18495307853E+04  0.18495307853E+04  0.50400001928E-02 0. -1.
    10030    2    1    2    0    0  0.00000000000E+00  0.00000000000E+00 -0.18157512711E+04  0.18833102998E+04  0.49990499751E+03 0.  0.
        4    1    3    3  502    0 -0.13304125135E+03  0.18904451465E+03 -0.12660071962E+04  0.12869396399E+04  0.12699999809E+01 0. -1.
       -4    1    3    3    0  502  0.13304125135E+03 -0.18904451465E+03 -0.54974407492E+03  0.59637065981E+03  0.12699999809E+01 0.  1.
</event>
<event>
 5   0  0.3211775E-03  0.4999645E+03  0.7818609E-02  0.1013788E+00
       -1   -1    0    0    0  501  0.00000000000E+00  0.00000000000E+00  0.13277226364E+03  0.13277226373E+03  0.50400001928E-02 0.  1.
        1   -1    0    0  501    0  0.00000000000E+00  0.00000000000E+00 -0.47066403701E+03  0.47066403703E+03  0.50400001928E-02 0. -1.
    10030    2    1    2    0    0  0.00000000000E+00  0.00000000000E+00 -0.33789177337E+03  0.60343630077E+03  0.49996451731E+03 0.  0.
        4    1    3    3  502    0 -0.39614670458E+02 -0.23273009575E+03 -0.69733498586E+02  0.24616456550E+03  0.12699999809E+01 0.  1.
       -4    1    3    3    0  502  0.39614670458E+02  0.23273009575E+03 -0.26815827478E+03  0.35727173526E+03  0.12699999809E+01 0. -1.
</event>
<event>
 5   0  0.4989875E-03  0.5000242E+03  0.7818609E-02  0.1013773E+00
       -2   -1    0    0    0  501  0.00000000000E+00  0.00000000000E+00  0.38601774026E+03  0.38601774027E+03  0.25500000920E-02 0. -1.
        2   -1    0    0  501    0  0.00000000000E+00  0.00000000000E+00 -0.16192535557E+03  0.16192535559E+03  0.25500000920E-02 0.  1.
    10030    2    1    2    0    0  0.00000000000E+00  0.00000000000E+00  0.22409238469E+03  0.54794309587E+03  0.50002423884E+03 0.  0.
        2    1    3    3  502    0  0.21298052572E+03 -0.70920951973E+02 -0.85729956757E+01  0.22464189731E+03  0.25500000920E-02 0.  1.
       -2    1    3    3    0  502 -0.21298052572E+03  0.70920951973E+02  0.23266538037E+03  0.32330119856E+03  0.25500000920E-02 0. -1.
</event>
<event>
 5   0  0.4978779E-03  0.4997615E+03  0.7818609E-02  0.1013841E+00
       -2   -1    0    0    0  501  0.00000000000E+00  0.00000000000E+00  0.34034621122E+03  0.34034621123E+03  0.25500000920E-02 0.  1.
        2   -1    0    0  501    0  0.00000000000E+00  0.00000000000E+00 -0.18346137368E+03  0.18346137370E+03  0.25500000920E-02 0. -1.
    10030    2    1    2    0    0  0.00000000000E+00  0.00000000000E+00  0.15688483754E+03  0.52380758493E+03  0.49976147689E+03 0.  0.
        1    1    3    3  502    0 -0.19580174393E+03  0.91097089990E+02 -0.53317709068E+02  0.22244051083E+03  0.50400001928E-02 0. -1.
       -1    1    3    3    0  502  0.19580174393E+03 -0.91097089990E+02  0.21020254661E+03  0.30136707411E+03  0.50400001928E-02 0.  1.
</event>
<event>
 5   0  0.4978779E-03  0.5000093E+03  0.7818609E-02  0.1013776E+00
       -2   -1    0    0    0  501  0.00000000000E+00  0.00000000000E+00  0.88213235156E+02  0.88213235193E+02  0.25500000920E-02 0.  1.
        2   -1    0    0  501    0  0.00000000000E+00  0.00000000000E+00 -0.70853683794E+03  0.70853683794E+03  0.25500000920E-02 0. -1.
    10030    2    1    2    0    0  0.00000000000E+00  0.00000000000E+00 -0.62032360278E+03  0.79675007314E+03  0.50000930679E+03 0.  0.
        1    1    3    3  502    0  0.70405758462E+02  0.20765677447E+03 -0.50153767236E+03  0.54737404362E+03  0.50400001928E-02 0. -1.
       -1    1    3    3    0  502 -0.70405758462E+02 -0.20765677447E+03 -0.11878593043E+03  0.24937602952E+03  0.50400001928E-02 0.  1.
</event>
<event>
 5   0  0.2005125E-03  0.5002251E+03  0.7818609E-02  0.1013720E+00
       -4   -1    0    0    0  501  0.00000000000E+00  0.00000000000E+00  0.16149620896E+03  0.16150120250E+03  0.12699999809E+01 0.  1.
        4   -1    0    0  501    0  0.00000000000E+00  0.00000000000E+00 -0.38734251263E+03  0.38734459463E+03  0.12699999809E+01 0. -1.
    10030    2    1    2    0    0  0.00000000000E+00  0.00000000000E+00 -0.22584630367E+03  0.54884579713E+03  0.50022510547E+03 0.  0.
        5    1    3    3  502    0  0.86015095776E+02  0.47787413942E+02 -0.36516400660E+03  0.37821829061E+03  0.46999998093E+01 0. -1.
       -5    1    3    3    0  502 -0.86015095776E+02 -0.47787413942E+02  0.13931770294E+03  0.17062750652E+03  0.46999998093E+01 0.  1.
</event>
<event>
 5   0  0.4889251E-03  0.4999776E+03  0.7818609E-02  0.1013785E+00
        2   -1    0    0  501    0  0.00000000000E+00  0.00000000000E+00  0.18415443958E+04  0.18415443958E+04  0.25500000920E-02 0.  1.
       -2   -1    0    0    0  501  0.00000000000E+00  0.00000000000E+00 -0.33935867656E+02  0.33935867752E+02  0.25500000920E-02 0. -1.
    10030    2    1    2    0    0  0.00000000000E+00  0.00000000000E+00  0.18076085282E+04  0.18754802636E+04  0.49997762746E+03 0.  0.
        5    1    3    3  502    0 -0.98303354400E+02  0.13369303793E+00  0.41789172467E+02  0.10692049520E+03  0.46999998093E+01 0. -1.
       -5    1    3    3    0  502  0.98303354400E+02 -0.13369303793E+00  0.17658193557E+04  0.17685597684E+04  0.46999998093E+01 0.  1.
</event>
<event>
 5   0  0.3211775E-03  0.4999644E+03  0.7818609E-02  0.1013788E+00
       -1   -1    0    0    0  501  0.00000000000E+00  0.00000000000E+00  0.36757753849E+02  0.36757754195E+02  0.50400001928E-02 0.  1.
        1   -1    0    0  501    0  0.00000000000E+00  0.00000000000E+00 -0.17000794259E+04  0.17000794259E+04  0.50400001928E-02 0. -1.
    10030    2    1    2    0    0  0.00000000000E+00  0.00000000000E+00 -0.16633216720E+04  0.17368371801E+04  0.49996440420E+03 0.  0.
        4    1    3    3  502    0  0.64193466016E+02  0.12181958922E+03 -0.15564434156E+04  0.15625231302E+04  0.12699999809E+01 0. -1.
       -4    1    3    3    0  502 -0.64193466016E+02 -0.12181958922E+03 -0.10687825637E+03  0.17431404987E+03  0.12699999809E+01 0.  1.
</event>
<event>
 5   0  0.2863538E-03  0.5001343E+03  0.7818609E-02  0.1013744E+00
       -1   -1    0    0    0  501  0.00000000000E+00  0.00000000000E+00  0.83111210608E+03  0.83111210610E+03  0.50400001928E-02 0. -1.
        1   -1    0    0  501    0  0.00000000000E+00  0.00000000000E+00 -0.75240848545E+02  0.75240848713E+02  0.50400001928E-02 0.  1.
    10030    2    1    2    0    0  0.00000000000E+00  0.00000000000E+00  0.75587125754E+03  0.90635295481E+03  0.50013430269E+03 0.  0.
        1    1    3    3  502    0  0.20614873831E+03 -0.84346739834E+02  0.58393883979E+03  0.62497699435E+03  0.50400001928E-02 0. -1.
       -1    1    3    3    0  502 -0.20614873831E+03  0.84346739834E+02  0.17193241775E+03  0.28137596046E+03  0.50400001928E-02 0.  1.
</event>
<event>
 5   0  0.2863538E-03  0.5000006E+03  0.7818609E-02  0.1013779E+00
       -1   -1    0    0    0  501  0.00000000000E+00  0.00000000000E+00  0.39940715296E+02  0.39940715614E+02  0.50400001928E-02 0. -1.
        1   -1    0    0  501    0  0.00000000000E+00  0.00000000000E+00 -0.15648229835E+04  0.15648229835E+04  0.50400001928E-02 0.  1.
    10030    2    1    2    0    0  0.00000000000E+00  0.00000000000E+00 -0.15248822682E+04  0.16047636991E+04  0.50000059814E+03 0.  0.
        1    1    3    3  502    0 -0.22497435083E+03 -0.88094383506E+02 -0.55627900345E+03  0.60648199366E+03  0.50400001928E-02 0. -1.
       -1    1    3    3    0  502  0.22497435083E+03  0.88094383506E+02 -0.96860326476E+03  0.99828170546E+03  0.50400001928E-02 0.  1.
</event>
<event>
 5   0  0.2005125E-03  0.5000169E+03  0.7818609E-02  0.1013775E+00
       -4   -1    0    0    0  501  0.00000000000E+00  0.00000000000E+00  0.22216364710E+03  0.22216727705E+03  0.12699999809E+01 0. -1.
        4   -1    0    0  501    0  0.00000000000E+00  0.00000000000E+00 -0.28133580468E+03  0.28133867116E+03  0.12699999809E+01 0.  1.
    10030    2    1    2    0    0  0.00000000000E+00  0.00000000000E+00 -0.59172157579E+02  0.50350594821E+03  0.50001689537E+03 0.  0.
        5    1    3    3  502    0  0.82604016384E+02 -0.18915638629E+03  0.11238913030E+03  0.23506800847E+03  0.46999998093E+01 0. -1.
       -5    1    3    3    0  502 -0.82604016384E+02  0.18915638629E+03 -0.17156128788E+03  0.26843793974E+03  0.46999998093E+01 0.  1.
</event>
<event>
 5   0  0.2005125E-03  0.4999744E+03  0.7818609E-02  0.1013786E+00
        3   -1    0    0  501    0  0.00000000000E+00  0.00000000000E+00  0.54249047058E+02  0.54249141078E+02  0.10100000352E+00 0.  1.
       -3   -1    0    0    0  501  0.00000000000E+00  0.00000000000E+00 -0.11519750642E+04  0.11519750686E+04  0.10100000352E+00 0. -1.
    10030    2    1    2    0    0  0.00000000000E+00  0.00000000000E+00 -0.10977260171E+04  0.12062242097E+04  0.49997443471E+03 0.  0.
        4    1    3    3  502    0  0.86952532606E+02  0.74491478685E+01  0.16295837182E+02  0.88788512432E+02  0.12699999809E+01 0.  1.
       -4    1    3    3    0  502 -0.86952532606E+02 -0.74491478685E+01 -0.11140218543E+04  0.11174356972E+04  0.12699999809E+01 0. -1.
</event>
<event>
 5   0  0.2863538E-03  0.4998721E+03  0.7818609E-02  0.1013812E+00
        1   -1    0    0  501    0  0.00000000000E+00  0.00000000000E+00  0.60190109993E+03  0.60190109995E+03  0.50400001928E-02 0. -1.
       -1   -1    0    0    0  501  0.00000000000E+00  0.00000000000E+00 -0.10378454863E+03  0.10378454875E+03  0.50400001928E-02 0.  1.
    10030    2    1    2    0    0  0.00000000000E+00  0.00000000000E+00  0.49811655130E+03  0.70568564870E+03  0.49987211975E+03 0.  0.
        1    1    3    3  502    0  0.18498863704E+03  0.15110796986E+03  0.14518681495E+03  0.27952392679E+03  0.50400001928E-02 0.  1.
       -1    1    3    3    0  502 -0.18498863704E+03 -0.15110796986E+03  0.35292973635E+03  0.42616172190E+03  0.50400001928E-02 0. -1.
</event>
<event>
 5   0  0.5118882E-03  0.5009560E+03  0.7818609E-02  0.1013530E+00
        2   -1    0    0  501    0  0.00000000000E+00  0.00000000000E+00  0.13893883896E+04  0.13893883896E+04  0.25500000920E-02 0. -1.
       -2   -1    0    0    0  501  0.00000000000E+00  0.00000000000E+00 -0.45155999619E+02  0.45155999691E+02  0.25500000920E-02 0.  1.
    10030    2    1    2    0    0  0.00000000000E+00  0.00000000000E+00  0.13442323900E+04  0.14345443893E+04  0.50095597269E+03 0.  0.
        3    1    3    3  502    0 -0.36477315286E+02  0.18295592164E+03  0.11507403160E+04  0.11657644483E+04  0.10100000352E+00 0. -1.
       -3    1    3    3    0  502  0.36477315286E+02 -0.18295592164E+03  0.19349207395E+03  0.26877994099E+03  0.10100000352E+00 0.  1.
</event>
<event>
 5   0  0.2863538E-03  0.5004619E+03  0.7818609E-02  0.1013658E+00
        1   -1    0    0  501    0  0.00000000000E+00  0.00000000000E+00  0.37065126313E+03  0.37065126316E+03  0.50400001928E-02 0. -1.
       -1   -1    0    0    0  501  0.00000000000E+00  0.00000000000E+00 -0.16893381583E+03  0.16893381590E+03  0.50400001928E-02 0.  1.
    10030    2    1    2    0    0  0.00000000000E+00  0.00000000000E+00  0.20171744730E+03  0.53958507907E+03  0.50046191564E+03 0.  0.
        1    1    3    3  502    0  0.20398242838E+03  0.42629290726E+02  0.25021383902E+03  0.32562716837E+03  0.50400001928E-02 0. -1.
       -1    1    3    3    0  502 -0.20398242838E+03 -0.42629290726E+02 -0.48496391721E+02  0.21395791070E+03  0.50400001928E-02 0.  1.
</event>
<event>
 5   0  0.5095783E-03  0.4999270E+03  0.7818609E-02  0.1013798E+00
       -2   -1    0    0    0  501  0.00000000000E+00  0.00000000000E+00  0.60323112018E+02  0.60323112072E+02  0.25500000920E-02 0.  1.
        2   -1    0    0  501    0  0.00000000000E+00  0.00000000000E+00 -0.10357845054E+04  0.10357845054E+04  0.25500000920E-02 0. -1.
    10030    2    1    2    0    0  0.00000000000E+00  0.00000000000E+00 -0.97546139338E+03  0.10961076175E+04  0.49992697377E+03 0.  0.
        4    1    3    3  502    0  0.16866861931E+03 -0.95455509591E+02 -0.14162055718E+03  0.24003927296E+03  0.12699999809E+01 0.  1.
       -4    1    3    3    0  502 -0.16866861931E+03  0.95455509591E+02 -0.83384083620E+03  0.85606834450E+03  0.12699999809E+01 0. -1.
</event>
<event>
 5   0  0.5118882E-03  0.5002331E+03  0.7818609E-02  0.1013718E+00
       -2   -1    0    0    0  501  0.00000000000E+00  0.00000000000E+00  0.68302498971E+02  0.68302499018E+02  0.25500000920E-02 0.  1.
        2   -1    0    0  501    0  0.00000000000E+00  0.00000000000E+00 -0.91590033203E+03  0.91590033203E+03  0.25500000920E-02 0. -1.
    10030    2    1    2    0    0  0.00000000000E+00  0.00000000000E+00 -0.84759783306E+03  0.98420283105E+03  0.50023307172E+03 0.  0.
        3    1    3    3  502    0 -0.17103998564E+03  0.10176703621E+03 -0.12575807443E+03  0.23542792917E+03  0.10100000352E+00 0.  1.
       -3    1    3    3    0  502  0.17103998564E+03 -0.10176703621E+03 -0.72183975863E+03  0.74877490188E+03  0.10100000352E+00 0. -1.
</event>
<event>
 5   0  0.4989875E-03  0.4999779E+03  0.7818609E-02  0.1013785E+00
       -2   -1    0    0    0  501  0.00000000000E+00  0.00000000000E+00  0.61860204882E+02  0.61860204935E+02  0.25500000920E-02 0.  1.
        2   -1    0    0  501    0  0.00000000000E+00  0.00000000000E+00 -0.10102531600E+04  0.10102531600E+04  0.25500000920E-02 0. -1.
    10030    2    1    2    0    0  0.00000000000E+00  0.00000000000E+00 -0.94839295512E+03  0.10721133649E+04  0.49997786947E+03 0.  0.
        2    1    3    3  502    0  0.64496774098E+02 -0.12982594715E+03 -0.91092198080E+03  0.92238466246E+03  0.25500000920E-02 0. -1.
       -2    1    3    3    0  502 -0.64496774098E+02  0.12982594715E+03 -0.37470974312E+02  0.14972870248E+03  0.25500000920E-02 0.  1.
</event>
<event>
 5   0  0.3057783E-03  0.5000553E+03  0.7818609E-02  0.1013764E+00
       -1   -1    0    0    0  501  0.00000000000E+00  0.00000000000E+00  0.15996830961E+03  0.15996830969E+03  0.50400001928E-02 0. -1.
        1   -1    0    0  501    0  0.00000000000E+00  0.00000000000E+00 -0.39078875455E+03  0.39078875459E+03  0.50400001928E-02 0.  1.
    10030    2    1    2    0    0  0.00000000000E+00  0.00000000000E+00 -0.23082044494E+03  0.55075706428E+03  0.50005526299E+03 0.  0.
        5    1    3    3  502    0 -0.20974041830E+03 -0.27018750912E+02  0.31412739617E+02  0.21384551943E+03  0.46999998093E+01 0. -1.
       -5    1    3    3    0  502  0.20974041830E+03  0.27018750912E+02 -0.26223318456E+03  0.33691154485E+03  0.46999998093E+01 0.  1.
</event>
<event>
 5   0  0.2863538E-03  0.5003756E+03  0.7818609E-02  0.1013681E+00
        1   -1    0    0  501    0  0.00000000000E+00  0.00000000000E+00  0.91681713024E+03  0.91681713025E+03  0.50400001928E-02 0. -1.
       -1   -1    0    0    0  501  0.00000000000E+00  0.00000000000E+00 -0.68273088300E+02  0.68273088486E+02  0.50400001928E-02 0.  1.
    10030    2    1    2    0    0  0.00000000000E+00  0.00000000000E+00  0.84854404194E+03  0.98509021874E+03  0.50037560687E+03 0.  0.
        1    1    3    3  502    0  0.21061007292E+03 -0.37385231453E+02  0.16879798067E+03  0.27248305755E+03  0.50400001928E-02 0.  1.
       -1    1    3    3    0  502 -0.21061007292E+03  0.37385231453E+02  0.67974606127E+03  0.71260716119E+03  0.50400001928E-02 0. -1.
</event>
<event>
 5   0  0.4978779E-03  0.4999806E+03  0.7818609E-02  0.1013784E+00
       -2   -1    0    0    0  501  0.00000000000E+00  0.00000000000E+00  0.13043473819E+03  0.13043473821E+03  0.25500000920E-02 0. -1.
        2   -1    0    0  501    0  0.00000000000E+00  0.00000000000E+00 -0.47912971167E+03  0.47912971168E+03  0.25500000920E-02 0.  1.
    10030    2    1    2    0    0  0.00000000000E+00  0.00000000000E+00 -0.34869497348E+03  0.60956444989E+03  0.49998063367E+03 0.  0.
        1    1    3    3  502    0 -0.24328851803E+03  0.41389118635E+02 -0.12569034735E+03  0.27694841683E+03  0.50400001928E-02 0.  1.
       -1    1    3    3    0  502  0.24328851803E+03 -0.41389118635E+02 -0.22300462613E+03  0.33261603306E+03  0.50400001928E-02 0. -1.
</event>
<event>
 5   0  0.5095783E-03  0.4998573E+03  0.7818609E-02  0.1013816E+00
        2   -1    0    0  501    0  0.00000000000E+00  0.00000000000E+00  0.17709780707E+04  0.17709780707E+04  0.25500000920E-02 0. -1.
       -2   -1    0    0    0  501  0.00000000000E+00  0.00000000000E+00 -0.35271090542E+02  0.35271090634E+02  0.25500000920E-02 0.  1.
    10030    2    1    2    0    0  0.00000000000E+00  0.00000000000E+00  0.17357069802E+04  0.18062491613E+04  0.49985729149E+03 0.  0.
        4    1    3    3  502    0  0.17322093578E+03  0.14776233704E+03  0.12403015606E+04  0.12610268732E+04  0.12699999809E+01 0. -1.
       -4    1    3    3    0  502 -0.17322093578E+03 -0.14776233704E+03  0.49540541957E+03  0.54522228813E+03  0.12699999809E+01 0.  1.
</event>
<event>
 5   0  0.2005125E-03  0.4997755E+03  0.7818609E-02  0.1013838E+00
       -4   -1    0    0    0  501  0.00000000000E+00  0.00000000000E+00  0.20042578907E+03  0.20042981271E+03  0.12699999809E+01 0.  1.
        4   -1    0    0  501    0  0.00000000000E+00  0.00000000000E+00 -0.31154770209E+03  0.31155029061E+03  0.12699999809E+01 0. -1.
    10030    2    1    2    0    0  0.00000000000E+00  0.00000000000E+00 -0.11112191302E+03  0.51198010332E+03  0.49977549624E+03 0.  0.
        2    1    3    3  502    0  0.25656121568E+02  0.18909712889E+03  0.10971051947E+03  0.22011896515E+03  0.25500000920E-02 0.  1.
       -2    1    3    3    0  502 -0.25656121568E+02 -0.18909712889E+03 -0.22083243249E+03  0.29186113817E+03  0.25500000920E-02 0. -1.
</event>
<event>
 5   0  0.5118882E-03  0.5001543E+03  0.7818609E-02  0.1013739E+00
       -2   -1    0    0    0  501  0.00000000000E+00  0.00000000000E+00  0.34599388706E+03  0.34599388707E+03  0.25500000920E-02 0.  1.
        2   -1    0    0  501    0  0.00000000000E+00  0.00000000000E+00 -0.18075055120E+03  0.18075055122E+03  0.25500000920E-02 0. -1.
    10030    2    1    2    0    0  0.00000000000E+00  0.00000000000E+00  0.16524333585E+03  0.52674443829E+03  0.50015431941E+03 0.  0.
        3    1    3    3  502    0 -0.37030752607E+02  0.23932232740E+03  0.14832527151E+03  0.28398388933E+03  0.10100000352E+00 0.  1.
       -3    1    3    3    0  502  0.37030752607E+02 -0.23932232740E+03  0.16918064348E+02  0.24276054896E+03  0.10100000352E+00 0. -1.
</event>
<event>
 5   0  0.2005125E-03  0.4999160E+03  0.7818609E-02  0.1013801E+00
       -3   -1    0    0    0  501  0.00000000000E+00  0.00000000000E+00  0.49002345445E+02  0.49002449532E+02  0.10100000352E+00 0.  1.
        3   -1    0    0  501    0  0.00000000000E+00  0.00000000000E+00 -0.12750192131E+04  0.12750192171E+04  0.10100000352E+00 0. -1.
    10030    2    1    2    0    0  0.00000000000E+00  0.00000000000E+00 -0.12260168676E+04  0.13240216666E+04  0.49991600688E+03 0.  0.
        1    1    3    3  502    0 -0.39039632542E+02  0.19117430593E+03 -0.19923950296E+03  0.27886930222E+03  0.50400001928E-02 0.  1.
       -1    1    3    3    0  502  0.39039632542E+02 -0.19117430593E+03 -0.10267773647E+04  0.10451523644E+04  0.50400001928E-02 0. -1.
</event>
<event>
 5   0  0.5095783E-03  0.4996409E+03  0.7818609E-02  0.1013873E+00
       -2   -1    0    0    0  501  0.00000000000E+00  0.00000000000E+00  0.10193085019E+04  0.10193085019E+04  0.25500000920E-02 0.  1.
        2   -1    0    0  501    0  0.00000000000E+00  0.00000000000E+00 -0.61228029666E+02  0.61228029719E+02  0.25500000920E-02 0. -1.
    10030    2    1    2    0    0  0.00000000000E+00  0.00000000000E+00  0.95808047221E+03  0.10805365316E+04  0.49964087592E+03 0.  0.
        4    1    3    3  502    0 -0.99751032298E+02  0.87566424443E+02  0.21347093212E+02  0.13444500148E+03  0.12699999809E+01 0. -1.
       -4    1    3    3    0  502  0.99751032298E+02 -0.87566424443E+02  0.93673337899E+03  0.94609153012E+03  0.12699999809E+01 0.  1.
</event>
<event>
 5   0  0.2005125E-03  0.5010742E+03  0.7818609E-02  0.1013499E+00
        3   -1    0    0  501    0  0.00000000000E+00  0.00000000000E+00  0.37292442557E+03  0.37292443925E+03  0.10100000352E+00 0. -1.
       -3   -1    0    0    0  501  0.00000000000E+00  0.00000000000E+00 -0.16831511165E+03  0.16831514195E+03  0.10100000352E+00 0.  1.
    10030    2    1    2    0    0  0.00000000000E+00  0.00000000000E+00  0.20460931392E+03  0.54123958120E+03  0.50107415910E+03 0.  0.
        1    1    3    3  502    0 -0.17161001175E+03  0.15959183392E+03  0.19800255870E+03  0.30679726671E+03  0.50400001928E-02 0. -1.
       -1    1    3    3    0  502  0.17161001175E+03 -0.15959183392E+03  0.66067552260E+01  0.23444231449E+03  0.50400001928E-02 0.  1.
</event>
<event>
 5   0  0.3057783E-03  0.4997923E+03  0.7818609E-02  0.1013833E+00
       -1   -1    0    0    0  501  0.00000000000E+00  0.00000000000E+00  0.36961804683E+03  0.36961804687E+03  0.50400001928E-02 0.  1.
        1   -1    0    0  501    0  0.00000000000E+00  0.00000000000E+00 -0.16895305155E+03  0.16895305163E+03  0.50400001928E-02 0. -1.
    10030    2    1    2    0    0  0.00000000000E+00  0.00000000000E+00  0.20066499528E+03  0.53857109849E+03  0.49979234468E+03 0.  0.
        5    1    3    3  502    0  0.88564643684E+02 -0.20812280216E+03 -0.14050543701E+02  0.22666782892E+03  0.46999998093E+01 0. -1.
       -5    1    3    3    0  502 -0.88564643684E+02  0.20812280216E+03  0.21471553898E+03  0.31190326957E+03  0.46999998093E+01 0.  1.
</event>
<event>
 5   0  0.3013734E-03  0.4999918E+03  0.7818609E-02  0.1013781E+00
       -1   -1    0    0    0  501  0.00000000000E+00  0.00000000000E+00  0.36715933774E+03  0.36715933777E+03  0.50400001928E-02 0.  1.
        1   -1    0    0  501    0  0.00000000000E+00  0.00000000000E+00 -0.17022025050E+03  0.17022025058E+03  0.50400001928E-02 0. -1.
    10030    2    1    2    0    0  0.00000000000E+00  0.00000000000E+00  0.19693908723E+03  0.53737958835E+03  0.49999181783E+03 0.  0.
        2    1    3    3  502    0  0.21104882481E+03  0.73516490630E+01  0.24227411755E+03  0.32139135215E+03  0.25500000920E-02 0.  1.
       -2    1    3    3    0  502 -0.21104882481E+03 -0.73516490630E+01 -0.45335030312E+02  0.21598823620E+03  0.25500000920E-02 0. -1.
</event>
<event>
 5   0  0.2005125E-03  0.4999621E+03  0.7818609E-02  0.1013789E+00
       -3   -1    0    0    0  501  0.00000000000E+00  0.00000000000E+00  0.24637978290E+03  0.24637980360E+03  0.10100000352E+00 0.  1.
        3   -1    0    0  501    0  0.00000000000E+00  0.00000000000E+00 -0.25363490626E+03  0.25363492637E+03  0.10100000352E+00 0. -1.
    10030    2    1    2    0    0  0.00000000000E+00  0.00000000000E+00 -0.72551233580E+01  0.50001472997E+03  0.49996209194E+03 0.  0.
        4    1    3    3  502    0 -0.19055961650E+03  0.99412712217E+01 -0.16512866207E+03  0.25235071676E+03  0.12699999809E+01 0. -1.
       -4    1    3    3    0  502  0.19055961650E+03 -0.99412712217E+01  0.15787353871E+03  0.24766401321E+03  0.12699999809E+01 0.  1.
</event>
<event>
 5   0  0.5095783E-03  0.4999850E+03  0.7818609E-02  0.1013783E+00
       -2   -1    0    0    0  501  0.00000000000E+00  0.00000000000E+00  0.17376314548E+03  0.17376314550E+03  0.25500000920E-02 0.  1.
        2   -1    0    0  501    0  0.00000000000E+00  0.00000000000E+00 -0.35966343234E+03  0.35966343235E+03  0.25500000920E-02 0. -1.
    10030    2    1    2    0    0  0.00000000000E+00  0.00000000000E+00 -0.18590028686E+03  0.53342657785E+03  0.49998499708E+03 0.  0.
        4    1    3    3  502    0 -0.16698422355E+03  0.18587654649E+03 -0.84630150731E+02  0.26381375393E+03  0.12699999809E+01 0.  1.
       -4    1    3    3    0  502  0.16698422355E+03 -0.18587654649E+03 -0.10127013613E+03  0.26961282392E+03  0.12699999809E+01 0. -1.
</event>
<event>
 5   0  0.5118882E-03  0.4968785E+03  0.7818609E-02  0.1014597E+00
       -2   -1    0    0    0  501  0.00000000000E+00  0.00000000000E+00  0.20632873984E+02  0.20632874142E+02  0.25500000920E-02 0. -1.
        2   -1    0    0  501    0  0.00000000000E+00  0.00000000000E+00 -0.29914421781E+04  0.29914421781E+04  0.25500000920E-02 0.  1.
    10030    2    1    2    0    0  0.00000000000E+00  0.00000000000E+00 -0.29708093041E+04  0.30120750523E+04  0.49687845488E+03 0.  0.
        3    1    3    3  502    0  0.17687232123E+03 -0.15765607105E+03 -0.10324642451E+04  0.10593024509E+04  0.10100000352E+00 0. -1.
       -3    1    3    3    0  502 -0.17687232123E+03  0.15765607105E+03 -0.19383450590E+04  0.19527726014E+04  0.10100000352E+00 0.  1.
</event>
<event>
 5   0  0.3057783E-03  0.5000022E+03  0.7818609E-02  0.1013778E+00
       -1   -1    0    0    0  501  0.00000000000E+00  0.00000000000E+00  0.24695582315E+03  0.24695582321E+03  0.50400001928E-02 0. -1.
        1   -1    0    0  501    0  0.00000000000E+00  0.00000000000E+00 -0.25308389639E+03  0.25308389644E+03  0.50400001928E-02 0.  1.
    10030    2    1    2    0    0  0.00000000000E+00  0.00000000000E+00 -0.61280732370E+01  0.50003971965E+03  0.50000216794E+03 0.  0.
        5    1    3    3  502    0 -0.14965163565E+03  0.65944783564E+02 -0.19211295395E+03  0.25233668700E+03  0.46999998093E+01 0.  1.
       -5    1    3    3    0  502  0.14965163565E+03 -0.65944783564E+02  0.18598488071E+03  0.24770303265E+03  0.46999998093E+01 0. -1.
</event>
<event>
 5   0  0.4989875E-03  0.4997103E+03  0.7818609E-02  0.1013855E+00
       -2   -1    0    0    0  501  0.00000000000E+00  0.00000000000E+00  0.15117498863E+03  0.15117498865E+03  0.25500000920E-02 0. -1.
        2   -1    0    0  501    0  0.00000000000E+00  0.00000000000E+00 -0.41294927378E+03  0.41294927379E+03  0.25500000920E-02 0.  1.
    10030    2    1    2    0    0  0.00000000000E+00  0.00000000000E+00 -0.26177428515E+03  0.56412426244E+03  0.49971032319E+03 0.  0.
        2    1    3    3  502    0 -0.48249814756E+02 -0.21928641724E+03 -0.25461931447E+03  0.33947838328E+03  0.25500000920E-02 0.  1.
       -2    1    3    3    0  502  0.48249814756E+02  0.21928641724E+03 -0.71549706751E+01  0.22464587915E+03  0.25500000920E-02 0. -1.
</event>
<event>
 5   0  0.2005125E-03  0.5000726E+03  0.7818609E-02  0.1013760E+00
       -3   -1    0    0    0  501  0.00000000000E+00  0.00000000000E+00  0.84261404747E+02  0.84261465279E+02  0.10100000352E+00 0. -1.
        3   -1    0    0  501    0  0.00000000000E+00  0.00000000000E+00 -0.74195449855E+03  0.74195450542E+03  0.10100000352E+00 0.  1.
    10030    2    1    2    0    0  0.00000000000E+00  0.00000000000E+00 -0.65769309380E+03  0.82621597070E+03  0.50007261933E+03 0.  0.
        1    1    3    3  502    0  0.21644251699E+03  0.76531036025E+02 -0.49252027208E+03  0.54339725899E+03  0.50400001928E-02 0.  1.
       -1    1    3    3    0  502 -0.21644251699E+03 -0.76531036025E+02 -0.16517282172E+03  0.28281871171E+03  0.50400001928E-02 0. -1.
</event>
<event>
 5   0  0.5095783E-03  0.4997786E+03  0.7818609E-02  0.1013837E+00
       -2   -1    0    0    0  501  0.00000000000E+00  0.00000000000E+00  0.69294851682E+02  0.69294851728E+02  0.25500000920E-02 0. -1.
        2   -1    0    0  501    0  0.00000000000E+00  0.00000000000E+00 -0.90114419903E+03  0.90114419903E+03  0.25500000920E-02 0.  1.
    10030    2    1    2    0    0  0.00000000000E+00  0.00000000000E+00 -0.83184934735E+03  0.97043905076E+03  0.49977856553E+03 0.  0.
        4    1    3    3  502    0 -0.37573271484E+02 -0.24055430209E+03 -0.52516219886E+03  0.57885669297E+03  0.12699999809E+01 0.  1.
       -4    1    3    3    0  502  0.37573271484E+02  0.24055430209E+03 -0.30668714848E+03  0.39158235779E+03  0.12699999809E+01 0. -1.
</event>
<event>
 5   0  0.2863538E-03  0.5000117E+03  0.7818609E-02  0.1013776E+00
       -1   -1    0    0    0  501  0.00000000000E+00  0.00000000000E+00  0.12081044947E+03  0.12081044958E+03  0.50400001928E-02 0.  1.
        1   -1    0    0  501    0  0.00000000000E+00  0.00000000000E+00 -0.51736353253E+03  0.51736353255E+03  0.50400001928E-02 0. -1.
    10030    2    1    2    0    0  0.00000000000E+00  0.00000000000E+00 -0.39655308306E+03  0.63817398213E+03  0.50001168364E+03 0.  0.
        1    1    3    3  502    0 -0.13579659452E+03  0.20660597157E+03 -0.24562395970E+03  0.34850806616E+03  0.50400001928E-02 0.  1.
       -1    1    3    3    0  502  0.13579659452E+03 -0.20660597157E+03 -0.15092912336E+03  0.28966591597E+03  0.50400001928E-02 0. -1.
</event>
<event>
 5   0  0.4989875E-03  0.4999409E+03  0.7818609E-02  0.1013794E+00
       -2   -1    0    0    0  501  0.00000000000E+00  0.00000000000E+00  0.85696352460E+02  0.85696352498E+02  0.25500000920E-02 0.  1.
        2   -1    0    0  501    0  0.00000000000E+00  0.00000000000E+00 -0.72914689852E+03  0.72914689852E+03  0.25500000920E-02 0. -1.
    10030    2    1    2    0    0  0.00000000000E+00  0.00000000000E+00 -0.64345054606E+03  0.81484325102E+03  0.49994091502E+03 0.  0.
        2    1    3    3  502    0 -0.98800308968E+02  0.23028221687E+02  0.50634973789E+02  0.11338298207E+03  0.25500000920E-02 0.  1.
       -2    1    3    3    0  502  0.98800308968E+02 -0.23028221687E+02 -0.69408551985E+03  0.70146026895E+03  0.25500000920E-02 0. -1.
</event>
<event>
 5   0  0.3057783E-03  0.5000539E+03  0.7818609E-02  0.1013765E+00
        1   -1    0    0  501    0  0.00000000000E+00  0.00000000000E+00  0.10771918491E+04  0.10771918491E+04  0.50400001928E-02 0.  1.
       -1   -1    0    0    0  501  0.00000000000E+00  0.00000000000E+00 -0.58033732643E+02  0.58033732862E+02  0.50400001928E-02 0. -1.
    10030    2    1    2    0    0  0.00000000000E+00  0.00000000000E+00  0.10191581165E+04  0.11352255820E+04  0.50005385273E+03 0.  0.
        5    1    3    3  502    0 -0.85916358652E+02  0.12964454609E+03  0.95387911839E+03  0.96648682946E+03  0.46999998093E+01 0.  1.
       -5    1    3    3    0  502  0.85916358652E+02 -0.12964454609E+03  0.65278998068E+02  0.16873875252E+03  0.46999998093E+01 0. -1.
</event>
<event>
 5   0  0.2005125E-03  0.4997186E+03  0.7818609E-02  0.1013852E+00
        3   -1    0    0  501    0  0.00000000000E+00  0.00000000000E+00  0.16741541087E+03  0.16741544134E+03  0.10100000352E+00 0.  1.
       -3   -1    0    0    0  501  0.00000000000E+00  0.00000000000E+00 -0.37290267010E+03  0.37290268377E+03  0.10100000352E+00 0. -1.
    10030    2    1    2    0    0  0.00000000000E+00  0.00000000000E+00 -0.20548725923E+03  0.54031812511E+03  0.49971858342E+03 0.  0.
        2    1    3    3  502    0 -0.66729333709E+02  0.11757841792E+03 -0.32993932501E+03  0.35656338361E+03  0.25500000920E-02 0. -1.
       -2    1    3    3    0  502  0.66729333709E+02 -0.11757841792E+03  0.12445206578E+03  0.18375474150E+03  0.25500000920E-02 0.  1.
</event>
<event>
 5   0  0.2863538E-03  0.5001395E+03  0.7818609E-02  0.1013743E+00
        1   -1    0    0  501    0  0.00000000000E+00  0.00000000000E+00  0.93811425344E+03  0.93811425345E+03  0.50400001928E-02 0.  1.
       -1   -1    0    0    0  501  0.00000000000E+00  0.00000000000E+00 -0.66660200955E+02  0.66660201146E+02  0.50400001928E-02 0. -1.
    10030    2    1    2    0    0  0.00000000000E+00  0.00000000000E+00  0.87145405248E+03  0.10047744546E+04  0.50013951956E+03 0.  0.
        1    1    3    3  502    0  0.21143128536E+03  0.66036875797E+01  0.70366979595E+03  0.73477750298E+03  0.50400001928E-02 0.  1.
       -1    1    3    3    0  502 -0.21143128536E+03 -0.66036875797E+01  0.16778425653E+03  0.26999695162E+03  0.50400001928E-02 0. -1.
</event>
<event>
 5   0  0.4889251E-03  0.5003677E+03  0.7818609E-02  0.1013683E+00
        2   -1    0    0  501    0  0.00000000000E+00  0.00000000000E+00  0.46966794445E+03  0.46966794445E+03  0.25500000920E-02 0. -1.
       -2   -1    0    0    0  501  0.00000000000E+00  0.00000000000E+00 -0.13326855642E+03  0.13326855644E+03  0.25500000920E-02 0.  1.
    10030    2    1    2    0    0  0.00000000000E+00  0.00000000000E+00  0.33639938803E+03  0.60293650089E+03  0.50036774061E+03 0.  0.
        5    1    3    3  502    0 -0.25662147326E+02 -0.21121082089E+03  0.97023744341E+01  0.21303704545E+03  0.46999998093E+01 0.  1.
       -5    1    3    3    0  502  0.25662147326E+02  0.21121082089E+03  0.32669701360E+03  0.38989945545E+03  0.46999998093E+01 0. -1.
</event>
<event>
 5   0  0.3057783E-03  0.5001903E+03  0.7818609E-02  0.1013729E+00
        1   -1    0    0  501    0  0.00000000000E+00  0.00000000000E+00  0.67843307219E+03  0.67843307221E+03  0.50400001928E-02 0.  1.
       -1   -1    0    0    0  501  0.00000000000E+00  0.00000000000E+00 -0.92194169465E+02  0.92194169603E+02  0.50400001928E-02 0. -1.
    10030    2    1    2    0    0  0.00000000000E+00  0.00000000000E+00  0.58623890273E+03  0.77062724182E+03  0.50019025856E+03 0.  0.
        5    1    3    3  502    0 -0.13427800265E+03 -0.91683523040E+01 -0.31559127588E+02  0.13832103677E+03  0.46999998093E+01 0. -1.
       -5    1    3    3    0  502  0.13427800265E+03  0.91683523040E+01  0.61779803032E+03  0.63230620505E+03  0.46999998093E+01 0.  1.
</event>
<event>
 5   0  0.5118882E-03  0.4999818E+03  0.7818609E-02  0.1013784E+00
        2   -1    0    0  501    0  0.00000000000E+00  0.00000000000E+00  0.14159052758E+04  0.14159052758E+04  0.25500000920E-02 0. -1.
       -2   -1    0    0    0  501  0.00000000000E+00  0.00000000000E+00 -0.44138152051E+02  0.44138152125E+02  0.25500000920E-02 0.  1.
    10030    2    1    2    0    0  0.00000000000E+00  0.00000000000E+00  0.13717671237E+04  0.14600434279E+04  0.49998176930E+03 0.  0.
        3    1    3    3  502    0  0.10946476698E+03  0.21384008080E+03  0.88789081065E+03  0.91981531690E+03  0.10100000352E+00 0.  1.
       -3    1    3    3    0  502 -0.10946476698E+03 -0.21384008080E+03  0.48387631310E+03  0.54022811103E+03  0.10100000352E+00 0. -1.
</event>
<event>
 5   0  0.2863538E-03  0.5001677E+03  0.7818609E-02  0.1013735E+00
        1   -1    0    0  501    0  0.00000000000E+00  0.00000000000E+00  0.67772330342E+03  0.67772330343E+03  0.50400001928E-02 0. -1.
       -1   -1    0    0    0  501  0.00000000000E+00  0.00000000000E+00 -0.92282384235E+02  0.92282384372E+02  0.50400001928E-02 0.  1.
    10030    2    1    2    0    0  0.00000000000E+00  0.00000000000E+00  0.58544091918E+03  0.77000568781E+03  0.50016766129E+03 0.  0.
        1    1    3    3  502    0  0.17414136177E+03  0.93060380059E+01  0.16767914191E+02  0.17519411861E+03  0.50400001928E-02 0.  1.
       -1    1    3    3    0  502 -0.17414136177E+03 -0.93060380059E+01  0.56867300499E+03  0.59481156920E+03  0.50400001928E-02 0. -1.
</event>
<event>
 5   0  0.3055293E-03  0.5000282E+03  0.7818609E-02  0.1013772E+00
       -1   -1    0    0    0  501  0.00000000000E+00  0.00000000000E+00  0.46474827530E+02  0.46474827804E+02  0.50400001928E-02 0. -1.
        1   -1    0    0  501    0  0.00000000000E+00  0.00000000000E+00 -0.13449656404E+04  0.13449656404E+04  0.50400001928E-02 0.  1.
    10030    2    1    2    0    0  0.00000000000E+00  0.00000000000E+00 -0.12984908129E+04  0.13914404682E+04  0.50002818469E+03 0.  0.
        3    1    3    3  502    0  0.17258209030E+03 -0.14711735747E+03 -0.35634546939E+03  0.42238631431E+03  0.10100000352E+00 0. -1.
       -3    1    3    3    0  502 -0.17258209030E+03  0.14711735747E+03 -0.94214534352E+03  0.96905415394E+03  0.10100000352E+00 0.  1.
</event>
<event>
 5   0  0.5118882E-03  0.4998418E+03  0.7818609E-02  0.1013820E+00
        2   -1    0    0  501    0  0.00000000000E+00  0.00000000000E+00  0.34000191974E+03  0.34000191975E+03  0.25500000920E-02 0.  1.
       -2   -1    0    0    0  501  0.00000000000E+00  0.00000000000E+00 -0.18370621290E+03  0.18370621292E+03  0.25500000920E-02 0. -1.
    10030    2    1    2    0    0  0.00000000000E+00  0.00000000000E+00  0.15629570684E+03  0.52370813267E+03  0.49984183523E+03 0.  0.
        3    1    3    3  502    0  0.78105617950E+00  0.24481525952E+03  0.13080000066E+03  0.27756759846E+03  0.10100000352E+00 0. -1.
       -3    1    3    3    0  502 -0.78105617950E+00 -0.24481525952E+03  0.25495706179E+02  0.24614053420E+03  0.10100000352E+00 0.  1.
</event>
<event>
 5   0  0.4889251E-03  0.4999865E+03  0.7818609E-02  0.1013782E+00
       -2   -1    0    0    0  501  0.00000000000E+00  0.00000000000E+00  0.42715699432E+02  0.42715699508E+02  0.25500000920E-02 0.  1.
        2   -1    0    0  501    0  0.00000000000E+00  0.00000000000E+00 -0.14630833930E+04  0.14630833931E+04  0.25500000920E-02 0. -1.
    10030    2    1    2    0    0  0.00000000000E+00  0.00000000000E+00 -0.14203676936E+04  0.15057990926E+04  0.49998652190E+03 0.  0.
        5    1    3    3  502    0  0.15373024293E+03  0.13257039055E+03 -0.11493796882E+04  0.11671776445E+04  0.46999998093E+01 0. -1.
       -5    1    3    3    0  502 -0.15373024293E+03 -0.13257039055E+03 -0.27098800540E+03  0.33862144810E+03  0.46999998093E+01 0.  1.
</event>
<event>
 5   0  0.4889251E-03  0.5001445E+03  0.7818609E-02  0.1013741E+00
        2   -1    0    0  501    0  0.00000000000E+00  0.00000000000E+00  0.16011202756E+04  0.16011202756E+04  0.25500000920E-02 0. -1.
       -2   -1    0    0    0  501  0.00000000000E+00  0.00000000000E+00 -0.39057734359E+02  0.39057734443E+02  0.25500000920E-02 0.  1.
    10030    2    1    2    0    0  0.00000000000E+00  0.00000000000E+00  0.15620625413E+04  0.16401780101E+04  0.50014450101E+03 0.  0.
        5    1    3    3  502    0  0.71176665373E+02  0.94889784605E+02  0.59234691971E+02  0.13266886465E+03  0.46999998093E+01 0.  1.
       -5    1    3    3    0  502 -0.71176665373E+02 -0.94889784605E+02  0.15028278493E+04  0.15075091454E+04  0.46999998093E+01 0. -1.
</event>
<event>
 5   0  0.3211775E-03  0.4999969E+03  0.7818609E-02  0.1013780E+00
       -1   -1    0    0    0  501  0.00000000000E+00  0.00000000000E+00  0.21187841375E+03  0.21187841381E+03  0.50400001928E-02 0.  1.
        1   -1    0    0  501    0  0.00000000000E+00  0.00000000000E+00 -0.29497685785E+03  0.29497685789E+03  0.50400001928E-02 0. -1.
    10030    2    1    2    0    0  0.00000000000E+00  0.00000000000E+00 -0.83098444101E+02  0.50685527170E+03  0.49999691503E+03 0.  0.
        4    1    3    3  502    0 -0.11702032833E+03  0.16496326623E+03 -0.19050344311E+03  0.27784854001E+03  0.12699999809E+01 0. -1.
       -4    1    3    3    0  502  0.11702032833E+03 -0.16496326623E+03  0.10740499901E+03  0.22900673169E+03  0.12699999809E+01 0.  1.
</event>
<event>
 5   0  0.3057783E-03  0.4998636E+03  0.7818609E-02  0.1013815E+00
        1   -1    0    0  501    0  0.00000000000E+00  0.00000000000E+00  0.49893212415E+03  0.49893212418E+03  0.50400001928E-02 0.  1.
       -1   -1    0    0    0  501  0.00000000000E+00  0.00000000000E+00 -0.12519918416E+03  0.12519918426E+03  0.50400001928E-02 0. -1.
    10030    2    1    2    0    0  0.00000000000E+00  0.00000000000E+00  0.37373293999E+03  0.62413130844E+03  0.49986356112E+03 0.  0.
        5    1    3    3  502    0  0.59796972773E+02 -0.22178984356E+03  0.30969624680E+03  0.38561673711E+03  0.46999998093E+01 0.  1.
       -5    1    3    3    0  502 -0.59796972773E+02  0.22178984356E+03  0.64036693192E+02  0.23851457132E+03  0.46999998093E+01 0. -1.
</event>
<event>
 5   0  0.3013734E-03  0.5003915E+03  0.7818609E-02  0.1013677E+00
       -1   -1    0    0    0  501  0.00000000000E+00  0.00000000000E+00  0.68598044843E+02  0.68598045028E+02  0.50400001928E-02 0.  1.
        1   -1    0    0  501    0  0.00000000000E+00  0.00000000000E+00 -0.91253192146E+03  0.91253192148E+03  0.50400001928E-02 0. -1.
    10030    2    1    2    0    0  0.00000000000E+00  0.00000000000E+00 -0.84393387662E+03  0.98112996650E+03  0.50039146982E+03 0.  0.
        2    1    3    3  502    0  0.13789065450E+02 -0.19158159353E+03 -0.10761278737E+03  0.22016847484E+03  0.25500000920E-02 0.  1.
       -2    1    3    3    0  502 -0.13789065450E+02  0.19158159353E+03 -0.73632108925E+03  0.76096149166E+03  0.25500000920E-02 0. -1.
</event>
<event>
 5   0  0.2863538E-03  0.5000301E+03  0.7818609E-02  0.1013771E+00
        1   -1    0    0  501    0  0.00000000000E+00  0.00000000000E+00  0.39925748794E+03  0.39925748797E+03  0.50400001928E-02 0. -1.
       -1   -1    0    0    0  501  0.00000000000E+00  0.00000000000E+00 -0.15655941999E+03  0.15655942007E+03  0.50400001928E-02 0.  1.
    10030    2    1    2    0    0  0.00000000000E+00  0.00000000000E+00  0.24269806794E+03  0.55581690804E+03  0.50003008217E+03 0.  0.
        1    1    3    3  502    0 -0.10436732125E+02 -0.38579874631E+02  0.39568363895E+03  0.39769696285E+03  0.50400001928E-02 0. -1.
       -1    1    3    3    0  502  0.10436732125E+02  0.38579874631E+02 -0.15298557101E+03  0.15811994519E+03  0.50400001928E-02 0.  1.
</event>
<event>
 5   0  0.2005125E-03  0.5000387E+03  0.7818609E-02  0.1013769E+00
        3   -1    0    0  501    0  0.00000000000E+00  0.00000000000E+00  0.64745361235E+03  0.64745362023E+03  0.10100000352E+00 0. -1.
       -3   -1    0    0    0  501  0.00000000000E+00  0.00000000000E+00 -0.96546934345E+02  0.96546987174E+02  0.10100000352E+00 0.  1.
    10030    2    1    2    0    0  0.00000000000E+00  0.00000000000E+00  0.55090667800E+03  0.74400060740E+03  0.50003873444E+03 0.  0.
        4    1    3    3  502    0 -0.97739436847E+02  0.21651299434E+03  0.39144353837E+03  0.45788702849E+03  0.12699999809E+01 0. -1.
       -4    1    3    3    0  502  0.97739436847E+02 -0.21651299434E+03  0.15946313964E+03  0.28611357891E+03  0.12699999809E+01 0.  1.
</event>
<event>
 5   0  0.3211775E-03  0.5000690E+03  0.7818609E-02  0.1013761E+00
        1   -1    0    0  501    0  0.00000000000E+00  0.00000000000E+00  0.14994686080E+03  0.14994686088E+03  0.50400001928E-02 0.  1.
       -1   -1    0    0    0  501  0.00000000000E+00  0.00000000000E+00 -0.41692940522E+03  0.41692940525E+03  0.50400001928E-02 0. -1.
    10030    2    1    2    0    0  0.00000000000E+00  0.00000000000E+00 -0.26698254442E+03  0.56687626613E+03  0.50006901731E+03 0.  0.
        4    1    3    3  502    0  0.37712019475E+02  0.22413294151E+03 -0.15369308020E+02  0.22780605877E+03  0.12699999809E+01 0.  1.
       -4    1    3    3    0  502 -0.37712019475E+02 -0.22413294151E+03 -0.25161323640E+03  0.33907020736E+03  0.12699999809E+01 0. -1.
</event>
<event>
 5   0  0.4889251E-03  0.5007722E+03  0.7818609E-02  0.1013578E+00
        2   -1    0    0  501    0  0.00000000000E+00  0.00000000000E+00  0.13177713734E+04  0.13177713735E+04  0.25500000920E-02 0.  1.
       -2   -1    0    0    0  501  0.00000000000E+00  0.00000000000E+00 -0.47575175220E+02  0.47575175288E+02  0.25500000920E-02 0. -1.
    10030    2    1    2    0    0  0.00000000000E+00  0.00000000000E+00  0.12701961982E+04  0.13653465487E+04  0.50077221984E+03 0.  0.
        5    1    3    3  502    0 -0.18641092578E+03 -0.41968577708E+02  0.19410935092E+03  0.27241682194E+03  0.46999998093E+01 0. -1.
       -5    1    3    3    0  502  0.18641092578E+03  0.41968577708E+02  0.10760868473E+04  0.10929297268E+04  0.46999998093E+01 0.  1.
</event>
<event>
 5   0  0.2005125E-03  0.4999346E+03  0.7818609E-02  0.1013796E+00
       -3   -1    0    0    0  501  0.00000000000E+00  0.00000000000E+00  0.57987206832E+03  0.57987207711E+03  0.10100000352E+00 0. -1.
        3   -1    0    0  501    0  0.00000000000E+00  0.00000000000E+00 -0.10775414780E+03  0.10775419513E+03  0.10100000352E+00 0.  1.
    10030    2    1    2    0    0  0.00000000000E+00  0.00000000000E+00  0.47211792052E+03  0.68762627224E+03  0.49993455512E+03 0.  0.
        5    1    3    3  502    0  0.13148240341E+03 -0.14175283313E+03  0.45388189562E+03  0.49336837483E+03  0.46999998093E+01 0. -1.
       -5    1    3    3    0  502 -0.13148240341E+03  0.14175283313E+03  0.18236024898E+02  0.19425789742E+03  0.46999998093E+01 0.  1.
</event>
<event>
 5   0  0.4889251E-03  0.4998968E+03  0.7818609E-02  0.1013806E+00
       -2   -1    0    0    0  501  0.00000000000E+00  0.00000000000E+00  0.46896342312E+02  0.46896342381E+02  0.25500000920E-02 0. -1.
        2   -1    0    0  501    0  0.00000000000E+00  0.00000000000E+00 -0.13321766485E+04  0.13321766485E+04  0.25500000920E-02 0.  1.
    10030    2    1    2    0    0  0.00000000000E+00  0.00000000000E+00 -0.12852803062E+04  0.13790729909E+04  0.49989683807E+03 0.  0.
        5    1    3    3  502    0  0.46537326019E+02  0.19676004205E+03 -0.10478228722E+04  0.10671621706E+04  0.46999998093E+01 0.  1.
       -5    1    3    3    0  502 -0.46537326019E+02 -0.19676004205E+03 -0.23745743402E+03  0.31191082032E+03  0.46999998093E+01 0. -1.
</event>
<event>
 5   0  0.4889251E-03  0.5001394E+03  0.7818609E-02  0.1013743E+00
       -2   -1    0    0    0  501  0.00000000000E+00  0.00000000000E+00  0.33012820843E+03  0.33012820844E+03  0.25500000920E-02 0.  1.
        2   -1    0    0  501    0  0.00000000000E+00  0.00000000000E+00 -0.18942596640E+03  0.18942596642E+03  0.25500000920E-02 0. -1.
    10030    2    1    2    0    0  0.00000000000E+00  0.00000000000E+00  0.14070224203E+03  0.51955417486E+03  0.50013940027E+03 0.  0.
        5    1    3    3  502    0 -0.78373447342E+02  0.16194671565E+03  0.25071000431E+03  0.30862069312E+03  0.46999998093E+01 0.  1.
       -5    1    3    3    0  502  0.78373447342E+02 -0.16194671565E+03 -0.11000776229E+03  0.21093348174E+03  0.46999998093E+01 0. -1.
</event>
<event>
 5   0  0.2863538E-03  0.4998537E+03  0.7818609E-02  0.1013817E+00
       -1   -1    0    0    0  501  0.00000000000E+00  0.00000000000E+00  0.25785931940E+03  0.25785931945E+03  0.50400001928E-02 0. -1.
        1   -1    0    0  501    0  0.00000000000E+00  0.00000000000E+00 -0.24223843316E+03  0.24223843322E+03  0.50400001928E-02 0.  1.
    10030    2    1    2    0    0  0.00000000000E+00  0.00000000000E+00  0.15620886234E+02  0.50009775266E+03  0.49985372874E+03 0.  0.
        1    1    3    3  502    0  0.17334956346E+02 -0.10279920515E+03 -0.21944634812E+03  0.24295035917E+03  0.50400001928E-02 0.  1.
       -1    1    3    3    0  502 -0.17334956346E+02  0.10279920515E+03  0.23506723435E+03  0.25714739350E+03  0.50400001928E-02 0. -1.
</event>
<event>
 5   0  0.4978779E-03  0.4999377E+03  0.7818609E-02  0.1013795E+00
       -2   -1    0    0    0  501  0.00000000000E+00  0.00000000000E+00  0.61783539010E+02  0.61783539063E+02  0.25500000920E-02 0.  1.
        2   -1    0    0  501    0  0.00000000000E+00  0.00000000000E+00 -0.10113443695E+04  0.10113443695E+04  0.25500000920E-02 0. -1.
    10030    2    1    2    0    0  0.00000000000E+00  0.00000000000E+00 -0.94956083053E+03  0.10731279086E+04  0.49993773348E+03 0.  0.
        1    1    3    3  502    0  0.11849237606E+03  0.21546336005E+03 -0.37831738524E+03  0.45120831853E+03  0.50400001928E-02 0.  1.
       -1    1    3    3    0  502 -0.11849237606E+03 -0.21546336005E+03 -0.57124344529E+03  0.62191959008E+03  0.50400001928E-02 0. -1.
</event>
<event>
 5   0  0.4978779E-03  0.4998097E+03  0.7818609E-02  0.1013829E+00
       -2   -1    0    0    0  501  0.00000000000E+00  0.00000000000E+00  0.31072846116E+03  0.31072846117E+03  0.25500000920E-02 0. -1.
        2   -1    0    0  501    0  0.00000000000E+00  0.00000000000E+00 -0.20098717679E+03  0.20098717681E+03  0.25500000920E-02 0.  1.
    10030    2    1    2    0    0  0.00000000000E+00  0.00000000000E+00  0.10974128436E+03  0.51171563798E+03  0.49980970845E+03 0.  0.
        1    1    3    3  502    0  0.31156517254E+02 -0.58987411016E+02 -0.19170274899E+03  0.20297829249E+03  0.50400001928E-02 0.  1.
       -1    1    3    3    0  502 -0.31156517254E+02  0.58987411016E+02  0.30144403336E+03  0.30873734549E+03  0.50400001928E-02 0. -1.
</event>
<event>
 5   0  0.2863538E-03  0.5000167E+03  0.7818609E-02  0.1013775E+00
       -1   -1    0    0    0  501  0.00000000000E+00  0.00000000000E+00  0.93137620754E+03  0.93137620755E+03  0.50400001928E-02 0.  1.
        1   -1    0    0  501    0  0.00000000000E+00  0.00000000000E+00 -0.67109495401E+02  0.67109495590E+02  0.50400001928E-02 0. -1.
    10030    2    1    2    0    0  0.00000000000E+00  0.00000000000E+00  0.86426671214E+03  0.99848570314E+03  0.50001674939E+03 0.  0.
        1    1    3    3  502    0  0.82321434809E+02  0.30532955031E+02 -0.35309137113E+02  0.94635168733E+02  0.50400001928E-02 0. -1.
       -1    1    3    3    0  502 -0.82321434809E+02 -0.30532955031E+02  0.89957584925E+03  0.90385053441E+03  0.50400001928E-02 0.  1.
</event>
<event>
 5   0  0.5095783E-03  0.4990639E+03  0.7818609E-02  0.1014024E+00
       -2   -1    0    0    0  501  0.00000000000E+00  0.00000000000E+00  0.34892861773E+03  0.34892861774E+03  0.25500000920E-02 0. -1.
        2   -1    0    0  501    0  0.00000000000E+00  0.00000000000E+00 -0.17844969762E+03  0.17844969764E+03  0.25500000920E-02 0.  1.
    10030    2    1    2    0    0  0.00000000000E+00  0.00000000000E+00  0.17047892011E+03  0.52737831538E+03  0.49906394914E+03 0.  0.
        4    1    3    3  502    0 -0.19538331121E+03  0.15037226512E+03  0.12586727040E+03  0.27682239626E+03  0.12699999809E+01 0.  1.
       -4    1    3    3    0  502  0.19538331121E+03 -0.15037226512E+03  0.44611649718E+02  0.25055591912E+03  0.12699999809E+01 0. -1.
</event>
<event>
 5   0  0.3013734E-03  0.5002524E+03  0.7818609E-02  0.1013713E+00
        1   -1    0    0  501    0  0.00000000000E+00  0.00000000000E+00  0.71645543827E+03  0.71645543828E+03  0.50400001928E-02 0.  1.
       -1   -1    0    0    0  501  0.00000000000E+00  0.00000000000E+00 -0.87323125392E+02  0.87323125538E+02  0.50400001928E-02 0. -1.
    10030    2    1    2    0    0  0.00000000000E+00  0.00000000000E+00  0.62913231287E+03  0.80377856382E+03  0.50025244883E+03 0.  0.
        2    1    3    3  502    0  0.14086147037E+02  0.15326175288E+03 -0.22340343122E+01  0.15392392715E+03  0.25500000920E-02 0. -1.
       -2    1    3    3    0  502 -0.14086147037E+02 -0.15326175288E+03  0.63136634719E+03  0.64985463667E+03  0.25500000920E-02 0.  1.
</event>
<event>
 5   0  0.4989875E-03  0.5001515E+03  0.7818609E-02  0.1013739E+00
       -2   -1    0    0    0  501  0.00000000000E+00  0.00000000000E+00  0.15753021840E+03  0.15753021842E+03  0.25500000920E-02 0.  1.
        2   -1    0    0  501    0  0.00000000000E+00  0.00000000000E+00 -0.39698979890E+03  0.39698979890E+03  0.25500000920E-02 0. -1.
    10030    2    1    2    0    0  0.00000000000E+00  0.00000000000E+00 -0.23945958050E+03  0.55452001732E+03  0.50015153595E+03 0.  0.
        2    1    3    3  502    0  0.33524573955E+02 -0.16861993049E+03 -0.32107883952E+03  0.36420900485E+03  0.25500000920E-02 0. -1.
       -2    1    3    3    0  502 -0.33524573955E+02  0.16861993049E+03  0.81619259025E+02  0.19031101247E+03  0.25500000920E-02 0.  1.
</event>
<event>
 5   0  0.2863538E-03  0.4999010E+03  0.7818609E-02  0.1013805E+00
       -1   -1    0    0    0  501  0.00000000000E+00  0.00000000000E+00  0.33162207294E+03  0.33162207298E+03  0.50400001928E-02 0. -1.
        1   -1    0    0  501    0  0.00000000000E+00  0.00000000000E+00 -0.18839289017E+03  0.18839289024E+03  0.50400001928E-02 0.  1.
    10030    2    1    2    0    0  0.00000000000E+00  0.00000000000E+00  0.14322918277E+03  0.52001496322E+03  0.49990095336E+03 0.  0.
        1    1    3    3  502    0  0.67758960633E+02  0.22990990254E+03 -0.21278013299E+01  0.23969640714E+03  0.50400001928E-02 0.  1.
       -1    1    3    3    0  502 -0.67758960633E+02 -0.22990990254E+03  0.14535698410E+03  0.28031855608E+03  0.50400001928E-02 0. -1.
</event>
<event>
 5   0  0.4989875E-03  0.4997687E+03  0.7818609E-02  0.1013839E+00
       -2   -1    0    0    0  501  0.00000000000E+00  0.00000000000E+00  0.34550675838E+03  0.34550675839E+03  0.25500000920E-02 0. -1.
        2   -1    0    0  501    0  0.00000000000E+00  0.00000000000E+00 -0.18072639152E+03  0.18072639154E+03  0.25500000920E-02 0.  1.
    10030    2    1    2    0    0  0.00000000000E+00  0.00000000000E+00  0.16478036685E+03  0.52623314993E+03  0.49976870529E+03 0.  0.
        2    1    3    3  502    0 -0.49625779250E+02 -0.22705976309E+03  0.17902891031E+03  0.29337723960E+03  0.25500000920E-02 0. -1.
       -2    1    3    3    0  502  0.49625779250E+02  0.22705976309E+03 -0.14248543461E+02  0.23285591033E+03  0.25500000920E-02 0.  1.
</event>
<event>
 5   0  0.4889251E-03  0.5000939E+03  0.7818609E-02  0.1013754E+00
        2   -1    0    0  501    0  0.00000000000E+00  0.00000000000E+00  0.35783019369E+03  0.35783019370E+03  0.25500000920E-02 0. -1.
       -2   -1    0    0    0  501  0.00000000000E+00  0.00000000000E+00 -0.17472946183E+03  0.17472946185E+03  0.25500000920E-02 0.  1.
    10030    2    1    2    0    0  0.00000000000E+00  0.00000000000E+00  0.18310073186E+03  0.53255965555E+03  0.50009389990E+03 0.  0.
        5    1    3    3  502    0  0.79703162299E+02  0.13544579900E+03 -0.11550245529E+03  0.19509245430E+03  0.46999998093E+01 0.  1.
       -5    1    3    3    0  502 -0.79703162299E+02 -0.13544579900E+03  0.29860318715E+03  0.33746720125E+03  0.46999998093E+01 0. -1.
</event>
<event>
 5   0  0.4889251E-03  0.4999550E+03  0.7818609E-02  0.1013791E+00
       -2   -1    0    0    0  501  0.00000000000E+00  0.00000000000E+00  0.51486856212E+02  0.51486856275E+02  0.25500000920E-02 0.  1.
        2   -1    0    0  501    0  0.00000000000E+00  0.00000000000E+00 -0.12136837891E+04  0.12136837891E+04  0.25500000920E-02 0. -1.
    10030    2    1    2    0    0  0.00000000000E+00  0.00000000000E+00 -0.11621969329E+04  0.12651706454E+04  0.49995504909E+03 0.  0.
        5    1    3    3  502    0  0.33642642515E+02  0.13748940114E+03 -0.11023680587E+04  0.11114281756E+04  0.46999998093E+01 0. -1.
       -5    1    3    3    0  502 -0.33642642515E+02 -0.13748940114E+03 -0.59828874258E+02  0.15374246978E+03  0.46999998093E+01 0.  1.
</event>
<event>
 5   0  0.2005125E-03  0.5001583E+03  0.7818609E-02  0.1013738E+00
        4   -1    0    0  501    0  0.00000000000E+00  0.00000000000E+00  0.22954690247E+03  0.22955041567E+03  0.12699999809E+01 0.  1.
       -4   -1    0    0    0  501  0.00000000000E+00  0.00000000000E+00 -0.27244089405E+03  0.27244385413E+03  0.12699999809E+01 0. -1.
    10030    2    1    2    0    0  0.00000000000E+00  0.00000000000E+00 -0.42893991581E+02  0.50199426979E+03  0.50015832732E+03 0.  0.
        2    1    3    3  502    0 -0.22207126434E+03 -0.11485475163E+03 -0.15740381953E+02  0.25050952087E+03  0.25500000920E-02 0. -1.
       -2    1    3    3    0  502  0.22207126434E+03  0.11485475163E+03 -0.27153609628E+02  0.25148474892E+03  0.25500000920E-02 0.  1.
</event>
<event>
 5   0  0.2863538E-03  0.5000479E+03  0.7818609E-02  0.1013766E+00
       -1   -1    0    0    0  501  0.00000000000E+00  0.00000000000E+00  0.10814283712E+03  0.10814283724E+03  0.50400001928E-02 0.  1.
        1   -1    0    0  501    0  0.00000000000E+00  0.00000000000E+00 -0.57804998659E+03  0.57804998661E+03  0.50400001928E-02 0. -1.
    10030    2    1    2    0    0  0.00000000000E+00  0.00000000000E+00 -0.46990714947E+03  0.68619282385E+03  0.50004786010E+03 0.  0.
        1    1    3    3  502    0 -0.33538050581E+02  0.10156986319E+03  0.75159888862E+02  0.13072967094E+03  0.50400001928E-02 0.  1.
       -1    1    3    3    0  502  0.33538050581E+02 -0.10156986319E+03 -0.54506703833E+03  0.55546315291E+03  0.50400001928E-02 0. -1.
</event>
<event>
 5   0  0.2005125E-03  0.4998302E+03  0.7818609E-02  0.1013823E+00
        3   -1    0    0  501    0  0.00000000000E+00  0.00000000000E+00  0.93225709668E+02  0.93225764380E+02  0.10100000352E+00 0.  1.
       -3   -1    0    0    0  501  0.00000000000E+00  0.00000000000E+00 -0.66996040601E+03  0.66996041362E+03  0.10100000352E+00 0. -1.
    10030    2    1    2    0    0  0.00000000000E+00  0.00000000000E+00 -0.57673469634E+03  0.76318617800E+03  0.49983020350E+03 0.  0.
        3    1    3    3  502    0  0.13535483802E+03  0.15225045613E+03 -0.50940511712E+03  0.54862985438E+03  0.10100000352E+00 0. -1.
       -3    1    3    3    0  502 -0.13535483802E+03 -0.15225045613E+03 -0.67329579213E+02  0.21455632362E+03  0.10100000352E+00 0.  1.
</event>
<event>
 5   0  0.2863538E-03  0.5006859E+03  0.7818609E-02  0.1013600E+00
       -1   -1    0    0    0  501  0.00000000000E+00  0.00000000000E+00  0.72294892646E+03  0.72294892648E+03  0.50400001928E-02 0. -1.
        1   -1    0    0  501    0  0.00000000000E+00  0.00000000000E+00 -0.86688813396E+02  0.86688813543E+02  0.50400001928E-02 0.  1.
    10030    2    1    2    0    0  0.00000000000E+00  0.00000000000E+00  0.63626011306E+03  0.80963774002E+03  0.50068586817E+03 0.  0.
        1    1    3    3  502    0 -0.23478892708E+03 -0.78588837765E+02  0.37797295214E+03  0.45184687481E+03  0.50400001928E-02 0. -1.
       -1    1    3    3    0  502  0.23478892708E+03  0.78588837765E+02  0.25828716092E+03  0.35779086520E+03  0.50400001928E-02 0.  1.
</event>
<event>
 5   0  0.3055293E-03  0.5001150E+03  0.7818609E-02  0.1013749E+00
        1   -1    0    0  501    0  0.00000000000E+00  0.00000000000E+00  0.95699021917E+03  0.95699021919E+03  0.50400001928E-02 0. -1.
       -1   -1    0    0    0  501  0.00000000000E+00  0.00000000000E+00 -0.65338955678E+02  0.65338955872E+02  0.50400001928E-02 0.  1.
    10030    2    1    2    0    0  0.00000000000E+00  0.00000000000E+00  0.89165126350E+03  0.10223291751E+04  0.50011495327E+03 0.  0.
        3    1    3    3  502    0 -0.21796718556E+03 -0.12353061439E+02  0.19658181337E+03  0.29378003958E+03  0.10100000352E+00 0.  1.
       -3    1    3    3    0  502  0.21796718556E+03  0.12353061439E+02  0.69506945013E+03  0.72854913548E+03  0.10100000352E+00 0. -1.
</event>
<event>
 5   0  0.4978779E-03  0.5001053E+03  0.7818609E-02  0.1013751E+00
       -2   -1    0    0    0  501  0.00000000000E+00  0.00000000000E+00  0.55230214522E+02  0.55230214581E+02  0.25500000920E-02 0.  1.
        2   -1    0    0  501    0  0.00000000000E+00  0.00000000000E+00 -0.11321035650E+04  0.11321035650E+04  0.25500000920E-02 0. -1.
    10030    2    1    2    0    0  0.00000000000E+00  0.00000000000E+00 -0.10768733505E+04  0.11873337796E+04  0.50010528009E+03 0.  0.
        1    1    3    3  502    0  0.23173224508E+03  0.26964362773E+02 -0.75210401492E+03  0.78745625882E+03  0.50400001928E-02 0. -1.
       -1    1    3    3    0  502 -0.23173224508E+03 -0.26964362773E+02 -0.32476933556E+03  0.39987752076E+03  0.50400001928E-02 0.  1.
</event>
<event>
 5   0  0.3055293E-03  0.5006166E+03  0.7818609E-02  0.1013618E+00
       -1   -1    0    0    0  501  0.00000000000E+00  0.00000000000E+00  0.14158068236E+03  0.14158068245E+03  0.50400001928E-02 0.  1.
        1   -1    0    0  501    0  0.00000000000E+00  0.00000000000E+00 -0.44253390354E+03  0.44253390357E+03  0.50400001928E-02 0. -1.
    10030    2    1    2    0    0  0.00000000000E+00  0.00000000000E+00 -0.30095322119E+03  0.58411458602E+03  0.50061662802E+03 0.  0.
        3    1    3    3  502    0 -0.24784240005E+02  0.14438841737E+03  0.86332852175E+02  0.17004600903E+03  0.10100000352E+00 0.  1.
       -3    1    3    3    0  502  0.24784240005E+02 -0.14438841737E+03 -0.38728607336E+03  0.41406857698E+03  0.10100000352E+00 0. -1.
</event>
<event>
 5   0  0.4978779E-03  0.5000832E+03  0.7818609E-02  0.1013757E+00
       -2   -1    0    0    0  501  0.00000000000E+00  0.00000000000E+00  0.27173602675E+03  0.27173602676E+03  0.25500000920E-02 0.  1.
        2   -1    0    0  501    0  0.00000000000E+00  0.00000000000E+00 -0.23007921598E+03  0.23007921600E+03  0.25500000920E-02 0. -1.
    10030    2    1    2    0    0  0.00000000000E+00  0.00000000000E+00  0.41656810765E+02  0.50181524276E+03  0.50008324105E+03 0.  0.
        1    1    3    3  502    0 -0.19608385908E+03 -0.12084829233E+03  0.11846711093E+03  0.25901282970E+03  0.50400001928E-02 0.  1.
       -1    1    3    3    0  502  0.19608385908E+03  0.12084829233E+03 -0.76810300168E+02  0.24280241306E+03  0.50400001928E-02 0. -1.
</event>
<event>
 5   0  0.5118882E-03  0.4996240E+03  0.7818609E-02  0.1013877E+00
        2   -1    0    0  501    0  0.00000000000E+00  0.00000000000E+00  0.55702824062E+03  0.55702824063E+03  0.25500000920E-02 0.  1.
       -2   -1    0    0    0  501  0.00000000000E+00  0.00000000000E+00 -0.11203389519E+03  0.11203389522E+03  0.25500000920E-02 0. -1.
    10030    2    1    2    0    0  0.00000000000E+00  0.00000000000E+00  0.44499434543E+03  0.66906213585E+03  0.49962403281E+03 0.  0.
        3    1    3    3  502    0  0.20639872792E+03  0.13228440878E+03  0.15818493599E+03  0.29175689173E+03  0.10100000352E+00 0. -1.
       -3    1    3    3    0  502 -0.20639872792E+03 -0.13228440878E+03  0.28680940944E+03  0.37730524412E+03  0.10100000352E+00 0.  1.
</event>
<event>
 5   0  0.4989875E-03  0.4997998E+03  0.7818609E-02  0.1013831E+00
        2   -1    0    0  501    0  0.00000000000E+00  0.00000000000E+00  0.88783964019E+02  0.88783964056E+02  0.25500000920E-02 0. -1.
       -2   -1    0    0    0  501  0.00000000000E+00  0.00000000000E+00 -0.70339237479E+03  0.70339237479E+03  0.25500000920E-02 0.  1.
    10030    2    1    2    0    0  0.00000000000E+00  0.00000000000E+00 -0.61460841077E+03  0.79217633885E+03  0.49979981317E+03 0.  0.
        2    1    3    3  502    0 -0.15658155625E+03  0.19098585690E+03 -0.24681285939E+03  0.34915608095E+03  0.25500000920E-02 0. -1.
       -2    1    3    3    0  502  0.15658155625E+03 -0.19098585690E+03 -0.36779555138E+03  0.44302025790E+03  0.25500000920E-02 0.  1.
</event>
<event>
 5   0  0.3013734E-03  0.4999543E+03  0.7818609E-02  0.1013791E+00
       -1   -1    0    0    0  501  0.00000000000E+00  0.00000000000E+00  0.64184890088E+02  0.64184890285E+02  0.50400001928E-02 0. -1.
        1   -1    0    0  501    0  0.00000000000E+00  0.00000000000E+00 -0.97357136281E+03  0.97357136282E+03  0.50400001928E-02 0.  1.
    10030    2    1    2    0    0  0.00000000000E+00  0.00000000000E+00 -0.90938647272E+03  0.10377562531E+04  0.49995428200E+03 0.  0.
        2    1    3    3  502    0  0.16204706328E+03  0.17376799344E+03 -0.29345505514E+03  0.37758500454E+03  0.25500000920E-02 0. -1.
       -2    1    3    3    0  502 -0.16204706328E+03 -0.17376799344E+03 -0.61593141758E+03  0.66017124856E+03  0.25500000920E-02 0.  1.
</event>
<event>
 5   0  0.4889251E-03  0.4998783E+03  0.7818609E-02  0.1013811E+00
       -2   -1    0    0    0  501  0.00000000000E+00  0.00000000000E+00  0.18151450935E+03  0.18151450937E+03  0.25500000920E-02 0. -1.
        2   -1    0    0  501    0  0.00000000000E+00  0.00000000000E+00 -0.34415743844E+03  0.34415743845E+03  0.25500000920E-02 0.  1.
    10030    2    1    2    0    0  0.00000000000E+00  0.00000000000E+00 -0.16264292909E+03  0.52567194781E+03  0.49987825952E+03 0.  0.
        5    1    3    3  502    0  0.11570398345E+03  0.17853018321E+02 -0.31348781238E+03  0.33466825449E+03  0.46999998093E+01 0.  1.
       -5    1    3    3    0  502 -0.11570398345E+03 -0.17853018321E+02  0.15084488330E+03  0.19100369333E+03  0.46999998093E+01 0. -1.
</event>
<event>
 5   0  0.3057783E-03  0.4999933E+03  0.7818609E-02  0.1013781E+00
        1   -1    0    0  501    0  0.00000000000E+00  0.00000000000E+00  0.16227725673E+03  0.16227725681E+03  0.50400001928E-02 0.  1.
       -1   -1    0    0    0  501  0.00000000000E+00  0.00000000000E+00 -0.38513306465E+03  0.38513306468E+03  0.50400001928E-02 0. -1.
    10030    2    1    2    0    0  0.00000000000E+00  0.00000000000E+00 -0.22285580792E+03  0.54741032150E+03  0.49999334891E+03 0.  0.
        5    1    3    3  502    0  0.56186198510E+01 -0.17571742932E+03 -0.30595169487E+03  0.35289759626E+03  0.46999998093E+01 0. -1.
       -5    1    3    3    0  502 -0.56186198510E+01  0.17571742932E+03  0.83095886948E+02  0.19451272524E+03  0.46999998093E+01 0.  1.
</event>
<event>
 5   0  0.4889251E-03  0.5002329E+03  0.7818609E-02  0.1013718E+00
       -2   -1    0    0    0  501  0.00000000000E+00  0.00000000000E+00  0.71511809507E+02  0.71511809553E+02  0.25500000920E-02 0.  1.
        2   -1    0    0  501    0  0.00000000000E+00  0.00000000000E+00 -0.87479578774E+03  0.87479578774E+03  0.25500000920E-02 0. -1.
    10030    2    1    2    0    0  0.00000000000E+00  0.00000000000E+00 -0.80328397823E+03  0.94630759729E+03  0.50023286479E+03 0.  0.
        5    1    3    3  502    0  0.20674239420E+03  0.99752272163E+02 -0.21395749179E+03  0.31383567619E+03  0.46999998093E+01 0.  1.
       -5    1    3    3    0  502 -0.20674239420E+03 -0.99752272163E+02 -0.58932648644E+03  0.63247192110E+03  0.46999998093E+01 0. -1.
</event>
<event>
 5   0  0.4978779E-03  0.4999449E+03  0.7818609E-02  0.1013793E+00
       -2   -1    0    0    0  501  0.00000000000E+00  0.00000000000E+00  0.40804299655E+02  0.40804299735E+02  0.25500000920E-02 0.  1.
        2   -1    0    0  501    0  0.00000000000E+00  0.00000000000E+00 -0.15313640209E+04  0.15313640209E+04  0.25500000920E-02 0. -1.
    10030    2    1    2    0    0  0.00000000000E+00  0.00000000000E+00 -0.14905597213E+04  0.15721683207E+04  0.49994494279E+03 0.  0.
        1    1    3    3  502    0 -0.24328109883E+03 -0.71422700045E+01 -0.56601827739E+03  0.61612774279E+03  0.50400001928E-02 0. -1.
       -1    1    3    3    0  502  0.24328109883E+03  0.71422700045E+01 -0.92454144390E+03  0.95604057789E+03  0.50400001928E-02 0.  1.
</event>
<event>
 5   0  0.5095783E-03  0.5004040E+03  0.7818609E-02  0.1013674E+00
        2   -1    0    0  501    0  0.00000000000E+00  0.00000000000E+00  0.13854787402E+04  0.13854787402E+04  0.25500000920E-02 0.  1.
       -2   -1    0    0    0  501  0.00000000000E+00  0.00000000000E+00 -0.45183690826E+02  0.45183690898E+02  0.25500000920E-02 0. -1.
    10030    2    1    2    0    0  0.00000000000E+00  0.00000000000E+00  0.13402950494E+04  0.14306624311E+04  0.50040400917E+03 0.  0.
        4    1    3    3  502    0 -0.21339978970E+02  0.19285863770E+03  0.21855366971E+03  0.29226215677E+03  0.12699999809E+01 0. -1.
       -4    1    3    3    0  502  0.21339978970E+02 -0.19285863770E+03  0.11217413797E+04  0.11384002744E+04  0.12699999809E+01 0.  1.
</event>
<event>
 5   0  0.2005125E-03  0.5000489E+03  0.7818609E-02  0.1013766E+00
        3   -1    0    0  501    0  0.00000000000E+00  0.00000000000E+00  0.15989605545E+03  0.15989608735E+03  0.10100000352E+00 0.  1.
       -3   -1    0    0    0  501  0.00000000000E+00  0.00000000000E+00 -0.39095526799E+03  0.39095528104E+03  0.10100000352E+00 0. -1.
    10030    2    1    2    0    0  0.00000000000E+00  0.00000000000E+00 -0.23105921254E+03  0.55085136839E+03  0.50004886796E+03 0.  0.
        5    1    3    3  502    0  0.42097222170E+02 -0.82642519882E+02  0.14019274170E+03  0.16816080706E+03  0.46999998093E+01 0.  1.
       -5    1    3    3    0  502 -0.42097222170E+02  0.82642519882E+02 -0.37125195424E+03  0.38269056133E+03  0.46999998093E+01 0. -1.
</event>
<event>
 5   0  0.3013734E-03  0.5002346E+03  0.7818609E-02  0.1013718E+00
       -1   -1    0    0    0  501  0.00000000000E+00  0.00000000000E+00  0.73030349055E+03  0.73030349056E+03  0.50400001928E-02 0.  1.
        1   -1    0    0  501    0  0.00000000000E+00  0.00000000000E+00 -0.85661184739E+02  0.85661184888E+02  0.50400001928E-02 0. -1.
    10030    2    1    2    0    0  0.00000000000E+00  0.00000000000E+00  0.64464230581E+03  0.81596467545E+03  0.50023459411E+03 0.  0.
        2    1    3    3  502    0  0.11627303641E+03 -0.10940441965E+03  0.82641818551E+01  0.15986570221E+03  0.25500000920E-02 0. -1.
       -2    1    3    3    0  502 -0.11627303641E+03  0.10940441965E+03  0.63637812395E+03  0.65609897324E+03  0.25500000920E-02 0.  1.
</event>
<event>
 5   0  0.3013734E-03  0.5000833E+03  0.7818609E-02  0.1013757E+00
       -1   -1    0    0    0  501  0.00000000000E+00  0.00000000000E+00  0.69476816627E+02  0.69476816810E+02  0.50400001928E-02 0.  1.
        1   -1    0    0  501    0  0.00000000000E+00  0.00000000000E+00 -0.89988036224E+03  0.89988036226E+03  0.50400001928E-02 0. -1.
    10030    2    1    2    0    0  0.00000000000E+00  0.00000000000E+00 -0.83040354562E+03  0.96935717907E+03  0.50008328510E+03 0.  0.
        2    1    3    3  502    0 -0.16726171457E+03  0.83383015065E+02 -0.73718262843E+03  0.76050472453E+03  0.25500000920E-02 0.  1.
       -2    1    3    3    0  502  0.16726171457E+03 -0.83383015065E+02 -0.93220917187E+02  0.20885245454E+03  0.25500000920E-02 0. -1.
</event>
<event>
 5   0  0.4889251E-03  0.4997813E+03  0.7818609E-02  0.1013836E+00
        2   -1    0    0  501    0  0.00000000000E+00  0.00000000000E+00  0.23795699213E+03  0.23795699215E+03  0.25500000920E-02 0.  1.
       -2   -1    0    0    0  501  0.00000000000E+00  0.00000000000E+00 -0.26242282058E+03  0.26242282059E+03  0.25500000920E-02 0. -1.
    10030    2    1    2    0    0  0.00000000000E+00  0.00000000000E+00 -0.24465828447E+02  0.50037981274E+03  0.49978133242E+03 0.  0.
        5    1    3    3  502    0  0.12881797688E+03  0.18044902584E+03 -0.12755475447E+03  0.25582851186E+03  0.46999998093E+01 0. -1.
       -5    1    3    3    0  502 -0.12881797688E+03 -0.18044902584E+03  0.10308892602E+03  0.24455130088E+03  0.46999998093E+01 0.  1.
</event>
<event>
 5   0  0.5118882E-03  0.4998108E+03  0.7818609E-02  0.1013828E+00
       -2   -1    0    0    0  501  0.00000000000E+00  0.00000000000E+00  0.10597470880E+03  0.10597470883E+03  0.25500000920E-02 0.  1.
        2   -1    0    0  501    0  0.00000000000E+00  0.00000000000E+00 -0.58931721731E+03  0.58931721732E+03  0.25500000920E-02 0. -1.
    10030    2    1    2    0    0  0.00000000000E+00  0.00000000000E+00 -0.48334250851E+03  0.69529192615E+03  0.49981084625E+03 0.  0.
        3    1    3    3  502    0 -0.19847257776E+03  0.15068658220E+03 -0.21546441839E+03  0.32942789192E+03  0.10100000352E+00 0. -1.
       -3    1    3    3    0  502  0.19847257776E+03 -0.15068658220E+03 -0.26787809012E+03  0.36586403423E+03  0.10100000352E+00 0.  1.
</event>
<event>
 5   0  0.3013734E-03  0.4999532E+03  0.7818609E-02  0.1013791E+00
        1   -1    0    0  501    0  0.00000000000E+00  0.00000000000E+00  0.71899157632E+03  0.71899157634E+03  0.50400001928E-02 0. -1.
       -1   -1    0    0    0  501  0.00000000000E+00  0.00000000000E+00 -0.86911030621E+02  0.86911030767E+02  0.50400001928E-02 0.  1.
    10030    2    1    2    0    0  0.00000000000E+00  0.00000000000E+00  0.63208054570E+03  0.80590260711E+03  0.49995319370E+03 0.  0.
        2    1    3    3  502    0  0.45643821893E+02  0.16611055819E+03  0.24048213827E+02  0.17393789873E+03  0.25500000920E-02 0.  1.
       -2    1    3    3    0  502 -0.45643821893E+02 -0.16611055819E+03  0.60803233187E+03  0.63196470837E+03  0.25500000920E-02 0. -1.
</event>
<event>
 5   0  0.5095783E-03  0.5011793E+03  0.7818609E-02  0.1013472E+00
        2   -1    0    0  501    0  0.00000000000E+00  0.00000000000E+00  0.21712119251E+03  0.21712119253E+03  0.25500000920E-02 0.  1.
       -2   -1    0    0    0  501  0.00000000000E+00  0.00000000000E+00 -0.28921715106E+03  0.28921715107E+03  0.25500000920E-02 0. -1.
    10030    2    1    2    0    0  0.00000000000E+00  0.00000000000E+00 -0.72095958542E+02  0.50633834360E+03  0.50117930021E+03 0.  0.
        4    1    3    3  502    0  0.36178303537E+02 -0.20277883453E+03  0.10812853811E+03  0.23264032118E+03  0.12699999809E+01 0.  1.
       -4    1    3    3    0  502 -0.36178303537E+02  0.20277883453E+03 -0.18022449666E+03  0.27369802242E+03  0.12699999809E+01 0. -1.
</event>
<event>
 5   0  0.3013734E-03  0.5000411E+03  0.7818609E-02  0.1013768E+00
        1   -1    0    0  501    0  0.00000000000E+00  0.00000000000E+00  0.22917720039E+03  0.22917720045E+03  0.50400001928E-02 0. -1.
       -1   -1    0    0    0  501  0.00000000000E+00  0.00000000000E+00 -0.27275952876E+03  0.27275952881E+03  0.50400001928E-02 0.  1.
    10030    2    1    2    0    0  0.00000000000E+00  0.00000000000E+00 -0.43582328370E+02  0.50193672926E+03  0.50004105915E+03 0.  0.
        2    1    3    3  502    0  0.13738967541E+02  0.24862147145E+03  0.85249941583E+00  0.24900225312E+03  0.25500000920E-02 0. -1.
       -2    1    3    3    0  502 -0.13738967541E+02 -0.24862147145E+03 -0.44434827786E+02  0.25293447614E+03  0.25500000920E-02 0.  1.
</event>
<event>
 5   0  0.2005125E-03  0.4999720E+03  0.7818609E-02  0.1013786E+00
        3   -1    0    0  501    0  0.00000000000E+00  0.00000000000E+00  0.12452433148E+04  0.12452433189E+04  0.10100000352E+00 0.  1.
       -3   -1    0    0    0  501  0.00000000000E+00  0.00000000000E+00 -0.50185324262E+02  0.50185425895E+02  0.10100000352E+00 0. -1.
    10030    2    1    2    0    0  0.00000000000E+00  0.00000000000E+00  0.11950579905E+04  0.12954287448E+04  0.49997203129E+03 0.  0.
        1    1    3    3  502    0 -0.20370623202E+03 -0.11650565394E+03  0.82076474245E+03  0.85365365274E+03  0.50400001928E-02 0.  1.
       -1    1    3    3    0  502  0.20370623202E+03  0.11650565394E+03  0.37429324806E+03  0.44177509202E+03  0.50400001928E-02 0. -1.
</event>
<event>
 5   0  0.3055293E-03  0.5000169E+03  0.7818609E-02  0.1013775E+00
       -1   -1    0    0    0  501  0.00000000000E+00  0.00000000000E+00  0.30540553629E+02  0.30540554045E+02  0.50400001928E-02 0.  1.
        1   -1    0    0  501    0  0.00000000000E+00  0.00000000000E+00 -0.20465972444E+04  0.20465972444E+04  0.50400001928E-02 0. -1.
    10030    2    1    2    0    0  0.00000000000E+00  0.00000000000E+00 -0.20160566908E+04  0.20771377985E+04  0.50001685307E+03 0.  0.
        3    1    3    3  502    0 -0.81504856185E+02  0.18800498069E+03 -0.41302489555E+03  0.46106234816E+03  0.10100000352E+00 0.  1.
       -3    1    3    3    0  502  0.81504856185E+02 -0.18800498069E+03 -0.16030317952E+04  0.16160754503E+04  0.10100000352E+00 0. -1.
</event>
<event>
 5   0  0.5118882E-03  0.4999921E+03  0.7818609E-02  0.1013781E+00
        2   -1    0    0  501    0  0.00000000000E+00  0.00000000000E+00  0.63149180245E+03  0.63149180246E+03  0.25500000920E-02 0.  1.
       -2   -1    0    0    0  501  0.00000000000E+00  0.00000000000E+00 -0.98968860920E+02  0.98968860953E+02  0.25500000920E-02 0. -1.
    10030    2    1    2    0    0  0.00000000000E+00  0.00000000000E+00  0.53252294153E+03  0.73046066341E+03  0.49999209747E+03 0.  0.
        3    1    3    3  502    0 -0.24024418669E+03  0.26190684704E+02  0.35974813592E+03  0.43338430141E+03  0.10100000352E+00 0.  1.
       -3    1    3    3    0  502  0.24024418669E+03 -0.26190684704E+02  0.17277480561E+03  0.29707636200E+03  0.10100000352E+00 0. -1.
</event>
<event>
 5   0  0.3013734E-03  0.5001016E+03  0.7818609E-02  0.1013752E+00
        1   -1    0    0  501    0  0.00000000000E+00  0.00000000000E+00  0.29682722201E+03  0.29682722206E+03  0.50400001928E-02 0. -1.
       -1   -1    0    0    0  501  0.00000000000E+00  0.00000000000E+00 -0.21064581088E+03  0.21064581094E+03  0.50400001928E-02 0.  1.
    10030    2    1    2    0    0  0.00000000000E+00  0.00000000000E+00  0.86181411132E+02  0.50747303300E+03  0.50010163327E+03 0.  0.
        2    1    3    3  502    0 -0.23190629929E+03  0.93505339297E+02  0.44386541766E+02  0.25395658138E+03  0.25500000920E-02 0.  1.
       -2    1    3    3    0  502  0.23190629929E+03 -0.93505339297E+02  0.41794869367E+02  0.25351645162E+03  0.25500000920E-02 0. -1.
</event>
<event>
 5   0  0.4978779E-03  0.4999249E+03  0.7818609E-02  0.1013799E+00
        2   -1    0    0  501    0  0.00000000000E+00  0.00000000000E+00  0.15216297525E+03  0.15216297527E+03  0.25500000920E-02 0. -1.
       -2   -1    0    0    0  501  0.00000000000E+00  0.00000000000E+00 -0.41062049908E+03  0.41062049908E+03  0.25500000920E-02 0.  1.
    10030    2    1    2    0    0  0.00000000000E+00  0.00000000000E+00 -0.25845752383E+03  0.56278347435E+03  0.49992494175E+03 0.  0.
        1    1    3    3  502    0 -0.12694489490E+03  0.11496849702E+03 -0.33418838296E+03  0.37551915661E+03  0.50400001928E-02 0.  1.
       -1    1    3    3    0  502  0.12694489490E+03 -0.11496849702E+03  0.75730859130E+02  0.18726431774E+03  0.50400001928E-02 0. -1.
</event>
<event>
 5   0  0.2005125E-03  0.5001736E+03  0.7818609E-02  0.1013734E+00
       -3   -1    0    0    0  501  0.00000000000E+00  0.00000000000E+00  0.28998117350E+03  0.28998119109E+03  0.10100000352E+00 0. -1.
        3   -1    0    0  501    0  0.00000000000E+00  0.00000000000E+00 -0.21568088014E+03  0.21568090379E+03  0.10100000352E+00 0.  1.
    10030    2    1    2    0    0  0.00000000000E+00  0.00000000000E+00  0.74300293356E+02  0.50566209488E+03  0.50017359047E+03 0.  0.
        3    1    3    3  502    0  0.11382714268E+03 -0.22172990732E+03  0.57933570781E+02  0.25588489412E+03  0.10100000352E+00 0. -1.
       -3    1    3    3    0  502 -0.11382714268E+03  0.22172990732E+03  0.16366722574E+02  0.24977720076E+03  0.10100000352E+00 0.  1.
</event>
<event>
 5   0  0.5118882E-03  0.5001300E+03  0.7818609E-02  0.1013745E+00
       -2   -1    0    0    0  501  0.00000000000E+00  0.00000000000E+00  0.13601105122E+03  0.13601105124E+03  0.25500000920E-02 0.  1.
        2   -1    0    0  501    0  0.00000000000E+00  0.00000000000E+00 -0.45976049500E+03  0.45976049500E+03  0.25500000920E-02 0. -1.
    10030    2    1    2    0    0  0.00000000000E+00  0.00000000000E+00 -0.32374944378E+03  0.59577154624E+03  0.50013001606E+03 0.  0.
        3    1    3    3  502    0 -0.21948339359E+03 -0.47006912946E+02 -0.29318023974E+03  0.36923877518E+03  0.10100000352E+00 0. -1.
       -3    1    3    3    0  502  0.21948339359E+03  0.47006912946E+02 -0.30569204042E+02  0.22653277106E+03  0.10100000352E+00 0.  1.
</event>
<event>
 5   0  0.2863538E-03  0.4997799E+03  0.7818609E-02  0.1013836E+00
       -1   -1    0    0    0  501  0.00000000000E+00  0.00000000000E+00  0.49341936412E+02  0.49341936669E+02  0.50400001928E-02 0. -1.
        1   -1    0    0  501    0  0.00000000000E+00  0.00000000000E+00 -0.12655561199E+04  0.12655561199E+04  0.50400001928E-02 0.  1.
    10030    2    1    2    0    0  0.00000000000E+00  0.00000000000E+00 -0.12162141834E+04  0.13148980565E+04  0.49977991063E+03 0.  0.
        1    1    3    3  502    0 -0.18271506328E+03 -0.16310787283E+03 -0.47772168330E+03  0.53684912149E+03  0.50400001928E-02 0. -1.
       -1    1    3    3    0  502  0.18271506328E+03  0.16310787283E+03 -0.73849250015E+03  0.77804893505E+03  0.50400001928E-02 0.  1.
</event>
<event>
 5   0  0.2863538E-03  0.4996560E+03  0.7818609E-02  0.1013869E+00
        1   -1    0    0  501    0  0.00000000000E+00  0.00000000000E+00  0.29306513119E+03  0.29306513124E+03  0.50400001928E-02 0. -1.
       -1   -1    0    0    0  501  0.00000000000E+00  0.00000000000E+00 -0.21296986468E+03  0.21296986474E+03  0.50400001928E-02 0.  1.
    10030    2    1    2    0    0  0.00000000000E+00  0.00000000000E+00  0.80095266512E+02  0.50603499598E+03  0.49965604713E+03 0.  0.
        1    1    3    3  502    0  0.13809268307E+03 -0.15080041942E+03 -0.10532473413E+03  0.23000794608E+03  0.50400001928E-02 0.  1.
       -1    1    3    3    0  502 -0.13809268307E+03  0.15080041942E+03  0.18542000064E+03  0.27602704990E+03  0.50400001928E-02 0. -1.
</event>
<event>
 5   0  0.4978779E-03  0.4998175E+03  0.7818609E-02  0.1013827E+00
        2   -1    0    0  501    0  0.00000000000E+00  0.00000000000E+00  0.11161982847E+04  0.11161982847E+04  0.25500000920E-02 0.  1.
       -2   -1    0    0    0  501  0.00000000000E+00  0.00000000000E+00 -0.55952765651E+02  0.55952765709E+02  0.25500000920E-02 0. -1.
    10030    2    1    2    0    0  0.00000000000E+00  0.00000000000E+00  0.10602455191E+04  0.11721510505E+04  0.49981749102E+03 0.  0.
        1    1    3    3  502    0  0.13400302120E+03 -0.21071736360E+03  0.50717325230E+03  0.56531701274E+03  0.50400001928E-02 0.  1.
       -1    1    3    3    0  502 -0.13400302120E+03  0.21071736360E+03  0.55307226679E+03  0.60683403772E+03  0.50400001928E-02 0. -1.
</event>
<event>
 5   0  0.2005125E-03  0.4990483E+03  0.7818609E-02  0.1014028E+00
        4   -1    0    0  501    0  0.00000000000E+00  0.00000000000E+00  0.11196607727E+04  0.11196614929E+04  0.12699999809E+01 0. -1.
       -4   -1    0    0    0  501  0.00000000000E+00  0.00000000000E+00 -0.55600204850E+02  0.55614707401E+02  0.12699999809E+01 0.  1.
    10030    2    1    2    0    0  0.00000000000E+00  0.00000000000E+00  0.10640605678E+04  0.11752762003E+04  0.49904834944E+03 0.  0.
        5    1    3    3  502    0  0.20309321949E+03  0.88247930962E+02  0.80266128807E+03  0.83265946610E+03  0.46999998093E+01 0.  1.
       -5    1    3    3    0  502 -0.20309321949E+03 -0.88247930962E+02  0.26139927975E+03  0.34261673423E+03  0.46999998093E+01 0. -1.
</event>
<event>
 5   0  0.2863538E-03  0.5000402E+03  0.7818609E-02  0.1013768E+00
       -1   -1    0    0    0  501  0.00000000000E+00  0.00000000000E+00  0.15620939485E+03  0.15620939494E+03  0.50400001928E-02 0. -1.
        1   -1    0    0  501    0  0.00000000000E+00  0.00000000000E+00 -0.40016827850E+03  0.40016827853E+03  0.50400001928E-02 0.  1.
    10030    2    1    2    0    0  0.00000000000E+00  0.00000000000E+00 -0.24395888365E+03  0.55637767347E+03  0.50004017701E+03 0.  0.
        1    1    3    3  502    0  0.42370706318E+02 -0.22505987487E+03 -0.23359498035E+03  0.32712969737E+03  0.50400001928E-02 0. -1.
       -1    1    3    3    0  502 -0.42370706318E+02  0.22505987487E+03 -0.10363903300E+02  0.22924797610E+03  0.50400001928E-02 0.  1.
</event>
<event>
 5   0  0.5118882E-03  0.5000860E+03  0.7818609E-02  0.1013756E+00
        2   -1    0    0  501    0  0.00000000000E+00  0.00000000000E+00  0.32568010686E+03  0.32568010687E+03  0.25500000920E-02 0. -1.
       -2   -1    0    0    0  501  0.00000000000E+00  0.00000000000E+00 -0.19197211916E+03  0.19197211918E+03  0.25500000920E-02 0.  1.
    10030    2    1    2    0    0  0.00000000000E+00  0.00000000000E+00  0.13370798770E+03  0.51765222604E+03  0.50008599376E+03 0.  0.
        3    1    3    3  502    0  0.91438140807E+02  0.15411757851E+03 -0.11365118589E+03  0.21220217684E+03  0.10100000352E+00 0.  1.
       -3    1    3    3    0  502 -0.91438140807E+02 -0.15411757851E+03  0.24735917359E+03  0.30545004920E+03  0.10100000352E+00 0. -1.
</event>
<event>
 5   0  0.3211775E-03  0.5000022E+03  0.7818609E-02  0.1013778E+00
       -1   -1    0    0    0  501  0.00000000000E+00  0.00000000000E+00  0.36882258761E+03  0.36882258765E+03  0.50400001928E-02 0.  1.
        1   -1    0    0  501    0  0.00000000000E+00  0.00000000000E+00 -0.16945966812E+03  0.16945966819E+03  0.50400001928E-02 0. -1.
    10030    2    1    2    0    0  0.00000000000E+00  0.00000000000E+00  0.19936291950E+03  0.53828225584E+03  0.50000221328E+03 0.  0.
        4    1    3    3  502    0 -0.23870161382E+03  0.72858062209E+02  0.83999758459E+02  0.26333311601E+03  0.12699999809E+01 0.  1.
       -4    1    3    3    0  502  0.23870161382E+03 -0.72858062209E+02  0.11536316104E+03  0.27494913983E+03  0.12699999809E+01 0. -1.
</event>
<event>
 5   0  0.3211775E-03  0.5000353E+03  0.7818609E-02  0.1013770E+00
        1   -1    0    0  501    0  0.00000000000E+00  0.00000000000E+00  0.83137904748E+03  0.83137904750E+03  0.50400001928E-02 0. -1.
       -1   -1    0    0    0  501  0.00000000000E+00  0.00000000000E+00 -0.75186907292E+02  0.75186907460E+02  0.50400001928E-02 0.  1.
    10030    2    1    2    0    0  0.00000000000E+00  0.00000000000E+00  0.75619214019E+03  0.90656595496E+03  0.50003527656E+03 0.  0.
        4    1    3    3  502    0 -0.16933932533E+03 -0.17108234823E+03  0.25563802306E+03  0.35113727902E+03  0.12699999809E+01 0. -1.
       -4    1    3    3    0  502  0.16933932533E+03  0.17108234823E+03  0.50055411713E+03  0.55542867594E+03  0.12699999809E+01 0.  1.
</event>
<event>
 5   0  0.3211775E-03  0.5001850E+03  0.7818609E-02  0.1013731E+00
       -1   -1    0    0    0  501  0.00000000000E+00  0.00000000000E+00  0.30856377071E+03  0.30856377076E+03  0.50400001928E-02 0.  1.
        1   -1    0    0  501    0  0.00000000000E+00  0.00000000000E+00 -0.20270121636E+03  0.20270121642E+03  0.50400001928E-02 0. -1.
    10030    2    1    2    0    0  0.00000000000E+00  0.00000000000E+00  0.10586255436E+03  0.51126498718E+03  0.50018497248E+03 0.  0.
        4    1    3    3  502    0  0.15034124813E+03  0.19967357095E+03  0.61641363206E+02  0.25743600445E+03  0.12699999809E+01 0.  1.
       -4    1    3    3    0  502 -0.15034124813E+03 -0.19967357095E+03  0.44221191151E+02  0.25382898273E+03  0.12699999809E+01 0. -1.
</event>
<event>
 5   0  0.4989875E-03  0.5003283E+03  0.7818609E-02  0.1013693E+00
       -2   -1    0    0    0  501  0.00000000000E+00  0.00000000000E+00  0.41137003796E+02  0.41137003875E+02  0.25500000920E-02 0.  1.
        2   -1    0    0  501    0  0.00000000000E+00  0.00000000000E+00 -0.15213091959E+04  0.15213091959E+04  0.25500000920E-02 0. -1.
    10030    2    1    2    0    0  0.00000000000E+00  0.00000000000E+00 -0.14801721921E+04  0.15624461997E+04  0.50032830113E+03 0.  0.
        2    1    3    3  502    0  0.66396356458E+02  0.50552160823E+02 -0.36109472894E+01  0.83528654135E+02  0.25500000920E-02 0.  1.
       -2    1    3    3    0  502 -0.66396356458E+02 -0.50552160823E+02 -0.14765612448E+04  0.14789175456E+04  0.25500000920E-02 0. -1.
</event>
<event>
 5   0  0.5095783E-03  0.4987942E+03  0.7818609E-02  0.1014094E+00
        2   -1    0    0  501    0  0.00000000000E+00  0.00000000000E+00  0.36744354258E+03  0.36744354259E+03  0.25500000920E-02 0.  1.
       -2   -1    0    0    0  501  0.00000000000E+00  0.00000000000E+00 -0.16927474374E+03  0.16927474376E+03  0.25500000920E-02 0. -1.
    10030    2    1    2    0    0  0.00000000000E+00  0.00000000000E+00  0.19816879884E+03  0.53671828635E+03  0.49879419210E+03 0.  0.
        4    1    3    3  502    0  0.98640310302E+02 -0.14166263104E+03  0.29276734830E+03  0.33987136534E+03  0.12699999809E+01 0.  1.
       -4    1    3    3    0  502 -0.98640310302E+02  0.14166263104E+03 -0.94598549462E+02  0.19684692101E+03  0.12699999809E+01 0. -1.
</event>
<event>
 5   0  0.5118882E-03  0.5001779E+03  0.7818609E-02  0.1013732E+00
        2   -1    0    0  501    0  0.00000000000E+00  0.00000000000E+00  0.70054274204E+03  0.70054274205E+03  0.25500000920E-02 0.  1.
       -2   -1    0    0    0  501  0.00000000000E+00  0.00000000000E+00 -0.89280029021E+02  0.89280029057E+02  0.25500000920E-02 0. -1.
    10030    2    1    2    0    0  0.00000000000E+00  0.00000000000E+00  0.61126271302E+03  0.78982277110E+03  0.50017787379E+03 0.  0.
        3    1    3    3  502    0 -0.13509232753E+03 -0.34822292211E+02 -0.22126254914E+02  0.14125193928E+03  0.10100000352E+00 0. -1.
       -3    1    3    3    0  502  0.13509232753E+03  0.34822292211E+02  0.63338896794E+03  0.64857083183E+03  0.10100000352E+00 0.  1.
</event>
<event>
 5   0  0.3055293E-03  0.4998608E+03  0.7818609E-02  0.1013815E+00
       -1   -1    0    0    0  501  0.00000000000E+00  0.00000000000E+00  0.49570982112E+02  0.49570982369E+02  0.50400001928E-02 0.  1.
        1   -1    0    0  501    0  0.00000000000E+00  0.00000000000E+00 -0.12601161341E+04  0.12601161341E+04  0.50400001928E-02 0. -1.
    10030    2    1    2    0    0  0.00000000000E+00  0.00000000000E+00 -0.12105451520E+04  0.13096871165E+04  0.49986075869E+03 0.  0.
        3    1    3    3  502    0 -0.17868158110E+03 -0.17286371827E+03 -0.53815434089E+03  0.59280610434E+03  0.10100000352E+00 0.  1.
       -3    1    3    3    0  502  0.17868158110E+03  0.17286371827E+03 -0.67239081113E+03  0.71688101217E+03  0.10100000352E+00 0. -1.
</event>
<event>
 5   0  0.4889251E-03  0.4999916E+03  0.7818609E-02  0.1013781E+00
        2   -1    0    0  501    0  0.00000000000E+00  0.00000000000E+00  0.10885114449E+04  0.10885114449E+04  0.25500000920E-02 0. -1.
       -2   -1    0    0    0  501  0.00000000000E+00  0.00000000000E+00 -0.57415922995E+02  0.57415923052E+02  0.25500000920E-02 0.  1.
    10030    2    1    2    0    0  0.00000000000E+00  0.00000000000E+00  0.10310955219E+04  0.11459273680E+04  0.49999155727E+03 0.  0.
        5    1    3    3  502    0  0.13402372815E+03  0.10732580667E+03  0.99238640022E+02  0.19837234222E+03  0.46999998093E+01 0.  1.
       -5    1    3    3    0  502 -0.13402372815E+03 -0.10732580667E+03  0.93185688189E+03  0.94755502575E+03  0.46999998093E+01 0. -1.
</event>
<event>
 5   0  0.2005125E-03  0.5002736E+03  0.7818609E-02  0.1013708E+00
        3   -1    0    0  501    0  0.00000000000E+00  0.00000000000E+00  0.58398597825E+03  0.58398598699E+03  0.10100000352E+00 0. -1.
       -3   -1    0    0    0  501  0.00000000000E+00  0.00000000000E+00 -0.10714023129E+03  0.10714027890E+03  0.10100000352E+00 0.  1.
    10030    2    1    2    0    0  0.00000000000E+00  0.00000000000E+00  0.47684574696E+03  0.69112626589E+03  0.50027357416E+03 0.  0.
        4    1    3    3  502    0  0.18230921724E+03  0.68336921575E+02  0.21478568246E+02  0.19588141141E+03  0.12699999809E+01 0.  1.
       -4    1    3    3    0  502 -0.18230921724E+03 -0.68336921575E+02  0.45536717871E+03  0.49524485448E+03  0.12699999809E+01 0. -1.
</event>
<event>
 5   0  0.4989875E-03  0.5000816E+03  0.7818609E-02  0.1013758E+00
        2   -1    0    0  501    0  0.00000000000E+00  0.00000000000E+00  0.59889110746E+03  0.59889110746E+03  0.25500000920E-02 0. -1.
       -2   -1    0    0    0  501  0.00000000000E+00  0.00000000000E+00 -0.10439362260E+03  0.10439362263E+03  0.25500000920E-02 0.  1.
    10030    2    1    2    0    0  0.00000000000E+00  0.00000000000E+00  0.49449748485E+03  0.70328473010E+03  0.50008164240E+03 0.  0.
        2    1    3    3  502    0 -0.22440369321E+02 -0.23816829568E+03  0.34956134230E+03  0.42358097133E+03  0.25500000920E-02 0. -1.
       -2    1    3    3    0  502  0.22440369321E+02  0.23816829568E+03  0.14493614256E+03  0.27970375876E+03  0.25500000920E-02 0.  1.
</event>
<event>
 5   0  0.3055293E-03  0.5002644E+03  0.7818609E-02  0.1013710E+00
       -1   -1    0    0    0  501  0.00000000000E+00  0.00000000000E+00  0.10790753499E+03  0.10790753511E+03  0.50400001928E-02 0. -1.
        1   -1    0    0  501    0  0.00000000000E+00  0.00000000000E+00 -0.57981229508E+03  0.57981229510E+03  0.50400001928E-02 0.  1.
    10030    2    1    2    0    0  0.00000000000E+00  0.00000000000E+00 -0.47190476008E+03  0.68771983021E+03  0.50026439237E+03 0.  0.
        3    1    3    3  502    0  0.44106050726E+02 -0.16994393713E+03 -0.48086670315E+03  0.51191706543E+03  0.10100000352E+00 0.  1.
       -3    1    3    3    0  502 -0.44106050726E+02  0.16994393713E+03  0.89619430713E+01  0.17580276478E+03  0.10100000352E+00 0. -1.
</event>
<event>
 5   0  0.4889251E-03  0.4998511E+03  0.7818609E-02  0.1013818E+00
       -2   -1    0    0    0  501  0.00000000000E+00  0.00000000000E+00  0.45986561077E+02  0.45986561147E+02  0.25500000920E-02 0.  1.
        2   -1    0    0  501    0  0.00000000000E+00  0.00000000000E+00 -0.13582833592E+04  0.13582833592E+04  0.25500000920E-02 0. -1.
    10030    2    1    2    0    0  0.00000000000E+00  0.00000000000E+00 -0.13122967981E+04  0.14042699203E+04  0.49985110066E+03 0.  0.
        5    1    3    3  502    0  0.17201468214E+03 -0.92633865602E+02 -0.21847489341E+03  0.29312702533E+03  0.46999998093E+01 0.  1.
       -5    1    3    3    0  502 -0.17201468214E+03  0.92633865602E+02 -0.10938219047E+04  0.11111428950E+04  0.46999998093E+01 0. -1.
</event>
<event>
 5   0  0.3057783E-03  0.4998933E+03  0.7818609E-02  0.1013807E+00
       -1   -1    0    0    0  501  0.00000000000E+00  0.00000000000E+00  0.61865573802E+02  0.61865574008E+02  0.50400001928E-02 0. -1.
        1   -1    0    0  501    0  0.00000000000E+00  0.00000000000E+00 -0.10098238585E+04  0.10098238585E+04  0.50400001928E-02 0.  1.
    10030    2    1    2    0    0  0.00000000000E+00  0.00000000000E+00 -0.94795828468E+03  0.10716894325E+04  0.49989331886E+03 0.  0.
        5    1    3    3  502    0 -0.16474331478E+02 -0.15528165034E+03 -0.89226048914E+03  0.90583368508E+03  0.46999998093E+01 0.  1.
       -5    1    3    3    0  502  0.16474331478E+02  0.15528165034E+03 -0.55697795537E+02  0.16585574743E+03  0.46999998093E+01 0. -1.
</event>
<event>
 5   0  0.4889251E-03  0.5000796E+03  0.7818609E-02  0.1013758E+00
        2   -1    0    0  501    0  0.00000000000E+00  0.00000000000E+00  0.15943551357E+04  0.15943551357E+04  0.25500000920E-02 0.  1.
       -2   -1    0    0    0  501  0.00000000000E+00  0.00000000000E+00 -0.39213280407E+02  0.39213280490E+02  0.25500000920E-02 0. -1.
    10030    2    1    2    0    0  0.00000000000E+00  0.00000000000E+00  0.15551418553E+04  0.16335684162E+04  0.50007957396E+03 0.  0.
        5    1    3    3  502    0 -0.18066890750E+03 -0.17208625323E+03  0.82847907374E+03  0.86524828709E+03  0.46999998093E+01 0. -1.
       -5    1    3    3    0  502  0.18066890750E+03  0.17208625323E+03  0.72666278154E+03  0.76832012909E+03  0.46999998093E+01 0.  1.
</event>
<event>
 5   0  0.4978779E-03  0.5005577E+03  0.7818609E-02  0.1013633E+00
        2   -1    0    0  501    0  0.00000000000E+00  0.00000000000E+00  0.12078976828E+04  0.12078976828E+04  0.25500000920E-02 0. -1.
       -2   -1    0    0    0  501  0.00000000000E+00  0.00000000000E+00 -0.51858291036E+02  0.51858291099E+02  0.25500000920E-02 0.  1.
    10030    2    1    2    0    0  0.00000000000E+00  0.00000000000E+00  0.11560393917E+04  0.12597559739E+04  0.50055772740E+03 0.  0.
        1    1    3    3  502    0 -0.11012538909E+03  0.39148422156E+02  0.11349983925E+04  0.11410002416E+04  0.50400001928E-02 0. -1.
       -1    1    3    3    0  502  0.11012538909E+03 -0.39148422156E+02  0.21040999244E+02  0.11875573230E+03  0.50400001928E-02 0.  1.
</event>
<event>
 5   0  0.5095783E-03  0.4998103E+03  0.7818609E-02  0.1013828E+00
        2   -1    0    0  501    0  0.00000000000E+00  0.00000000000E+00  0.17550819978E+04  0.17550819978E+04  0.25500000920E-02 0.  1.
       -2   -1    0    0    0  501  0.00000000000E+00  0.00000000000E+00 -0.35583862226E+02  0.35583862317E+02  0.25500000920E-02 0. -1.
    10030    2    1    2    0    0  0.00000000000E+00  0.00000000000E+00  0.17194981355E+04  0.17906658601E+04  0.49981034838E+03 0.  0.
        4    1    3    3  502    0  0.22684694998E+03 -0.10368108344E+03  0.80405264062E+03  0.84185008616E+03  0.12699999809E+01 0.  1.
       -4    1    3    3    0  502 -0.22684694998E+03  0.10368108344E+03  0.91544549492E+03  0.94881577392E+03  0.12699999809E+01 0. -1.
</event>
<event>
 5   0  0.3055293E-03  0.5004994E+03  0.7818609E-02  0.1013649E+00
        1   -1    0    0  501    0  0.00000000000E+00  0.00000000000E+00  0.25912614165E+03  0.25912614170E+03  0.50400001928E-02 0.  1.
       -1   -1    0    0    0  501  0.00000000000E+00  0.00000000000E+00 -0.24167727938E+03  0.24167727944E+03  0.50400001928E-02 0. -1.
    10030    2    1    2    0    0  0.00000000000E+00  0.00000000000E+00  0.17448862265E+02  0.50080342113E+03  0.50049935447E+03 0.  0.
        3    1    3    3  502    0 -0.14696695619E+03 -0.41422462701E+01  0.21135288155E+03  0.25746163822E+03  0.10100000352E+00 0.  1.
       -3    1    3    3    0  502  0.14696695619E+03  0.41422462701E+01 -0.19390401928E+03  0.24334178291E+03  0.10100000352E+00 0. -1.
</event>
<event>
 5   0  0.3211775E-03  0.5000270E+03  0.7818609E-02  0.1013772E+00
       -1   -1    0    0    0  501  0.00000000000E+00  0.00000000000E+00  0.10328316225E+03  0.10328316238E+03  0.50400001928E-02 0. -1.
        1   -1    0    0  501    0  0.00000000000E+00  0.00000000000E+00 -0.60519786643E+03  0.60519786645E+03  0.50400001928E-02 0.  1.
    10030    2    1    2    0    0  0.00000000000E+00  0.00000000000E+00 -0.50191470417E+03  0.70848102882E+03  0.50002699721E+03 0.  0.
        4    1    3    3  502    0 -0.11132066427E+03 -0.22027779669E+03 -0.30746495382E+03  0.39427263250E+03  0.12699999809E+01 0.  1.
       -4    1    3    3    0  502  0.11132066427E+03  0.22027779669E+03 -0.19444975035E+03  0.31420839632E+03  0.12699999809E+01 0. -1.
</event>
<event>
 5   0  0.4978779E-03  0.4996110E+03  0.7818609E-02  0.1013880E+00
        2   -1    0    0  501    0  0.00000000000E+00  0.00000000000E+00  0.10883116015E+03  0.10883116018E+03  0.25500000920E-02 0. -1.
       -2   -1    0    0    0  501  0.00000000000E+00  0.00000000000E+00 -0.57339092167E+03  0.57339092168E+03  0.25500000920E-02 0.  1.
    10030    2    1    2    0    0  0.00000000000E+00  0.00000000000E+00 -0.46455976152E+03  0.68222208185E+03  0.49961104565E+03 0.  0.
        1    1    3    3  502    0  0.16870632079E+03 -0.17724007213E+03 -0.16363776899E+03  0.29436913103E+03  0.50400001928E-02 0. -1.
       -1    1    3    3    0  502 -0.16870632079E+03  0.17724007213E+03 -0.30092199254E+03  0.38785295082E+03  0.50400001928E-02 0.  1.
</event>
<event>
 5   0  0.3211775E-03  0.4999550E+03  0.7818609E-02  0.1013791E+00
       -1   -1    0    0    0  501  0.00000000000E+00  0.00000000000E+00  0.21999764077E+03  0.21999764083E+03  0.50400001928E-02 0.  1.
        1   -1    0    0  501    0  0.00000000000E+00  0.00000000000E+00 -0.28404283542E+03  0.28404283546E+03  0.50400001928E-02 0. -1.
    10030    2    1    2    0    0  0.00000000000E+00  0.00000000000E+00 -0.64045194648E+02  0.50404047629E+03  0.49995501276E+03 0.  0.
        4    1    3    3  502    0 -0.14543818100E+03 -0.13416137631E+03  0.12198565239E+03  0.23245139637E+03  0.12699999809E+01 0.  1.
       -4    1    3    3    0  502  0.14543818100E+03  0.13416137631E+03 -0.18603084703E+03  0.27158907992E+03  0.12699999809E+01 0. -1.
</event>
<event>
 5   0  0.5095783E-03  0.5002039E+03  0.7818609E-02  0.1013726E+00
        2   -1    0    0  501    0  0.00000000000E+00  0.00000000000E+00  0.50622495648E+03  0.50622495648E+03  0.25500000920E-02 0. -1.
       -2   -1    0    0    0  501  0.00000000000E+00  0.00000000000E+00 -0.12356363145E+03  0.12356363147E+03  0.25500000920E-02 0.  1.
    10030    2    1    2    0    0  0.00000000000E+00  0.00000000000E+00  0.38266132503E+03  0.62978858796E+03  0.50020393425E+03 0.  0.
        4    1    3    3  502    0  0.53486838630E+02  0.13276081096E+03  0.44955570284E+03  0.47179255790E+03  0.12699999809E+01 0. -1.
       -4    1    3    3    0  502 -0.53486838630E+02 -0.13276081096E+03 -0.66894377805E+02  0.15799603006E+03  0.12699999809E+01 0.  1.
</event>
<event>
 5   0  0.4889251E-03  0.5013006E+03  0.7818609E-02  0.1013440E+00
       -2   -1    0    0    0  501  0.00000000000E+00  0.00000000000E+00  0.17721530336E+03  0.17721530338E+03  0.25500000920E-02 0. -1.
        2   -1    0    0  501    0  0.00000000000E+00  0.00000000000E+00 -0.35451547186E+03  0.35451547186E+03  0.25500000920E-02 0.  1.
    10030    2    1    2    0    0  0.00000000000E+00  0.00000000000E+00 -0.17730016850E+03  0.53173077524E+03  0.50130057609E+03 0.  0.
        5    1    3    3  502    0 -0.24504679318E+03  0.16976104564E+02 -0.35962332112E+02  0.24829719754E+03  0.46999998093E+01 0. -1.
       -5    1    3    3    0  502  0.24504679318E+03 -0.16976104564E+02 -0.14133783639E+03  0.28343357770E+03  0.46999998093E+01 0.  1.
</event>
<event>
 5   0  0.4889251E-03  0.4998196E+03  0.7818609E-02  0.1013826E+00
       -2   -1    0    0    0  501  0.00000000000E+00  0.00000000000E+00  0.13552147179E+03  0.13552147181E+03  0.25500000920E-02 0. -1.
        2   -1    0    0  501    0  0.00000000000E+00  0.00000000000E+00 -0.46084885718E+03  0.46084885719E+03  0.25500000920E-02 0.  1.
    10030    2    1    2    0    0  0.00000000000E+00  0.00000000000E+00 -0.32532738540E+03  0.59637032900E+03  0.49981962909E+03 0.  0.
        5    1    3    3  502    0 -0.23636656503E+03 -0.61048278096E+02 -0.22621369269E+03  0.33285247495E+03  0.46999998093E+01 0.  1.
       -5    1    3    3    0  502  0.23636656503E+03  0.61048278096E+02 -0.99113692708E+02  0.26351785405E+03  0.46999998093E+01 0. -1.
</event>
<event>
 5   0  0.3013734E-03  0.5004666E+03  0.7818609E-02  0.1013657E+00
        1   -1    0    0  501    0  0.00000000000E+00  0.00000000000E+00  0.25952681683E+03  0.25952681688E+03  0.50400001928E-02 0. -1.
       -1   -1    0    0    0  501  0.00000000000E+00  0.00000000000E+00 -0.24127254640E+03  0.24127254645E+03  0.50400001928E-02 0.  1.
    10030    2    1    2    0    0  0.00000000000E+00  0.00000000000E+00  0.18254270430E+02  0.50079936333E+03  0.50046656624E+03 0.  0.
        2    1    3    3  502    0 -0.21039026547E+03 -0.12686518503E+03 -0.38421375010E+02  0.24866652578E+03  0.25500000920E-02 0.  1.
       -2    1    3    3    0  502  0.21039026547E+03  0.12686518503E+03  0.56675645440E+02  0.25213283755E+03  0.25500000920E-02 0. -1.
</event>
<event>
 5   0  0.3013734E-03  0.5000867E+03  0.7818609E-02  0.1013756E+00
       -1   -1    0    0    0  501  0.00000000000E+00  0.00000000000E+00  0.69222346864E+03  0.69222346866E+03  0.50400001928E-02 0. -1.
        1   -1    0    0  501    0  0.00000000000E+00  0.00000000000E+00 -0.90320069388E+02  0.90320069528E+02  0.50400001928E-02 0.  1.
    10030    2    1    2    0    0  0.00000000000E+00  0.00000000000E+00  0.60190339925E+03  0.78254353819E+03  0.50008667961E+03 0.  0.
        2    1    3    3  502    0  0.28649247125E+02  0.12740638772E+03  0.63462277366E+03  0.64791915533E+03  0.25500000920E-02 0. -1.
       -2    1    3    3    0  502 -0.28649247125E+02 -0.12740638772E+03 -0.32719374402E+02  0.13462438286E+03  0.25500000920E-02 0.  1.
</event>
<event>
 5   0  0.2005125E-03  0.5009594E+03  0.7818609E-02  0.1013529E+00
       -3   -1    0    0    0  501  0.00000000000E+00  0.00000000000E+00  0.62222727388E+03  0.62222728208E+03  0.10100000352E+00 0.  1.
        3   -1    0    0  501    0  0.00000000000E+00  0.00000000000E+00 -0.10083140492E+03  0.10083145550E+03  0.10100000352E+00 0. -1.
    10030    2    1    2    0    0  0.00000000000E+00  0.00000000000E+00  0.52139586896E+03  0.72305873758E+03  0.50095936543E+03 0.  0.
        4    1    3    3  502    0  0.17600415759E+03  0.12922564415E+03  0.83561263698E+02  0.23379655320E+03  0.12699999809E+01 0. -1.
       -4    1    3    3    0  502 -0.17600415759E+03 -0.12922564415E+03  0.43783460527E+03  0.48926218438E+03  0.12699999809E+01 0.  1.
</event>
<event>
 5   0  0.2863538E-03  0.4998771E+03  0.7818609E-02  0.1013811E+00
       -1   -1    0    0    0  501  0.00000000000E+00  0.00000000000E+00  0.61635126027E+02  0.61635126233E+02  0.50400001928E-02 0. -1.
        1   -1    0    0  501    0  0.00000000000E+00  0.00000000000E+00 -0.10135339237E+04  0.10135339238E+04  0.50400001928E-02 0.  1.
    10030    2    1    2    0    0  0.00000000000E+00  0.00000000000E+00 -0.95189879771E+03  0.10751690500E+04  0.49987714987E+03 0.  0.
        1    1    3    3  502    0 -0.58097683240E+02  0.24135079941E+03 -0.53842613224E+03  0.59289817766E+03  0.50400001928E-02 0.  1.
       -1    1    3    3    0  502  0.58097683240E+02 -0.24135079941E+03 -0.41347266547E+03  0.48227087232E+03  0.50400001928E-02 0. -1.
</event>
<event>
 5   0  0.4889251E-03  0.4983905E+03  0.7818609E-02  0.1014200E+00
        2   -1    0    0  501    0  0.00000000000E+00  0.00000000000E+00  0.23154085216E+03  0.23154085217E+03  0.25500000920E-02 0.  1.
       -2   -1    0    0    0  501  0.00000000000E+00  0.00000000000E+00 -0.26819576888E+03  0.26819576889E+03  0.25500000920E-02 0. -1.
    10030    2    1    2    0    0  0.00000000000E+00  0.00000000000E+00 -0.36654916726E+02  0.49973662107E+03  0.49839051708E+03 0.  0.
        5    1    3    3  502    0 -0.21620984073E+03 -0.37565073275E+02 -0.13662218645E+03  0.25854504789E+03  0.46999998093E+01 0. -1.
       -5    1    3    3    0  502  0.21620984073E+03  0.37565073275E+02  0.99967269729E+02  0.24119157318E+03  0.46999998093E+01 0.  1.
</event>
<event>
 5   0  0.4978779E-03  0.4996556E+03  0.7818609E-02  0.1013869E+00
        2   -1    0    0  501    0  0.00000000000E+00  0.00000000000E+00  0.86920040376E+03  0.86920040376E+03  0.25500000920E-02 0.  1.
       -2   -1    0    0    0  501  0.00000000000E+00  0.00000000000E+00 -0.71806134650E+02  0.71806134695E+02  0.25500000920E-02 0. -1.
    10030    2    1    2    0    0  0.00000000000E+00  0.00000000000E+00  0.79739426911E+03  0.94100653846E+03  0.49965556638E+03 0.  0.
        1    1    3    3  502    0  0.89468241602E+02  0.20838459289E+03  0.20130664700E+03  0.30323764766E+03  0.50400001928E-02 0. -1.
       -1    1    3    3    0  502 -0.89468241602E+02 -0.20838459289E+03  0.59608762211E+03  0.63776889080E+03  0.50400001928E-02 0.  1.
</event>
<event>
 5   0  0.4978779E-03  0.5000387E+03  0.7818609E-02  0.1013769E+00
       -2   -1    0    0    0  501  0.00000000000E+00  0.00000000000E+00  0.35800436346E+03  0.35800436347E+03  0.25500000920E-02 0. -1.
        2   -1    0    0  501    0  0.00000000000E+00  0.00000000000E+00 -0.17460588648E+03  0.17460588650E+03  0.25500000920E-02 0.  1.
    10030    2    1    2    0    0  0.00000000000E+00  0.00000000000E+00  0.18339847697E+03  0.53261024997E+03  0.50003867552E+03 0.  0.
        1    1    3    3  502    0  0.19314814321E+03  0.14849206456E+03  0.15151384008E+03  0.28690162465E+03  0.50400001928E-02 0. -1.
       -1    1    3    3    0  502 -0.19314814321E+03 -0.14849206456E+03  0.31884636895E+02  0.24570862532E+03  0.50400001928E-02 0.  1.
</event>
<event>
 5   0  0.4978779E-03  0.5010344E+03  0.7818609E-02  0.1013509E+00
        2   -1    0    0  501    0  0.00000000000E+00  0.00000000000E+00  0.48696309552E+03  0.48696309553E+03  0.25500000920E-02 0.  1.
       -2   -1    0    0    0  501  0.00000000000E+00  0.00000000000E+00 -0.12887810095E+03  0.12887810097E+03  0.25500000920E-02 0. -1.
    10030    2    1    2    0    0  0.00000000000E+00  0.00000000000E+00  0.35808499457E+03  0.61584119650E+03  0.50103444589E+03 0.  0.
        1    1    3    3  502    0  0.97070611498E+02  0.10330796744E+03  0.43292343991E+03  0.45554137529E+03  0.50400001928E-02 0.  1.
       -1    1    3    3    0  502 -0.97070611498E+02 -0.10330796744E+03 -0.74838445341E+02  0.16029982121E+03  0.50400001928E-02 0. -1.
</event>
<event>
 5   0  0.3013734E-03  0.4994324E+03  0.7818609E-02  0.1013927E+00
       -1   -1    0    0    0  501  0.00000000000E+00  0.00000000000E+00  0.25742489716E+03  0.25742489721E+03  0.50400001928E-02 0. -1.
        1   -1    0    0  501    0  0.00000000000E+00  0.00000000000E+00 -0.24223837043E+03  0.24223837048E+03  0.50400001928E-02 0.  1.
    10030    2    1    2    0    0  0.00000000000E+00  0.00000000000E+00  0.15186526735E+02  0.49966326769E+03  0.49943242834E+03 0.  0.
        2    1    3    3  502    0  0.13995820440E+03  0.13771861987E+02  0.21403840134E+03  0.25610622878E+03  0.25500000920E-02 0. -1.
       -2    1    3    3    0  502 -0.13995820440E+03 -0.13771861987E+02 -0.19885187461E+03  0.24355703891E+03  0.25500000920E-02 0.  1.
</event>
<event>
 5   0  0.3057783E-03  0.5001914E+03  0.7818609E-02  0.1013729E+00
        1   -1    0    0  501    0  0.00000000000E+00  0.00000000000E+00  0.20218416023E+03  0.20218416029E+03  0.50400001928E-02 0. -1.
       -1   -1    0    0    0  501  0.00000000000E+00  0.00000000000E+00 -0.30936078856E+03  0.30936078860E+03  0.50400001928E-02 0.  1.
    10030    2    1    2    0    0  0.00000000000E+00  0.00000000000E+00 -0.10717662833E+03  0.51154494889E+03  0.50019136845E+03 0.  0.
        5    1    3    3  502    0 -0.17330312069E+03 -0.16513975232E+03 -0.12748244975E+03  0.27125444592E+03  0.46999998093E+01 0.  1.
       -5    1    3    3    0  502  0.17330312069E+03  0.16513975232E+03  0.20305821419E+02  0.24029050297E+03  0.46999998093E+01 0. -1.
</event>
<event>
 5   0  0.4889251E-03  0.5001468E+03  0.7818609E-02  0.1013741E+00
        2   -1    0    0  501    0  0.00000000000E+00  0.00000000000E+00  0.16008922879E+04  0.16008922879E+04  0.25500000920E-02 0.  1.
       -2   -1    0    0    0  501  0.00000000000E+00  0.00000000000E+00 -0.39063658958E+02  0.39063659041E+02  0.25500000920E-02 0. -1.
    10030    2    1    2    0    0  0.00000000000E+00  0.00000000000E+00  0.15618286289E+04  0.16399559469E+04  0.50014682017E+03 0.  0.
        5    1    3    3  502    0  0.29676852650E+02 -0.72649596007E+02  0.15593173540E+04  0.15612979792E+04  0.46999998093E+01 0.  1.
       -5    1    3    3    0  502 -0.29676852650E+02  0.72649596007E+02  0.25112749059E+01  0.78657967702E+02  0.46999998093E+01 0. -1.
</event>
<event>
 5   0  0.3211775E-03  0.5000579E+03  0.7818609E-02  0.1013764E+00
       -1   -1    0    0    0  501  0.00000000000E+00  0.00000000000E+00  0.17621695948E+03  0.17621695955E+03  0.50400001928E-02 0. -1.
        1   -1    0    0  501    0  0.00000000000E+00  0.00000000000E+00 -0.35475855500E+03  0.35475855504E+03  0.50400001928E-02 0.  1.
    10030    2    1    2    0    0  0.00000000000E+00  0.00000000000E+00 -0.17854159552E+03  0.53097551459E+03  0.50005789241E+03 0.  0.
        4    1    3    3  502    0 -0.20650208591E+02 -0.17237201857E+03  0.10178249046E+03  0.20124570098E+03  0.12699999809E+01 0. -1.
       -4    1    3    3    0  502  0.20650208591E+02  0.17237201857E+03 -0.28032408598E+03  0.32972981361E+03  0.12699999809E+01 0.  1.
</event>
<event>
 5   0  0.4989875E-03  0.5001278E+03  0.7818609E-02  0.1013746E+00
       -2   -1    0    0    0  501  0.00000000000E+00  0.00000000000E+00  0.47130263905E+02  0.47130263974E+02  0.25500000920E-02 0. -1.
        2   -1    0    0  501    0  0.00000000000E+00  0.00000000000E+00 -0.13267898472E+04  0.13267898472E+04  0.25500000920E-02 0.  1.
    10030    2    1    2    0    0  0.00000000000E+00  0.00000000000E+00 -0.12796595833E+04  0.13739201111E+04  0.50012780644E+03 0.  0.
        2    1    3    3  502    0 -0.19319441557E+03  0.14419170499E+03 -0.82239826180E+03  0.85700305193E+03  0.25500000920E-02 0.  1.
       -2    1    3    3    0  502  0.19319441557E+03 -0.14419170499E+03 -0.45726132147E+03  0.51691705922E+03  0.25500000920E-02 0. -1.
</event>
<event>
 5   0  0.2863538E-03  0.5014094E+03  0.7818609E-02  0.1013412E+00
       -1   -1    0    0    0  501  0.00000000000E+00  0.00000000000E+00  0.10492245277E+03  0.10492245289E+03  0.50400001928E-02 0. -1.
        1   -1    0    0  501    0  0.00000000000E+00  0.00000000000E+00 -0.59904102284E+03  0.59904102286E+03  0.50400001928E-02 0.  1.
    10030    2    1    2    0    0  0.00000000000E+00  0.00000000000E+00 -0.49411857007E+03  0.70396347576E+03  0.50140942742E+03 0.  0.
        1    1    3    3  502    0 -0.17598889304E+02  0.14328109640E+03  0.40715600435E+02  0.14998984510E+03  0.50400001928E-02 0. -1.
       -1    1    3    3    0  502  0.17598889304E+02 -0.14328109640E+03 -0.53483417051E+03  0.55397363065E+03  0.50400001928E-02 0.  1.
</event>
<event>
 5   0  0.5118882E-03  0.4995343E+03  0.7818609E-02  0.1013901E+00
        2   -1    0    0  501    0  0.00000000000E+00  0.00000000000E+00  0.55489012665E+03  0.55489012665E+03  0.25500000920E-02 0.  1.
       -2   -1    0    0    0  501  0.00000000000E+00  0.00000000000E+00 -0.11242520501E+03  0.11242520504E+03  0.25500000920E-02 0. -1.
    10030    2    1    2    0    0  0.00000000000E+00  0.00000000000E+00  0.44246492163E+03  0.66731533170E+03  0.49953432819E+03 0.  0.
        3    1    3    3  502    0 -0.18029901960E+02 -0.24737217924E+03  0.26053428933E+03  0.35971683105E+03  0.10100000352E+00 0.  1.
       -3    1    3    3    0  502  0.18029901960E+02  0.24737217924E+03  0.18193063231E+03  0.30759850065E+03  0.10100000352E+00 0. -1.
</event>
<event>
 5   0  0.4889251E-03  0.4999859E+03  0.7818609E-02  0.1013783E+00
        2   -1    0    0  501    0  0.00000000000E+00  0.00000000000E+00  0.16326451943E+03  0.16326451945E+03  0.25500000920E-02 0. -1.
       -2   -1    0    0    0  501  0.00000000000E+00  0.00000000000E+00 -0.38279280481E+03  0.38279280482E+03  0.25500000920E-02 0.  1.
    10030    2    1    2    0    0  0.00000000000E+00  0.00000000000E+00 -0.21952828538E+03  0.54605732428E+03  0.49998593312E+03 0.  0.
        5    1    3    3  502    0 -0.19110870950E+03  0.98341085642E+02  0.29589863985E+02  0.21700497234E+03  0.46999998093E+01 0. -1.
       -5    1    3    3    0  502  0.19110870950E+03 -0.98341085642E+02 -0.24911814936E+03  0.32905235193E+03  0.46999998093E+01 0.  1.
</event>
<event>
 5   0  0.2863538E-03  0.5001567E+03  0.7818609E-02  0.1013738E+00
        1   -1    0    0  501    0  0.00000000000E+00  0.00000000000E+00  0.32394107523E+03  0.32394107527E+03  0.50400001928E-02 0. -1.
       -1   -1    0    0    0  501  0.00000000000E+00  0.00000000000E+00 -0.19305724631E+03  0.19305724638E+03  0.50400001928E-02 0.  1.
    10030    2    1    2    0    0  0.00000000000E+00  0.00000000000E+00  0.13088382892E+03  0.51699832165E+03  0.50015666338E+03 0.  0.
        1    1    3    3  502    0 -0.51000603513E+02  0.21119653621E+03 -0.62558888473E+02  0.22609434539E+03  0.50400001928E-02 0.  1.
       -1    1    3    3    0  502  0.51000603513E+02 -0.21119653621E+03  0.19344271739E+03  0.29090397626E+03  0.50400001928E-02 0. -1.
</event>
<event>
 5   0  0.3211775E-03  0.4999480E+03  0.7818609E-02  0.1013792E+00
       -1   -1    0    0    0  501  0.00000000000E+00  0.00000000000E+00  0.43366223904E+03  0.43366223906E+03  0.50400001928E-02 0. -1.
        1   -1    0    0  501    0  0.00000000000E+00  0.00000000000E+00 -0.14409142883E+03  0.14409142892E+03  0.50400001928E-02 0.  1.
    10030    2    1    2    0    0  0.00000000000E+00  0.00000000000E+00  0.28957081021E+03  0.57775366798E+03  0.49994804404E+03 0.  0.
        4    1    3    3  502    0 -0.18384850997E+03 -0.10016791721E+03  0.30261006637E+03  0.36797873774E+03  0.12699999809E+01 0. -1.
       -4    1    3    3    0  502  0.18384850997E+03  0.10016791721E+03 -0.13039256169E+02  0.20977493024E+03  0.12699999809E+01 0.  1.
</event>
<event>
 5   0  0.3057783E-03  0.4994421E+03  0.7818609E-02  0.1013925E+00
       -1   -1    0    0    0  501  0.00000000000E+00  0.00000000000E+00  0.71476593854E+02  0.71476594031E+02  0.50400001928E-02 0.  1.
        1   -1    0    0  501    0  0.00000000000E+00  0.00000000000E+00 -0.87246194222E+03  0.87246194224E+03  0.50400001928E-02 0. -1.
    10030    2    1    2    0    0  0.00000000000E+00  0.00000000000E+00 -0.80098534837E+03  0.94393853627E+03  0.49944212072E+03 0.  0.
        5    1    3    3  502    0  0.11999299658E+02  0.17352294813E+03 -0.61956580456E+02  0.18470220513E+03  0.46999998093E+01 0.  1.
       -5    1    3    3    0  502 -0.11999299658E+02 -0.17352294813E+03 -0.73902876792E+03  0.75923633114E+03  0.46999998093E+01 0. -1.
</event>
<event>
 5   0  0.3057783E-03  0.5001003E+03  0.7818609E-02  0.1013753E+00
        1   -1    0    0  501    0  0.00000000000E+00  0.00000000000E+00  0.13180992991E+04  0.13180992991E+04  0.50400001928E-02 0. -1.
       -1   -1    0    0    0  501  0.00000000000E+00  0.00000000000E+00 -0.47435781488E+02  0.47435781756E+02  0.50400001928E-02 0.  1.
    10030    2    1    2    0    0  0.00000000000E+00  0.00000000000E+00  0.12706635176E+04  0.13655350808E+04  0.50010027202E+03 0.  0.
        5    1    3    3  502    0 -0.31726489349E+02  0.30813720170E+02  0.13072119186E+04  0.13079683275E+04  0.46999998093E+01 0. -1.
       -5    1    3    3    0  502  0.31726489349E+02 -0.30813720170E+02 -0.36548401036E+02  0.57566753370E+02  0.46999998093E+01 0.  1.
</event>
<event>
 5   0  0.4889251E-03  0.5000564E+03  0.7818609E-02  0.1013764E+00
        2   -1    0    0  501    0  0.00000000000E+00  0.00000000000E+00  0.31672298784E+03  0.31672298785E+03  0.25500000920E-02 0.  1.
       -2   -1    0    0    0  501  0.00000000000E+00  0.00000000000E+00 -0.19737787265E+03  0.19737787266E+03  0.25500000920E-02 0. -1.
    10030    2    1    2    0    0  0.00000000000E+00  0.00000000000E+00  0.11934511519E+03  0.51410086052E+03  0.50005643508E+03 0.  0.
        5    1    3    3  502    0  0.69512597012E+02  0.14499730117E+03  0.25645310143E+03  0.30273173227E+03  0.46999998093E+01 0.  1.
       -5    1    3    3    0  502 -0.69512597012E+02 -0.14499730117E+03 -0.13710798623E+03  0.21136912825E+03  0.46999998093E+01 0. -1.
</event>
<event>
 5   0  0.4889251E-03  0.4997008E+03  0.7818609E-02  0.1013857E+00
       -2   -1    0    0    0  501  0.00000000000E+00  0.00000000000E+00  0.32398683549E+02  0.32398683649E+02  0.25500000920E-02 0. -1.
        2   -1    0    0  501    0  0.00000000000E+00  0.00000000000E+00 -0.19267830231E+04  0.19267830231E+04  0.25500000920E-02 0.  1.
    10030    2    1    2    0    0  0.00000000000E+00  0.00000000000E+00 -0.18943843395E+04  0.19591817067E+04  0.49970084463E+03 0.  0.
        5    1    3    3  502    0  0.16255251837E+03 -0.20454538006E+01 -0.16908426939E+04  0.16986461110E+04  0.46999998093E+01 0.  1.
       -5    1    3    3    0  502 -0.16255251837E+03  0.20454538006E+01 -0.20354164566E+03  0.26053559570E+03  0.46999998093E+01 0. -1.
</event>
<event>
 5   0  0.4889251E-03  0.5020129E+03  0.7818609E-02  0.1013255E+00
        2   -1    0    0  501    0  0.00000000000E+00  0.00000000000E+00  0.38785830239E+03  0.38785830240E+03  0.25500000920E-02 0.  1.
       -2   -1    0    0    0  501  0.00000000000E+00  0.00000000000E+00 -0.16244140393E+03  0.16244140395E+03  0.25500000920E-02 0. -1.
    10030    2    1    2    0    0  0.00000000000E+00  0.00000000000E+00  0.22541689846E+03  0.55029970635E+03  0.50201293678E+03 0.  0.
        5    1    3    3  502    0 -0.47553187640E+02  0.36253049588E+02 -0.15447010991E+03  0.16570665078E+03  0.46999998093E+01 0. -1.
       -5    1    3    3    0  502  0.47553187640E+02 -0.36253049588E+02  0.37988700838E+03  0.38459305557E+03  0.46999998093E+01 0.  1.
</event>
<event>
 5   0  0.4889251E-03  0.5000222E+03  0.7818609E-02  0.1013773E+00
       -2   -1    0    0    0  501  0.00000000000E+00  0.00000000000E+00  0.82790799407E+02  0.82790799447E+02  0.25500000920E-02 0. -1.
        2   -1    0    0  501    0  0.00000000000E+00  0.00000000000E+00 -0.75498169619E+03  0.75498169619E+03  0.25500000920E-02 0.  1.
    10030    2    1    2    0    0  0.00000000000E+00  0.00000000000E+00 -0.67219089678E+03  0.83777249564E+03  0.50002215224E+03 0.  0.
        5    1    3    3  502    0 -0.20317103061E+03 -0.27570624242E+02 -0.57566340234E+03  0.61110477808E+03  0.46999998093E+01 0.  1.
       -5    1    3    3    0  502  0.20317103061E+03  0.27570624242E+02 -0.96527494439E+02  0.22666771756E+03  0.46999998093E+01 0. -1.
</event>
<event>
 5   0  0.3013734E-03  0.5004032E+03  0.7818609E-02  0.1013674E+00
        1   -1    0    0  501    0  0.00000000000E+00  0.00000000000E+00  0.11514099343E+03  0.11514099354E+03  0.50400001928E-02 0. -1.
       -1   -1    0    0    0  501  0.00000000000E+00  0.00000000000E+00 -0.54368845278E+03  0.54368845280E+03  0.50400001928E-02 0.  1.
    10030    2    1    2    0    0  0.00000000000E+00  0.00000000000E+00 -0.42854745934E+03  0.65882944635E+03  0.50040315193E+03 0.  0.
        2    1    3    3  502    0 -0.12611771246E+03 -0.93396354677E+02 -0.47083214092E+03  0.49629775477E+03  0.25500000920E-02 0.  1.
       -2    1    3    3    0  502  0.12611771246E+03  0.93396354677E+02  0.42284681573E+02  0.16253169157E+03  0.25500000920E-02 0. -1.
</event>
<event>
 5   0  0.5118882E-03  0.4997388E+03  0.7818609E-02  0.1013847E+00
       -2   -1    0    0    0  501  0.00000000000E+00  0.00000000000E+00  0.23843541878E+03  0.23843541879E+03  0.25500000920E-02 0. -1.
        2   -1    0    0  501    0  0.00000000000E+00  0.00000000000E+00 -0.26185169050E+03  0.26185169052E+03  0.25500000920E-02 0.  1.
    10030    2    1    2    0    0  0.00000000000E+00  0.00000000000E+00 -0.23416271723E+02  0.50028710931E+03  0.49973880174E+03 0.  0.
        3    1    3    3  502    0  0.16509835477E+03 -0.41256347357E+02  0.17145477452E+03  0.24157049251E+03  0.10100000352E+00 0. -1.
       -3    1    3    3    0  502 -0.16509835477E+03  0.41256347357E+02 -0.19487104624E+03  0.25871661680E+03  0.10100000352E+00 0.  1.
</event>
<event>
 5   0  0.5095783E-03  0.4996442E+03  0.7818609E-02  0.1013872E+00
        2   -1    0    0  501    0  0.00000000000E+00  0.00000000000E+00  0.15215859041E+03  0.15215859043E+03  0.25500000920E-02 0.  1.
       -2   -1    0    0    0  501  0.00000000000E+00  0.00000000000E+00 -0.41017134646E+03  0.41017134647E+03  0.25500000920E-02 0. -1.
    10030    2    1    2    0    0  0.00000000000E+00  0.00000000000E+00 -0.25801275605E+03  0.56232993690E+03  0.49964424909E+03 0.  0.
        4    1    3    3  502    0 -0.20850225620E+03  0.12069437938E+03 -0.54613881210E+02  0.24703160319E+03  0.12699999809E+01 0.  1.
       -4    1    3    3    0  502  0.20850225620E+03 -0.12069437938E+03 -0.20339887484E+03  0.31529833371E+03  0.12699999809E+01 0. -1.
</event>
<event>
 5   0  0.5118882E-03  0.5002556E+03  0.7818609E-02  0.1013712E+00
       -2   -1    0    0    0  501  0.00000000000E+00  0.00000000000E+00  0.13341771828E+03  0.13341771830E+03  0.25500000920E-02 0.  1.
        2   -1    0    0  501    0  0.00000000000E+00  0.00000000000E+00 -0.46893253114E+03  0.46893253115E+03  0.25500000920E-02 0. -1.
    10030    2    1    2    0    0  0.00000000000E+00  0.00000000000E+00 -0.33551481286E+03  0.60235024945E+03  0.50025556805E+03 0.  0.
        3    1    3    3  502    0  0.44291115970E+02 -0.14870759493E+03  0.68465073975E+02  0.16959695840E+03  0.10100000352E+00 0.  1.
       -3    1    3    3    0  502 -0.44291115970E+02  0.14870759493E+03 -0.40397988684E+03  0.43275329105E+03  0.10100000352E+00 0. -1.
</event>
<event>
 5   0  0.2005125E-03  0.5000136E+03  0.7818609E-02  0.1013775E+00
       -4   -1    0    0    0  501  0.00000000000E+00  0.00000000000E+00  0.22111821919E+04  0.22111825566E+04  0.12699999809E+01 0. -1.
        4   -1    0    0  501    0  0.00000000000E+00  0.00000000000E+00 -0.28252325976E+02  0.28280856122E+02  0.12699999809E+01 0.  1.
    10030    2    1    2    0    0  0.00000000000E+00  0.00000000000E+00  0.21829298659E+04  0.22394634127E+04  0.50001357726E+03 0.  0.
        3    1    3    3  502    0 -0.10058939820E+03 -0.22834271788E+03  0.11615350238E+04  0.11880329312E+04  0.10100000352E+00 0.  1.
       -3    1    3    3    0  502  0.10058939820E+03  0.22834271788E+03  0.10213948421E+04  0.10514304815E+04  0.10100000352E+00 0. -1.
</event>
<event>
 5   0  0.4989875E-03  0.5000140E+03  0.7818609E-02  0.1013775E+00
       -2   -1    0    0    0  501  0.00000000000E+00  0.00000000000E+00  0.46226945030E+02  0.46226945100E+02  0.25500000920E-02 0.  1.
        2   -1    0    0  501    0  0.00000000000E+00  0.00000000000E+00 -0.13521011353E+04  0.13521011353E+04  0.25500000920E-02 0. -1.
    10030    2    1    2    0    0  0.00000000000E+00  0.00000000000E+00 -0.13058741902E+04  0.13983280804E+04  0.50001401942E+03 0.  0.
        2    1    3    3  502    0 -0.21275053901E+03  0.14400439929E+02 -0.28795058753E+03  0.35830951059E+03  0.25500000920E-02 0. -1.
       -2    1    3    3    0  502  0.21275053901E+03 -0.14400439929E+02 -0.10179236027E+04  0.10400185698E+04  0.25500000920E-02 0.  1.
</event>
<event>
 5   0  0.3013734E-03  0.4997386E+03  0.7818609E-02  0.1013847E+00
       -1   -1    0    0    0  501  0.00000000000E+00  0.00000000000E+00  0.47329985481E+02  0.47329985749E+02  0.50400001928E-02 0. -1.
        1   -1    0    0  501    0  0.00000000000E+00  0.00000000000E+00 -0.13191354096E+04  0.13191354096E+04  0.50400001928E-02 0.  1.
    10030    2    1    2    0    0  0.00000000000E+00  0.00000000000E+00 -0.12718054241E+04  0.13664653953E+04  0.49973857154E+03 0.  0.
        2    1    3    3  502    0 -0.19330172418E+03 -0.15820898994E+03 -0.65298292353E+03  0.69912970149E+03  0.25500000920E-02 0. -1.
       -2    1    3    3    0  502  0.19330172418E+03  0.15820898994E+03 -0.61882250057E+03  0.66733569385E+03  0.25500000920E-02 0.  1.
</event>
<event>
 5   0  0.3013734E-03  0.5000788E+03  0.7818609E-02  0.1013758E+00
       -1   -1    0    0    0  501  0.00000000000E+00  0.00000000000E+00  0.55256699355E+02  0.55256699585E+02  0.50400001928E-02 0.  1.
        1   -1    0    0  501    0  0.00000000000E+00  0.00000000000E+00 -0.11314413321E+04  0.11314413321E+04  0.50400001928E-02 0. -1.
    10030    2    1    2    0    0  0.00000000000E+00  0.00000000000E+00 -0.10761846327E+04  0.11866980317E+04  0.50007884845E+03 0.  0.
        2    1    3    3  502    0  0.48158069170E+02 -0.12034942514E+03 -0.10454781824E+04  0.10534836561E+04  0.25500000920E-02 0. -1.
       -2    1    3    3    0  502 -0.48158069170E+02  0.12034942514E+03 -0.30706450278E+02  0.13321437554E+03  0.25500000920E-02 0.  1.
</event>
<event>
 5   0  0.2005125E-03  0.5001086E+03  0.7818609E-02  0.1013751E+00
        3   -1    0    0  501    0  0.00000000000E+00  0.00000000000E+00  0.73942698403E+02  0.73942767382E+02  0.10100000352E+00 0.  1.
       -3   -1    0    0    0  501  0.00000000000E+00  0.00000000000E+00 -0.84561571588E+03  0.84561572191E+03  0.10100000352E+00 0. -1.
    10030    2    1    2    0    0  0.00000000000E+00  0.00000000000E+00 -0.77167301748E+03  0.91955848929E+03  0.50010855755E+03 0.  0.
        5    1    3    3  502    0 -0.16533458818E+03 -0.11036485320E+03 -0.66462593452E+03  0.69373312571E+03  0.46999998093E+01 0. -1.
       -5    1    3    3    0  502  0.16533458818E+03  0.11036485320E+03 -0.10704708295E+03  0.22582536358E+03  0.46999998093E+01 0.  1.
</event>
<event>
 5   0  0.5095783E-03  0.5001221E+03  0.7818609E-02  0.1013747E+00
        2   -1    0    0  501    0  0.00000000000E+00  0.00000000000E+00  0.16873539385E+03  0.16873539387E+03  0.25500000920E-02 0.  1.
       -2   -1    0    0    0  501  0.00000000000E+00  0.00000000000E+00 -0.37058334902E+03  0.37058334903E+03  0.25500000920E-02 0. -1.
    10030    2    1    2    0    0  0.00000000000E+00  0.00000000000E+00 -0.20184795518E+03  0.53931874290E+03  0.50012209452E+03 0.  0.
        4    1    3    3  502    0 -0.18823101051E+03 -0.15522590799E+03 -0.41830267913E+02  0.24754268328E+03  0.12699999809E+01 0.  1.
       -4    1    3    3    0  502  0.18823101051E+03  0.15522590799E+03 -0.16001768726E+03  0.29177605962E+03  0.12699999809E+01 0. -1.
</event>
<event>
 5   0  0.2005125E-03  0.4999015E+03  0.7818609E-02  0.1013805E+00
        3   -1    0    0  501    0  0.00000000000E+00  0.00000000000E+00  0.57634031849E+02  0.57634120347E+02  0.10100000352E+00 0. -1.
       -3   -1    0    0    0  501  0.00000000000E+00  0.00000000000E+00 -0.10840007622E+04  0.10840007669E+04  0.10100000352E+00 0.  1.
    10030    2    1    2    0    0  0.00000000000E+00  0.00000000000E+00 -0.10263667304E+04  0.11416348873E+04  0.49990154093E+03 0.  0.
        3    1    3    3  502    0 -0.72674834081E+02 -0.17622804371E+03 -0.14397278651E+03  0.23888517818E+03  0.10100000352E+00 0. -1.
       -3    1    3    3    0  502  0.72674834081E+02  0.17622804371E+03 -0.88239394386E+03  0.90274970909E+03  0.10100000352E+00 0.  1.
</event>
<event>
 5   0  0.3055293E-03  0.5000719E+03  0.7818609E-02  0.1013760E+00
        1   -1    0    0  501    0  0.00000000000E+00  0.00000000000E+00  0.34066955876E+03  0.34066955880E+03  0.50400001928E-02 0.  1.
       -1   -1    0    0    0  501  0.00000000000E+00  0.00000000000E+00 -0.18351498685E+03  0.18351498692E+03  0.50400001928E-02 0. -1.
    10030    2    1    2    0    0  0.00000000000E+00  0.00000000000E+00  0.15715457191E+03  0.52418454572E+03  0.50007187333E+03 0.  0.
        3    1    3    3  502    0  0.22457311251E+02 -0.49842256044E+02 -0.17717378280E+03  0.18541612883E+03  0.10100000352E+00 0. -1.
       -3    1    3    3    0  502 -0.22457311251E+02  0.49842256044E+02  0.33432835471E+03  0.33876841689E+03  0.10100000352E+00 0.  1.
</event>
<event>
 5   0  0.2005125E-03  0.4997675E+03  0.7818609E-02  0.1013840E+00
        4   -1    0    0  501    0  0.00000000000E+00  0.00000000000E+00  0.10086473013E+03  0.10087272517E+03  0.12699999809E+01 0. -1.
       -4   -1    0    0    0  501  0.00000000000E+00  0.00000000000E+00 -0.61903256769E+03  0.61903387045E+03  0.12699999809E+01 0.  1.
    10030    2    1    2    0    0  0.00000000000E+00  0.00000000000E+00 -0.51816783756E+03  0.71990659562E+03  0.49976754449E+03 0.  0.
        1    1    3    3  502    0 -0.17553150274E+03  0.37526343494E+02 -0.86620083663E+01  0.17970688725E+03  0.50400001928E-02 0. -1.
       -1    1    3    3    0  502  0.17553150274E+03 -0.37526343494E+02 -0.50950582920E+03  0.54019970837E+03  0.50400001928E-02 0.  1.
</event>
<event>
 5   0  0.5118882E-03  0.5000604E+03  0.7818609E-02  0.1013763E+00
       -2   -1    0    0    0  501  0.00000000000E+00  0.00000000000E+00  0.32709018241E+03  0.32709018242E+03  0.25500000920E-02 0.  1.
        2   -1    0    0  501    0  0.00000000000E+00  0.00000000000E+00 -0.19112497922E+03  0.19112497924E+03  0.25500000920E-02 0. -1.
    10030    2    1    2    0    0  0.00000000000E+00  0.00000000000E+00  0.13596520318E+03  0.51821516166E+03  0.50006041364E+03 0.  0.
        3    1    3    3  502    0  0.51799017216E+02 -0.53570465753E+02 -0.17934971680E+03  0.19421447964E+03  0.10100000352E+00 0. -1.
       -3    1    3    3    0  502 -0.51799017216E+02  0.53570465753E+02  0.31531491998E+03  0.32400068202E+03  0.10100000352E+00 0.  1.
</event>
<event>
 5   0  0.5118882E-03  0.5003854E+03  0.7818609E-02  0.1013678E+00
       -2   -1    0    0    0  501  0.00000000000E+00  0.00000000000E+00  0.97809750829E+02  0.97809750862E+02  0.25500000920E-02 0. -1.
        2   -1    0    0  501    0  0.00000000000E+00  0.00000000000E+00 -0.63998093696E+03  0.63998093697E+03  0.25500000920E-02 0.  1.
    10030    2    1    2    0    0  0.00000000000E+00  0.00000000000E+00 -0.54217118613E+03  0.73779068783E+03  0.50038535547E+03 0.  0.
        3    1    3    3  502    0  0.17965207129E+03 -0.59108396626E+02 -0.29583849314E+02  0.19142592200E+03  0.10100000352E+00 0. -1.
       -3    1    3    3    0  502 -0.17965207129E+03  0.59108396626E+02 -0.51258733682E+03  0.54636476583E+03  0.10100000352E+00 0.  1.
</event>
<event>
 5   0  0.5095783E-03  0.4997212E+03  0.7818609E-02  0.1013852E+00
       -2   -1    0    0    0  501  0.00000000000E+00  0.00000000000E+00  0.77242796380E+02  0.77242796422E+02  0.25500000920E-02 0. -1.
        2   -1    0    0  501    0  0.00000000000E+00  0.00000000000E+00 -0.80823479077E+03  0.80823479077E+03  0.25500000920E-02 0.  1.
    10030    2    1    2    0    0  0.00000000000E+00  0.00000000000E+00 -0.73099199439E+03  0.88547758720E+03  0.49972118382E+03 0.  0.
        4    1    3    3  502    0 -0.19261646055E+03  0.88072877969E+02 -0.13061644669E+03  0.24883770163E+03  0.12699999809E+01 0. -1.
       -4    1    3    3    0  502  0.19261646055E+03 -0.88072877969E+02 -0.60037554770E+03  0.63663988556E+03  0.12699999809E+01 0.  1.
</event>
<event>
 5   0  0.2863538E-03  0.5000756E+03  0.7818609E-02  0.1013759E+00
       -1   -1    0    0    0  501  0.00000000000E+00  0.00000000000E+00  0.12532829398E+03  0.12532829409E+03  0.50400001928E-02 0.  1.
        1   -1    0    0  501    0  0.00000000000E+00  0.00000000000E+00 -0.49884103924E+03  0.49884103926E+03  0.50400001928E-02 0. -1.
    10030    2    1    2    0    0  0.00000000000E+00  0.00000000000E+00 -0.37351274526E+03  0.62416933335E+03  0.50007558011E+03 0.  0.
        1    1    3    3  502    0  0.11893826133E+03 -0.21236451353E+03 -0.25817302230E+03  0.35482151299E+03  0.50400001928E-02 0. -1.
       -1    1    3    3    0  502 -0.11893826133E+03  0.21236451353E+03 -0.11533972296E+03  0.26934782036E+03  0.50400001928E-02 0.  1.
</event>
<event>
 5   0  0.5095783E-03  0.4999303E+03  0.7818609E-02  0.1013797E+00
       -2   -1    0    0    0  501  0.00000000000E+00  0.00000000000E+00  0.42664980284E+02  0.42664980360E+02  0.25500000920E-02 0. -1.
        2   -1    0    0  501    0  0.00000000000E+00  0.00000000000E+00 -0.14644932635E+04  0.14644932635E+04  0.25500000920E-02 0.  1.
    10030    2    1    2    0    0  0.00000000000E+00  0.00000000000E+00 -0.14218282832E+04  0.15071582439E+04  0.49993030024E+03 0.  0.
        4    1    3    3  502    0  0.16407159452E+03  0.11481058020E+03 -0.11619172055E+04  0.11790479900E+04  0.12699999809E+01 0.  1.
       -4    1    3    3    0  502 -0.16407159452E+03 -0.11481058020E+03 -0.25991107775E+03  0.32811025386E+03  0.12699999809E+01 0. -1.
</event>
<event>
 5   0  0.2863538E-03  0.5000101E+03  0.7818609E-02  0.1013776E+00
       -1   -1    0    0    0  501  0.00000000000E+00  0.00000000000E+00  0.13588704842E+04  0.13588704842E+04  0.50400001928E-02 0. -1.
        1   -1    0    0  501    0  0.00000000000E+00  0.00000000000E+00 -0.45995938438E+02  0.45995938714E+02  0.50400001928E-02 0.  1.
    10030    2    1    2    0    0  0.00000000000E+00  0.00000000000E+00  0.13128745458E+04  0.14048664229E+04  0.50001009324E+03 0.  0.
        1    1    3    3  502    0  0.50100601920E+02 -0.24453138340E+03  0.61701605185E+03  0.66559332632E+03  0.50400001928E-02 0.  1.
       -1    1    3    3    0  502 -0.50100601920E+02  0.24453138340E+03  0.69585849391E+03  0.73927309660E+03  0.50400001928E-02 0. -1.
</event>
<event>
 5   0  0.5118882E-03  0.5016465E+03  0.7818609E-02  0.1013350E+00
        2   -1    0    0  501    0  0.00000000000E+00  0.00000000000E+00  0.19248561138E+03  0.19248561140E+03  0.25500000920E-02 0.  1.
       -2   -1    0    0    0  501  0.00000000000E+00  0.00000000000E+00 -0.32684162890E+03  0.32684162891E+03  0.25500000920E-02 0. -1.
    10030    2    1    2    0    0  0.00000000000E+00  0.00000000000E+00 -0.13435601751E+03  0.51932724031E+03  0.50164653201E+03 0.  0.
        3    1    3    3  502    0  0.11682997222E+03  0.28699417615E+02  0.16066865494E+03  0.20071702933E+03  0.10100000352E+00 0.  1.
       -3    1    3    3    0  502 -0.11682997222E+03 -0.28699417615E+02 -0.29502467245E+03  0.31861021098E+03  0.10100000352E+00 0. -1.
</event>
<event>
 5   0  0.4889251E-03  0.4998145E+03  0.7818609E-02  0.1013827E+00
        2   -1    0    0  501    0  0.00000000000E+00  0.00000000000E+00  0.11148098854E+04  0.11148098854E+04  0.25500000920E-02 0.  1.
       -2   -1    0    0    0  501  0.00000000000E+00  0.00000000000E+00 -0.56021785646E+02  0.56021785704E+02  0.25500000920E-02 0. -1.
    10030    2    1    2    0    0  0.00000000000E+00  0.00000000000E+00  0.10587880997E+04  0.11708316711E+04  0.49981452747E+03 0.  0.
        5    1    3    3  502    0 -0.11373973129E+03  0.57307051762E+02  0.25827375070E+02  0.13003833264E+03  0.46999998093E+01 0. -1.
       -5    1    3    3    0  502  0.11373973129E+03 -0.57307051762E+02  0.10329607246E+04  0.10407933384E+04  0.46999998093E+01 0.  1.
</event>
<event>
 5   0  0.3211775E-03  0.4999792E+03  0.7818609E-02  0.1013784E+00
       -1   -1    0    0    0  501  0.00000000000E+00  0.00000000000E+00  0.13350616935E+03  0.13350616945E+03  0.50400001928E-02 0.  1.
        1   -1    0    0  501    0  0.00000000000E+00  0.00000000000E+00 -0.46810414583E+03  0.46810414585E+03  0.50400001928E-02 0. -1.
    10030    2    1    2    0    0  0.00000000000E+00  0.00000000000E+00 -0.33459797647E+03  0.60161031530E+03  0.49997916518E+03 0.  0.
        4    1    3    3  502    0  0.21969978519E+03  0.66328895005E+02 -0.28657256577E+03  0.36714161611E+03  0.12699999809E+01 0. -1.
       -4    1    3    3    0  502 -0.21969978519E+03 -0.66328895005E+02 -0.48025410698E+02  0.23446869919E+03  0.12699999809E+01 0.  1.
</event>
<event>
 5   0  0.2863538E-03  0.4998927E+03  0.7818609E-02  0.1013807E+00
       -1   -1    0    0    0  501  0.00000000000E+00  0.00000000000E+00  0.15971791926E+03  0.15971791934E+03  0.50400001928E-02 0. -1.
        1   -1    0    0  501    0  0.00000000000E+00  0.00000000000E+00 -0.39114690529E+03  0.39114690533E+03  0.50400001928E-02 0.  1.
    10030    2    1    2    0    0  0.00000000000E+00  0.00000000000E+00 -0.23142898603E+03  0.55086482467E+03  0.49989266796E+03 0.  0.
        1    1    3    3  502    0  0.49972153594E+02 -0.24215851967E+03 -0.15598084254E+03  0.29234908594E+03  0.50400001928E-02 0.  1.
       -1    1    3    3    0  502 -0.49972153594E+02  0.24215851967E+03 -0.75448143490E+02  0.25851573872E+03  0.50400001928E-02 0. -1.
</event>
<event>
 5   0  0.4978779E-03  0.4998458E+03  0.7818609E-02  0.1013819E+00
        2   -1    0    0  501    0  0.00000000000E+00  0.00000000000E+00  0.23473387134E+03  0.23473387135E+03  0.25500000920E-02 0. -1.
       -2   -1    0    0    0  501  0.00000000000E+00  0.00000000000E+00 -0.26609473321E+03  0.26609473322E+03  0.25500000920E-02 0.  1.
    10030    2    1    2    0    0  0.00000000000E+00  0.00000000000E+00 -0.31360861870E+02  0.50082860457E+03  0.49984576371E+03 0.  0.
        1    1    3    3  502    0 -0.26140853296E+02 -0.95034240414E+02  0.21443742962E+03  0.23600479298E+03  0.50400001928E-02 0. -1.
       -1    1    3    3    0  502  0.26140853296E+02  0.95034240414E+02 -0.24579829149E+03  0.26482381159E+03  0.50400001928E-02 0.  1.
</event>
<event>
 5   0  0.3013734E-03  0.5017859E+03  0.7818609E-02  0.1013314E+00
        1   -1    0    0  501    0  0.00000000000E+00  0.00000000000E+00  0.63953966048E+03  0.63953966050E+03  0.50400001928E-02 0.  1.
       -1   -1    0    0    0  501  0.00000000000E+00  0.00000000000E+00 -0.98425891979E+02  0.98425892108E+02  0.50400001928E-02 0. -1.
    10030    2    1    2    0    0  0.00000000000E+00  0.00000000000E+00  0.54111376850E+03  0.73796555260E+03  0.50178585709E+03 0.  0.
        2    1    3    3  502    0  0.18641316775E+02  0.21461956416E+03  0.45968751305E+03  0.50766294495E+03  0.25500000920E-02 0.  1.
       -2    1    3    3    0  502 -0.18641316775E+02 -0.21461956416E+03  0.81426255447E+02  0.23030260766E+03  0.25500000920E-02 0. -1.
</event>
<event>
 5   0  0.4889251E-03  0.4995951E+03  0.7818609E-02  0.1013885E+00
       -2   -1    0    0    0  501  0.00000000000E+00  0.00000000000E+00  0.55143790720E+02  0.55143790779E+02  0.25500000920E-02 0. -1.
        2   -1    0    0  501    0  0.00000000000E+00  0.00000000000E+00 -0.11315653780E+04  0.11315653780E+04  0.25500000920E-02 0.  1.
    10030    2    1    2    0    0  0.00000000000E+00  0.00000000000E+00 -0.10764215872E+04  0.11867091687E+04  0.49959505372E+03 0.  0.
        5    1    3    3  502    0 -0.37307060188E+02  0.20640639501E+03 -0.86025408254E+03  0.88546857266E+03  0.46999998093E+01 0.  1.
       -5    1    3    3    0  502  0.37307060188E+02 -0.20640639501E+03 -0.21616750471E+03  0.30124059609E+03  0.46999998093E+01 0. -1.
</event>
<event>
 5   0  0.3013734E-03  0.4999249E+03  0.7818609E-02  0.1013799E+00
       -1   -1    0    0    0  501  0.00000000000E+00  0.00000000000E+00  0.39215422810E+03  0.39215422813E+03  0.50400001928E-02 0.  1.
        1   -1    0    0  501    0  0.00000000000E+00  0.00000000000E+00 -0.15932822437E+03  0.15932822445E+03  0.50400001928E-02 0. -1.
    10030    2    1    2    0    0  0.00000000000E+00  0.00000000000E+00  0.23282600373E+03  0.55148245258E+03  0.49992494186E+03 0.  0.
        2    1    3    3  502    0 -0.53961741748E+02 -0.15463226170E+03 -0.91895401522E+02  0.18779715323E+03  0.25500000920E-02 0. -1.
       -2    1    3    3    0  502  0.53961741748E+02  0.15463226170E+03  0.32472140525E+03  0.36368529935E+03  0.25500000920E-02 0.  1.
</event>
<event>
 5   0  0.3057783E-03  0.4994676E+03  0.7818609E-02  0.1013918E+00
        1   -1    0    0  501    0  0.00000000000E+00  0.00000000000E+00  0.12770588669E+03  0.12770588679E+03  0.50400001928E-02 0. -1.
       -1   -1    0    0    0  501  0.00000000000E+00  0.00000000000E+00 -0.48836405554E+03  0.48836405556E+03  0.50400001928E-02 0.  1.
    10030    2    1    2    0    0  0.00000000000E+00  0.00000000000E+00 -0.36065816885E+03  0.61606994235E+03  0.49946757564E+03 0.  0.
        5    1    3    3  502    0 -0.21771151673E+03 -0.20436929846E+01 -0.33110528877E+03  0.39630201040E+03  0.46999998093E+01 0.  1.
       -5    1    3    3    0  502  0.21771151673E+03  0.20436929846E+01 -0.29552880074E+02  0.21976793195E+03  0.46999998093E+01 0. -1.
</event>
<event>
 5   0  0.2863538E-03  0.4992195E+03  0.7818609E-02  0.1013983E+00
       -1   -1    0    0    0  501  0.00000000000E+00  0.00000000000E+00  0.72382895617E+02  0.72382895792E+02  0.50400001928E-02 0. -1.
        1   -1    0    0  501    0  0.00000000000E+00  0.00000000000E+00 -0.86076996476E+03  0.86076996477E+03  0.50400001928E-02 0.  1.
    10030    2    1    2    0    0  0.00000000000E+00  0.00000000000E+00 -0.78838706914E+03  0.93315286057E+03  0.49921948118E+03 0.  0.
        1    1    3    3  502    0  0.69974582658E+02  0.15496836308E+03 -0.73577280069E+03  0.75516438610E+03  0.50400001928E-02 0.  1.
       -1    1    3    3    0  502 -0.69974582658E+02 -0.15496836308E+03 -0.52614268451E+02  0.17798847446E+03  0.50400001928E-02 0. -1.
</event>
<event>
 5   0  0.4889251E-03  0.5001303E+03  0.7818609E-02  0.1013745E+00
       -2   -1    0    0    0  501  0.00000000000E+00  0.00000000000E+00  0.61270655630E+02  0.61270655683E+02  0.25500000920E-02 0. -1.
        2   -1    0    0  501    0  0.00000000000E+00  0.00000000000E+00 -0.10205956918E+04  0.10205956918E+04  0.25500000920E-02 0.  1.
    10030    2    1    2    0    0  0.00000000000E+00  0.00000000000E+00 -0.95932503617E+03  0.10818663475E+04  0.50013025184E+03 0.  0.
        5    1    3    3  502    0  0.23261611399E+03 -0.68549523288E+02 -0.34806103010E+03  0.42423798075E+03  0.46999998093E+01 0. -1.
       -5    1    3    3    0  502 -0.23261611399E+03  0.68549523288E+02 -0.61126400607E+03  0.65762836674E+03  0.46999998093E+01 0.  1.
</event>
<event>
 5   0  0.3013734E-03  0.5000353E+03  0.7818609E-02  0.1013770E+00
       -1   -1    0    0    0  501  0.00000000000E+00  0.00000000000E+00  0.81572163097E+02  0.81572163253E+02  0.50400001928E-02 0.  1.
        1   -1    0    0  501    0  0.00000000000E+00  0.00000000000E+00 -0.76630100860E+03  0.76630100862E+03  0.50400001928E-02 0. -1.
    10030    2    1    2    0    0  0.00000000000E+00  0.00000000000E+00 -0.68472884550E+03  0.84787317187E+03  0.50003532246E+03 0.  0.
        2    1    3    3  502    0  0.12586549772E+03 -0.10172101624E+03 -0.66551161957E+03  0.68490510617E+03  0.25500000920E-02 0. -1.
       -2    1    3    3    0  502 -0.12586549772E+03  0.10172101624E+03 -0.19217225930E+02  0.16296806570E+03  0.25500000920E-02 0.  1.
</event>
<event>
 5   0  0.3055293E-03  0.5000890E+03  0.7818609E-02  0.1013756E+00
        1   -1    0    0  501    0  0.00000000000E+00  0.00000000000E+00  0.48258149768E+03  0.48258149771E+03  0.50400001928E-02 0. -1.
       -1   -1    0    0    0  501  0.00000000000E+00  0.00000000000E+00 -0.12955790420E+03  0.12955790429E+03  0.50400001928E-02 0.  1.
    10030    2    1    2    0    0  0.00000000000E+00  0.00000000000E+00  0.35302359348E+03  0.61213940200E+03  0.50008898201E+03 0.  0.
        3    1    3    3  502    0 -0.21176648064E+03  0.43233620572E+02  0.33041306031E+03  0.39482526375E+03  0.10100000352E+00 0. -1.
       -3    1    3    3    0  502  0.21176648064E+03 -0.43233620572E+02  0.22610533169E+02  0.21731413825E+03  0.10100000352E+00 0.  1.
</event>
<event>
 5   0  0.5118882E-03  0.4990417E+03  0.7818609E-02  0.1014029E+00
       -2   -1    0    0    0  501  0.00000000000E+00  0.00000000000E+00  0.38369001169E+02  0.38369001254E+02  0.25500000920E-02 0. -1.
        2   -1    0    0  501    0  0.00000000000E+00  0.00000000000E+00 -0.16226813170E+04  0.16226813170E+04  0.25500000920E-02 0.  1.
    10030    2    1    2    0    0  0.00000000000E+00  0.00000000000E+00 -0.15843123158E+04  0.16610503183E+04  0.49904172740E+03 0.  0.
        3    1    3    3  502    0  0.13286889743E+03 -0.86195837066E+02 -0.14339297504E+04  0.14426497862E+04  0.10100000352E+00 0.  1.
       -3    1    3    3    0  502 -0.13286889743E+03  0.86195837066E+02 -0.15038256542E+03  0.21840053208E+03  0.10100000352E+00 0. -1.
</event>
<event>
 5   0  0.4889251E-03  0.5000914E+03  0.7818609E-02  0.1013755E+00
       -2   -1    0    0    0  501  0.00000000000E+00  0.00000000000E+00  0.84872544313E+02  0.84872544351E+02  0.25500000920E-02 0.  1.
        2   -1    0    0  501    0  0.00000000000E+00  0.00000000000E+00 -0.73666771000E+03  0.73666771000E+03  0.25500000920E-02 0. -1.
    10030    2    1    2    0    0  0.00000000000E+00  0.00000000000E+00 -0.65179516569E+03  0.82154025436E+03  0.50009144315E+03 0.  0.
        5    1    3    3  502    0 -0.14967787128E+03 -0.49895536968E+02 -0.64447725456E+03  0.66352547156E+03  0.46999998093E+01 0. -1.
       -5    1    3    3    0  502  0.14967787128E+03  0.49895536968E+02 -0.73179111222E+01  0.15801478280E+03  0.46999998093E+01 0.  1.
</event>
<event>
 5   0  0.4978779E-03  0.4996089E+03  0.7818609E-02  0.1013881E+00
        2   -1    0    0  501    0  0.00000000000E+00  0.00000000000E+00  0.11745203213E+03  0.11745203215E+03  0.25500000920E-02 0.  1.
       -2   -1    0    0    0  501  0.00000000000E+00  0.00000000000E+00 -0.53130001184E+03  0.53130001185E+03  0.25500000920E-02 0. -1.
    10030    2    1    2    0    0  0.00000000000E+00  0.00000000000E+00 -0.41384797971E+03  0.64875204400E+03  0.49960891133E+03 0.  0.
        1    1    3    3  502    0 -0.70926732688E+02 -0.19576588565E+03 -0.27712348951E+02  0.21005441606E+03  0.50400001928E-02 0.  1.
       -1    1    3    3    0  502  0.70926732688E+02  0.19576588565E+03 -0.38613563076E+03  0.43869762794E+03  0.50400001928E-02 0. -1.
</event>
<event>
 5   0  0.3211775E-03  0.5008799E+03  0.7818609E-02  0.1013549E+00
        1   -1    0    0  501    0  0.00000000000E+00  0.00000000000E+00  0.17679117955E+03  0.17679117963E+03  0.50400001928E-02 0.  1.
       -1   -1    0    0    0  501  0.00000000000E+00  0.00000000000E+00 -0.35476985221E+03  0.35476985224E+03  0.50400001928E-02 0. -1.
    10030    2    1    2    0    0  0.00000000000E+00  0.00000000000E+00 -0.17797867265E+03  0.53156103187E+03  0.50087994837E+03 0.  0.
        4    1    3    3  502    0  0.12378165333E+03 -0.21709032451E+03 -0.71600915213E+02  0.25995847872E+03  0.12699999809E+01 0.  1.
       -4    1    3    3    0  502 -0.12378165333E+03  0.21709032451E+03 -0.10637775744E+03  0.27160255315E+03  0.12699999809E+01 0. -1.
</event>
<event>
 5   0  0.3055293E-03  0.4999202E+03  0.7818609E-02  0.1013800E+00
       -1   -1    0    0    0  501  0.00000000000E+00  0.00000000000E+00  0.14329346433E+03  0.14329346442E+03  0.50400001928E-02 0. -1.
        1   -1    0    0  501    0  0.00000000000E+00  0.00000000000E+00 -0.43602869766E+03  0.43602869769E+03  0.50400001928E-02 0.  1.
    10030    2    1    2    0    0  0.00000000000E+00  0.00000000000E+00 -0.29273523333E+03  0.57932216211E+03  0.49992024431E+03 0.  0.
        3    1    3    3  502    0 -0.24393334544E+03 -0.31058336917E+02 -0.19834669412E+03  0.31592644489E+03  0.10100000352E+00 0.  1.
       -3    1    3    3    0  502  0.24393334544E+03  0.31058336917E+02 -0.94388539212E+02  0.26339571722E+03  0.10100000352E+00 0. -1.
</event>
<event>
 5   0  0.2863538E-03  0.5000192E+03  0.7818609E-02  0.1013774E+00
       -1   -1    0    0    0  501  0.00000000000E+00  0.00000000000E+00  0.14533627260E+03  0.14533627269E+03  0.50400001928E-02 0.  1.
        1   -1    0    0  501    0  0.00000000000E+00  0.00000000000E+00 -0.43007026197E+03  0.43007026200E+03  0.50400001928E-02 0. -1.
    10030    2    1    2    0    0  0.00000000000E+00  0.00000000000E+00 -0.28473398937E+03  0.57540653469E+03  0.50001923510E+03 0.  0.
        1    1    3    3  502    0  0.10485766875E+03 -0.21049759354E+03 -0.44718031986E+02  0.23938268524E+03  0.50400001928E-02 0.  1.
       -1    1    3    3    0  502 -0.10485766875E+03  0.21049759354E+03 -0.24001595738E+03  0.33602384946E+03  0.50400001928E-02 0. -1.
</event>
<event>
 5   0  0.4989875E-03  0.5000788E+03  0.7818609E-02  0.1013758E+00
       -2   -1    0    0    0  501  0.00000000000E+00  0.00000000000E+00  0.52773138994E+02  0.52773139055E+02  0.25500000920E-02 0. -1.
        2   -1    0    0  501    0  0.00000000000E+00  0.00000000000E+00 -0.11846878184E+04  0.11846878184E+04  0.25500000920E-02 0.  1.
    10030    2    1    2    0    0  0.00000000000E+00  0.00000000000E+00 -0.11319146794E+04  0.12374609574E+04  0.50007877356E+03 0.  0.
        2    1    3    3  502    0  0.71223898117E+02 -0.98893404748E+02 -0.11062160128E+04  0.11129090781E+04  0.25500000920E-02 0.  1.
       -2    1    3    3    0  502 -0.71223898117E+02  0.98893404748E+02 -0.25698666553E+02  0.12455187929E+03  0.25500000920E-02 0. -1.
</event>
<event>
 5   0  0.2863538E-03  0.4998451E+03  0.7818609E-02  0.1013819E+00
        1   -1    0    0  501    0  0.00000000000E+00  0.00000000000E+00  0.36333232436E+03  0.36333232440E+03  0.50400001928E-02 0.  1.
       -1   -1    0    0    0  501  0.00000000000E+00  0.00000000000E+00 -0.17191227575E+03  0.17191227583E+03  0.50400001928E-02 0. -1.
    10030    2    1    2    0    0  0.00000000000E+00  0.00000000000E+00  0.19142004861E+03  0.53524460022E+03  0.49984512307E+03 0.  0.
        1    1    3    3  502    0  0.48268931926E+02 -0.24408286176E+03  0.12093583607E+03  0.27664383179E+03  0.50400001928E-02 0. -1.
       -1    1    3    3    0  502 -0.48268931926E+02  0.24408286176E+03  0.70484212545E+02  0.25860076844E+03  0.50400001928E-02 0.  1.
</event>
<event>
 5   0  0.2005125E-03  0.4998168E+03  0.7818609E-02  0.1013827E+00
       -4   -1    0    0    0  501  0.00000000000E+00  0.00000000000E+00  0.84402431132E+03  0.84402526681E+03  0.12699999809E+01 0. -1.
        4   -1    0    0  501    0  0.00000000000E+00  0.00000000000E+00 -0.73989291560E+02  0.74000190307E+02  0.12699999809E+01 0.  1.
    10030    2    1    2    0    0  0.00000000000E+00  0.00000000000E+00  0.77003501976E+03  0.91802545711E+03  0.49981677467E+03 0.  0.
        4    1    3    3  502    0 -0.15791814065E+03 -0.12807730258E+03  0.11815058782E+03  0.23516613039E+03  0.12699999809E+01 0.  1.
       -4    1    3    3    0  502  0.15791814065E+03  0.12807730258E+03  0.65188443194E+03  0.68285932672E+03  0.12699999809E+01 0. -1.
</event>
<event>
 5   0  0.3211775E-03  0.4999513E+03  0.7818609E-02  0.1013792E+00
        1   -1    0    0  501    0  0.00000000000E+00  0.00000000000E+00  0.27134382318E+03  0.27134382322E+03  0.50400001928E-02 0. -1.
       -1   -1    0    0    0  501  0.00000000000E+00  0.00000000000E+00 -0.23029019019E+03  0.23029019024E+03  0.50400001928E-02 0.  1.
    10030    2    1    2    0    0  0.00000000000E+00  0.00000000000E+00  0.41053632991E+02  0.50163401347E+03  0.49995128031E+03 0.  0.
        4    1    3    3  502    0 -0.20731259462E+03  0.13714542868E+03  0.47051133834E+02  0.25298775186E+03  0.12699999809E+01 0. -1.
       -4    1    3    3    0  502  0.20731259462E+03 -0.13714542868E+03 -0.59975008432E+01  0.24864626161E+03  0.12699999809E+01 0.  1.
</event>
<event>
 5   0  0.5118882E-03  0.4999283E+03  0.7818609E-02  0.1013798E+00
       -2   -1    0    0    0  501  0.00000000000E+00  0.00000000000E+00  0.11100577561E+03  0.11100577564E+03  0.25500000920E-02 0. -1.
        2   -1    0    0  501    0  0.00000000000E+00  0.00000000000E+00 -0.56287231639E+03  0.56287231640E+03  0.25500000920E-02 0.  1.
    10030    2    1    2    0    0  0.00000000000E+00  0.00000000000E+00 -0.45186654078E+03  0.67387809203E+03  0.49992830711E+03 0.  0.
        3    1    3    3  502    0  0.24775105658E+03  0.17501779548E+02 -0.26394376109E+03  0.36242684441E+03  0.10100000352E+00 0. -1.
       -3    1    3    3    0  502 -0.24775105658E+03 -0.17501779548E+02 -0.18792277969E+03  0.31145124763E+03  0.10100000352E+00 0.  1.
</event>
<event>
 5   0  0.5118882E-03  0.5000066E+03  0.7818609E-02  0.1013777E+00
        2   -1    0    0  501    0  0.00000000000E+00  0.00000000000E+00  0.10044693520E+04  0.10044693521E+04  0.25500000920E-02 0. -1.
       -2   -1    0    0    0  501  0.00000000000E+00  0.00000000000E+00 -0.62223561143E+02  0.62223561195E+02  0.25500000920E-02 0.  1.
    10030    2    1    2    0    0  0.00000000000E+00  0.00000000000E+00  0.94224579091E+03  0.10666929132E+04  0.50000664065E+03 0.  0.
        3    1    3    3  502    0  0.93641879379E+02  0.20236821133E+03  0.22995010558E+03  0.32031040537E+03  0.10100000352E+00 0.  1.
       -3    1    3    3    0  502 -0.93641879379E+02 -0.20236821133E+03  0.71229568532E+03  0.74638250788E+03  0.10100000352E+00 0. -1.
</event>
<event>
 5   0  0.2005125E-03  0.5001034E+03  0.7818609E-02  0.1013752E+00
       -4   -1    0    0    0  501  0.00000000000E+00  0.00000000000E+00  0.21637873437E+03  0.21638246136E+03  0.12699999809E+01 0. -1.
        4   -1    0    0  501    0  0.00000000000E+00  0.00000000000E+00 -0.28895727557E+03  0.28896006645E+03  0.12699999809E+01 0.  1.
    10030    2    1    2    0    0  0.00000000000E+00  0.00000000000E+00 -0.72578541204E+02  0.50534252782E+03  0.50010341508E+03 0.  0.
        5    1    3    3  502    0  0.82870398460E+02 -0.18574201768E+03  0.11061659538E+03  0.23157228082E+03  0.46999998093E+01 0. -1.
       -5    1    3    3    0  502 -0.82870398460E+02  0.18574201768E+03 -0.18319513658E+03  0.27377024699E+03  0.46999998093E+01 0.  1.
</event>
<event>
 5   0  0.2005125E-03  0.5011756E+03  0.7818609E-02  0.1013473E+00
       -3   -1    0    0    0  501  0.00000000000E+00  0.00000000000E+00  0.30456500976E+03  0.30456502651E+03  0.10100000352E+00 0.  1.
        3   -1    0    0  501    0  0.00000000000E+00  0.00000000000E+00 -0.20617681368E+03  0.20617683842E+03  0.10100000352E+00 0. -1.
    10030    2    1    2    0    0  0.00000000000E+00  0.00000000000E+00  0.98388196079E+02  0.51074186493E+03  0.50117563335E+03 0.  0.
        2    1    3    3  502    0  0.81668977649E+02  0.23420261123E+03  0.12825821344E+02  0.24836502716E+03  0.25500000920E-02 0. -1.
       -2    1    3    3    0  502 -0.81668977649E+02 -0.23420261123E+03  0.85562374735E+02  0.26237683776E+03  0.25500000920E-02 0.  1.
</event>
<event>
 5   0  0.3057783E-03  0.5020764E+03  0.7818609E-02  0.1013238E+00
        1   -1    0    0  501    0  0.00000000000E+00  0.00000000000E+00  0.46280778029E+03  0.46280778032E+03  0.50400001928E-02 0.  1.
       -1   -1    0    0    0  501  0.00000000000E+00  0.00000000000E+00 -0.13616923393E+03  0.13616923403E+03  0.50400001928E-02 0. -1.
    10030    2    1    2    0    0  0.00000000000E+00  0.00000000000E+00  0.32663854636E+03  0.59897701435E+03  0.50207641226E+03 0.  0.
        5    1    3    3  502    0 -0.16921784349E+03  0.12887419096E+03  0.32228331867E+03  0.38617594842E+03  0.46999998093E+01 0.  1.
       -5    1    3    3    0  502  0.16921784349E+03 -0.12887419096E+03  0.43552276874E+01  0.21280106592E+03  0.46999998093E+01 0. -1.
</event>
<event>
 5   0  0.4889251E-03  0.4997819E+03  0.7818609E-02  0.1013836E+00
       -2   -1    0    0    0  501  0.00000000000E+00  0.00000000000E+00  0.17283199207E+03  0.17283199209E+03  0.25500000920E-02 0.  1.
        2   -1    0    0  501    0  0.00000000000E+00  0.00000000000E+00 -0.36130747558E+03  0.36130747559E+03  0.25500000920E-02 0. -1.
    10030    2    1    2    0    0  0.00000000000E+00  0.00000000000E+00 -0.18847548351E+03  0.53413946768E+03  0.49978191549E+03 0.  0.
        5    1    3    3  502    0  0.10814980338E+03 -0.47018358607E+02 -0.32964396782E+03  0.35013474769E+03  0.46999998093E+01 0. -1.
       -5    1    3    3    0  502 -0.10814980338E+03  0.47018358607E+02  0.14116848431E+03  0.18400471999E+03  0.46999998093E+01 0.  1.
</event>
<event>
 5   0  0.4978779E-03  0.4999675E+03  0.7818609E-02  0.1013787E+00
       -2   -1    0    0    0  501  0.00000000000E+00  0.00000000000E+00  0.13969867011E+03  0.13969867014E+03  0.25500000920E-02 0.  1.
        2   -1    0    0  501    0  0.00000000000E+00  0.00000000000E+00 -0.44733342623E+03  0.44733342623E+03  0.25500000920E-02 0. -1.
    10030    2    1    2    0    0  0.00000000000E+00  0.00000000000E+00 -0.30763475611E+03  0.58703209637E+03  0.49996753795E+03 0.  0.
        1    1    3    3  502    0  0.17481255460E+03 -0.14205100095E+03 -0.26522097311E+02  0.22680682924E+03  0.50400001928E-02 0.  1.
       -1    1    3    3    0  502 -0.17481255460E+03  0.14205100095E+03 -0.28111265880E+03  0.36022526713E+03  0.50400001928E-02 0. -1.
</event>
<event>
 5   0  0.3057783E-03  0.5001027E+03  0.7818609E-02  0.1013752E+00
       -1   -1    0    0    0  501  0.00000000000E+00  0.00000000000E+00  0.10950314720E+03  0.10950314731E+03  0.50400001928E-02 0. -1.
        1   -1    0    0  501    0  0.00000000000E+00  0.00000000000E+00 -0.57099424738E+03  0.57099424740E+03  0.50400001928E-02 0.  1.
    10030    2    1    2    0    0  0.00000000000E+00  0.00000000000E+00 -0.46149110018E+03  0.68049739471E+03  0.50010265812E+03 0.  0.
        5    1    3    3  502    0 -0.26359676345E+02  0.37983706155E+02  0.10357528381E+03  0.11352323059E+03  0.46999998093E+01 0. -1.
       -5    1    3    3    0  502  0.26359676345E+02 -0.37983706155E+02 -0.56506638399E+03  0.56697416412E+03  0.46999998093E+01 0.  1.
</event>
<event>
 5   0  0.3013734E-03  0.5001535E+03  0.7818609E-02  0.1013739E+00
       -1   -1    0    0    0  501  0.00000000000E+00  0.00000000000E+00  0.16749297598E+03  0.16749297606E+03  0.50400001928E-02 0. -1.
        1   -1    0    0  501    0  0.00000000000E+00  0.00000000000E+00 -0.37337908483E+03  0.37337908487E+03  0.50400001928E-02 0.  1.
    10030    2    1    2    0    0  0.00000000000E+00  0.00000000000E+00 -0.20588610885E+03  0.54087206093E+03  0.50015347292E+03 0.  0.
        2    1    3    3  502    0  0.67501399630E+02  0.11235211739E+03 -0.33325830331E+03  0.35810687506E+03  0.25500000920E-02 0.  1.
       -2    1    3    3    0  502 -0.67501399630E+02 -0.11235211739E+03  0.12737219446E+03  0.18276518586E+03  0.25500000920E-02 0. -1.
</event>
<event>
 5   0  0.5095783E-03  0.4993973E+03  0.7818609E-02  0.1013936E+00
        2   -1    0    0  501    0  0.00000000000E+00  0.00000000000E+00  0.52652578549E+03  0.52652578549E+03  0.25500000920E-02 0.  1.
       -2   -1    0    0    0  501  0.00000000000E+00  0.00000000000E+00 -0.11841664817E+03  0.11841664820E+03  0.25500000920E-02 0. -1.
    10030    2    1    2    0    0  0.00000000000E+00  0.00000000000E+00  0.40810913732E+03  0.64494243370E+03  0.49939731159E+03 0.  0.
        4    1    3    3  502    0 -0.69230601481E+02 -0.17270328433E+03 -0.10994705525E+02  0.18639151550E+03  0.12699999809E+01 0. -1.
       -4    1    3    3    0  502  0.69230601481E+02  0.17270328433E+03  0.41910384284E+03  0.45855091820E+03  0.12699999809E+01 0.  1.
</event>
<event>
 5   0  0.5118882E-03  0.4998800E+03  0.7818609E-02  0.1013810E+00
       -2   -1    0    0    0  501  0.00000000000E+00  0.00000000000E+00  0.17525590835E+03  0.17525590837E+03  0.25500000920E-02 0.  1.
        2   -1    0    0  501    0  0.00000000000E+00  0.00000000000E+00 -0.35645024132E+03  0.35645024133E+03  0.25500000920E-02 0. -1.
    10030    2    1    2    0    0  0.00000000000E+00  0.00000000000E+00 -0.18119433297E+03  0.53170614970E+03  0.49988002893E+03 0.  0.
        3    1    3    3  502    0  0.19934380300E+03  0.10549834083E+03  0.23973941969E+02  0.22680963782E+03  0.10100000352E+00 0.  1.
       -3    1    3    3    0  502 -0.19934380300E+03 -0.10549834083E+03 -0.20516827494E+03  0.30489651188E+03  0.10100000352E+00 0. -1.
</event>
<event>
 5   0  0.4889251E-03  0.4979269E+03  0.7818609E-02  0.1014321E+00
       -2   -1    0    0    0  501  0.00000000000E+00  0.00000000000E+00  0.50734892880E+02  0.50734892944E+02  0.25500000920E-02 0.  1.
        2   -1    0    0  501    0  0.00000000000E+00  0.00000000000E+00 -0.12216995522E+04  0.12216995522E+04  0.25500000920E-02 0. -1.
    10030    2    1    2    0    0  0.00000000000E+00  0.00000000000E+00 -0.11709646593E+04  0.12724344451E+04  0.49792688601E+03 0.  0.
        5    1    3    3  502    0  0.89869329834E+01 -0.22537862258E+03 -0.85452816708E+03  0.88380810520E+03  0.46999998093E+01 0. -1.
       -5    1    3    3    0  502 -0.89869329834E+01  0.22537862258E+03 -0.31643649220E+03  0.38862633992E+03  0.46999998093E+01 0.  1.
</event>
<event>
 5   0  0.4889251E-03  0.4994120E+03  0.7818609E-02  0.1013932E+00
       -2   -1    0    0    0  501  0.00000000000E+00  0.00000000000E+00  0.11630941635E+03  0.11630941638E+03  0.25500000920E-02 0. -1.
        2   -1    0    0  501    0  0.00000000000E+00  0.00000000000E+00 -0.53609670274E+03  0.53609670274E+03  0.25500000920E-02 0.  1.
    10030    2    1    2    0    0  0.00000000000E+00  0.00000000000E+00 -0.41978728638E+03  0.65240611912E+03  0.49941203276E+03 0.  0.
        5    1    3    3  502    0  0.89639353582E+02  0.15353704723E+03  0.19079707670E+02  0.17887136111E+03  0.46999998093E+01 0. -1.
       -5    1    3    3    0  502 -0.89639353582E+02 -0.15353704723E+03 -0.43886699405E+03  0.47353475802E+03  0.46999998093E+01 0.  1.
</event>
<event>
 5   0  0.4889251E-03  0.5000892E+03  0.7818609E-02  0.1013756E+00
        2   -1    0    0  501    0  0.00000000000E+00  0.00000000000E+00  0.77554290016E+02  0.77554290058E+02  0.25500000920E-02 0.  1.
       -2   -1    0    0    0  501  0.00000000000E+00  0.00000000000E+00 -0.80617457418E+03  0.80617457418E+03  0.25500000920E-02 0. -1.
    10030    2    1    2    0    0  0.00000000000E+00  0.00000000000E+00 -0.72862028416E+03  0.88372886424E+03  0.50008917905E+03 0.  0.
        5    1    3    3  502    0  0.20224194570E+03 -0.14361869148E+03 -0.30921400392E+03  0.39643854929E+03  0.46999998093E+01 0.  1.
       -5    1    3    3    0  502 -0.20224194570E+03  0.14361869148E+03 -0.41940628024E+03  0.48729031495E+03  0.46999998093E+01 0. -1.
</event>
<event>
 5   0  0.3057783E-03  0.4999202E+03  0.7818609E-02  0.1013800E+00
        1   -1    0    0  501    0  0.00000000000E+00  0.00000000000E+00  0.16604328408E+04  0.16604328408E+04  0.50400001928E-02 0.  1.
       -1   -1    0    0    0  501  0.00000000000E+00  0.00000000000E+00 -0.37628772778E+02  0.37628773116E+02  0.50400001928E-02 0. -1.
    10030    2    1    2    0    0  0.00000000000E+00  0.00000000000E+00  0.16228040680E+04  0.16980616139E+04  0.49992019512E+03 0.  0.
        5    1    3    3  502    0 -0.12979726426E+03  0.21129714062E+03  0.70593303485E+03  0.74823616001E+03  0.46999998093E+01 0.  1.
       -5    1    3    3    0  502  0.12979726426E+03 -0.21129714062E+03  0.91687103316E+03  0.94982545391E+03  0.46999998093E+01 0. -1.
</event>
<event>
 5   0  0.4978779E-03  0.4977826E+03  0.7818609E-02  0.1014359E+00
        2   -1    0    0  501    0  0.00000000000E+00  0.00000000000E+00  0.60189733864E+03  0.60189733865E+03  0.25500000920E-02 0. -1.
       -2   -1    0    0    0  501  0.00000000000E+00  0.00000000000E+00 -0.10291935883E+03  0.10291935886E+03  0.25500000920E-02 0.  1.
    10030    2    1    2    0    0  0.00000000000E+00  0.00000000000E+00  0.49897797981E+03  0.70481669751E+03  0.49778263605E+03 0.  0.
        1    1    3    3  502    0  0.81646027871E+02  0.18411182295E+03  0.42437972291E+02  0.20582569989E+03  0.50400001928E-02 0.  1.
       -1    1    3    3    0  502 -0.81646027871E+02 -0.18411182295E+03  0.45654000752E+03  0.49899099762E+03  0.50400001928E-02 0. -1.
</event>
<event>
 5   0  0.2005125E-03  0.4999572E+03  0.7818609E-02  0.1013790E+00
        4   -1    0    0  501    0  0.00000000000E+00  0.00000000000E+00  0.76007236426E+03  0.76007342527E+03  0.12699999809E+01 0.  1.
       -4   -1    0    0    0  501  0.00000000000E+00  0.00000000000E+00 -0.82208900412E+02  0.82218709591E+02  0.12699999809E+01 0. -1.
    10030    2    1    2    0    0  0.00000000000E+00  0.00000000000E+00  0.67786346385E+03  0.84229213487E+03  0.49995716300E+03 0.  0.
        5    1    3    3  502    0 -0.11097508075E+03 -0.17371138047E+03  0.57704586976E+03  0.61277658087E+03  0.46999998093E+01 0.  1.
       -5    1    3    3    0  502  0.11097508075E+03  0.17371138047E+03  0.10081759408E+03  0.22951555400E+03  0.46999998093E+01 0. -1.
</event>
<event>
 5   0  0.3013734E-03  0.4988061E+03  0.7818609E-02  0.1014091E+00
       -1   -1    0    0    0  501  0.00000000000E+00  0.00000000000E+00  0.20755654254E+03  0.20755654260E+03  0.50400001928E-02 0. -1.
        1   -1    0    0  501    0  0.00000000000E+00  0.00000000000E+00 -0.29968646458E+03  0.29968646463E+03  0.50400001928E-02 0.  1.
    10030    2    1    2    0    0  0.00000000000E+00  0.00000000000E+00 -0.92129922045E+02  0.50724300723E+03  0.49880612050E+03 0.  0.
        2    1    3    3  502    0  0.12103984292E+03 -0.63943819988E+01  0.17559049789E+03  0.21336249588E+03  0.25500000920E-02 0. -1.
       -2    1    3    3    0  502 -0.12103984292E+03  0.63943819988E+01 -0.26772041993E+03  0.29388051135E+03  0.25500000920E-02 0.  1.
</event>
<event>
 5   0  0.3055293E-03  0.4999414E+03  0.7818609E-02  0.1013794E+00
       -1   -1    0    0    0  501  0.00000000000E+00  0.00000000000E+00  0.17468030321E+03  0.17468030329E+03  0.50400001928E-02 0.  1.
        1   -1    0    0  501    0  0.00000000000E+00  0.00000000000E+00 -0.35771260622E+03  0.35771260625E+03  0.50400001928E-02 0. -1.
    10030    2    1    2    0    0  0.00000000000E+00  0.00000000000E+00 -0.18303230300E+03  0.53239290954E+03  0.49994138275E+03 0.  0.
        3    1    3    3  502    0  0.22104116101E+03 -0.48742348822E+01  0.32683586702E+02  0.22349760640E+03  0.10100000352E+00 0.  1.
       -3    1    3    3    0  502 -0.22104116101E+03  0.48742348822E+01 -0.21571588971E+03  0.30889530314E+03  0.10100000352E+00 0. -1.
</event>
<event>
 5   0  0.4978779E-03  0.5000778E+03  0.7818609E-02  0.1013759E+00
       -2   -1    0    0    0  501  0.00000000000E+00  0.00000000000E+00  0.64559968204E+02  0.64559968254E+02  0.25500000920E-02 0.  1.
        2   -1    0    0  501    0  0.00000000000E+00  0.00000000000E+00 -0.96839345295E+03  0.96839345295E+03  0.25500000920E-02 0. -1.
    10030    2    1    2    0    0  0.00000000000E+00  0.00000000000E+00 -0.90383348474E+03  0.10329534212E+04  0.50007779618E+03 0.  0.
        1    1    3    3  502    0  0.18895101288E+03  0.12875692423E+03 -0.24290827867E+03  0.33359445840E+03  0.50400001928E-02 0.  1.
       -1    1    3    3    0  502 -0.18895101288E+03 -0.12875692423E+03 -0.66092520608E+03  0.69935896281E+03  0.50400001928E-02 0. -1.
</event>
<event>
 5   0  0.3211775E-03  0.5001568E+03  0.7818609E-02  0.1013738E+00
        1   -1    0    0  501    0  0.00000000000E+00  0.00000000000E+00  0.13030476628E+04  0.13030476628E+04  0.50400001928E-02 0. -1.
       -1   -1    0    0    0  501  0.00000000000E+00  0.00000000000E+00 -0.47994569666E+02  0.47994569931E+02  0.50400001928E-02 0.  1.
    10030    2    1    2    0    0  0.00000000000E+00  0.00000000000E+00  0.12550530931E+04  0.13510422327E+04  0.50015682346E+03 0.  0.
        4    1    3    3  502    0 -0.13480463369E+03  0.49659852399E+02  0.11804507978E+04  0.11891610863E+04  0.12699999809E+01 0. -1.
       -4    1    3    3    0  502  0.13480463369E+03 -0.49659852399E+02  0.74602295315E+02  0.16188114644E+03  0.12699999809E+01 0.  1.
</event>
<event>
 5   0  0.3211775E-03  0.5001083E+03  0.7818609E-02  0.1013751E+00
        1   -1    0    0  501    0  0.00000000000E+00  0.00000000000E+00  0.33368668312E+03  0.33368668316E+03  0.50400001928E-02 0.  1.
       -1   -1    0    0    0  501  0.00000000000E+00  0.00000000000E+00 -0.18738257766E+03  0.18738257772E+03  0.50400001928E-02 0. -1.
    10030    2    1    2    0    0  0.00000000000E+00  0.00000000000E+00  0.14630410547E+03  0.52106926088E+03  0.50010827164E+03 0.  0.
        4    1    3    3  502    0  0.20436141611E+03 -0.10414340813E+03 -0.30600816355E+02  0.23140324266E+03  0.12699999809E+01 0. -1.
       -4    1    3    3    0  502 -0.20436141611E+03  0.10414340813E+03  0.17690492182E+03  0.28966601823E+03  0.12699999809E+01 0.  1.
</event>
<event>
 5   0  0.3057783E-03  0.4999348E+03  0.7818609E-02  0.1013796E+00
        1   -1    0    0  501    0  0.00000000000E+00  0.00000000000E+00  0.53907241335E+03  0.53907241338E+03  0.50400001928E-02 0. -1.
       -1   -1    0    0    0  501  0.00000000000E+00  0.00000000000E+00 -0.11590968190E+03  0.11590968201E+03  0.50400001928E-02 0.  1.
    10030    2    1    2    0    0  0.00000000000E+00  0.00000000000E+00  0.42316273145E+03  0.65498209539E+03  0.49993484375E+03 0.  0.
        5    1    3    3  502    0  0.18710893934E+03 -0.14348217301E+03  0.32013086935E+03  0.39762136847E+03  0.46999998093E+01 0. -1.
       -5    1    3    3    0  502 -0.18710893934E+03  0.14348217301E+03  0.10303186210E+03  0.25736072692E+03  0.46999998093E+01 0.  1.
</event>
<event>
 5   0  0.4989875E-03  0.5002042E+03  0.7818609E-02  0.1013726E+00
       -2   -1    0    0    0  501  0.00000000000E+00  0.00000000000E+00  0.86075329629E+02  0.86075329666E+02  0.25500000920E-02 0. -1.
        2   -1    0    0  501    0  0.00000000000E+00  0.00000000000E+00 -0.72670132049E+03  0.72670132049E+03  0.25500000920E-02 0.  1.
    10030    2    1    2    0    0  0.00000000000E+00  0.00000000000E+00 -0.64062599086E+03  0.81277665016E+03  0.50020418119E+03 0.  0.
        2    1    3    3  502    0  0.22173360737E+03 -0.39661915813E+02 -0.49691239154E+03  0.54558297726E+03  0.25500000920E-02 0.  1.
       -2    1    3    3    0  502 -0.22173360737E+03  0.39661915813E+02 -0.14371359932E+03  0.26719367290E+03  0.25500000920E-02 0. -1.
</event>
<event>
 5   0  0.5095783E-03  0.5002293E+03  0.7818609E-02  0.1013719E+00
       -2   -1    0    0    0  501  0.00000000000E+00  0.00000000000E+00  0.98149361014E+02  0.98149361047E+02  0.25500000920E-02 0. -1.
        2   -1    0    0  501    0  0.00000000000E+00  0.00000000000E+00 -0.63736872343E+03  0.63736872344E+03  0.25500000920E-02 0.  1.
    10030    2    1    2    0    0  0.00000000000E+00  0.00000000000E+00 -0.53921936242E+03  0.73551808448E+03  0.50022927923E+03 0.  0.
        4    1    3    3  502    0  0.29070145107E+02 -0.20558878995E+03 -0.64580397801E+02  0.21744899303E+03  0.12699999809E+01 0. -1.
       -4    1    3    3    0  502 -0.29070145107E+02  0.20558878995E+03 -0.47463896462E+03  0.51806909145E+03  0.12699999809E+01 0.  1.
</event>
<event>
 5   0  0.4889251E-03  0.4999789E+03  0.7818609E-02  0.1013784E+00
       -2   -1    0    0    0  501  0.00000000000E+00  0.00000000000E+00  0.69659902073E+02  0.69659902120E+02  0.25500000920E-02 0.  1.
        2   -1    0    0  501    0  0.00000000000E+00  0.00000000000E+00 -0.89714057988E+03  0.89714057989E+03  0.25500000920E-02 0. -1.
    10030    2    1    2    0    0  0.00000000000E+00  0.00000000000E+00 -0.82748067781E+03  0.96680048201E+03  0.49997889941E+03 0.  0.
        5    1    3    3  502    0 -0.35806443010E+02  0.58882323215E+02  0.50840351542E+02  0.85767480384E+02  0.46999998093E+01 0.  1.
       -5    1    3    3    0  502  0.35806443010E+02 -0.58882323215E+02 -0.87832102935E+03  0.88103300162E+03  0.46999998093E+01 0. -1.
</event>
<event>
 5   0  0.5118882E-03  0.4997104E+03  0.7818609E-02  0.1013855E+00
       -2   -1    0    0    0  501  0.00000000000E+00  0.00000000000E+00  0.18911054322E+03  0.18911054324E+03  0.25500000920E-02 0. -1.
        2   -1    0    0  501    0  0.00000000000E+00  0.00000000000E+00 -0.33011181155E+03  0.33011181156E+03  0.25500000920E-02 0.  1.
    10030    2    1    2    0    0  0.00000000000E+00  0.00000000000E+00 -0.14100126833E+03  0.51922235480E+03  0.49971041219E+03 0.  0.
        3    1    3    3  502    0  0.13473968154E+03 -0.20336618022E+02  0.14710272936E+03  0.20051828595E+03  0.10100000352E+00 0. -1.
       -3    1    3    3    0  502 -0.13473968154E+03  0.20336618022E+02 -0.28810399769E+03  0.31870406885E+03  0.10100000352E+00 0.  1.
</event>
<event>
 5   0  0.4889251E-03  0.4997302E+03  0.7818609E-02  0.1013849E+00
       -2   -1    0    0    0  501  0.00000000000E+00  0.00000000000E+00  0.13796717986E+03  0.13796717988E+03  0.25500000920E-02 0. -1.
        2   -1    0    0  501    0  0.00000000000E+00  0.00000000000E+00 -0.45251759827E+03  0.45251759828E+03  0.25500000920E-02 0.  1.
    10030    2    1    2    0    0  0.00000000000E+00  0.00000000000E+00 -0.31455041841E+03  0.59048477816E+03  0.49973023474E+03 0.  0.
        5    1    3    3  502    0  0.13948103050E+03  0.41344555170E+02 -0.39724955958E+03  0.42307639109E+03  0.46999998093E+01 0.  1.
       -5    1    3    3    0  502 -0.13948103050E+03 -0.41344555170E+02  0.82699141170E+02  0.16740838707E+03  0.46999998093E+01 0. -1.
</event>
<event>
 5   0  0.4989875E-03  0.4997256E+03  0.7818609E-02  0.1013851E+00
        2   -1    0    0  501    0  0.00000000000E+00  0.00000000000E+00  0.68635737847E+03  0.68635737848E+03  0.25500000920E-02 0. -1.
       -2   -1    0    0    0  501  0.00000000000E+00  0.00000000000E+00 -0.90960520302E+02  0.90960520338E+02  0.25500000920E-02 0.  1.
    10030    2    1    2    0    0  0.00000000000E+00  0.00000000000E+00  0.59539685817E+03  0.77731789882E+03  0.49972562182E+03 0.  0.
        2    1    3    3  502    0 -0.15126060333E+03  0.10782894050E+03  0.37766082657E+02  0.18956035328E+03  0.25500000920E-02 0.  1.
       -2    1    3    3    0  502  0.15126060333E+03 -0.10782894050E+03  0.55763077551E+03  0.58775754554E+03  0.25500000920E-02 0. -1.
</event>
<event>
 5   0  0.2863538E-03  0.4999050E+03  0.7818609E-02  0.1013804E+00
        1   -1    0    0  501    0  0.00000000000E+00  0.00000000000E+00  0.11935889176E+04  0.11935889176E+04  0.50400001928E-02 0.  1.
       -1   -1    0    0    0  501  0.00000000000E+00  0.00000000000E+00 -0.52343195107E+02  0.52343195349E+02  0.50400001928E-02 0. -1.
    10030    2    1    2    0    0  0.00000000000E+00  0.00000000000E+00  0.11412457225E+04  0.12459321129E+04  0.49990502197E+03 0.  0.
        1    1    3    3  502    0 -0.66534729780E+02 -0.23429095296E+03  0.43058238425E+03  0.49469213715E+03  0.50400001928E-02 0. -1.
       -1    1    3    3    0  502  0.66534729780E+02  0.23429095296E+03  0.71066333823E+03  0.75123997580E+03  0.50400001928E-02 0.  1.
</event>
<event>
 5   0  0.3211775E-03  0.4999824E+03  0.7818609E-02  0.1013784E+00
       -1   -1    0    0    0  501  0.00000000000E+00  0.00000000000E+00  0.11999234598E+03  0.11999234609E+03  0.50400001928E-02 0. -1.
        1   -1    0    0  501    0  0.00000000000E+00  0.00000000000E+00 -0.52082984725E+03  0.52082984728E+03  0.50400001928E-02 0.  1.
    10030    2    1    2    0    0  0.00000000000E+00  0.00000000000E+00 -0.40083750127E+03  0.64082219337E+03  0.49998238077E+03 0.  0.
        4    1    3    3  502    0 -0.12795834119E+03  0.21474656880E+03 -0.20315463425E+03  0.32212240563E+03  0.12699999809E+01 0. -1.
       -4    1    3    3    0  502  0.12795834119E+03 -0.21474656880E+03 -0.19768286702E+03  0.31869978774E+03  0.12699999809E+01 0.  1.
</event>
<event>
 5   0  0.5095783E-03  0.4978865E+03  0.7818609E-02  0.1014332E+00
        2   -1    0    0  501    0  0.00000000000E+00  0.00000000000E+00  0.11732337045E+04  0.11732337045E+04  0.25500000920E-02 0. -1.
       -2   -1    0    0    0  501  0.00000000000E+00  0.00000000000E+00 -0.52822163184E+02  0.52822163246E+02  0.25500000920E-02 0.  1.
    10030    2    1    2    0    0  0.00000000000E+00  0.00000000000E+00  0.11204115413E+04  0.12260558678E+04  0.49788650206E+03 0.  0.
        4    1    3    3  502    0 -0.62497850323E+02 -0.50954949370E+02  0.11401738118E+04  0.11430224504E+04  0.12699999809E+01 0. -1.
       -4    1    3    3    0  502  0.62497850323E+02  0.50954949370E+02 -0.19762270472E+02  0.83033417336E+02  0.12699999809E+01 0.  1.
</event>
<event>
 5   0  0.5095783E-03  0.4988572E+03  0.7818609E-02  0.1014078E+00
        2   -1    0    0  501    0  0.00000000000E+00  0.00000000000E+00  0.55352720755E+03  0.55352720755E+03  0.25500000920E-02 0.  1.
       -2   -1    0    0    0  501  0.00000000000E+00  0.00000000000E+00 -0.11239668411E+03  0.11239668414E+03  0.25500000920E-02 0. -1.
    10030    2    1    2    0    0  0.00000000000E+00  0.00000000000E+00  0.44113052344E+03  0.66592389169E+03  0.49885718478E+03 0.  0.
        4    1    3    3  502    0 -0.12078675693E+03  0.14653688657E+03  0.43643335069E+03  0.47596027384E+03  0.12699999809E+01 0.  1.
       -4    1    3    3    0  502  0.12078675693E+03 -0.14653688657E+03  0.46971727498E+01  0.18996361785E+03  0.12699999809E+01 0. -1.
</event>
<event>
 5   0  0.3013734E-03  0.4997614E+03  0.7818609E-02  0.1013841E+00
        1   -1    0    0  501    0  0.00000000000E+00  0.00000000000E+00  0.49258359071E+02  0.49258359329E+02  0.50400001928E-02 0.  1.
       -1   -1    0    0    0  501  0.00000000000E+00  0.00000000000E+00 -0.12676094075E+04  0.12676094075E+04  0.50400001928E-02 0. -1.
    10030    2    1    2    0    0  0.00000000000E+00  0.00000000000E+00 -0.12183510484E+04  0.13168677668E+04  0.49976138119E+03 0.  0.
        2    1    3    3  502    0 -0.17063069789E+03 -0.10788474077E+03 -0.99721264914E+03  0.10174414086E+04  0.25500000920E-02 0. -1.
       -2    1    3    3    0  502  0.17063069789E+03  0.10788474077E+03 -0.22113839929E+03  0.29942635823E+03  0.25500000920E-02 0.  1.
</event>
<event>
 5   0  0.2005125E-03  0.5001248E+03  0.7818609E-02  0.1013746E+00
       -4   -1    0    0    0  501  0.00000000000E+00  0.00000000000E+00  0.48415564215E+03  0.48415730783E+03  0.12699999809E+01 0.  1.
        4   -1    0    0  501    0  0.00000000000E+00  0.00000000000E+00 -0.12915017840E+03  0.12915642253E+03  0.12699999809E+01 0. -1.
    10030    2    1    2    0    0  0.00000000000E+00  0.00000000000E+00  0.35500546375E+03  0.61331373035E+03  0.50012483696E+03 0.  0.
        3    1    3    3  502    0 -0.51686005916E+02 -0.89503995391E+02  0.45674013885E+03  0.46828834390E+03  0.10100000352E+00 0.  1.
       -3    1    3    3    0  502  0.51686005916E+02  0.89503995391E+02 -0.10173467509E+03  0.14502538645E+03  0.10100000352E+00 0. -1.
</event>
<event>
 5   0  0.4989875E-03  0.4999061E+03  0.7818609E-02  0.1013803E+00
       -2   -1    0    0    0  501  0.00000000000E+00  0.00000000000E+00  0.92484969564E+03  0.92484969565E+03  0.25500000920E-02 0. -1.
        2   -1    0    0  501    0  0.00000000000E+00  0.00000000000E+00 -0.67553158609E+02  0.67553158657E+02  0.25500000920E-02 0.  1.
    10030    2    1    2    0    0  0.00000000000E+00  0.00000000000E+00  0.85729653703E+03  0.99240285430E+03  0.49990606399E+03 0.  0.
        2    1    3    3  502    0  0.15116597229E+03 -0.13505669491E+03  0.13834308022E+03  0.24541856057E+03  0.25500000920E-02 0.  1.
       -2    1    3    3    0  502 -0.15116597229E+03  0.13505669491E+03  0.71895345681E+03  0.74698429374E+03  0.25500000920E-02 0. -1.
</event>
<event>
 5   0  0.5118882E-03  0.5003011E+03  0.7818609E-02  0.1013700E+00
       -2   -1    0    0    0  501  0.00000000000E+00  0.00000000000E+00  0.80711400072E+02  0.80711400112E+02  0.25500000920E-02 0.  1.
        2   -1    0    0  501    0  0.00000000000E+00  0.00000000000E+00 -0.77529698222E+03  0.77529698223E+03  0.25500000920E-02 0. -1.
    10030    2    1    2    0    0  0.00000000000E+00  0.00000000000E+00 -0.69458558215E+03  0.85600838234E+03  0.50030112902E+03 0.  0.
        3    1    3    3  502    0  0.67380352794E+02  0.23503863705E+03 -0.43770059975E+03  0.50136323965E+03  0.10100000352E+00 0. -1.
       -3    1    3    3    0  502 -0.67380352794E+02 -0.23503863705E+03 -0.25688498240E+03  0.35464514269E+03  0.10100000352E+00 0.  1.
</event>
<event>
 5   0  0.2005125E-03  0.4999560E+03  0.7818609E-02  0.1013790E+00
        3   -1    0    0  501    0  0.00000000000E+00  0.00000000000E+00  0.24944772803E+03  0.24944774848E+03  0.10100000352E+00 0.  1.
       -3   -1    0    0    0  501  0.00000000000E+00  0.00000000000E+00 -0.25050937012E+03  0.25050939048E+03  0.10100000352E+00 0. -1.
    10030    2    1    2    0    0  0.00000000000E+00  0.00000000000E+00 -0.10616420872E+01  0.49995713896E+03  0.49995601177E+03 0.  0.
        3    1    3    3  502    0  0.70039620675E+02 -0.97592256030E+02 -0.21975539318E+03  0.25044408545E+03  0.10100000352E+00 0. -1.
       -3    1    3    3    0  502 -0.70039620675E+02  0.97592256030E+02  0.21869375110E+03  0.24951305351E+03  0.10100000352E+00 0.  1.
</event>
<event>
 5   0  0.2005125E-03  0.4998410E+03  0.7818609E-02  0.1013820E+00
        3   -1    0    0  501    0  0.00000000000E+00  0.00000000000E+00  0.86136444237E+03  0.86136444830E+03  0.10100000352E+00 0.  1.
       -3   -1    0    0    0  501  0.00000000000E+00  0.00000000000E+00 -0.72513122354E+02  0.72513192693E+02  0.10100000352E+00 0. -1.
    10030    2    1    2    0    0  0.00000000000E+00  0.00000000000E+00  0.78885132002E+03  0.93387764099E+03  0.49984101796E+03 0.  0.
        4    1    3    3  502    0 -0.29870119117E+02  0.22088212870E+03  0.18323185007E+03  0.28854230639E+03  0.12699999809E+01 0. -1.
       -4    1    3    3    0  502  0.29870119117E+02 -0.22088212870E+03  0.60561946995E+03  0.64533533460E+03  0.12699999809E+01 0.  1.
</event>
<event>
 5   0  0.4989875E-03  0.4998405E+03  0.7818609E-02  0.1013821E+00
        2   -1    0    0  501    0  0.00000000000E+00  0.00000000000E+00  0.57071017675E+03  0.57071017676E+03  0.25500000920E-02 0.  1.
       -2   -1    0    0    0  501  0.00000000000E+00  0.00000000000E+00 -0.10944283531E+03  0.10944283534E+03  0.25500000920E-02 0. -1.
    10030    2    1    2    0    0  0.00000000000E+00  0.00000000000E+00  0.46126734144E+03  0.68015301209E+03  0.49984053415E+03 0.  0.
        2    1    3    3  502    0 -0.14207215921E+03  0.18210189615E+02  0.50931651463E+03  0.52907411721E+03  0.25500000920E-02 0.  1.
       -2    1    3    3    0  502  0.14207215921E+03 -0.18210189615E+02 -0.48049173181E+02  0.15107889488E+03  0.25500000920E-02 0. -1.
</event>
<event>
 5   0  0.4978779E-03  0.5000180E+03  0.7818609E-02  0.1013774E+00
        2   -1    0    0  501    0  0.00000000000E+00  0.00000000000E+00  0.75210679700E+03  0.75210679701E+03  0.25500000920E-02 0.  1.
       -2   -1    0    0    0  501  0.00000000000E+00  0.00000000000E+00 -0.83105895648E+02  0.83105895687E+02  0.25500000920E-02 0. -1.
    10030    2    1    2    0    0  0.00000000000E+00  0.00000000000E+00  0.66900090135E+03  0.83521269269E+03  0.50001803570E+03 0.  0.
        1    1    3    3  502    0  0.73014224945E+02  0.23260069734E+03  0.42705657994E+03  0.49174331103E+03  0.50400001928E-02 0.  1.
       -1    1    3    3    0  502 -0.73014224945E+02 -0.23260069734E+03  0.24194432142E+03  0.34346938166E+03  0.50400001928E-02 0. -1.
</event>
<event>
 5   0  0.3055293E-03  0.5002176E+03  0.7818609E-02  0.1013722E+00
       -1   -1    0    0    0  501  0.00000000000E+00  0.00000000000E+00  0.15987991769E+03  0.15987991777E+03  0.50400001928E-02 0. -1.
        1   -1    0    0  501    0  0.00000000000E+00  0.00000000000E+00 -0.39125878957E+03  0.39125878961E+03  0.50400001928E-02 0.  1.
    10030    2    1    2    0    0  0.00000000000E+00  0.00000000000E+00 -0.23137887188E+03  0.55113870738E+03  0.50021764505E+03 0.  0.
        3    1    3    3  502    0  0.12435349232E+02  0.10728332059E+03 -0.36424209007E+03  0.37991664766E+03  0.10100000352E+00 0.  1.
       -3    1    3    3    0  502 -0.12435349232E+02 -0.10728332059E+03  0.13286321819E+03  0.17122205972E+03  0.10100000352E+00 0. -1.
</event>
<event>
 5   0  0.4889251E-03  0.5020600E+03  0.7818609E-02  0.1013243E+00
        2   -1    0    0  501    0  0.00000000000E+00  0.00000000000E+00  0.97585123909E+03  0.97585123909E+03  0.25500000920E-02 0. -1.
       -2   -1    0    0    0  501  0.00000000000E+00  0.00000000000E+00 -0.64575470869E+02  0.64575470920E+02  0.25500000920E-02 0.  1.
    10030    2    1    2    0    0  0.00000000000E+00  0.00000000000E+00  0.91127576822E+03  0.10404267100E+04  0.50205996969E+03 0.  0.
        5    1    3    3  502    0 -0.47221383754E+02  0.34869306045E+02 -0.50059080442E+02  0.77289903096E+02  0.46999998093E+01 0.  1.
       -5    1    3    3    0  502  0.47221383754E+02 -0.34869306045E+02  0.96133484866E+03  0.96313680692E+03  0.46999998093E+01 0. -1.
</event>
<event>
 5   0  0.5095783E-03  0.4999701E+03  0.7818609E-02  0.1013787E+00
        2   -1    0    0  501    0  0.00000000000E+00  0.00000000000E+00  0.86927611916E+03  0.86927611916E+03  0.25500000920E-02 0.  1.
       -2   -1    0    0    0  501  0.00000000000E+00  0.00000000000E+00 -0.71890297441E+02  0.71890297486E+02  0.25500000920E-02 0. -1.
    10030    2    1    2    0    0  0.00000000000E+00  0.00000000000E+00  0.79738582172E+03  0.94116641665E+03  0.49997007425E+03 0.  0.
        4    1    3    3  502    0  0.17517807603E+03  0.13847709541E+03  0.61022854434E+03  0.64980285741E+03  0.12699999809E+01 0.  1.
       -4    1    3    3    0  502 -0.17517807603E+03 -0.13847709541E+03  0.18715727738E+03  0.29136355924E+03  0.12699999809E+01 0. -1.
</event>
<event>
 5   0  0.4989875E-03  0.4997482E+03  0.7818609E-02  0.1013845E+00
        2   -1    0    0  501    0  0.00000000000E+00  0.00000000000E+00  0.71610115006E+02  0.71610115051E+02  0.25500000920E-02 0.  1.
       -2   -1    0    0    0  501  0.00000000000E+00  0.00000000000E+00 -0.87190286213E+03  0.87190286213E+03  0.25500000920E-02 0. -1.
    10030    2    1    2    0    0  0.00000000000E+00  0.00000000000E+00 -0.80029274712E+03  0.94351297718E+03  0.49974819361E+03 0.  0.
        2    1    3    3  502    0  0.11601420536E+03 -0.21923580817E+03 -0.45720666688E+03  0.52015533418E+03  0.25500000920E-02 0.  1.
       -2    1    3    3    0  502 -0.11601420536E+03  0.21923580817E+03 -0.34308608024E+03  0.42335764300E+03  0.25500000920E-02 0. -1.
</event>
<event>
 5   0  0.3055293E-03  0.4995896E+03  0.7818609E-02  0.1013886E+00
        1   -1    0    0  501    0  0.00000000000E+00  0.00000000000E+00  0.75305756111E+02  0.75305756279E+02  0.50400001928E-02 0.  1.
       -1   -1    0    0    0  501  0.00000000000E+00  0.00000000000E+00 -0.82858790090E+03  0.82858790092E+03  0.50400001928E-02 0. -1.
    10030    2    1    2    0    0  0.00000000000E+00  0.00000000000E+00 -0.75328214479E+03  0.90389365720E+03  0.49958958542E+03 0.  0.
        3    1    3    3  502    0 -0.48982986000E+02 -0.67111591711E+01 -0.81964708850E+03  0.82113685367E+03  0.10100000352E+00 0. -1.
       -3    1    3    3    0  502  0.48982986000E+02  0.67111591711E+01  0.66364943708E+02  0.82756803523E+02  0.10100000352E+00 0.  1.
</event>
<event>
 5   0  0.3057783E-03  0.5001088E+03  0.7818609E-02  0.1013751E+00
       -1   -1    0    0    0  501  0.00000000000E+00  0.00000000000E+00  0.10778416768E+03  0.10778416780E+03  0.50400001928E-02 0. -1.
        1   -1    0    0  501    0  0.00000000000E+00  0.00000000000E+00 -0.58011487912E+03  0.58011487914E+03  0.50400001928E-02 0.  1.
    10030    2    1    2    0    0  0.00000000000E+00  0.00000000000E+00 -0.47233071144E+03  0.68789904695E+03  0.50010878599E+03 0.  0.
        5    1    3    3  502    0 -0.53446703968E+02 -0.16263910250E+02  0.99027775080E+02  0.11379655169E+03  0.46999998093E+01 0. -1.
       -5    1    3    3    0  502  0.53446703968E+02  0.16263910250E+02 -0.57135848652E+03  0.57410249525E+03  0.46999998093E+01 0.  1.
</event>
<event>
 5   0  0.4978779E-03  0.5003552E+03  0.7818609E-02  0.1013686E+00
        2   -1    0    0  501    0  0.00000000000E+00  0.00000000000E+00  0.16303030258E+04  0.16303030258E+04  0.25500000920E-02 0.  1.
       -2   -1    0    0    0  501  0.00000000000E+00  0.00000000000E+00 -0.38390914225E+02  0.38390914310E+02  0.25500000920E-02 0. -1.
    10030    2    1    2    0    0  0.00000000000E+00  0.00000000000E+00  0.15919121116E+04  0.16686939401E+04  0.50035516865E+03 0.  0.
        1    1    3    3  502    0  0.10676307805E+03  0.82110223739E+02  0.14990709000E+04  0.15051093006E+04  0.50400001928E-02 0.  1.
       -1    1    3    3    0  502 -0.10676307805E+03 -0.82110223739E+02  0.92841211602E+02  0.16358463948E+03  0.50400001928E-02 0. -1.
</event>
<event>
 5   0  0.4889251E-03  0.4998189E+03  0.7818609E-02  0.1013826E+00
       -2   -1    0    0    0  501  0.00000000000E+00  0.00000000000E+00  0.49979632184E+03  0.49979632184E+03  0.25500000920E-02 0.  1.
        2   -1    0    0  501    0  0.00000000000E+00  0.00000000000E+00 -0.12496039279E+03  0.12496039281E+03  0.25500000920E-02 0. -1.
    10030    2    1    2    0    0  0.00000000000E+00  0.00000000000E+00  0.37483592905E+03  0.62475671466E+03  0.49981894602E+03 0.  0.
        5    1    3    3  502    0 -0.44277993839E+02  0.17070987194E+03  0.40866638207E+03  0.44512099810E+03  0.46999998093E+01 0.  1.
       -5    1    3    3    0  502  0.44277993839E+02 -0.17070987194E+03 -0.33830453018E+02  0.17963571656E+03  0.46999998093E+01 0. -1.
</event>
<event>
 5   0  0.4889251E-03  0.4998851E+03  0.7818609E-02  0.1013809E+00
       -2   -1    0    0    0  501  0.00000000000E+00  0.00000000000E+00  0.54844245143E+02  0.54844245202E+02  0.25500000920E-02 0. -1.
        2   -1    0    0  501    0  0.00000000000E+00  0.00000000000E+00 -0.11390673626E+04  0.11390673626E+04  0.25500000920E-02 0.  1.
    10030    2    1    2    0    0  0.00000000000E+00  0.00000000000E+00 -0.10842231175E+04  0.11939116078E+04  0.49988514564E+03 0.  0.
        5    1    3    3  502    0 -0.88576745514E+02  0.23133288718E+03 -0.62090811127E+03  0.66851306433E+03  0.46999998093E+01 0. -1.
       -5    1    3    3    0  502  0.88576745514E+02 -0.23133288718E+03 -0.46331500621E+03  0.52539854350E+03  0.46999998093E+01 0.  1.
</event>
<event>
 5   0  0.3211775E-03  0.5000517E+03  0.7818609E-02  0.1013765E+00
        1   -1    0    0  501    0  0.00000000000E+00  0.00000000000E+00  0.41309993222E+03  0.41309993225E+03  0.50400001928E-02 0.  1.
       -1   -1    0    0    0  501  0.00000000000E+00  0.00000000000E+00 -0.15132641067E+03  0.15132641075E+03  0.50400001928E-02 0. -1.
    10030    2    1    2    0    0  0.00000000000E+00  0.00000000000E+00  0.26177352156E+03  0.56442634301E+03  0.50005171742E+03 0.  0.
        4    1    3    3  502    0 -0.10219587935E+03 -0.14358949314E+03 -0.69282955670E+02  0.18937708716E+03  0.12699999809E+01 0. -1.
       -4    1    3    3    0  502  0.10219587935E+03  0.14358949314E+03  0.33105647723E+03  0.37504925584E+03  0.12699999809E+01 0.  1.
</event>
<event>
 5   0  0.3211775E-03  0.4996916E+03  0.7818609E-02  0.1013859E+00
       -1   -1    0    0    0  501  0.00000000000E+00  0.00000000000E+00  0.15433498559E+03  0.15433498568E+03  0.50400001928E-02 0.  1.
        1   -1    0    0  501    0  0.00000000000E+00  0.00000000000E+00 -0.40446379437E+03  0.40446379440E+03  0.50400001928E-02 0. -1.
    10030    2    1    2    0    0  0.00000000000E+00  0.00000000000E+00 -0.25012880877E+03  0.55879878008E+03  0.49969156050E+03 0.  0.
        4    1    3    3  502    0 -0.19879130344E+03  0.13985352949E+03 -0.18973496591E+03  0.30834714564E+03  0.12699999809E+01 0.  1.
       -4    1    3    3    0  502  0.19879130344E+03 -0.13985352949E+03 -0.60393842867E+02  0.25045163444E+03  0.12699999809E+01 0. -1.
</event>
<event>
 5   0  0.3013734E-03  0.5003359E+03  0.7818609E-02  0.1013691E+00
        1   -1    0    0  501    0  0.00000000000E+00  0.00000000000E+00  0.54887812985E+03  0.54887812987E+03  0.50400001928E-02 0.  1.
       -1   -1    0    0    0  501  0.00000000000E+00  0.00000000000E+00 -0.11402166757E+03  0.11402166768E+03  0.50400001928E-02 0. -1.
    10030    2    1    2    0    0  0.00000000000E+00  0.00000000000E+00  0.43485646228E+03  0.66289979755E+03  0.50033588599E+03 0.  0.
        2    1    3    3  502    0 -0.19822559253E+03 -0.64247950451E+02  0.40083522258E+03  0.45176327909E+03  0.25500000920E-02 0.  1.
       -2    1    3    3    0  502  0.19822559253E+03  0.64247950451E+02  0.34021239704E+02  0.21113651846E+03  0.25500000920E-02 0. -1.
</event>
<event>
 5   0  0.4978779E-03  0.4999742E+03  0.7818609E-02  0.1013786E+00
       -2   -1    0    0    0  501  0.00000000000E+00  0.00000000000E+00  0.10677783473E+03  0.10677783476E+03  0.25500000920E-02 0.  1.
        2   -1    0    0  501    0  0.00000000000E+00  0.00000000000E+00 -0.58526695371E+03  0.58526695372E+03  0.25500000920E-02 0. -1.
    10030    2    1    2    0    0  0.00000000000E+00  0.00000000000E+00 -0.47848911898E+03  0.69204478847E+03  0.49997415160E+03 0.  0.
        1    1    3    3  502    0 -0.24093573797E+03  0.33117749395E+02 -0.31931948199E+03  0.40138727778E+03  0.50400001928E-02 0. -1.
       -1    1    3    3    0  502  0.24093573797E+03 -0.33117749395E+02 -0.15916963699E+03  0.29065751070E+03  0.50400001928E-02 0.  1.
</event>
<event>
 5   0  0.4889251E-03  0.4998932E+03  0.7818609E-02  0.1013807E+00
       -2   -1    0    0    0  501  0.00000000000E+00  0.00000000000E+00  0.95602512756E+02  0.95602512790E+02  0.25500000920E-02 0. -1.
        2   -1    0    0  501    0  0.00000000000E+00  0.00000000000E+00 -0.65346921948E+03  0.65346921948E+03  0.25500000920E-02 0.  1.
    10030    2    1    2    0    0  0.00000000000E+00  0.00000000000E+00 -0.55786670672E+03  0.74907173227E+03  0.49989318621E+03 0.  0.
        5    1    3    3  502    0 -0.19836860134E+03 -0.13305434258E+03 -0.38902351880E+03  0.45652486050E+03  0.46999998093E+01 0.  1.
       -5    1    3    3    0  502  0.19836860134E+03  0.13305434258E+03 -0.16884318792E+03  0.29254687177E+03  0.46999998093E+01 0. -1.
</event>
<event>
 5   0  0.5118882E-03  0.5007404E+03  0.7818609E-02  0.1013586E+00
       -2   -1    0    0    0  501  0.00000000000E+00  0.00000000000E+00  0.13717092551E+03  0.13717092554E+03  0.25500000920E-02 0. -1.
        2   -1    0    0  501    0  0.00000000000E+00  0.00000000000E+00 -0.45698631937E+03  0.45698631938E+03  0.25500000920E-02 0.  1.
    10030    2    1    2    0    0  0.00000000000E+00  0.00000000000E+00 -0.31981539386E+03  0.59415724492E+03  0.50074039735E+03 0.  0.
        3    1    3    3  502    0 -0.67552622946E+02  0.23660763061E+03 -0.21478130858E+03  0.32661529120E+03  0.10100000352E+00 0.  1.
       -3    1    3    3    0  502  0.67552622946E+02 -0.23660763061E+03 -0.10503408528E+03  0.26754195372E+03  0.10100000352E+00 0. -1.
</event>
<event>
 5   0  0.3211775E-03  0.4999030E+03  0.7818609E-02  0.1013804E+00
       -1   -1    0    0    0  501  0.00000000000E+00  0.00000000000E+00  0.77261273673E+02  0.77261273837E+02  0.50400001928E-02 0. -1.
        1   -1    0    0  501    0  0.00000000000E+00  0.00000000000E+00 -0.80862962565E+03  0.80862962567E+03  0.50400001928E-02 0.  1.
    10030    2    1    2    0    0  0.00000000000E+00  0.00000000000E+00 -0.73136835198E+03  0.88589089950E+03  0.49990301014E+03 0.  0.
        4    1    3    3  502    0  0.68393624753E+02 -0.99764884022E+02  0.21935314155E+02  0.12293693870E+03  0.12699999809E+01 0. -1.
       -4    1    3    3    0  502 -0.68393624753E+02  0.99764884022E+02 -0.75330366613E+03  0.76295396080E+03  0.12699999809E+01 0.  1.
</event>
<event>
 5   0  0.4978779E-03  0.4999951E+03  0.7818609E-02  0.1013780E+00
        2   -1    0    0  501    0  0.00000000000E+00  0.00000000000E+00  0.13170797690E+04  0.13170797690E+04  0.25500000920E-02 0. -1.
       -2   -1    0    0    0  501  0.00000000000E+00  0.00000000000E+00 -0.47452544922E+02  0.47452544991E+02  0.25500000920E-02 0.  1.
    10030    2    1    2    0    0  0.00000000000E+00  0.00000000000E+00  0.12696272240E+04  0.13645323140E+04  0.49999514778E+03 0.  0.
        1    1    3    3  502    0  0.84113556265E+02  0.21452441675E+03  0.37017659782E+03  0.43603500929E+03  0.50400001928E-02 0.  1.
       -1    1    3    3    0  502 -0.84113556265E+02 -0.21452441675E+03  0.89945062622E+03  0.92849730466E+03  0.50400001928E-02 0. -1.
</event>
<event>
 5   0  0.3211775E-03  0.5015735E+03  0.7818609E-02  0.1013369E+00
       -1   -1    0    0    0  501  0.00000000000E+00  0.00000000000E+00  0.10745533940E+03  0.10745533952E+03  0.50400001928E-02 0. -1.
        1   -1    0    0  501    0  0.00000000000E+00  0.00000000000E+00 -0.58530354507E+03  0.58530354509E+03  0.50400001928E-02 0.  1.
    10030    2    1    2    0    0  0.00000000000E+00  0.00000000000E+00 -0.47784820567E+03  0.69275888461E+03  0.50157348867E+03 0.  0.
        4    1    3    3  502    0 -0.10092575195E+03  0.41386986463E+02  0.72968368358E+02  0.13124361217E+03  0.12699999809E+01 0. -1.
       -4    1    3    3    0  502  0.10092575195E+03 -0.41386986463E+02 -0.55081657403E+03  0.56151527244E+03  0.12699999809E+01 0.  1.
</event>
<event>
 5   0  0.5118882E-03  0.5000018E+03  0.7818609E-02  0.1013778E+00
       -2   -1    0    0    0  501  0.00000000000E+00  0.00000000000E+00  0.79310839225E+02  0.79310839266E+02  0.25500000920E-02 0.  1.
        2   -1    0    0  501    0  0.00000000000E+00  0.00000000000E+00 -0.78804430776E+03  0.78804430776E+03  0.25500000920E-02 0. -1.
    10030    2    1    2    0    0  0.00000000000E+00  0.00000000000E+00 -0.70873346853E+03  0.86735514703E+03  0.50000182165E+03 0.  0.
        3    1    3    3  502    0 -0.98365492811E+02  0.22820851129E+03 -0.30700104285E+03  0.39497410714E+03  0.10100000352E+00 0.  1.
       -3    1    3    3    0  502  0.98365492811E+02 -0.22820851129E+03 -0.40173242568E+03  0.47238103988E+03  0.10100000352E+00 0. -1.
</event>
<event>
 5   0  0.5095783E-03  0.5002288E+03  0.7818609E-02  0.1013719E+00
       -2   -1    0    0    0  501  0.00000000000E+00  0.00000000000E+00  0.66201788394E+02  0.66201788444E+02  0.25500000920E-02 0.  1.
        2   -1    0    0  501    0  0.00000000000E+00  0.00000000000E+00 -0.94494764515E+03  0.94494764515E+03  0.25500000920E-02 0. -1.
    10030    2    1    2    0    0  0.00000000000E+00  0.00000000000E+00 -0.87874585675E+03  0.10111494336E+04  0.50022884393E+03 0.  0.
        4    1    3    3  502    0  0.45064628872E+02  0.22327639286E+03 -0.64819602446E+03  0.68705375875E+03  0.12699999809E+01 0. -1.
       -4    1    3    3    0  502 -0.45064628872E+02 -0.22327639286E+03 -0.23054983229E+03  0.32409567484E+03  0.12699999809E+01 0.  1.
</event>
<event>
 5   0  0.2863538E-03  0.5001308E+03  0.7818609E-02  0.1013745E+00
       -1   -1    0    0    0  501  0.00000000000E+00  0.00000000000E+00  0.20455074464E+03  0.20455074470E+03  0.50400001928E-02 0. -1.
        1   -1    0    0  501    0  0.00000000000E+00  0.00000000000E+00 -0.30570751427E+03  0.30570751431E+03  0.50400001928E-02 0.  1.
    10030    2    1    2    0    0  0.00000000000E+00  0.00000000000E+00 -0.10115676963E+03  0.51025825901E+03  0.50013078174E+03 0.  0.
        1    1    3    3  502    0 -0.36522901480E+02  0.13646213768E+03 -0.26109834757E+03  0.29686391576E+03  0.50400001928E-02 0.  1.
       -1    1    3    3    0  502  0.36522901480E+02 -0.13646213768E+03  0.15994157794E+03  0.21339434325E+03  0.50400001928E-02 0. -1.
</event>
<event>
 5   0  0.4978779E-03  0.4996677E+03  0.7818609E-02  0.1013866E+00
       -2   -1    0    0    0  501  0.00000000000E+00  0.00000000000E+00  0.10136061642E+03  0.10136061645E+03  0.25500000920E-02 0.  1.
        2   -1    0    0  501    0  0.00000000000E+00  0.00000000000E+00 -0.61579089553E+03  0.61579089553E+03  0.25500000920E-02 0. -1.
    10030    2    1    2    0    0  0.00000000000E+00  0.00000000000E+00 -0.51443027911E+03  0.71715151198E+03  0.49966766862E+03 0.  0.
        1    1    3    3  502    0 -0.10904955016E+03  0.12648826211E+03 -0.52390218585E+03  0.54987688186E+03  0.50400001928E-02 0. -1.
       -1    1    3    3    0  502  0.10904955016E+03 -0.12648826211E+03  0.94719067368E+01  0.16727463012E+03  0.50400001928E-02 0.  1.
</event>
<event>
 5   0  0.3055293E-03  0.4998003E+03  0.7818609E-02  0.1013831E+00
        1   -1    0    0  501    0  0.00000000000E+00  0.00000000000E+00  0.92515728731E+03  0.92515728733E+03  0.50400001928E-02 0.  1.
       -1   -1    0    0    0  501  0.00000000000E+00  0.00000000000E+00 -0.67502128558E+02  0.67502128746E+02  0.50400001928E-02 0. -1.
    10030    2    1    2    0    0  0.00000000000E+00  0.00000000000E+00  0.85765515876E+03  0.99265941607E+03  0.49980030510E+03 0.  0.
        3    1    3    3  502    0 -0.56711906575E+02  0.18954548844E+03  0.12561946387E+03  0.23435868330E+03  0.10100000352E+00 0. -1.
       -3    1    3    3    0  502  0.56711906575E+02 -0.18954548844E+03  0.73203569489E+03  0.75830073278E+03  0.10100000352E+00 0.  1.
</event>
<event>
 5   0  0.3057783E-03  0.4997042E+03  0.7818609E-02  0.1013856E+00
        1   -1    0    0  501    0  0.00000000000E+00  0.00000000000E+00  0.97651043378E+03  0.97651043379E+03  0.50400001928E-02 0. -1.
       -1   -1    0    0    0  501  0.00000000000E+00  0.00000000000E+00 -0.63927693132E+02  0.63927693331E+02  0.50400001928E-02 0.  1.
    10030    2    1    2    0    0  0.00000000000E+00  0.00000000000E+00  0.91258274065E+03  0.10404381271E+04  0.49970415032E+03 0.  0.
        5    1    3    3  502    0  0.17967685039E+03  0.11085105585E+02  0.95675757708E+02  0.20391809813E+03  0.46999998093E+01 0.  1.
       -5    1    3    3    0  502 -0.17967685039E+03 -0.11085105585E+02  0.81690698294E+03  0.83652002899E+03  0.46999998093E+01 0. -1.
</event>
<event>
 5   0  0.3211775E-03  0.5001114E+03  0.7818609E-02  0.1013750E+00
        1   -1    0    0  501    0  0.00000000000E+00  0.00000000000E+00  0.50920732469E+02  0.50920732718E+02  0.50400001928E-02 0.  1.
       -1   -1    0    0    0  501  0.00000000000E+00  0.00000000000E+00 -0.12279449112E+04  0.12279449112E+04  0.50400001928E-02 0. -1.
    10030    2    1    2    0    0  0.00000000000E+00  0.00000000000E+00 -0.11770241787E+04  0.12788656439E+04  0.50011140549E+03 0.  0.
        4    1    3    3  502    0  0.59538628226E+01  0.24997461727E+03 -0.58373915251E+03  0.63503997420E+03  0.12699999809E+01 0.  1.
       -4    1    3    3    0  502 -0.59538628226E+01 -0.24997461727E+03 -0.59328502623E+03  0.64382566973E+03  0.12699999809E+01 0. -1.
</event>
<event>
 5   0  0.3055293E-03  0.5000069E+03  0.7818609E-02  0.1013777E+00
        1   -1    0    0  501    0  0.00000000000E+00  0.00000000000E+00  0.57398534619E+03  0.57398534621E+03  0.50400001928E-02 0. -1.
       -1   -1    0    0    0  501  0.00000000000E+00  0.00000000000E+00 -0.10889080494E+03  0.10889080506E+03  0.50400001928E-02 0.  1.
    10030    2    1    2    0    0  0.00000000000E+00  0.00000000000E+00  0.46509454125E+03  0.68287615127E+03  0.50000690563E+03 0.  0.
        3    1    3    3  502    0  0.19705886844E+03 -0.10169029311E+03  0.39022060702E+03  0.44882652070E+03  0.10100000352E+00 0. -1.
       -3    1    3    3    0  502 -0.19705886844E+03  0.10169029311E+03  0.74873934225E+02  0.23404963057E+03  0.10100000352E+00 0.  1.
</event>
<event>
 5   0  0.3055293E-03  0.5000155E+03  0.7818609E-02  0.1013775E+00
        1   -1    0    0  501    0  0.00000000000E+00  0.00000000000E+00  0.69992039597E+02  0.69992039778E+02  0.50400001928E-02 0. -1.
       -1   -1    0    0    0  501  0.00000000000E+00  0.00000000000E+00 -0.89301387496E+03  0.89301387497E+03  0.50400001928E-02 0.  1.
    10030    2    1    2    0    0  0.00000000000E+00  0.00000000000E+00 -0.82302183536E+03  0.96300591475E+03  0.50001545012E+03 0.  0.
        3    1    3    3  502    0 -0.59746872699E+02  0.21495586086E+03 -0.62879505774E+03  0.66720232745E+03  0.10100000352E+00 0.  1.
       -3    1    3    3    0  502  0.59746872699E+02 -0.21495586086E+03 -0.19422677762E+03  0.29580358730E+03  0.10100000352E+00 0. -1.
</event>
<event>
 5   0  0.3211775E-03  0.4999837E+03  0.7818609E-02  0.1013783E+00
       -1   -1    0    0    0  501  0.00000000000E+00  0.00000000000E+00  0.34722459783E+03  0.34722459786E+03  0.50400001928E-02 0.  1.
        1   -1    0    0  501    0  0.00000000000E+00  0.00000000000E+00 -0.17998702608E+03  0.17998702615E+03  0.50400001928E-02 0. -1.
    10030    2    1    2    0    0  0.00000000000E+00  0.00000000000E+00  0.16723757175E+03  0.52721162402E+03  0.49998369083E+03 0.  0.
        4    1    3    3  502    0  0.16660130579E+03 -0.47499076800E+02  0.27366163787E+03  0.32388958355E+03  0.12699999809E+01 0.  1.
       -4    1    3    3    0  502 -0.16660130579E+03  0.47499076800E+02 -0.10642406613E+03  0.20332204047E+03  0.12699999809E+01 0. -1.
</event>
<event>
 5   0  0.3055293E-03  0.5003086E+03  0.7818609E-02  0.1013698E+00
       -1   -1    0    0    0  501  0.00000000000E+00  0.00000000000E+00  0.33222661148E+03  0.33222661152E+03  0.50400001928E-02 0.  1.
        1   -1    0    0  501    0  0.00000000000E+00  0.00000000000E+00 -0.18835686381E+03  0.18835686388E+03  0.50400001928E-02 0. -1.
    10030    2    1    2    0    0  0.00000000000E+00  0.00000000000E+00  0.14386974767E+03  0.52058347539E+03  0.50030855535E+03 0.  0.
        3    1    3    3  502    0  0.24102163051E+03  0.51181640549E+02  0.26985095497E+02  0.24786930484E+03  0.10100000352E+00 0. -1.
       -3    1    3    3    0  502 -0.24102163051E+03 -0.51181640549E+02  0.11688465218E+03  0.27271417055E+03  0.10100000352E+00 0.  1.
</event>
<event>
 5   0  0.2863538E-03  0.4999817E+03  0.7818609E-02  0.1013784E+00
       -1   -1    0    0    0  501  0.00000000000E+00  0.00000000000E+00  0.42241136916E+03  0.42241136919E+03  0.50400001928E-02 0.  1.
        1   -1    0    0  501    0  0.00000000000E+00  0.00000000000E+00 -0.14794921514E+03  0.14794921523E+03  0.50400001928E-02 0. -1.
    10030    2    1    2    0    0  0.00000000000E+00  0.00000000000E+00  0.27446215402E+03  0.57036058442E+03  0.49998172193E+03 0.  0.
        1    1    3    3  502    0  0.13258189933E+03 -0.12083394058E+02  0.37860814972E+03  0.40133290359E+03  0.50400001928E-02 0.  1.
       -1    1    3    3    0  502 -0.13258189933E+03  0.12083394058E+02 -0.10414599570E+03  0.16902768083E+03  0.50400001928E-02 0. -1.
</event>
<event>
 5   0  0.3055293E-03  0.5001282E+03  0.7818609E-02  0.1013745E+00
       -1   -1    0    0    0  501  0.00000000000E+00  0.00000000000E+00  0.14637991293E+03  0.14637991302E+03  0.50400001928E-02 0.  1.
        1   -1    0    0  501    0  0.00000000000E+00  0.00000000000E+00 -0.42719010894E+03  0.42719010897E+03  0.50400001928E-02 0. -1.
    10030    2    1    2    0    0  0.00000000000E+00  0.00000000000E+00 -0.28081019601E+03  0.57357002199E+03  0.50012818751E+03 0.  0.
        3    1    3    3  502    0  0.48580868644E+01  0.60932958602E+02 -0.41849010761E+03  0.42293073525E+03  0.10100000352E+00 0. -1.
       -3    1    3    3    0  502 -0.48580868644E+01 -0.60932958602E+02  0.13767991159E+03  0.15063928674E+03  0.10100000352E+00 0.  1.
</event>
<event>
 5   0  0.5118882E-03  0.4991580E+03  0.7818609E-02  0.1013999E+00
        2   -1    0    0  501    0  0.00000000000E+00  0.00000000000E+00  0.67481184569E+03  0.67481184569E+03  0.25500000920E-02 0. -1.
       -2   -1    0    0    0  501  0.00000000000E+00  0.00000000000E+00 -0.92306747659E+02  0.92306747694E+02  0.25500000920E-02 0.  1.
    10030    2    1    2    0    0  0.00000000000E+00  0.00000000000E+00  0.58250509803E+03  0.76711859339E+03  0.49915803819E+03 0.  0.
        3    1    3    3  502    0 -0.63368646968E+02 -0.23180095431E+03  0.39483055481E+03  0.46221039046E+03  0.10100000352E+00 0. -1.
       -3    1    3    3    0  502  0.63368646968E+02  0.23180095431E+03  0.18767454322E+03  0.30490820293E+03  0.10100000352E+00 0.  1.
</event>
<event>
 5   0  0.4989875E-03  0.5001786E+03  0.7818609E-02  0.1013732E+00
       -2   -1    0    0    0  501  0.00000000000E+00  0.00000000000E+00  0.64054858780E+02  0.64054858831E+02  0.25500000920E-02 0.  1.
        2   -1    0    0  501    0  0.00000000000E+00  0.00000000000E+00 -0.97642318303E+03  0.97642318304E+03  0.25500000920E-02 0. -1.
    10030    2    1    2    0    0  0.00000000000E+00  0.00000000000E+00 -0.91236832425E+03  0.10404780419E+04  0.50017856462E+03 0.  0.
        2    1    3    3  502    0  0.86810128960E+02 -0.29123007819E+02 -0.94029987660E+03  0.94474758852E+03  0.25500000920E-02 0. -1.
       -2    1    3    3    0  502 -0.86810128960E+02  0.29123007819E+02  0.27931552350E+02  0.95730453345E+02  0.25500000920E-02 0.  1.
</event>
<event>
 5   0  0.3057783E-03  0.5006823E+03  0.7818609E-02  0.1013601E+00
       -1   -1    0    0    0  501  0.00000000000E+00  0.00000000000E+00  0.56096991597E+02  0.56096991823E+02  0.50400001928E-02 0. -1.
        1   -1    0    0  501    0  0.00000000000E+00  0.00000000000E+00 -0.11171847356E+04  0.11171847356E+04  0.50400001928E-02 0.  1.
    10030    2    1    2    0    0  0.00000000000E+00  0.00000000000E+00 -0.10610877440E+04  0.11732817275E+04  0.50068234587E+03 0.  0.
        5    1    3    3  502    0 -0.17310480626E+03  0.74189713433E+02 -0.91687398924E+03  0.93602851969E+03  0.46999998093E+01 0.  1.
       -5    1    3    3    0  502  0.17310480626E+03 -0.74189713433E+02 -0.14421375480E+03  0.23725320778E+03  0.46999998093E+01 0. -1.
</event>
<event>
 5   0  0.5118882E-03  0.4996061E+03  0.7818609E-02  0.1013882E+00
        2   -1    0    0  501    0  0.00000000000E+00  0.00000000000E+00  0.13593833050E+04  0.13593833050E+04  0.25500000920E-02 0.  1.
       -2   -1    0    0    0  501  0.00000000000E+00  0.00000000000E+00 -0.45904316088E+02  0.45904316159E+02  0.25500000920E-02 0. -1.
    10030    2    1    2    0    0  0.00000000000E+00  0.00000000000E+00  0.13134789889E+04  0.14052876212E+04  0.49960608872E+03 0.  0.
        3    1    3    3  502    0  0.22841662619E+03  0.23344980918E+01  0.94112292216E+03  0.96844822774E+03  0.10100000352E+00 0.  1.
       -3    1    3    3    0  502 -0.22841662619E+03 -0.23344980918E+01  0.37235606678E+03  0.43683939345E+03  0.10100000352E+00 0. -1.
</event>
<event>
 5   0  0.4978779E-03  0.5000640E+03  0.7818609E-02  0.1013762E+00
       -2   -1    0    0    0  501  0.00000000000E+00  0.00000000000E+00  0.89149620700E+02  0.89149620736E+02  0.25500000920E-02 0. -1.
        2   -1    0    0  501    0  0.00000000000E+00  0.00000000000E+00 -0.70124815324E+03  0.70124815324E+03  0.25500000920E-02 0.  1.
    10030    2    1    2    0    0  0.00000000000E+00  0.00000000000E+00 -0.61209853254E+03  0.79039777398E+03  0.50006402348E+03 0.  0.
        1    1    3    3  502    0 -0.12945091851E+03 -0.15502360002E+03 -0.53902542715E+03  0.57561989890E+03  0.50400001928E-02 0.  1.
       -1    1    3    3    0  502  0.12945091851E+03  0.15502360002E+03 -0.73073105386E+02  0.21477787508E+03  0.50400001928E-02 0. -1.
</event>
<event>
 5   0  0.5095783E-03  0.5000220E+03  0.7818609E-02  0.1013773E+00
        2   -1    0    0  501    0  0.00000000000E+00  0.00000000000E+00  0.47515428853E+03  0.47515428854E+03  0.25500000920E-02 0.  1.
       -2   -1    0    0    0  501  0.00000000000E+00  0.00000000000E+00 -0.13154779210E+03  0.13154779212E+03  0.25500000920E-02 0. -1.
    10030    2    1    2    0    0  0.00000000000E+00  0.00000000000E+00  0.34360649644E+03  0.60670208066E+03  0.50002198980E+03 0.  0.
        4    1    3    3  502    0 -0.17914552345E+03  0.15096998618E+03  0.65894824566E+02  0.24336966965E+03  0.12699999809E+01 0. -1.
       -4    1    3    3    0  502  0.17914552345E+03 -0.15096998618E+03  0.27771167187E+03  0.36333241101E+03  0.12699999809E+01 0.  1.
</event>
<event>
 5   0  0.4989875E-03  0.5002132E+03  0.7818609E-02  0.1013723E+00
       -2   -1    0    0    0  501  0.00000000000E+00  0.00000000000E+00  0.21524565369E+02  0.21524565520E+02  0.25500000920E-02 0. -1.
        2   -1    0    0  501    0  0.00000000000E+00  0.00000000000E+00 -0.29061357454E+04  0.29061357454E+04  0.25500000920E-02 0.  1.
    10030    2    1    2    0    0  0.00000000000E+00  0.00000000000E+00 -0.28846111800E+04  0.29276603109E+04  0.50021319074E+03 0.  0.
        2    1    3    3  502    0 -0.23443372508E+03 -0.47704004607E+02 -0.10154718719E+04  0.10432727190E+04  0.25500000920E-02 0. -1.
       -2    1    3    3    0  502  0.23443372508E+03  0.47704004607E+02 -0.18691393081E+04  0.18843875919E+04  0.25500000920E-02 0.  1.
</event>
<event>
 5   0  0.3057783E-03  0.5000215E+03  0.7818609E-02  0.1013773E+00
        1   -1    0    0  501    0  0.00000000000E+00  0.00000000000E+00  0.10735164924E+04  0.10735164925E+04  0.50400001928E-02 0. -1.
       -1   -1    0    0    0  501  0.00000000000E+00  0.00000000000E+00 -0.58224892090E+02  0.58224892308E+02  0.50400001928E-02 0.  1.
    10030    2    1    2    0    0  0.00000000000E+00  0.00000000000E+00  0.10152916004E+04  0.11317413848E+04  0.50002152777E+03 0.  0.
        5    1    3    3  502    0 -0.19777309667E+03 -0.51979395829E+02  0.18225917226E+03  0.27396450724E+03  0.46999998093E+01 0.  1.
       -5    1    3    3    0  502  0.19777309667E+03  0.51979395829E+02  0.83303242809E+03  0.85777687752E+03  0.46999998093E+01 0. -1.
</event>
<event>
 5   0  0.4989875E-03  0.4990319E+03  0.7818609E-02  0.1014032E+00
       -2   -1    0    0    0  501  0.00000000000E+00  0.00000000000E+00  0.63662333153E+02  0.63662333204E+02  0.25500000920E-02 0. -1.
        2   -1    0    0  501    0  0.00000000000E+00  0.00000000000E+00 -0.97794434582E+03  0.97794434582E+03  0.25500000920E-02 0.  1.
    10030    2    1    2    0    0  0.00000000000E+00  0.00000000000E+00 -0.91428201266E+03  0.10416066790E+04  0.49903193796E+03 0.  0.
        2    1    3    3  502    0  0.14467272794E+03  0.11202146633E+03 -0.10305002843E+03  0.20999598923E+03  0.25500000920E-02 0. -1.
       -2    1    3    3    0  502 -0.14467272794E+03 -0.11202146633E+03 -0.81123198423E+03  0.83161068979E+03  0.25500000920E-02 0.  1.
</event>
<event>
 5   0  0.3057783E-03  0.4999783E+03  0.7818609E-02  0.1013785E+00
        1   -1    0    0  501    0  0.00000000000E+00  0.00000000000E+00  0.39272868124E+03  0.39272868127E+03  0.50400001928E-02 0.  1.
       -1   -1    0    0    0  501  0.00000000000E+00  0.00000000000E+00 -0.15912915534E+03  0.15912915542E+03  0.50400001928E-02 0. -1.
    10030    2    1    2    0    0  0.00000000000E+00  0.00000000000E+00  0.23359952590E+03  0.55185783668E+03  0.49997833294E+03 0.  0.
        5    1    3    3  502    0 -0.36576512789E+02  0.37700357664E+02 -0.15291933217E+03  0.16175775222E+03  0.46999998093E+01 0. -1.
       -5    1    3    3    0  502  0.36576512789E+02 -0.37700357664E+02  0.38651885807E+03  0.39010008446E+03  0.46999998093E+01 0.  1.
</event>
<event>
 5   0  0.3013734E-03  0.4999560E+03  0.7818609E-02  0.1013790E+00
        1   -1    0    0  501    0  0.00000000000E+00  0.00000000000E+00  0.31897415939E+03  0.31897415943E+03  0.50400001928E-02 0.  1.
       -1   -1    0    0    0  501  0.00000000000E+00  0.00000000000E+00 -0.19590617233E+03  0.19590617239E+03  0.50400001928E-02 0. -1.
    10030    2    1    2    0    0  0.00000000000E+00  0.00000000000E+00  0.12306798707E+03  0.51488033183E+03  0.49995602473E+03 0.  0.
        2    1    3    3  502    0  0.16057807856E+03 -0.17108771936E+03 -0.27252560993E+02  0.23621818117E+03  0.25500000920E-02 0. -1.
       -2    1    3    3    0  502 -0.16057807856E+03  0.17108771936E+03  0.15032054806E+03  0.27866215065E+03  0.25500000920E-02 0.  1.
</event>
<event>
 5   0  0.3013734E-03  0.4992992E+03  0.7818609E-02  0.1013962E+00
        1   -1    0    0  501    0  0.00000000000E+00  0.00000000000E+00  0.14606016061E+03  0.14606016070E+03  0.50400001928E-02 0.  1.
       -1   -1    0    0    0  501  0.00000000000E+00  0.00000000000E+00 -0.42670712505E+03  0.42670712508E+03  0.50400001928E-02 0. -1.
    10030    2    1    2    0    0  0.00000000000E+00  0.00000000000E+00 -0.28064696444E+03  0.57276728577E+03  0.49929915382E+03 0.  0.
        2    1    3    3  502    0 -0.51596832675E+02  0.19529303965E+03 -0.30861873766E+03  0.36884567195E+03  0.25500000920E-02 0. -1.
       -2    1    3    3    0  502  0.51596832675E+02 -0.19529303965E+03  0.27971773221E+02  0.20392161382E+03  0.25500000920E-02 0.  1.
</event>
<event>
 5   0  0.3013734E-03  0.4995987E+03  0.7818609E-02  0.1013884E+00
        1   -1    0    0  501    0  0.00000000000E+00  0.00000000000E+00  0.21429990325E+03  0.21429990331E+03  0.50400001928E-02 0.  1.
       -1   -1    0    0    0  501  0.00000000000E+00  0.00000000000E+00 -0.29117944841E+03  0.29117944846E+03  0.50400001928E-02 0. -1.
    10030    2    1    2    0    0  0.00000000000E+00  0.00000000000E+00 -0.76879545160E+02  0.50547935177E+03  0.49959874960E+03 0.  0.
        2    1    3    3  502    0  0.23760794453E+03  0.73131554153E+02 -0.13781443261E+02  0.24898933250E+03  0.25500000920E-02 0.  1.
       -2    1    3    3    0  502 -0.23760794453E+03 -0.73131554153E+02 -0.63098101898E+02  0.25649001927E+03  0.25500000920E-02 0. -1.
</event>
<event>
 5   0  0.4978779E-03  0.5001054E+03  0.7818609E-02  0.1013751E+00
       -2   -1    0    0    0  501  0.00000000000E+00  0.00000000000E+00  0.40368623057E+03  0.40368623057E+03  0.25500000920E-02 0.  1.
        2   -1    0    0  501    0  0.00000000000E+00  0.00000000000E+00 -0.15488851233E+03  0.15488851235E+03  0.25500000920E-02 0. -1.
    10030    2    1    2    0    0  0.00000000000E+00  0.00000000000E+00  0.24879771824E+03  0.55857474292E+03  0.50010542771E+03 0.  0.
        1    1    3    3  502    0 -0.21964581221E+03  0.85409807001E+02  0.21776138877E+03  0.32087246753E+03  0.50400001928E-02 0.  1.
       -1    1    3    3    0  502  0.21964581221E+03 -0.85409807001E+02  0.31036329474E+02  0.23770227539E+03  0.50400001928E-02 0. -1.
</event>
<event>
 5   0  0.5095783E-03  0.4994158E+03  0.7818609E-02  0.1013932E+00
        2   -1    0    0  501    0  0.00000000000E+00  0.00000000000E+00  0.17704568054E+03  0.17704568056E+03  0.25500000920E-02 0.  1.
       -2   -1    0    0    0  501  0.00000000000E+00  0.00000000000E+00 -0.35219174891E+03  0.35219174892E+03  0.25500000920E-02 0. -1.
    10030    2    1    2    0    0  0.00000000000E+00  0.00000000000E+00 -0.17514606837E+03  0.52923742948E+03  0.49941577017E+03 0.  0.
        4    1    3    3  502    0 -0.89243925457E+02  0.33892169571E+02  0.15694128355E+03  0.18369903857E+03  0.12699999809E+01 0.  1.
       -4    1    3    3    0  502  0.89243925457E+02 -0.33892169571E+02 -0.33208735192E+03  0.34553839091E+03  0.12699999809E+01 0. -1.
</event>
<event>
 5   0  0.2005125E-03  0.4999931E+03  0.7818609E-02  0.1013781E+00
       -3   -1    0    0    0  501  0.00000000000E+00  0.00000000000E+00  0.20564447232E+03  0.20564449712E+03  0.10100000352E+00 0.  1.
        3   -1    0    0  501    0  0.00000000000E+00  0.00000000000E+00 -0.30391417460E+03  0.30391419138E+03  0.10100000352E+00 0. -1.
    10030    2    1    2    0    0  0.00000000000E+00  0.00000000000E+00 -0.98269702277E+02  0.50955868850E+03  0.49999312259E+03 0.  0.
        3    1    3    3  502    0 -0.21348305563E+03  0.51417622501E+02 -0.17091778438E+03  0.27826549582E+03  0.10100000352E+00 0. -1.
       -3    1    3    3    0  502  0.21348305563E+03 -0.51417622501E+02  0.72648082098E+02  0.23129319268E+03  0.10100000352E+00 0.  1.
</event>
<event>
 5   0  0.3055293E-03  0.4999633E+03  0.7818609E-02  0.1013789E+00
        1   -1    0    0  501    0  0.00000000000E+00  0.00000000000E+00  0.45933487017E+03  0.45933487020E+03  0.50400001928E-02 0. -1.
       -1   -1    0    0    0  501  0.00000000000E+00  0.00000000000E+00 -0.13604630729E+03  0.13604630738E+03  0.50400001928E-02 0.  1.
    10030    2    1    2    0    0  0.00000000000E+00  0.00000000000E+00  0.32328856289E+03  0.59538117758E+03  0.49996325037E+03 0.  0.
        3    1    3    3  502    0 -0.20473574007E+03 -0.10626863346E+03  0.27636866640E+03  0.35998527149E+03  0.10100000352E+00 0. -1.
       -3    1    3    3    0  502  0.20473574007E+03  0.10626863346E+03  0.46919896483E+02  0.23539590609E+03  0.10100000352E+00 0.  1.
</event>
<event>
 5   0  0.5118882E-03  0.5001425E+03  0.7818609E-02  0.1013742E+00
        2   -1    0    0  501    0  0.00000000000E+00  0.00000000000E+00  0.19052262466E+04  0.19052262466E+04  0.25500000920E-02 0. -1.
       -2   -1    0    0    0  501  0.00000000000E+00  0.00000000000E+00 -0.32823208203E+02  0.32823208302E+02  0.25500000920E-02 0.  1.
    10030    2    1    2    0    0  0.00000000000E+00  0.00000000000E+00  0.18724030384E+04  0.19380494549E+04  0.50014253114E+03 0.  0.
        3    1    3    3  502    0  0.21522262464E+03 -0.29118369035E+02  0.14165596989E+04  0.14331120153E+04  0.10100000352E+00 0. -1.
       -3    1    3    3    0  502 -0.21522262464E+03  0.29118369035E+02  0.45584333946E+03  0.50493743959E+03  0.10100000352E+00 0.  1.
</event>
<event>
 5   0  0.3055293E-03  0.5002819E+03  0.7818609E-02  0.1013705E+00
        1   -1    0    0  501    0  0.00000000000E+00  0.00000000000E+00  0.97954482910E+02  0.97954483040E+02  0.50400001928E-02 0.  1.
       -1   -1    0    0    0  501  0.00000000000E+00  0.00000000000E+00 -0.63877124016E+03  0.63877124018E+03  0.50400001928E-02 0. -1.
    10030    2    1    2    0    0  0.00000000000E+00  0.00000000000E+00 -0.54081675725E+03  0.73672572321E+03  0.50028194684E+03 0.  0.
        3    1    3    3  502    0  0.35761488449E+02 -0.24673460912E+03 -0.24045782289E+03  0.34637671138E+03  0.10100000352E+00 0.  1.
       -3    1    3    3    0  502 -0.35761488449E+02  0.24673460912E+03 -0.30035893436E+03  0.39034901184E+03  0.10100000352E+00 0. -1.
</event>
<event>
 5   0  0.3013734E-03  0.5002100E+03  0.7818609E-02  0.1013724E+00
        1   -1    0    0  501    0  0.00000000000E+00  0.00000000000E+00  0.13714390287E+03  0.13714390296E+03  0.50400001928E-02 0. -1.
       -1   -1    0    0    0  501  0.00000000000E+00  0.00000000000E+00 -0.45610853260E+03  0.45610853262E+03  0.50400001928E-02 0.  1.
    10030    2    1    2    0    0  0.00000000000E+00  0.00000000000E+00 -0.31896462973E+03  0.59325243558E+03  0.50020997322E+03 0.  0.
        2    1    3    3  502    0 -0.12170739624E+03  0.10148922795E+02  0.99373863089E+02  0.15745112132E+03  0.25500000920E-02 0. -1.
       -2    1    3    3    0  502  0.12170739624E+03 -0.10148922795E+02 -0.41833849282E+03  0.43580131426E+03  0.25500000920E-02 0.  1.
</event>
<event>
 5   0  0.4989875E-03  0.4999665E+03  0.7818609E-02  0.1013788E+00
       -2   -1    0    0    0  501  0.00000000000E+00  0.00000000000E+00  0.71154547613E+02  0.71154547659E+02  0.25500000920E-02 0. -1.
        2   -1    0    0  501    0  0.00000000000E+00  0.00000000000E+00 -0.87825203229E+03  0.87825203229E+03  0.25500000920E-02 0.  1.
    10030    2    1    2    0    0  0.00000000000E+00  0.00000000000E+00 -0.80709748468E+03  0.94940657995E+03  0.49996650316E+03 0.  0.
        2    1    3    3  502    0 -0.19432305484E+02 -0.23350595320E+03 -0.56897447730E+03  0.61533291843E+03  0.25500000920E-02 0.  1.
       -2    1    3    3    0  502  0.19432305484E+02  0.23350595320E+03 -0.23812300738E+03  0.33407366152E+03  0.25500000920E-02 0. -1.
</event>
<event>
 5   0  0.3057783E-03  0.5004770E+03  0.7818609E-02  0.1013654E+00
        1   -1    0    0  501    0  0.00000000000E+00  0.00000000000E+00  0.48760778219E+03  0.48760778221E+03  0.50400001928E-02 0.  1.
       -1   -1    0    0    0  501  0.00000000000E+00  0.00000000000E+00 -0.12842144245E+03  0.12842144255E+03  0.50400001928E-02 0. -1.
    10030    2    1    2    0    0  0.00000000000E+00  0.00000000000E+00  0.35918633974E+03  0.61602922476E+03  0.50047695162E+03 0.  0.
        5    1    3    3  502    0  0.20073910750E+03 -0.11204215317E+02  0.36288949541E+03  0.41488865928E+03  0.46999998093E+01 0.  1.
       -5    1    3    3    0  502 -0.20073910750E+03  0.11204215317E+02 -0.37031556749E+01  0.20114056548E+03  0.46999998093E+01 0. -1.
</event>
<event>
 5   0  0.2863538E-03  0.5000686E+03  0.7818609E-02  0.1013761E+00
        1   -1    0    0  501    0  0.00000000000E+00  0.00000000000E+00  0.96510415038E+03  0.96510415039E+03  0.50400001928E-02 0. -1.
       -1   -1    0    0    0  501  0.00000000000E+00  0.00000000000E+00 -0.64777622684E+02  0.64777622880E+02  0.50400001928E-02 0.  1.
    10030    2    1    2    0    0  0.00000000000E+00  0.00000000000E+00  0.90032652769E+03  0.10298817733E+04  0.50006860574E+03 0.  0.
        1    1    3    3  502    0  0.20952387619E+03  0.13241358646E+03  0.38237098102E+03  0.45567661749E+03  0.50400001928E-02 0.  1.
       -1    1    3    3    0  502 -0.20952387619E+03 -0.13241358646E+03  0.51795554668E+03  0.57420515579E+03  0.50400001928E-02 0. -1.
</event>
<event>
 5   0  0.5095783E-03  0.4999469E+03  0.7818609E-02  0.1013793E+00
        2   -1    0    0  501    0  0.00000000000E+00  0.00000000000E+00  0.56965993486E+03  0.56965993486E+03  0.25500000920E-02 0. -1.
       -2   -1    0    0    0  501  0.00000000000E+00  0.00000000000E+00 -0.10969127845E+03  0.10969127848E+03  0.25500000920E-02 0.  1.
    10030    2    1    2    0    0  0.00000000000E+00  0.00000000000E+00  0.45996865641E+03  0.67935121334E+03  0.49994690336E+03 0.  0.
        4    1    3    3  502    0 -0.34358312379E+02 -0.11802103714E+03 -0.65781561208E+02  0.13942125208E+03  0.12699999809E+01 0.  1.
       -4    1    3    3    0  502  0.34358312379E+02  0.11802103714E+03  0.52575021762E+03  0.53992996126E+03  0.12699999809E+01 0. -1.
</event>
<event>
 5   0  0.2863538E-03  0.5001357E+03  0.7818609E-02  0.1013744E+00
        1   -1    0    0  501    0  0.00000000000E+00  0.00000000000E+00  0.10235865431E+04  0.10235865431E+04  0.50400001928E-02 0. -1.
       -1   -1    0    0    0  501  0.00000000000E+00  0.00000000000E+00 -0.61092958257E+02  0.61092958465E+02  0.50400001928E-02 0.  1.
    10030    2    1    2    0    0  0.00000000000E+00  0.00000000000E+00  0.96249358487E+03  0.10846795016E+04  0.50013570187E+03 0.  0.
        1    1    3    3  502    0  0.43362142642E+02 -0.85351015277E+02 -0.19776058220E+02  0.97755632715E+02  0.50400001928E-02 0.  1.
       -1    1    3    3    0  502 -0.43362142642E+02  0.85351015277E+02  0.98226964309E+03  0.98692386889E+03  0.50400001928E-02 0. -1.
</event>
<event>
 5   0  0.5095783E-03  0.5001547E+03  0.7818609E-02  0.1013739E+00
        2   -1    0    0  501    0  0.00000000000E+00  0.00000000000E+00  0.60608740115E+03  0.60608740115E+03  0.25500000920E-02 0.  1.
       -2   -1    0    0    0  501  0.00000000000E+00  0.00000000000E+00 -0.10318427548E+03  0.10318427551E+03  0.25500000920E-02 0. -1.
    10030    2    1    2    0    0  0.00000000000E+00  0.00000000000E+00  0.50290312567E+03  0.70927167666E+03  0.50015473356E+03 0.  0.
        4    1    3    3  502    0  0.17202294738E+03 -0.17820230887E+03  0.30035292126E+03  0.38930893583E+03  0.12699999809E+01 0.  1.
       -4    1    3    3    0  502 -0.17202294738E+03  0.17820230887E+03  0.20255020442E+03  0.31996274083E+03  0.12699999809E+01 0. -1.
</event>
<event>
 5   0  0.4889251E-03  0.5001176E+03  0.7818609E-02  0.1013748E+00
        2   -1    0    0  501    0  0.00000000000E+00  0.00000000000E+00  0.19189074340E+03  0.19189074342E+03  0.25500000920E-02 0. -1.
       -2   -1    0    0    0  501  0.00000000000E+00  0.00000000000E+00 -0.32585946657E+03  0.32585946658E+03  0.25500000920E-02 0.  1.
    10030    2    1    2    0    0  0.00000000000E+00  0.00000000000E+00 -0.13396872317E+03  0.51775021000E+03  0.50011764733E+03 0.  0.
        5    1    3    3  502    0 -0.15289394021E+03 -0.10561200322E+01 -0.27177075724E+03  0.31186392358E+03  0.46999998093E+01 0.  1.
       -5    1    3    3    0  502  0.15289394021E+03  0.10561200322E+01  0.13780203407E+03  0.20588628642E+03  0.46999998093E+01 0. -1.
</event>
<event>
 5   0  0.3211775E-03  0.4998563E+03  0.7818609E-02  0.1013816E+00
       -1   -1    0    0    0  501  0.00000000000E+00  0.00000000000E+00  0.10582131645E+03  0.10582131657E+03  0.50400001928E-02 0.  1.
        1   -1    0    0  501    0  0.00000000000E+00  0.00000000000E+00 -0.59027881437E+03  0.59027881439E+03  0.50400001928E-02 0. -1.
    10030    2    1    2    0    0  0.00000000000E+00  0.00000000000E+00 -0.48445749792E+03  0.69610013096E+03  0.49985630437E+03 0.  0.
        4    1    3    3  502    0 -0.77129415488E+02 -0.19970935746E+03 -0.42181317568E+03  0.47303355301E+03  0.12699999809E+01 0. -1.
       -4    1    3    3    0  502  0.77129415488E+02  0.19970935746E+03 -0.62644322241E+02  0.22306657795E+03  0.12699999809E+01 0.  1.
</event>
<event>
 5   0  0.4889251E-03  0.5000840E+03  0.7818609E-02  0.1013757E+00
       -2   -1    0    0    0  501  0.00000000000E+00  0.00000000000E+00  0.86457221695E+02  0.86457221733E+02  0.25500000920E-02 0.  1.
        2   -1    0    0  501    0  0.00000000000E+00  0.00000000000E+00 -0.72314391894E+03  0.72314391894E+03  0.25500000920E-02 0. -1.
    10030    2    1    2    0    0  0.00000000000E+00  0.00000000000E+00 -0.63668669724E+03  0.80960114067E+03  0.50008404947E+03 0.  0.
        5    1    3    3  502    0 -0.67184143739E+02  0.62652503953E+02  0.58070542551E+02  0.10878107984E+03  0.46999998093E+01 0.  1.
       -5    1    3    3    0  502  0.67184143739E+02 -0.62652503953E+02 -0.69475723979E+03  0.70082006083E+03  0.46999998093E+01 0. -1.
</event>
<event>
 5   0  0.2005125E-03  0.5003200E+03  0.7818609E-02  0.1013695E+00
        4   -1    0    0  501    0  0.00000000000E+00  0.00000000000E+00  0.88107354866E+02  0.88116507428E+02  0.12699999809E+01 0.  1.
       -4   -1    0    0    0  501  0.00000000000E+00  0.00000000000E+00 -0.71022359003E+03  0.71022472551E+03  0.12699999809E+01 0. -1.
    10030    2    1    2    0    0  0.00000000000E+00  0.00000000000E+00 -0.62211623516E+03  0.79834123294E+03  0.50032001176E+03 0.  0.
        1    1    3    3  502    0 -0.12821814092E+03 -0.21387837027E+03 -0.34281857390E+03  0.42392030332E+03  0.50400001928E-02 0. -1.
       -1    1    3    3    0  502  0.12821814092E+03  0.21387837027E+03 -0.27929766126E+03  0.37442092962E+03  0.50400001928E-02 0.  1.
</event>
<event>
 5   0  0.2005125E-03  0.5000171E+03  0.7818609E-02  0.1013774E+00
        3   -1    0    0  501    0  0.00000000000E+00  0.00000000000E+00  0.65823407194E+03  0.65823407969E+03  0.10100000352E+00 0. -1.
       -3   -1    0    0    0  501  0.00000000000E+00  0.00000000000E+00 -0.94957493134E+02  0.94957546848E+02  0.10100000352E+00 0.  1.
    10030    2    1    2    0    0  0.00000000000E+00  0.00000000000E+00  0.56327657880E+03  0.75319162653E+03  0.50001712176E+03 0.  0.
        3    1    3    3  502    0 -0.21379702479E+03 -0.92249824971E+02  0.14452840693E+03  0.27405778337E+03  0.10100000352E+00 0.  1.
       -3    1    3    3    0  502  0.21379702479E+03  0.92249824971E+02  0.41874817188E+03  0.47913384317E+03  0.10100000352E+00 0. -1.
</event>
<event>
 5   0  0.4989875E-03  0.5002134E+03  0.7818609E-02  0.1013723E+00
        2   -1    0    0  501    0  0.00000000000E+00  0.00000000000E+00  0.26617785547E+03  0.26617785548E+03  0.25500000920E-02 0. -1.
       -2   -1    0    0    0  501  0.00000000000E+00  0.00000000000E+00 -0.23500584271E+03  0.23500584272E+03  0.25500000920E-02 0.  1.
    10030    2    1    2    0    0  0.00000000000E+00  0.00000000000E+00  0.31172012763E+02  0.50118369821E+03  0.50021335945E+03 0.  0.
        2    1    3    3  502    0 -0.17107379837E+03 -0.17973032534E+03  0.47017498229E+02  0.25254678672E+03  0.25500000920E-02 0. -1.
       -2    1    3    3    0  502  0.17107379837E+03  0.17973032534E+03 -0.15845485465E+02  0.24863691149E+03  0.25500000920E-02 0.  1.
</event>
<event>
 5   0  0.3055293E-03  0.5001537E+03  0.7818609E-02  0.1013739E+00
        1   -1    0    0  501    0  0.00000000000E+00  0.00000000000E+00  0.44406774026E+03  0.44406774029E+03  0.50400001928E-02 0.  1.
       -1   -1    0    0    0  501  0.00000000000E+00  0.00000000000E+00 -0.14083082271E+03  0.14083082280E+03  0.50400001928E-02 0. -1.
    10030    2    1    2    0    0  0.00000000000E+00  0.00000000000E+00  0.30323691755E+03  0.58489856309E+03  0.50015367732E+03 0.  0.
        3    1    3    3  502    0  0.56763375068E+02  0.93245164228E+02  0.41473329540E+03  0.42885948505E+03  0.10100000352E+00 0.  1.
       -3    1    3    3    0  502 -0.56763375068E+02 -0.93245164228E+02 -0.11149637785E+03  0.15603907804E+03  0.10100000352E+00 0. -1.
</event>
</LesHouchesEvents>
